<event>
 9    1  0.8175317E-001  0.2903739E+03  0.7818608E-02  0.1090154E+00
          2   -1    0    0  501    0  0.00000000000E+00  0.00000000000E+00  0.21147757573E+04  0.21147757573E+04  0.00000000000E+00 0. -1.
         -2   -1    0    0    0  501 -0.00000000000E+00 -0.00000000000E+00 -0.99676064295E+01  0.99676064295E+01  0.00000000000E+00 0. -1.
         35    2    1    2    0    0  0.35527136788E-14  0.14210854715E-13  0.21048081509E+04  0.21247433637E+04  0.29037391367E+03 0.  0.
         25    2    3    3    0    0 -0.76944312210E+01 -0.64032881385E+02  0.78049051324E+03  0.79300272880E+03  0.12461329163E+03 0.  0.
         25    2    3    3    0    0  0.76944312210E+01  0.64032881385E+02  0.13243176376E+04  0.13317406349E+04  0.12472569592E+03 0.  0.
          5    1    4    4  502    0 -0.44632654262E+01 -0.82456902704E+02  0.27559642717E+03  0.28774040768E+03  0.47000000000E+01 0.  1.
         -5    1    4    4    0  502 -0.32311657949E+01  0.18424021318E+02  0.50489408607E+03  0.50526232112E+03  0.47000000000E+01 0.  1.
          5    1    5    5  503    0 -0.47641482499E+02  0.20916476058E+02  0.91012120579E+03  0.91161938826E+03  0.47000000000E+01 0. -1.
         -5    1    5    5    0  503  0.55335913720E+02  0.43116405327E+02  0.41419643185E+03  0.42012124668E+03  0.47000000000E+01 0. -1.
<mgrwt>
<rscale>  0 0.29037391E+03</rscale>
<asrwt>0</asrwt>
<pdfrwt beam="1">  1        2 0.32534976E+00 0.29037391E+03</pdfrwt>
<pdfrwt beam="2">  1       -2 0.15334796E-02 0.29037391E+03</pdfrwt>
<totfact> 0.73838295E+03</totfact>
</mgrwt>
</event>
<event>
 9    1  0.8175317E-001  0.2826838E+03  0.7818608E-02  0.1094232E+00
         -2   -1    0    0    0  501 -0.00000000000E+00  0.00000000000E+00  0.37052083666E+02  0.37052083666E+02  0.00000000000E+00 0. -1.
          2   -1    0    0  501    0  0.00000000000E+00 -0.00000000000E+00 -0.53917420134E+03  0.53917420134E+03  0.00000000000E+00 0. -1.
         35    2    1    2    0    0  0.35527136788E-14  0.71054273576E-14 -0.50212211767E+03  0.57622628500E+03  0.28268376408E+03 0.  0.
         25    2    3    3    0    0 -0.22213609810E+02 -0.42772840236E+02 -0.34400120982E+03  0.36927622141E+03  0.12532013015E+03 0.  0.
         25    2    3    3    0    0  0.22213609810E+02  0.42772840236E+02 -0.15812090786E+03  0.20695006360E+03  0.12451163399E+03 0.  0.
          5    1    4    4  502    0 -0.87498510052E+01 -0.19478526010E+00  0.90155247332E+01  0.13415197357E+02  0.47000000000E+01 0. -1.
         -5    1    4    4    0  502 -0.13463758805E+02 -0.42578054976E+02 -0.35301673455E+03  0.35586102405E+03  0.47000000000E+01 0. -1.
          5    1    5    5  503    0  0.67762141520E+02  0.17704954635E+02 -0.47866436847E+02  0.84961514926E+02  0.47000000000E+01 0.  1.
         -5    1    5    5    0  503 -0.45548531710E+02  0.25067885602E+02 -0.11025447101E+03  0.12198854867E+03  0.47000000000E+01 0.  1.
<mgrwt>
<rscale>  0 0.28268376E+03</rscale>
<asrwt>0</asrwt>
<pdfrwt beam="1">  1        2 0.82949871E-01 0.28268376E+03</pdfrwt>
<pdfrwt beam="2">  1       -2 0.57003210E-02 0.28268376E+03</pdfrwt>
<totfact> 0.91128868E+03</totfact>
</mgrwt>
</event>
<event>
 9    1  0.8175317E-001  0.2754876E+03  0.7818608E-02  0.1098179E+00
         -2   -1    0    0    0  501 -0.00000000000E+00  0.00000000000E+00  0.79599294400E+01  0.79599294400E+01  0.00000000000E+00 0. -1.
          2   -1    0    0  501    0  0.00000000000E+00 -0.00000000000E+00 -0.23836082370E+04  0.23836082370E+04  0.00000000000E+00 0. -1.
         35    2    1    2    0    0  0.00000000000E+00  0.35527136788E-14 -0.23756483076E+04  0.23915681664E+04  0.27548759231E+03 0.  0.
         25    2    3    3    0    0 -0.34199887758E+02 -0.15085037119E+02 -0.15737442194E+04  0.15791808145E+04  0.12547504080E+03 0.  0.
         25    2    3    3    0    0  0.34199887758E+02  0.15085037119E+02 -0.80190408812E+03  0.81238735198E+03  0.12460277866E+03 0.  0.
          5    1    4    4  502    0  0.30341896970E+02 -0.13202909970E+02 -0.13843892478E+03  0.14241619795E+03  0.47000000000E+01 0. -1.
         -5    1    4    4    0  502 -0.64541784729E+02 -0.18821271486E+01 -0.14353052947E+04  0.14367646165E+04  0.47000000000E+01 0. -1.
          5    1    5    5  503    0  0.30103273491E+02  0.45956173679E+02 -0.15151293034E+03  0.16123410009E+03  0.47000000000E+01 0. -1.
         -5    1    5    5    0  503  0.40966142674E+01 -0.30871136560E+02 -0.65039115778E+03  0.65115325189E+03  0.47000000000E+01 0. -1.
<mgrwt>
<rscale>  0 0.27548759E+03</rscale>
<asrwt>0</asrwt>
<pdfrwt beam="1">  1        2 0.36670941E+00 0.27548759E+03</pdfrwt>
<pdfrwt beam="2">  1       -2 0.12246030E-02 0.27548759E+03</pdfrwt>
<totfact> 0.73661080E+03</totfact>
</mgrwt>
</event>
<event>
 9    1  0.8175317E-001  0.2777005E+03  0.7818608E-02  0.1096952E+00
         -2   -1    0    0    0  501 -0.00000000000E+00  0.00000000000E+00  0.66329173471E+03  0.66329173471E+03  0.00000000000E+00 0.  1.
          2   -1    0    0  501    0  0.00000000000E+00 -0.00000000000E+00 -0.29066237881E+02  0.29066237881E+02  0.00000000000E+00 0.  1.
         35    2    1    2    0    0 -0.35527136788E-14  0.71054273576E-14  0.63422549683E+03  0.69235797259E+03  0.27770052464E+03 0.  0.
         25    2    3    3    0    0 -0.24528742069E+02 -0.54750537316E+02  0.33576770571E+03  0.36316974265E+03  0.12471178474E+03 0.  0.
         25    2    3    3    0    0  0.24528742069E+02  0.54750537316E+02  0.29845779111E+03  0.32918822994E+03  0.12525397052E+03 0.  0.
          5    1    4    4  502    0  0.47275387921E+02 -0.17296127112E+01  0.14282461128E+03  0.15052877947E+03  0.47000000000E+01 0. -1.
         -5    1    4    4    0  502 -0.71804129991E+02 -0.53020924605E+02  0.19294309444E+03  0.21264096318E+03  0.47000000000E+01 0. -1.
          5    1    5    5  503    0 -0.17917938595E+02 -0.72053561503E+01  0.21845555001E+03  0.21935789708E+03  0.47000000000E+01 0.  1.
         -5    1    5    5    0  503  0.42446680664E+02  0.61955893467E+02  0.80002241099E+02  0.10983033286E+03  0.47000000000E+01 0.  1.
<mgrwt>
<rscale>  0 0.27770052E+03</rscale>
<asrwt>0</asrwt>
<pdfrwt beam="1">  1        2 0.44717294E-02 0.27770052E+03</pdfrwt>
<pdfrwt beam="2">  1       -2 0.10204487E+00 0.27770052E+03</pdfrwt>
<totfact> 0.14918496E+03</totfact>
</mgrwt>
</event>
<event>
 9    1  0.8175317E-001  0.2820314E+03  0.7818608E-02  0.1094585E+00
          1   -1    0    0  501    0  0.00000000000E+00  0.00000000000E+00  0.49798978121E+03  0.49798978121E+03  0.00000000000E+00 0. -1.
         -1   -1    0    0    0  501 -0.00000000000E+00 -0.00000000000E+00 -0.39931398116E+02  0.39931398116E+02  0.00000000000E+00 0. -1.
         35    2    1    2    0    0  0.71054273576E-14 -0.71054273576E-14  0.45805838310E+03  0.53792117933E+03  0.28203140401E+03 0.  0.
         25    2    3    3    0    0  0.34595996989E+02 -0.50140889099E+02  0.25591570729E+03  0.29296293163E+03  0.12893191345E+03 0.  0.
         25    2    3    3    0    0 -0.34595996989E+02  0.50140889099E+02  0.20214267580E+03  0.24495824769E+03  0.12422515834E+03 0.  0.
          5    1    4    4  502    0  0.36979892770E+02 -0.85198335936E+02  0.23267859613E+03  0.25057471543E+03  0.47000000000E+01 0.  1.
         -5    1    4    4    0  502 -0.23838957813E+01  0.35057446836E+02  0.23237111158E+02  0.42388216201E+02  0.47000000000E+01 0.  1.
          5    1    5    5  503    0  0.19135373911E+02 -0.28701132151E+02  0.22369404980E+02  0.41381128557E+02  0.47000000000E+01 0. -1.
         -5    1    5    5    0  503 -0.53731370899E+02  0.78842021251E+02  0.17977327082E+03  0.20357711914E+03  0.47000000000E+01 0. -1.
<mgrwt>
<rscale>  0 0.28203140E+03</rscale>
<asrwt>0</asrwt>
<pdfrwt beam="1">  1        1 0.76613808E-01 0.28203140E+03</pdfrwt>
<pdfrwt beam="2">  1       -1 0.61432924E-02 0.28203140E+03</pdfrwt>
<totfact> 0.58315275E+03</totfact>
</mgrwt>
</event>
<event>
 9    1  0.8175317E-001  0.2713688E+03  0.7818608E-02  0.1100499E+00
          2   -1    0    0  501    0  0.00000000000E+00  0.00000000000E+00  0.23472785825E+04  0.23472785825E+04  0.00000000000E+00 0.  1.
         -2   -1    0    0    0  501 -0.00000000000E+00 -0.00000000000E+00 -0.78432361361E+01  0.78432361361E+01  0.00000000000E+00 0.  1.
         35    2    1    2    0    0  0.00000000000E+00 -0.35527136788E-14  0.23394353464E+04  0.23551218187E+04  0.27136882798E+03 0.  0.
         25    2    3    3    0    0 -0.41773079624E+02 -0.37993403262E+01  0.14491051346E+04  0.14551376043E+04  0.12554015716E+03 0.  0.
         25    2    3    3    0    0  0.41773079624E+02  0.37993403262E+01  0.89033021176E+03  0.89998421437E+03  0.12459644845E+03 0.  0.
          5    1    4    4  502    0 -0.28630335472E+02  0.22474667060E+02  0.13720139026E+04  0.13725046615E+04  0.47000000000E+01 0. -1.
         -5    1    4    4    0  502 -0.13142744152E+02 -0.26274007387E+02  0.77091232030E+02  0.82632942849E+02  0.47000000000E+01 0. -1.
          5    1    5    5  503    0  0.53641227221E+02 -0.40287961537E+02  0.73347919399E+03  0.73655571352E+03  0.47000000000E+01 0.  1.
         -5    1    5    5    0  503 -0.11868147597E+02  0.44087301864E+02  0.15685101777E+03  0.16342850085E+03  0.47000000000E+01 0.  1.
<mgrwt>
<rscale>  0 0.27136883E+03</rscale>
<asrwt>0</asrwt>
<pdfrwt beam="1">  1        2 0.36111922E+00 0.27136883E+03</pdfrwt>
<pdfrwt beam="2">  1       -2 0.12066536E-02 0.27136883E+03</pdfrwt>
<totfact> 0.78740063E+03</totfact>
</mgrwt>
</event>
<event>
 9    1  0.8175317E-001  0.2770705E+03  0.7818608E-02  0.1097300E+00
         -2   -1    0    0    0  501 -0.00000000000E+00  0.00000000000E+00  0.37818018337E+02  0.37818018337E+02  0.00000000000E+00 0.  1.
          2   -1    0    0  501    0  0.00000000000E+00 -0.00000000000E+00 -0.50748355097E+03  0.50748355097E+03  0.00000000000E+00 0.  1.
         35    2    1    2    0    0  0.00000000000E+00  0.71054273576E-14 -0.46966553264E+03  0.54530156931E+03  0.27707054868E+03 0.  0.
         25    2    3    3    0    0 -0.19060342464E+02  0.56793528875E+02 -0.25752220592E+03  0.29217754914E+03  0.12434320289E+03 0.  0.
         25    2    3    3    0    0  0.19060342464E+02 -0.56793528875E+02 -0.21214332672E+03  0.25312402017E+03  0.12441132158E+03 0.  0.
          5    1    4    4  502    0 -0.54181158594E+02  0.48451065609E+02 -0.24178695529E+03  0.25251955460E+03  0.47000000000E+01 0.  1.
         -5    1    4    4    0  502  0.35120816130E+02  0.83424632669E+01 -0.15735250624E+02  0.39657994544E+02  0.47000000000E+01 0.  1.
          5    1    5    5  503    0 -0.11754664138E+02  0.35993485302E+02 -0.80437345932E+02  0.89027859313E+02  0.47000000000E+01 0.  1.
         -5    1    5    5    0  503  0.30815006602E+02 -0.92787014178E+02 -0.13170598079E+03  0.16409616085E+03  0.47000000000E+01 0.  1.
<mgrwt>
<rscale>  0 0.27707055E+03</rscale>
<asrwt>0</asrwt>
<pdfrwt beam="1">  1        2 0.78074394E-01 0.27707055E+03</pdfrwt>
<pdfrwt beam="2">  1       -2 0.58181566E-02 0.27707055E+03</pdfrwt>
<totfact> 0.94497948E+03</totfact>
</mgrwt>
</event>
<event>
 9    1  0.8175317E-001  0.2830332E+03  0.7818608E-02  0.1094044E+00
         -4   -1    0    0    0  501 -0.00000000000E+00  0.00000000000E+00  0.18466169555E+03  0.18466169555E+03  0.00000000000E+00 0.  1.
          4   -1    0    0  501    0  0.00000000000E+00 -0.00000000000E+00 -0.10845211640E+03  0.10845211640E+03  0.00000000000E+00 0.  1.
         35    2    1    2    0    0 -0.44408920985E-14  0.00000000000E+00  0.76209579149E+02  0.29311381196E+03  0.28303322562E+03 0.  0.
         25    2    3    3    0    0  0.24961717922E+01 -0.51917932994E+02 -0.61836764588E+01  0.13512409432E+03  0.12457359420E+03 0.  0.
         25    2    3    3    0    0 -0.24961717922E+01  0.51917932994E+02  0.82393255607E+02  0.15798971763E+03  0.12438006138E+03 0.  0.
          5    1    4    4  502    0 -0.42611301843E+01 -0.72895486813E+02  0.40250224342E+02  0.83510956094E+02  0.47000000000E+01 0. -1.
         -5    1    4    4    0  502  0.67573019765E+01  0.20977553819E+02 -0.46433900801E+02  0.51613138229E+02  0.47000000000E+01 0. -1.
          5    1    5    5  503    0 -0.49916592087E+02  0.26467497913E+02 -0.31873971922E+01  0.56784188928E+02  0.47000000000E+01 0.  1.
         -5    1    5    5    0  503  0.47420420295E+02  0.25450435081E+02  0.85580652800E+02  0.10120552870E+03  0.47000000000E+01 0.  1.
<mgrwt>
<rscale>  0 0.28303323E+03</rscale>
<asrwt>0</asrwt>
<pdfrwt beam="1">  1        4 0.16684941E-01 0.28303323E+03</pdfrwt>
<pdfrwt beam="2">  1       -4 0.28409491E-01 0.28303323E+03</pdfrwt>
<totfact> 0.69302530E+02</totfact>
</mgrwt>
</event>
<event>
 9    1  0.8175317E-001  0.2672059E+03  0.7818608E-02  0.1102889E+00
         -1   -1    0    0    0  501 -0.00000000000E+00  0.00000000000E+00  0.32514545907E+02  0.32514545907E+02  0.00000000000E+00 0. -1.
          1   -1    0    0  501    0  0.00000000000E+00 -0.00000000000E+00 -0.54897727507E+03  0.54897727507E+03  0.00000000000E+00 0. -1.
         35    2    1    2    0    0 -0.14210854715E-13  0.71054273576E-14 -0.51646272916E+03  0.58149182098E+03  0.26720588925E+03 0.  0.
         25    2    3    3    0    0  0.42422878477E+02 -0.21194445720E+02 -0.29588147937E+03  0.32351829661E+03  0.12193987558E+03 0.  0.
         25    2    3    3    0    0 -0.42422878477E+02  0.21194445720E+02 -0.22058124979E+03  0.25797352437E+03  0.12508135900E+03 0.  0.
          5    1    4    4  502    0  0.63655728601E+02  0.31130332426E+02 -0.19888368342E+03  0.21118228834E+03  0.47000000000E+01 0.  1.
         -5    1    4    4    0  502 -0.21232850124E+02 -0.52324778146E+02 -0.96997795959E+02  0.11233600827E+03  0.47000000000E+01 0.  1.
          5    1    5    5  503    0  0.15311043157E+02 -0.43745640296E+02 -0.83076928328E+02  0.95246916527E+02  0.47000000000E+01 0.  1.
         -5    1    5    5    0  503 -0.57733921634E+02  0.64940086016E+02 -0.13750432146E+03  0.16272660784E+03  0.47000000000E+01 0.  1.
<mgrwt>
<rscale>  0 0.26720589E+03</rscale>
<asrwt>0</asrwt>
<pdfrwt beam="1">  1        1 0.84458040E-01 0.26720589E+03</pdfrwt>
<pdfrwt beam="2">  1       -1 0.50022379E-02 0.26720589E+03</pdfrwt>
<totfact> 0.69577187E+03</totfact>
</mgrwt>
</event>
<event>
 9    1  0.8175317E-001  0.2750963E+03  0.7818608E-02  0.1098398E+00
         -1   -1    0    0    0  501 -0.00000000000E+00  0.00000000000E+00  0.19735497048E+03  0.19735497048E+03  0.00000000000E+00 0.  1.
          1   -1    0    0  501    0  0.00000000000E+00 -0.00000000000E+00 -0.95865304351E+02  0.95865304351E+02  0.00000000000E+00 0.  1.
         35    2    1    2    0    0 -0.71054273576E-14  0.35527136788E-14  0.10148966613E+03  0.29322027483E+03  0.27509630539E+03 0.  0.
         25    2    3    3    0    0  0.51225291591E+02 -0.46608786847E+01  0.23524821540E+02  0.13674843288E+03  0.12450286093E+03 0.  0.
         25    2    3    3    0    0 -0.51225291591E+02  0.46608786847E+01  0.77964844588E+02  0.15647184195E+03  0.12553551705E+03 0.  0.
          5    1    4    4  502    0  0.78183079282E+02  0.19226996345E+02  0.47146419548E+02  0.93419195836E+02  0.47000000000E+01 0. -1.
         -5    1    4    4    0  502 -0.26957787691E+02 -0.23887875029E+02 -0.23621598008E+02  0.43329237047E+02  0.47000000000E+01 0. -1.
          5    1    5    5  503    0 -0.64129194894E+02  0.20504868097E+02 -0.80210904933E+01  0.67966397184E+02  0.47000000000E+01 0. -1.
         -5    1    5    5    0  503  0.12903903303E+02 -0.15843989412E+02  0.85985935082E+02  0.88505444764E+02  0.47000000000E+01 0. -1.
<mgrwt>
<rscale>  0 0.27509631E+03</rscale>
<asrwt>0</asrwt>
<pdfrwt beam="1">  1        1 0.14748508E-01 0.27509631E+03</pdfrwt>
<pdfrwt beam="2">  1       -1 0.30362303E-01 0.27509631E+03</pdfrwt>
<totfact> 0.37936983E+03</totfact>
</mgrwt>
</event>
<event>
 9    1  0.8175317E-001  0.2800651E+03  0.7818608E-02  0.1095653E+00
          1   -1    0    0  501    0  0.00000000000E+00  0.00000000000E+00  0.37119272830E+03  0.37119272830E+03  0.00000000000E+00 0. -1.
         -1   -1    0    0    0  501 -0.00000000000E+00 -0.00000000000E+00 -0.52827331104E+02  0.52827331104E+02  0.00000000000E+00 0. -1.
         35    2    1    2    0    0  0.00000000000E+00  0.00000000000E+00  0.31836539720E+03  0.42402005941E+03  0.28006514357E+03 0.  0.
         25    2    3    3    0    0 -0.72173010272E+01 -0.38215094818E+02  0.68822576901E+02  0.14776505169E+03  0.12484182193E+03 0.  0.
         25    2    3    3    0    0  0.72173010272E+01  0.38215094818E+02  0.24954282030E+03  0.27625500772E+03  0.11194966378E+03 0.  0.
          5    1    4    4  502    0  0.39621035322E+01  0.26619995148E+01  0.96629174070E+02  0.96861095323E+02  0.47000000000E+01 0.  1.
         -5    1    4    4    0  502 -0.11179404559E+02 -0.40877094333E+02 -0.27806597169E+02  0.50903956364E+02  0.47000000000E+01 0.  1.
          5    1    5    5  503    0  0.46093193455E+02 -0.35450349245E+01  0.18139614047E+03  0.18725330313E+03  0.47000000000E+01 0.  1.
         -5    1    5    5    0  503 -0.38875892428E+02  0.41760129743E+02  0.68146679827E+02  0.89001704588E+02  0.47000000000E+01 0.  1.
<mgrwt>
<rscale>  0 0.28006514E+03</rscale>
<asrwt>0</asrwt>
<pdfrwt beam="1">  1        1 0.57106572E-01 0.28006514E+03</pdfrwt>
<pdfrwt beam="2">  1       -1 0.81272819E-02 0.28006514E+03</pdfrwt>
<totfact> 0.55791854E+03</totfact>
</mgrwt>
</event>
<event>
 9    1  0.8175317E-001  0.2780050E+03  0.7818608E-02  0.1096784E+00
         -2   -1    0    0    0  501 -0.00000000000E+00  0.00000000000E+00  0.41109221635E+02  0.41109221635E+02  0.00000000000E+00 0. -1.
          2   -1    0    0  501    0  0.00000000000E+00 -0.00000000000E+00 -0.47000885931E+03  0.47000885931E+03  0.00000000000E+00 0. -1.
         35    2    1    2    0    0  0.00000000000E+00 -0.35527136788E-14 -0.42889963768E+03  0.51111808095E+03  0.27800502418E+03 0.  0.
         25    2    3    3    0    0 -0.53291239792E+02 -0.20430137780E+02 -0.24149875668E+03  0.27874360923E+03  0.12696063737E+03 0.  0.
         25    2    3    3    0    0  0.53291239792E+02  0.20430137780E+02 -0.18740088100E+03  0.23237447171E+03  0.12498583175E+03 0.  0.
          5    1    4    4  502    0 -0.37736928577E+02 -0.74010122960E+02 -0.14480827539E+03  0.16701227710E+03  0.47000000000E+01 0. -1.
         -5    1    4    4    0  502 -0.15554311215E+02  0.53579985180E+02 -0.96690481288E+02  0.11173133214E+03  0.47000000000E+01 0. -1.
          5    1    5    5  503    0  0.91512464839E+02  0.19415637433E+02 -0.15890840221E+03  0.18445993736E+03  0.47000000000E+01 0.  1.
         -5    1    5    5    0  503 -0.38221225047E+02  0.10145003463E+01 -0.28492478788E+02  0.47914534356E+02  0.47000000000E+01 0.  1.
<mgrwt>
<rscale>  0 0.27800502E+03</rscale>
<asrwt>0</asrwt>
<pdfrwt beam="1">  1        2 0.72309051E-01 0.27800502E+03</pdfrwt>
<pdfrwt beam="2">  1       -2 0.63244960E-02 0.27800502E+03</pdfrwt>
<totfact> 0.90567526E+03</totfact>
</mgrwt>
</event>
<event>
 9    1  0.8175317E-001  0.2588411E+03  0.7818608E-02  0.1107842E+00
          3   -1    0    0  501    0  0.00000000000E+00  0.00000000000E+00  0.47618892003E+02  0.47618892003E+02  0.00000000000E+00 0.  1.
         -3   -1    0    0    0  501 -0.00000000000E+00 -0.00000000000E+00 -0.35174441206E+03  0.35174441206E+03  0.00000000000E+00 0.  1.
         35    2    1    2    0    0  0.71054273576E-14  0.00000000000E+00 -0.30412552006E+03  0.39936330406E+03  0.25884110315E+03 0.  0.
         25    2    3    3    0    0  0.12679236672E+02 -0.29832405633E+02 -0.12557761655E+03  0.17927533223E+03  0.12377064070E+03 0.  0.
         25    2    3    3    0    0 -0.12679236672E+02  0.29832405633E+02 -0.17854790350E+03  0.22008797183E+03  0.12453363414E+03 0.  0.
          5    1    4    4  502    0  0.50732511314E+02  0.24876363092E+02 -0.34665750251E+02  0.66456191475E+02  0.47000000000E+01 0. -1.
         -5    1    4    4    0  502 -0.38053274642E+02 -0.54708768724E+02 -0.90911866301E+02  0.11281914076E+03  0.47000000000E+01 0. -1.
          5    1    5    5  503    0 -0.84232892418E+01  0.35797328219E+02  0.40391572787E+01  0.37293502125E+02  0.47000000000E+01 0.  1.
         -5    1    5    5    0  503 -0.42559474300E+01 -0.59649225861E+01 -0.18258706078E+03  0.18279446971E+03  0.47000000000E+01 0.  1.
<mgrwt>
<rscale>  0 0.25884110E+03</rscale>
<asrwt>0</asrwt>
<pdfrwt beam="1">  1        3 0.73259835E-02 0.25884110E+03</pdfrwt>
<pdfrwt beam="2">  1       -3 0.54114524E-01 0.25884110E+03</pdfrwt>
<totfact> 0.10591850E+03</totfact>
</mgrwt>
</event>
<event>
 9    1  0.8175317E-001  0.2769337E+03  0.7818608E-02  0.1097376E+00
         -3   -1    0    0    0  501 -0.00000000000E+00  0.00000000000E+00  0.41430925755E+02  0.41430925755E+02  0.00000000000E+00 0. -1.
          3   -1    0    0  501    0  0.00000000000E+00 -0.00000000000E+00 -0.46277191951E+03  0.46277191951E+03  0.00000000000E+00 0. -1.
         35    2    1    2    0    0  0.00000000000E+00  0.00000000000E+00 -0.42134099376E+03  0.50420284527E+03  0.27693370354E+03 0.  0.
         25    2    3    3    0    0  0.53637831524E+02 -0.23688639273E+02 -0.23065842329E+03  0.26886376924E+03  0.12508496943E+03 0.  0.
         25    2    3    3    0    0 -0.53637831524E+02  0.23688639273E+02 -0.19068257047E+03  0.23533907602E+03  0.12484578256E+03 0.  0.
          5    1    4    4  502    0  0.93325860126E+02 -0.20323798433E+02 -0.18376861264E+03  0.20716120762E+03  0.47000000000E+01 0.  1.
         -5    1    4    4    0  502 -0.39688028601E+02 -0.33648408405E+01 -0.46889810646E+02  0.61702561621E+02  0.47000000000E+01 0.  1.
          5    1    5    5  503    0 -0.12914867381E+02 -0.17092251276E+02  0.11700097514E+02  0.24858019531E+02  0.47000000000E+01 0. -1.
         -5    1    5    5    0  503 -0.40722964144E+02  0.40780890549E+02 -0.20238266798E+03  0.21048105649E+03  0.47000000000E+01 0. -1.
<mgrwt>
<rscale>  0 0.27693370E+03</rscale>
<asrwt>0</asrwt>
<pdfrwt beam="1">  1        3 0.71195679E-01 0.27693370E+03</pdfrwt>
<pdfrwt beam="2">  1       -3 0.63739887E-02 0.27693370E+03</pdfrwt>
<totfact> 0.75412545E+02</totfact>
</mgrwt>
</event>
<event>
 9    1  0.8175317E-001  0.2599767E+03  0.7818608E-02  0.1107157E+00
         -3   -1    0    0    0  501 -0.00000000000E+00  0.00000000000E+00  0.36967482700E+02  0.36967482700E+02  0.00000000000E+00 0. -1.
          3   -1    0    0  501    0  0.00000000000E+00 -0.00000000000E+00 -0.45707664744E+03  0.45707664744E+03  0.00000000000E+00 0. -1.
         35    2    1    2    0    0 -0.35527136788E-14 -0.17763568394E-14 -0.42010916474E+03  0.49404413014E+03  0.25997671478E+03 0.  0.
         25    2    3    3    0    0  0.17317382565E+02 -0.41800607330E+01 -0.24487350916E+03  0.27510047920E+03  0.12409622685E+03 0.  0.
         25    2    3    3    0    0 -0.17317382565E+02  0.41800607330E+01 -0.17523565557E+03  0.21894365094E+03  0.13004392587E+03 0.  0.
          5    1    4    4  502    0 -0.22105241096E+02 -0.34354709138E+02 -0.21063306315E+03  0.21460956413E+03  0.47000000000E+01 0.  1.
         -5    1    4    4    0  502  0.39422623661E+02  0.30174648405E+02 -0.34240446016E+02  0.60490915071E+02  0.47000000000E+01 0.  1.
          5    1    5    5  503    0 -0.60093459750E+02 -0.14151881350E+02 -0.15694950702E+03  0.16872088609E+03  0.47000000000E+01 0.  1.
         -5    1    5    5    0  503  0.42776077186E+02  0.18331942083E+02 -0.18286148555E+02  0.50222764847E+02  0.47000000000E+01 0.  1.
<mgrwt>
<rscale>  0 0.25997671E+03</rscale>
<asrwt>0</asrwt>
<pdfrwt beam="1">  1        3 0.70319482E-01 0.25997671E+03</pdfrwt>
<pdfrwt beam="2">  1       -3 0.56873052E-02 0.25997671E+03</pdfrwt>
<totfact> 0.92456276E+02</totfact>
</mgrwt>
</event>
<event>
 9    1  0.8175317E-001  0.2744694E+03  0.7818608E-02  0.1098749E+00
         -1   -1    0    0    0  501 -0.00000000000E+00  0.00000000000E+00  0.39414722382E+02  0.39414722382E+02  0.00000000000E+00 0.  1.
          1   -1    0    0  501    0  0.00000000000E+00 -0.00000000000E+00 -0.47782554795E+03  0.47782554795E+03  0.00000000000E+00 0.  1.
         35    2    1    2    0    0  0.13322676296E-14  0.71054273576E-14 -0.43841082557E+03  0.51724027033E+03  0.27446938860E+03 0.  0.
         25    2    3    3    0    0 -0.30149263226E+01 -0.53059996943E+02 -0.25194510276E+03  0.28622096700E+03  0.12498661564E+03 0.  0.
         25    2    3    3    0    0  0.30149263226E+01  0.53059996943E+02 -0.18646572280E+03  0.23101930333E+03  0.12560254644E+03 0.  0.
          5    1    4    4  502    0  0.38332212231E+01 -0.87268564613E+02 -0.22643947152E+03  0.24274970694E+03  0.47000000000E+01 0.  1.
         -5    1    4    4    0  502 -0.68481475457E+01  0.34208567670E+02 -0.25505631241E+02  0.43471260068E+02  0.47000000000E+01 0.  1.
          5    1    5    5  503    0 -0.41586854660E+02  0.36666865297E+02 -0.22120636710E+02  0.59877692504E+02  0.47000000000E+01 0. -1.
         -5    1    5    5    0  503  0.44601780982E+02  0.16393131646E+02 -0.16434508609E+03  0.17114161082E+03  0.47000000000E+01 0. -1.
<mgrwt>
<rscale>  0 0.27446939E+03</rscale>
<asrwt>0</asrwt>
<pdfrwt beam="1">  1        1 0.73511621E-01 0.27446939E+03</pdfrwt>
<pdfrwt beam="2">  1       -1 0.60638036E-02 0.27446939E+03</pdfrwt>
<totfact> 0.62764697E+03</totfact>
</mgrwt>
</event>
<event>
 9    1  0.8175317E-001  0.2733920E+03  0.7818608E-02  0.1099354E+00
          2   -1    0    0  501    0  0.00000000000E+00  0.00000000000E+00  0.14215700358E+04  0.14215700358E+04  0.00000000000E+00 0. -1.
         -2   -1    0    0    0  501 -0.00000000000E+00 -0.00000000000E+00 -0.13144476621E+02  0.13144476621E+02  0.00000000000E+00 0. -1.
         35    2    1    2    0    0  0.00000000000E+00 -0.71054273576E-14  0.14084255591E+04  0.14347145124E+04  0.27339198306E+03 0.  0.
         25    2    3    3    0    0 -0.26397861035E+02 -0.36060174110E+02  0.87821699925E+03  0.88824176464E+03  0.12534413214E+03 0.  0.
         25    2    3    3    0    0  0.26397861035E+02  0.36060174110E+02  0.53020855989E+03  0.54647274774E+03  0.12455586624E+03 0.  0.
          5    1    4    4  502    0 -0.44889498992E+02  0.66702635280E+01  0.11690314074E+03  0.12549101103E+03  0.47000000000E+01 0. -1.
         -5    1    4    4    0  502  0.18491637957E+02 -0.42730437638E+02  0.76131385851E+03  0.76275075361E+03  0.47000000000E+01 0. -1.
          5    1    5    5  503    0  0.43526535397E+02  0.75285913663E+02  0.39844635034E+03  0.40785305219E+03  0.47000000000E+01 0. -1.
         -5    1    5    5    0  503 -0.17128674363E+02 -0.39225739553E+02  0.13176220955E+03  0.13861969555E+03  0.47000000000E+01 0. -1.
<mgrwt>
<rscale>  0 0.27339198E+03</rscale>
<asrwt>0</asrwt>
<pdfrwt beam="1">  1        2 0.21870296E+00 0.27339198E+03</pdfrwt>
<pdfrwt beam="2">  1       -2 0.20222283E-02 0.27339198E+03</pdfrwt>
<totfact> 0.11435794E+04</totfact>
</mgrwt>
</event>
<event>
 9    1  0.8175317E-001  0.2886935E+03  0.7818608E-02  0.1091033E+00
          2   -1    0    0  501    0  0.00000000000E+00  0.00000000000E+00  0.37188067969E+02  0.37188067969E+02  0.00000000000E+00 0. -1.
         -2   -1    0    0    0  501 -0.00000000000E+00 -0.00000000000E+00 -0.56028684777E+03  0.56028684777E+03  0.00000000000E+00 0. -1.
         35    2    1    2    0    0  0.00000000000E+00 -0.35527136788E-14 -0.52309877980E+03  0.59747491574E+03  0.28869350791E+03 0.  0.
         25    2    3    3    0    0  0.48372087786E+02  0.14589478586E+02 -0.36824175935E+03  0.39230303442E+03  0.12548691454E+03 0.  0.
         25    2    3    3    0    0 -0.48372087786E+02 -0.14589478586E+02 -0.15485702045E+03  0.20517188132E+03  0.12474811558E+03 0.  0.
          5    1    4    4  502    0  0.51472204213E+02  0.18125309525E+02 -0.50525809221E+02  0.74517528471E+02  0.47000000000E+01 0.  1.
         -5    1    4    4    0  502 -0.31001164270E+01 -0.35358309393E+01 -0.31771595013E+03  0.31778550595E+03  0.47000000000E+01 0.  1.
          5    1    5    5  503    0 -0.90127939323E+02 -0.10771417796E+02 -0.90855602279E+02  0.12851419903E+03  0.47000000000E+01 0.  1.
         -5    1    5    5    0  503  0.41755851537E+02 -0.38180607903E+01 -0.64001418170E+02  0.76657682286E+02  0.47000000000E+01 0.  1.
<mgrwt>
<rscale>  0 0.28869351E+03</rscale>
<asrwt>0</asrwt>
<pdfrwt beam="1">  1        2 0.57212414E-02 0.28869351E+03</pdfrwt>
<pdfrwt beam="2">  1       -2 0.86197974E-01 0.28869351E+03</pdfrwt>
<totfact> 0.15861468E+03</totfact>
</mgrwt>
</event>
<event>
 9    1  0.8175317E-001  0.2733133E+03  0.7818608E-02  0.1099398E+00
          2   -1    0    0  501    0  0.00000000000E+00  0.00000000000E+00  0.28712650081E+03  0.28712650081E+03  0.00000000000E+00 0. -1.
         -2   -1    0    0    0  501 -0.00000000000E+00 -0.00000000000E+00 -0.65041146285E+02  0.65041146285E+02  0.00000000000E+00 0. -1.
         35    2    1    2    0    0  0.14210854715E-13 -0.35527136788E-14  0.22208535452E+03  0.35216764709E+03  0.27331327623E+03 0.  0.
         25    2    3    3    0    0 -0.49397434611E+02 -0.23467610078E+02  0.12786792641E+03  0.18695451052E+03  0.12494377587E+03 0.  0.
         25    2    3    3    0    0  0.49397434611E+02  0.23467610078E+02  0.94217428107E+02  0.16521313657E+03  0.12420797667E+03 0.  0.
          5    1    4    4  502    0 -0.40643770973E+02  0.48574446853E+02  0.55179014551E+02  0.84132078619E+02  0.47000000000E+01 0. -1.
         -5    1    4    4    0  502 -0.87536636388E+01 -0.72042056931E+02  0.72688911862E+02  0.10282243190E+03  0.47000000000E+01 0. -1.
          5    1    5    5  503    0  0.73912912956E+02  0.17485827491E+02  0.11097397275E+03  0.13455922671E+03  0.47000000000E+01 0. -1.
         -5    1    5    5    0  503 -0.24515478344E+02  0.59817825865E+01 -0.16756544645E+02  0.30653909861E+02  0.47000000000E+01 0. -1.
<mgrwt>
<rscale>  0 0.27331328E+03</rscale>
<asrwt>0</asrwt>
<pdfrwt beam="1">  1        2 0.44173307E-01 0.27331328E+03</pdfrwt>
<pdfrwt beam="2">  1       -2 0.10006330E-01 0.27331328E+03</pdfrwt>
<totfact> 0.75422849E+03</totfact>
</mgrwt>
</event>
<event>
 9    1  0.8175317E-001  0.2764827E+03  0.7818608E-02  0.1097626E+00
          1   -1    0    0  501    0  0.00000000000E+00  0.00000000000E+00  0.29433349870E+03  0.29433349870E+03  0.00000000000E+00 0. -1.
         -1   -1    0    0    0  501 -0.00000000000E+00 -0.00000000000E+00 -0.64928651614E+02  0.64928651614E+02  0.00000000000E+00 0. -1.
         35    2    1    2    0    0  0.00000000000E+00 -0.71054273576E-14  0.22940484709E+03  0.35926215031E+03  0.27648274590E+03 0.  0.
         25    2    3    3    0    0 -0.20010007519E+02  0.68309428602E+00  0.18300397524E+03  0.22370685243E+03  0.12709615987E+03 0.  0.
         25    2    3    3    0    0  0.20010007519E+02 -0.68309428602E+00  0.46400871849E+02  0.13555529788E+03  0.12578287187E+03 0.  0.
          5    1    4    4  502    0 -0.27222360528E+02 -0.57312332475E+02  0.60036745010E+02  0.87477203418E+02  0.47000000000E+01 0.  1.
         -5    1    4    4    0  502  0.72123530090E+01  0.57995426761E+02  0.12296723023E+03  0.13622964901E+03  0.47000000000E+01 0.  1.
          5    1    5    5  503    0 -0.89041688540E+01  0.58906865049E+02  0.12716422625E+02  0.61099102917E+02  0.47000000000E+01 0. -1.
         -5    1    5    5    0  503  0.28914176373E+02 -0.59589959335E+02  0.33684449224E+02  0.74456194963E+02  0.47000000000E+01 0. -1.
<mgrwt>
<rscale>  0 0.27648275E+03</rscale>
<asrwt>0</asrwt>
<pdfrwt beam="1">  1        1 0.45282076E-01 0.27648275E+03</pdfrwt>
<pdfrwt beam="2">  1       -1 0.99890234E-02 0.27648275E+03</pdfrwt>
<totfact> 0.54464191E+03</totfact>
</mgrwt>
</event>
<event>
 9    1  0.8175317E-001  0.2774987E+03  0.7818608E-02  0.1097063E+00
          2   -1    0    0  501    0  0.00000000000E+00  0.00000000000E+00  0.22421209829E+02  0.22421209829E+02  0.00000000000E+00 0. -1.
         -2   -1    0    0    0  501 -0.00000000000E+00 -0.00000000000E+00 -0.85862369641E+03  0.85862369641E+03  0.00000000000E+00 0. -1.
         35    2    1    2    0    0  0.00000000000E+00 -0.35527136788E-14 -0.83620248658E+03  0.88104490624E+03  0.27749869954E+03 0.  0.
         25    2    3    3    0    0  0.94581013522E+01 -0.86960175183E+01 -0.60692141864E+03  0.61986894019E+03  0.12537471119E+03 0.  0.
         25    2    3    3    0    0 -0.94581013522E+01  0.86960175183E+01 -0.22928106794E+03  0.26117596605E+03  0.12441061339E+03 0.  0.
          5    1    4    4  502    0  0.29774188848E+02  0.52783466673E+02 -0.27120330033E+03  0.27793149657E+03  0.47000000000E+01 0.  1.
         -5    1    4    4    0  502 -0.20316087496E+02 -0.61479484192E+02 -0.33571811831E+03  0.34193744362E+03  0.47000000000E+01 0.  1.
          5    1    5    5  503    0 -0.61398633179E+02 -0.20945735317E+02 -0.12262663474E+03  0.13880885250E+03  0.47000000000E+01 0.  1.
         -5    1    5    5    0  503  0.51940531827E+02  0.29641752836E+02 -0.10665443320E+03  0.12236711355E+03  0.47000000000E+01 0.  1.
<mgrwt>
<rscale>  0 0.27749870E+03</rscale>
<asrwt>0</asrwt>
<pdfrwt beam="1">  1        2 0.34494169E-02 0.27749870E+03</pdfrwt>
<pdfrwt beam="2">  1       -2 0.13209595E+00 0.27749870E+03</pdfrwt>
<totfact> 0.11352443E+03</totfact>
</mgrwt>
</event>
<event>
 9    1  0.8175317E-001  0.2747313E+03  0.7818608E-02  0.1098602E+00
         -2   -1    0    0    0  501 -0.00000000000E+00  0.00000000000E+00  0.27936440546E+02  0.27936440546E+02  0.00000000000E+00 0.  1.
          2   -1    0    0  501    0  0.00000000000E+00 -0.00000000000E+00 -0.67543740832E+03  0.67543740832E+03  0.00000000000E+00 0.  1.
         35    2    1    2    0    0  0.00000000000E+00  0.35527136788E-14 -0.64750096778E+03  0.70337384887E+03  0.27473126506E+03 0.  0.
         25    2    3    3    0    0  0.47618471031E+02  0.16276954149E+02 -0.25396792576E+03  0.28773252596E+03  0.12553024002E+03 0.  0.
         25    2    3    3    0    0 -0.47618471031E+02 -0.16276954149E+02 -0.39353304202E+03  0.41564132291E+03  0.12392334781E+03 0.  0.
          5    1    4    4  502    0  0.55936527615E+02 -0.15103584562E+02 -0.24758113834E+03  0.25431382867E+03  0.47000000000E+01 0. -1.
         -5    1    4    4    0  502 -0.83180565838E+01  0.31380538711E+02 -0.63867874188E+01  0.33418697292E+02  0.47000000000E+01 0. -1.
          5    1    5    5  503    0 -0.40837969477E+02 -0.35453528231E+02 -0.57928958552E+02  0.79388580124E+02  0.47000000000E+01 0. -1.
         -5    1    5    5    0  503 -0.67805015538E+01  0.19176574082E+02 -0.33560408346E+03  0.33625274279E+03  0.47000000000E+01 0. -1.
<mgrwt>
<rscale>  0 0.27473127E+03</rscale>
<asrwt>0</asrwt>
<pdfrwt beam="1">  1        2 0.10391343E+00 0.27473127E+03</pdfrwt>
<pdfrwt beam="2">  1       -2 0.42979145E-02 0.27473127E+03</pdfrwt>
<totfact> 0.10753808E+04</totfact>
</mgrwt>
</event>
<event>
 9    1  0.8175317E-001  0.2743836E+03  0.7818608E-02  0.1098797E+00
         -2   -1    0    0    0  501 -0.00000000000E+00  0.00000000000E+00  0.84208797674E+02  0.84208797674E+02  0.00000000000E+00 0.  1.
          2   -1    0    0  501    0  0.00000000000E+00 -0.00000000000E+00 -0.22351104767E+03  0.22351104767E+03  0.00000000000E+00 0.  1.
         35    2    1    2    0    0 -0.88817841970E-15  0.00000000000E+00 -0.13930224999E+03  0.30771984534E+03  0.27438364814E+03 0.  0.
         25    2    3    3    0    0  0.14255935248E+01 -0.48316678155E+02 -0.47278651609E+02  0.14225104305E+03  0.12515412357E+03 0.  0.
         25    2    3    3    0    0 -0.14255935248E+01  0.48316678155E+02 -0.92023598385E+02  0.16546880229E+03  0.12874411896E+03 0.  0.
          5    1    4    4  502    0 -0.57192154097E+01  0.32536357870E+02 -0.50904572887E+02  0.60866160953E+02  0.47000000000E+01 0.  1.
         -5    1    4    4    0  502  0.71448089345E+01 -0.80853036025E+02  0.36259212779E+01  0.81384882099E+02  0.47000000000E+01 0.  1.
          5    1    5    5  503    0 -0.86639987337E+01  0.83727352298E+02 -0.22957050565E+02  0.87375343018E+02  0.47000000000E+01 0. -1.
         -5    1    5    5    0  503  0.72384052089E+01 -0.35410674143E+02 -0.69066547820E+02  0.78093459272E+02  0.47000000000E+01 0. -1.
<mgrwt>
<rscale>  0 0.27438365E+03</rscale>
<asrwt>0</asrwt>
<pdfrwt beam="1">  1        2 0.34386315E-01 0.27438365E+03</pdfrwt>
<pdfrwt beam="2">  1       -2 0.12955200E-01 0.27438365E+03</pdfrwt>
<totfact> 0.65276952E+03</totfact>
</mgrwt>
</event>
<event>
 9    1  0.8175317E-001  0.2750949E+03  0.7818608E-02  0.1098399E+00
          2   -1    0    0  501    0  0.00000000000E+00  0.00000000000E+00  0.23285186098E+04  0.23285186098E+04  0.00000000000E+00 0. -1.
         -2   -1    0    0    0  501 -0.00000000000E+00 -0.00000000000E+00 -0.81250384719E+01  0.81250384719E+01  0.00000000000E+00 0. -1.
         35    2    1    2    0    0  0.35527136788E-14 -0.71054273576E-14  0.23203935713E+04  0.23366436483E+04  0.27509491662E+03 0.  0.
         25    2    3    3    0    0  0.15722355399E+02 -0.43946895655E+02  0.84314588670E+03  0.85364742674E+03  0.12506166806E+03 0.  0.
         25    2    3    3    0    0 -0.15722355399E+02  0.43946895655E+02  0.14772476846E+04  0.14829962215E+04  0.12181358401E+03 0.  0.
          5    1    4    4  502    0 -0.38222745820E+02  0.24116903032E+02  0.34276501589E+03  0.34576371907E+03  0.47000000000E+01 0.  1.
         -5    1    4    4    0  502  0.53945101219E+02 -0.68063798687E+02  0.50038087081E+03  0.50788370767E+03  0.47000000000E+01 0.  1.
          5    1    5    5  503    0 -0.54381508708E+01 -0.39596477811E+02  0.29289274435E+03  0.29564455725E+03  0.47000000000E+01 0.  1.
         -5    1    5    5    0  503 -0.10284204528E+02  0.83543373466E+02  0.11843549403E+04  0.11873516643E+04  0.47000000000E+01 0.  1.
<mgrwt>
<rscale>  0 0.27509492E+03</rscale>
<asrwt>0</asrwt>
<pdfrwt beam="1">  1        2 0.35823310E+00 0.27509492E+03</pdfrwt>
<pdfrwt beam="2">  1       -2 0.12500078E-02 0.27509492E+03</pdfrwt>
<totfact> 0.76551454E+03</totfact>
</mgrwt>
</event>
<event>
 9    1  0.8175317E-001  0.2762748E+03  0.7818608E-02  0.1097741E+00
          2   -1    0    0  501    0  0.00000000000E+00  0.00000000000E+00  0.64438578671E+03  0.64438578671E+03  0.00000000000E+00 0. -1.
         -2   -1    0    0    0  501 -0.00000000000E+00 -0.00000000000E+00 -0.29612602774E+02  0.29612602774E+02  0.00000000000E+00 0. -1.
         35    2    1    2    0    0 -0.71054273576E-14 -0.71054273576E-14  0.61477318394E+03  0.67399838949E+03  0.27627479317E+03 0.  0.
         25    2    3    3    0    0  0.25429823712E+02  0.50836010957E+02  0.27466805755E+03  0.30722982212E+03  0.12536604730E+03 0.  0.
         25    2    3    3    0    0 -0.25429823712E+02 -0.50836010957E+02  0.34010512639E+03  0.36676856737E+03  0.12496683188E+03 0.  0.
          5    1    4    4  502    0  0.33298295735E+02  0.80349898827E+02  0.25759515031E+03  0.27192321380E+03  0.47000000000E+01 0. -1.
         -5    1    4    4    0  502 -0.78684720233E+01 -0.29513887870E+02  0.17072907239E+02  0.35306608316E+02  0.47000000000E+01 0. -1.
          5    1    5    5  503    0 -0.24928320999E+02 -0.50321802307E+01  0.31147464990E+03  0.31254646304E+03  0.47000000000E+01 0. -1.
         -5    1    5    5    0  503 -0.50150271344E+00 -0.45803830726E+02  0.28630476485E+02  0.54222104329E+02  0.47000000000E+01 0. -1.
<mgrwt>
<rscale>  0 0.27627479E+03</rscale>
<asrwt>0</asrwt>
<pdfrwt beam="1">  1        2 0.99136264E-01 0.27627479E+03</pdfrwt>
<pdfrwt beam="2">  1       -2 0.45557855E-02 0.27627479E+03</pdfrwt>
<totfact> 0.10417766E+04</totfact>
</mgrwt>
</event>
<event>
 9    1  0.8175317E-001  0.2752108E+03  0.7818608E-02  0.1098334E+00
         -2   -1    0    0    0  501 -0.00000000000E+00  0.00000000000E+00  0.56191281440E+01  0.56191281440E+01  0.00000000000E+00 0.  1.
          2   -1    0    0  501    0  0.00000000000E+00 -0.00000000000E+00 -0.33697840819E+04  0.33697840819E+04  0.00000000000E+00 0.  1.
         35    2    1    2    0    0 -0.53290705182E-14  0.71054273576E-14 -0.33641649537E+04  0.33754032100E+04  0.27521081791E+03 0.  0.
         25    2    3    3    0    0  0.12306128435E+02 -0.33091387643E+02 -0.22368378453E+04  0.22406259059E+04  0.12535718379E+03 0.  0.
         25    2    3    3    0    0 -0.12306128435E+02  0.33091387643E+02 -0.11273271085E+04  0.11347773041E+04  0.12492653717E+03 0.  0.
          5    1    4    4  502    0  0.28648761552E+02 -0.69772100335E+02 -0.89686030060E+03  0.90003854713E+03  0.47000000000E+01 0.  1.
         -5    1    4    4    0  502 -0.16342633117E+02  0.36680712693E+02 -0.13399775447E+04  0.13405873588E+04  0.47000000000E+01 0.  1.
          5    1    5    5  503    0 -0.10539405686E+02  0.43727716976E+02 -0.13486960526E+03  0.14225010624E+03  0.47000000000E+01 0.  1.
         -5    1    5    5    0  503 -0.17667227485E+01 -0.10636329334E+02 -0.99245750321E+03  0.99252719786E+03  0.47000000000E+01 0.  1.
<mgrwt>
<rscale>  0 0.27521082E+03</rscale>
<asrwt>0</asrwt>
<pdfrwt beam="1">  1        2 0.51842811E+00 0.27521082E+03</pdfrwt>
<pdfrwt beam="2">  1       -2 0.86448160E-03 0.27521082E+03</pdfrwt>
<totfact> 0.32479956E+03</totfact>
</mgrwt>
</event>
<event>
 9    1  0.8175317E-001  0.2801028E+03  0.7818608E-02  0.1095633E+00
          1   -1    0    0  501    0  0.00000000000E+00  0.00000000000E+00  0.19671521240E+04  0.19671521240E+04  0.00000000000E+00 0. -1.
         -1   -1    0    0    0  501 -0.00000000000E+00 -0.00000000000E+00 -0.99709625457E+01  0.99709625457E+01  0.00000000000E+00 0. -1.
         35    2    1    2    0    0  0.00000000000E+00  0.35527136788E-14  0.19571811615E+04  0.19771230866E+04  0.28010283933E+03 0.  0.
         25    2    3    3    0    0  0.19593901300E+02 -0.14078502125E+02  0.62254380305E+03  0.63527019559E+03  0.12419866943E+03 0.  0.
         25    2    3    3    0    0 -0.19593901300E+02  0.14078502125E+02  0.13346373584E+04  0.13418528910E+04  0.13685823814E+03 0.  0.
          5    1    4    4  502    0  0.52195675474E+02 -0.41208849331E+02  0.20538341278E+03  0.21593284615E+03  0.47000000000E+01 0.  1.
         -5    1    4    4    0  502 -0.32601774173E+02  0.27130347206E+02  0.41716039027E+03  0.41933734943E+03  0.47000000000E+01 0.  1.
          5    1    5    5  503    0 -0.48397338426E+02  0.32802406689E+02  0.12343044711E+04  0.12356973407E+04  0.47000000000E+01 0. -1.
         -5    1    5    5    0  503  0.28803437126E+02 -0.18723904564E+02  0.10033288728E+03  0.10615555031E+03  0.47000000000E+01 0. -1.
<mgrwt>
<rscale>  0 0.28010284E+03</rscale>
<asrwt>0</asrwt>
<pdfrwt beam="1">  1        1 0.30263848E+00 0.28010284E+03</pdfrwt>
<pdfrwt beam="2">  1       -1 0.15339958E-02 0.28010284E+03</pdfrwt>
<totfact> 0.35796302E+03</totfact>
</mgrwt>
</event>
<event>
 9    1  0.8175317E-001  0.2767036E+03  0.7818608E-02  0.1097503E+00
          2   -1    0    0  501    0  0.00000000000E+00  0.00000000000E+00  0.74967477771E+03  0.74967477771E+03  0.00000000000E+00 0. -1.
         -2   -1    0    0    0  501 -0.00000000000E+00 -0.00000000000E+00 -0.25532696616E+02  0.25532696616E+02  0.00000000000E+00 0. -1.
         35    2    1    2    0    0  0.35527136788E-14  0.00000000000E+00  0.72414208110E+03  0.77520747433E+03  0.27670358624E+03 0.  0.
         25    2    3    3    0    0  0.30292834596E+02 -0.49291484943E+02  0.35417811358E+03  0.38029206662E+03  0.12582771347E+03 0.  0.
         25    2    3    3    0    0 -0.30292834596E+02  0.49291484943E+02  0.36996396751E+03  0.39491540771E+03  0.12544933508E+03 0.  0.
          5    1    4    4  502    0 -0.37494889109E+02 -0.38837090381E+02  0.24762559138E+03  0.25348512738E+03  0.47000000000E+01 0.  1.
         -5    1    4    4    0  502  0.67787723705E+02 -0.10454394562E+02  0.10655252221E+03  0.12680693924E+03  0.47000000000E+01 0.  1.
          5    1    5    5  503    0 -0.36478887660E+02  0.34927493714E+02  0.40129532604E+02  0.64676954544E+02  0.47000000000E+01 0. -1.
         -5    1    5    5    0  503  0.61860530642E+01  0.14363991229E+02  0.32983443491E+03  0.33023845316E+03  0.47000000000E+01 0. -1.
<mgrwt>
<rscale>  0 0.27670359E+03</rscale>
<asrwt>0</asrwt>
<pdfrwt beam="1">  1        2 0.11533456E+00 0.27670359E+03</pdfrwt>
<pdfrwt beam="2">  1       -2 0.39281077E-02 0.27670359E+03</pdfrwt>
<totfact> 0.10845482E+04</totfact>
</mgrwt>
</event>
<event>
 9    1  0.8175317E-001  0.2733512E+03  0.7818608E-02  0.1099377E+00
          1   -1    0    0  501    0  0.00000000000E+00  0.00000000000E+00  0.13432370243E+02  0.13432370243E+02  0.00000000000E+00 0. -1.
         -1   -1    0    0    0  501 -0.00000000000E+00 -0.00000000000E+00 -0.13906869439E+04  0.13906869439E+04  0.00000000000E+00 0. -1.
         35    2    1    2    0    0  0.00000000000E+00  0.00000000000E+00 -0.13772545737E+04  0.14041193141E+04  0.27335121674E+03 0.  0.
         25    2    3    3    0    0  0.48059050985E+02  0.10166549585E+02 -0.57608043283E+03  0.59159402471E+03  0.12530679898E+03 0.  0.
         25    2    3    3    0    0 -0.48059050985E+02 -0.10166549585E+02 -0.80117414083E+03  0.81252528944E+03  0.12611229492E+03 0.  0.
          5    1    4    4  502    0  0.51804776040E+02 -0.10564185029E+02 -0.86155504441E+02  0.10119386232E+03  0.47000000000E+01 0. -1.
         -5    1    4    4    0  502 -0.37457250547E+01  0.20730734614E+02 -0.48992492839E+03  0.49040016239E+03  0.47000000000E+01 0. -1.
          5    1    5    5  503    0 -0.90089269279E+02  0.19104664419E+01 -0.48717160755E+03  0.49545735591E+03  0.47000000000E+01 0. -1.
         -5    1    5    5    0  503  0.42030218294E+02 -0.12077016027E+02 -0.31400253328E+03  0.31706793353E+03  0.47000000000E+01 0. -1.
<mgrwt>
<rscale>  0 0.27335122E+03</rscale>
<asrwt>0</asrwt>
<pdfrwt beam="1">  1        1 0.20665200E-02 0.27335122E+03</pdfrwt>
<pdfrwt beam="2">  1       -1 0.21395168E+00 0.27335122E+03</pdfrwt>
<totfact> 0.77970987E+02</totfact>
</mgrwt>
</event>
<event>
 9    1  0.8175317E-001  0.2704630E+03  0.7818608E-02  0.1101015E+00
          2   -1    0    0  501    0  0.00000000000E+00  0.00000000000E+00  0.59373507578E+03  0.59373507578E+03  0.00000000000E+00 0. -1.
         -2   -1    0    0    0  501 -0.00000000000E+00 -0.00000000000E+00 -0.30800869765E+02  0.30800869765E+02  0.00000000000E+00 0. -1.
         35    2    1    2    0    0  0.00000000000E+00 -0.71054273576E-14  0.56293420602E+03  0.62453594555E+03  0.27046298633E+03 0.  0.
         25    2    3    3    0    0  0.25683607249E+02  0.43722095309E+02  0.26336879633E+03  0.29614202239E+03  0.12556155958E+03 0.  0.
         25    2    3    3    0    0 -0.25683607249E+02 -0.43722095309E+02  0.29956540969E+03  0.32839392316E+03  0.12462690234E+03 0.  0.
          5    1    4    4  502    0 -0.35217105065E+02  0.46669747392E+01  0.18867767519E+03  0.19205046279E+03  0.47000000000E+01 0.  1.
         -5    1    4    4    0  502  0.60900712314E+02  0.39055120570E+02  0.74691121149E+02  0.10409155961E+03  0.47000000000E+01 0.  1.
          5    1    5    5  503    0  0.17379541886E+02 -0.58390544493E+02  0.64213861100E+02  0.88639799863E+02  0.47000000000E+01 0.  1.
         -5    1    5    5    0  503 -0.43063149135E+02  0.14668449183E+02  0.23535154859E+03  0.23975412329E+03  0.47000000000E+01 0.  1.
<mgrwt>
<rscale>  0 0.27046299E+03</rscale>
<asrwt>0</asrwt>
<pdfrwt beam="1">  1        2 0.91343849E-01 0.27046299E+03</pdfrwt>
<pdfrwt beam="2">  1       -2 0.47385958E-02 0.27046299E+03</pdfrwt>
<totfact> 0.10793649E+04</totfact>
</mgrwt>
</event>
<event>
 9    1  0.8175317E-001  0.2795665E+03  0.7818608E-02  0.1095926E+00
         -4   -1    0    0    0  501 -0.00000000000E+00  0.00000000000E+00  0.15825237370E+03  0.15825237370E+03  0.00000000000E+00 0. -1.
          4   -1    0    0  501    0  0.00000000000E+00 -0.00000000000E+00 -0.12346959190E+03  0.12346959190E+03  0.00000000000E+00 0. -1.
         35    2    1    2    0    0  0.00000000000E+00  0.00000000000E+00  0.34782781796E+02  0.28172196559E+03  0.27956649296E+03 0.  0.
         25    2    3    3    0    0  0.43706731342E+02 -0.16070592571E+02 -0.24630939024E+02  0.13579033955E+03  0.12515506721E+03 0.  0.
         25    2    3    3    0    0 -0.43706731342E+02  0.16070592571E+02  0.59413720820E+02  0.14593162604E+03  0.12488997937E+03 0.  0.
          5    1    4    4  502    0  0.74933706300E+02 -0.40638788128E+02 -0.38216024742E+02  0.93536762759E+02  0.47000000000E+01 0. -1.
         -5    1    4    4    0  502 -0.31226974958E+02  0.24568195557E+02  0.13585085718E+02  0.42253576795E+02  0.47000000000E+01 0. -1.
          5    1    5    5  503    0 -0.28480832914E+02  0.59448701531E+02  0.72303779481E+02  0.97955257564E+02  0.47000000000E+01 0. -1.
         -5    1    5    5    0  503 -0.15225898428E+02 -0.43378108960E+02 -0.12890058661E+02  0.47976368476E+02  0.47000000000E+01 0. -1.
<mgrwt>
<rscale>  0 0.27956649E+03</rscale>
<asrwt>0</asrwt>
<pdfrwt beam="1">  1        4 0.18995322E-01 0.27956649E+03</pdfrwt>
<pdfrwt beam="2">  1       -4 0.24346519E-01 0.27956649E+03</pdfrwt>
<totfact> 0.73244479E+02</totfact>
</mgrwt>
</event>
<event>
 9    1  0.8175317E-001  0.2796701E+03  0.7818608E-02  0.1095869E+00
         -1   -1    0    0    0  501 -0.00000000000E+00  0.00000000000E+00  0.24761130435E+03  0.24761130435E+03  0.00000000000E+00 0. -1.
          1   -1    0    0  501    0  0.00000000000E+00 -0.00000000000E+00 -0.78969926001E+02  0.78969926001E+02  0.00000000000E+00 0. -1.
         35    2    1    2    0    0  0.00000000000E+00 -0.71054273576E-14  0.16864137835E+03  0.32658123035E+03  0.27967013699E+03 0.  0.
         25    2    3    3    0    0 -0.82806807505E+01 -0.52617752747E+02  0.12508139962E+03  0.18444575877E+03  0.12465024597E+03 0.  0.
         25    2    3    3    0    0  0.82806807505E+01  0.52617752747E+02  0.43559978729E+02  0.14213547158E+03  0.12436970272E+03 0.  0.
          5    1    4    4  502    0 -0.43555661457E+02 -0.79438321482E+02  0.89311138174E+02  0.12730322842E+03  0.47000000000E+01 0.  1.
         -5    1    4    4    0  502  0.35274980706E+02  0.26820568735E+02  0.35770261445E+02  0.57142530351E+02  0.47000000000E+01 0.  1.
          5    1    5    5  503    0 -0.27123354172E+02 -0.27970795561E+02  0.36683547464E+02  0.53719776623E+02  0.47000000000E+01 0. -1.
         -5    1    5    5    0  503  0.35404034923E+02  0.80588548308E+02  0.68764312647E+01  0.88415694953E+02  0.47000000000E+01 0. -1.
<mgrwt>
<rscale>  0 0.27967014E+03</rscale>
<asrwt>0</asrwt>
<pdfrwt beam="1">  1        1 0.12149220E-01 0.27967014E+03</pdfrwt>
<pdfrwt beam="2">  1       -1 0.38094046E-01 0.27967014E+03</pdfrwt>
<totfact> 0.33110209E+03</totfact>
</mgrwt>
</event>
<event>
 9    1  0.8175317E-001  0.2753905E+03  0.7818608E-02  0.1098234E+00
         -1   -1    0    0    0  501 -0.00000000000E+00  0.00000000000E+00  0.65837649961E+02  0.65837649961E+02  0.00000000000E+00 0.  1.
          1   -1    0    0  501    0  0.00000000000E+00 -0.00000000000E+00 -0.28798082064E+03  0.28798082064E+03  0.00000000000E+00 0.  1.
         35    2    1    2    0    0  0.00000000000E+00 -0.35527136788E-14 -0.22214317068E+03  0.35381847060E+03  0.27539048978E+03 0.  0.
         25    2    3    3    0    0 -0.39157161568E+02  0.27763872182E+02 -0.70197362184E+02  0.15142714250E+03  0.12529323178E+03 0.  0.
         25    2    3    3    0    0  0.39157161568E+02 -0.27763872182E+02 -0.15194580850E+03  0.20239132810E+03  0.12478223058E+03 0.  0.
          5    1    4    4  502    0 -0.62753951525E+02 -0.31353506412E+02 -0.34957312786E+02  0.78518816302E+02  0.47000000000E+01 0.  1.
         -5    1    4    4    0  502  0.23596789957E+02  0.59117378594E+02 -0.35240049398E+02  0.72908326203E+02  0.47000000000E+01 0.  1.
          5    1    5    5  503    0 -0.45304765951E+02 -0.16067051780E+02 -0.54699433024E+02  0.72971158302E+02  0.47000000000E+01 0.  1.
         -5    1    5    5    0  503  0.84461927519E+02 -0.11696820402E+02 -0.97246375474E+02  0.12942016980E+03  0.47000000000E+01 0.  1.
<mgrwt>
<rscale>  0 0.27539049E+03</rscale>
<asrwt>0</asrwt>
<pdfrwt beam="1">  1        1 0.44304742E-01 0.27539049E+03</pdfrwt>
<pdfrwt beam="2">  1       -1 0.10128869E-01 0.27539049E+03</pdfrwt>
<totfact> 0.54780748E+03</totfact>
</mgrwt>
</event>
<event>
 9    1  0.8175317E-001  0.2773474E+03  0.7818608E-02  0.1097147E+00
          2   -1    0    0  501    0  0.00000000000E+00  0.00000000000E+00  0.11968407672E+03  0.11968407672E+03  0.00000000000E+00 0.  1.
         -2   -1    0    0    0  501 -0.00000000000E+00 -0.00000000000E+00 -0.16067626949E+03  0.16067626949E+03  0.00000000000E+00 0.  1.
         35    2    1    2    0    0  0.00000000000E+00  0.71054273576E-14 -0.40992192770E+02  0.28036034621E+03  0.27734737039E+03 0.  0.
         25    2    3    3    0    0  0.73110930213E+01  0.48760821928E+02 -0.53616954599E+02  0.14480423056E+03  0.12514958063E+03 0.  0.
         25    2    3    3    0    0 -0.73110930213E+01 -0.48760821928E+02  0.12624761829E+02  0.13555611565E+03  0.12563839398E+03 0.  0.
          5    1    4    4  502    0 -0.26166694395E+02  0.51490206267E+02 -0.82116064487E+02  0.10050410581E+03  0.47000000000E+01 0. -1.
         -5    1    4    4    0  502  0.33477787416E+02 -0.27293843395E+01  0.28499109888E+02  0.44300124758E+02  0.47000000000E+01 0. -1.
          5    1    5    5  503    0  0.17050932907E+02 -0.67103908353E+02  0.51141337696E+02  0.86204380692E+02  0.47000000000E+01 0.  1.
         -5    1    5    5    0  503 -0.24362025928E+02  0.18343086425E+02 -0.38516575868E+02  0.49351734959E+02  0.47000000000E+01 0.  1.
<mgrwt>
<rscale>  0 0.27734737E+03</rscale>
<asrwt>0</asrwt>
<pdfrwt beam="1">  1        2 0.18412935E-01 0.27734737E+03</pdfrwt>
<pdfrwt beam="2">  1       -2 0.24719426E-01 0.27734737E+03</pdfrwt>
<totfact> 0.44084898E+03</totfact>
</mgrwt>
</event>
<event>
 9    1  0.8175317E-001  0.2741089E+03  0.7818608E-02  0.1098951E+00
         -2   -1    0    0    0  501 -0.00000000000E+00  0.00000000000E+00  0.85216216199E+01  0.85216216199E+01  0.00000000000E+00 0.  1.
          2   -1    0    0  501    0  0.00000000000E+00 -0.00000000000E+00 -0.22042659397E+04  0.22042659397E+04  0.00000000000E+00 0.  1.
         35    2    1    2    0    0  0.00000000000E+00  0.71054273576E-14 -0.21957443181E+04  0.22127875614E+04  0.27410888558E+03 0.  0.
         25    2    3    3    0    0  0.28125658744E+02 -0.19317187910E+02 -0.14471386707E+04  0.14529650631E+04  0.12543100044E+03 0.  0.
         25    2    3    3    0    0 -0.28125658744E+02  0.19317187910E+02 -0.74860564740E+03  0.75982249826E+03  0.12552134126E+03 0.  0.
          5    1    4    4  502    0  0.30886405276E+02  0.17194146115E+02 -0.11699343660E+03  0.12230765675E+03  0.47000000000E+01 0.  1.
         -5    1    4    4    0  502 -0.27607465322E+01 -0.36511334025E+02 -0.13301452341E+04  0.13306574064E+04  0.47000000000E+01 0.  1.
          5    1    5    5  503    0  0.21452884783E+02 -0.44154871086E+02 -0.29735464339E+03  0.30141624517E+03  0.47000000000E+01 0. -1.
         -5    1    5    5    0  503 -0.49578543527E+02  0.63472058996E+02 -0.45125100402E+03  0.45840625310E+03  0.47000000000E+01 0. -1.
<mgrwt>
<rscale>  0 0.27410889E+03</rscale>
<asrwt>0</asrwt>
<pdfrwt beam="1">  1        2 0.33911782E+00 0.27410889E+03</pdfrwt>
<pdfrwt beam="2">  1       -2 0.13110188E-02 0.27410889E+03</pdfrwt>
<totfact> 0.83217807E+03</totfact>
</mgrwt>
</event>
<event>
 9    1  0.8175317E-001  0.2773703E+03  0.7818608E-02  0.1097134E+00
         -1   -1    0    0    0  501 -0.00000000000E+00  0.00000000000E+00  0.39148067574E+02  0.39148067574E+02  0.00000000000E+00 0.  1.
          1   -1    0    0  501    0  0.00000000000E+00 -0.00000000000E+00 -0.49130308447E+03  0.49130308447E+03  0.00000000000E+00 0.  1.
         35    2    1    2    0    0  0.35527136788E-14  0.71054273576E-14 -0.45215501690E+03  0.53045115204E+03  0.27737026769E+03 0.  0.
         25    2    3    3    0    0 -0.29624166593E+02 -0.89221070098E+01 -0.31931939624E+03  0.34457311123E+03  0.12573208390E+03 0.  0.
         25    2    3    3    0    0  0.29624166593E+02  0.89221070098E+01 -0.13283562065E+03  0.18587804082E+03  0.12628597984E+03 0.  0.
          5    1    4    4  502    0  0.71044411121E+01 -0.60426690137E+02 -0.10928167203E+03  0.12516561751E+03  0.47000000000E+01 0. -1.
         -5    1    4    4    0  502 -0.36728607705E+02  0.51504583127E+02 -0.21003772421E+03  0.21940749372E+03  0.47000000000E+01 0. -1.
          5    1    5    5  503    0 -0.98528960507E+01 -0.47605189928E+02 -0.95657201423E+02  0.10740448712E+03  0.47000000000E+01 0. -1.
         -5    1    5    5    0  503  0.39477062644E+02  0.56527296938E+02 -0.37178419230E+02  0.78473553702E+02  0.47000000000E+01 0. -1.
<mgrwt>
<rscale>  0 0.27737027E+03</rscale>
<asrwt>0</asrwt>
<pdfrwt beam="1">  1        1 0.75585089E-01 0.27737027E+03</pdfrwt>
<pdfrwt beam="2">  1       -1 0.60227797E-02 0.27737027E+03</pdfrwt>
<totfact> 0.61143382E+03</totfact>
</mgrwt>
</event>
<event>
 9    1  0.8175317E-001  0.2639213E+03  0.7818608E-02  0.1104810E+00
          2   -1    0    0  501    0  0.00000000000E+00  0.00000000000E+00  0.43817568984E+03  0.43817568984E+03  0.00000000000E+00 0. -1.
         -2   -1    0    0    0  501 -0.00000000000E+00 -0.00000000000E+00 -0.39741156179E+02  0.39741156179E+02  0.00000000000E+00 0. -1.
         35    2    1    2    0    0  0.44408920985E-15  0.00000000000E+00  0.39843453366E+03  0.47791684602E+03  0.26392126495E+03 0.  0.
         25    2    3    3    0    0 -0.39823635881E+01 -0.35280453216E+02  0.15594870248E+03  0.20334780544E+03  0.12557771528E+03 0.  0.
         25    2    3    3    0    0  0.39823635881E+01  0.35280453216E+02  0.24248583119E+03  0.27456904058E+03  0.12380714891E+03 0.  0.
          5    1    4    4  502    0 -0.57611693042E+02 -0.23514475039E+01  0.36930109406E+02  0.68633515583E+02  0.47000000000E+01 0. -1.
         -5    1    4    4    0  502  0.53629329454E+02 -0.32929005712E+02  0.11901859307E+03  0.13471428986E+03  0.47000000000E+01 0. -1.
          5    1    5    5  503    0 -0.81845830437E+00  0.57913930985E+01  0.24416261885E+03  0.24427788388E+03  0.47000000000E+01 0.  1.
         -5    1    5    5    0  503  0.48008218925E+01  0.29489060118E+02 -0.16767876659E+01  0.30291156702E+02  0.47000000000E+01 0.  1.
<mgrwt>
<rscale>  0 0.26392126E+03</rscale>
<asrwt>0</asrwt>
<pdfrwt beam="1">  1        2 0.67411641E-01 0.26392126E+03</pdfrwt>
<pdfrwt beam="2">  1       -2 0.61140243E-02 0.26392126E+03</pdfrwt>
<totfact> 0.10285591E+04</totfact>
</mgrwt>
</event>
<event>
 9    1  0.8175317E-001  0.2679496E+03  0.7818608E-02  0.1102459E+00
         -1   -1    0    0    0  501 -0.00000000000E+00  0.00000000000E+00  0.53209945675E+03  0.53209945675E+03  0.00000000000E+00 0.  1.
          1   -1    0    0  501    0  0.00000000000E+00 -0.00000000000E+00 -0.33732884751E+02  0.33732884751E+02  0.00000000000E+00 0.  1.
         35    2    1    2    0    0  0.00000000000E+00 -0.53290705182E-14  0.49836657200E+03  0.56583234150E+03  0.26794961952E+03 0.  0.
         25    2    3    3    0    0 -0.62186474973E+00 -0.29905364705E+01  0.32528789723E+03  0.35249814054E+03  0.13576963202E+03 0.  0.
         25    2    3    3    0    0  0.62186474973E+00  0.29905364705E+01  0.17307867477E+03  0.21333420096E+03  0.12468329324E+03 0.  0.
          5    1    4    4  502    0  0.15286904188E+02  0.34598240350E+02  0.30370567430E+03  0.30608814788E+03  0.47000000000E+01 0.  1.
         -5    1    4    4    0  502 -0.15908768938E+02 -0.37588776820E+02  0.21582222935E+02  0.46409992661E+02  0.47000000000E+01 0.  1.
          5    1    5    5  503    0 -0.46697788430E+02  0.96697955652E+01  0.15464346532E+03  0.16189774476E+03  0.47000000000E+01 0. -1.
         -5    1    5    5    0  503  0.47319653180E+02 -0.66792590947E+01  0.18435209446E+02  0.51436456200E+02  0.47000000000E+01 0. -1.
<mgrwt>
<rscale>  0 0.26794962E+03</rscale>
<asrwt>0</asrwt>
<pdfrwt beam="1">  1        1 0.51896750E-02 0.26794962E+03</pdfrwt>
<pdfrwt beam="2">  1       -1 0.81861449E-01 0.26794962E+03</pdfrwt>
<totfact> 0.24502155E+03</totfact>
</mgrwt>
</event>
<event>
 9    1  0.8175317E-001  0.2810337E+03  0.7818608E-02  0.1095126E+00
         -2   -1    0    0    0  501 -0.00000000000E+00  0.00000000000E+00  0.10137045157E+02  0.10137045157E+02  0.00000000000E+00 0. -1.
          2   -1    0    0  501    0  0.00000000000E+00 -0.00000000000E+00 -0.19478042217E+04  0.19478042217E+04  0.00000000000E+00 0. -1.
         35    2    1    2    0    0  0.00000000000E+00  0.35527136788E-14 -0.19376671766E+04  0.19579412669E+04  0.28103365885E+03 0.  0.
         25    2    3    3    0    0  0.51496474258E+02 -0.26707480153E+02 -0.11491800367E+04  0.11574353767E+04  0.12520670179E+03 0.  0.
         25    2    3    3    0    0 -0.51496474258E+02  0.26707480153E+02 -0.78848713984E+03  0.80050589013E+03  0.12542939883E+03 0.  0.
          5    1    4    4  502    0 -0.97048344310E+01 -0.20643186192E+02 -0.91414666737E+03  0.91444329754E+03  0.47000000000E+01 0. -1.
         -5    1    4    4    0  502  0.61201308689E+02 -0.60642939614E+01 -0.23503336934E+03  0.24299207919E+03  0.47000000000E+01 0. -1.
          5    1    5    5  503    0 -0.22290343626E+02  0.92316138163E-01 -0.72642634250E+03  0.72678345401E+03  0.47000000000E+01 0. -1.
         -5    1    5    5    0  503 -0.29206130632E+02  0.26615164015E+02 -0.62060797341E+02  0.73722436128E+02  0.47000000000E+01 0. -1.
<mgrwt>
<rscale>  0 0.28103366E+03</rscale>
<asrwt>0</asrwt>
<pdfrwt beam="1">  1        2 0.29966233E+00 0.28103366E+03</pdfrwt>
<pdfrwt beam="2">  1       -2 0.15595447E-02 0.28103366E+03</pdfrwt>
<totfact> 0.88220014E+03</totfact>
</mgrwt>
</event>
<event>
 9    1  0.8175317E-001  0.2722984E+03  0.7818608E-02  0.1099971E+00
         -2   -1    0    0    0  501 -0.00000000000E+00  0.00000000000E+00  0.14626779971E+03  0.14626779971E+03  0.00000000000E+00 0.  1.
          2   -1    0    0  501    0  0.00000000000E+00 -0.00000000000E+00 -0.12673059668E+03  0.12673059668E+03  0.00000000000E+00 0.  1.
         35    2    1    2    0    0  0.00000000000E+00  0.00000000000E+00  0.19537203038E+02  0.27299839639E+03  0.27229840640E+03 0.  0.
         25    2    3    3    0    0 -0.33093481902E+02 -0.48764447922E+02 -0.35894307655E+01  0.13548706438E+03  0.12194552339E+03 0.  0.
         25    2    3    3    0    0  0.33093481902E+02  0.48764447922E+02  0.23126633804E+02  0.13751133201E+03  0.12207118954E+03 0.  0.
          5    1    4    4  502    0 -0.48820700504E+02 -0.60826914641E+02 -0.44402921934E+02  0.89872597708E+02  0.47000000000E+01 0. -1.
         -5    1    4    4    0  502  0.15727218602E+02  0.12062466719E+02  0.40813491169E+02  0.45614466671E+02  0.47000000000E+01 0. -1.
          5    1    5    5  503    0  0.17713584732E+02  0.46285182788E+02 -0.45220555851E+02  0.67253831870E+02  0.47000000000E+01 0. -1.
         -5    1    5    5    0  503  0.15379897170E+02  0.24792651342E+01  0.68347189654E+02  0.70257500142E+02  0.47000000000E+01 0. -1.
<mgrwt>
<rscale>  0 0.27229841E+03</rscale>
<asrwt>0</asrwt>
<pdfrwt beam="1">  1        2 0.19497015E-01 0.27229841E+03</pdfrwt>
<pdfrwt beam="2">  1       -2 0.22502738E-01 0.27229841E+03</pdfrwt>
<totfact> 0.48615311E+03</totfact>
</mgrwt>
</event>
<event>
 9    1  0.8175317E-001  0.2721192E+03  0.7818608E-02  0.1100073E+00
         -1   -1    0    0    0  501 -0.00000000000E+00  0.00000000000E+00  0.41136375520E+02  0.41136375520E+02  0.00000000000E+00 0.  1.
          1   -1    0    0  501    0  0.00000000000E+00 -0.00000000000E+00 -0.45002056704E+03  0.45002056704E+03  0.00000000000E+00 0.  1.
         35    2    1    2    0    0 -0.71054273576E-14  0.00000000000E+00 -0.40888419152E+03  0.49115694256E+03  0.27211920210E+03 0.  0.
         25    2    3    3    0    0 -0.47983992944E+02  0.23409751744E+02 -0.19850453811E+03  0.24050819360E+03  0.12485855791E+03 0.  0.
         25    2    3    3    0    0  0.47983992944E+02 -0.23409751744E+02 -0.21037965340E+03  0.25064874896E+03  0.12535835326E+03 0.  0.
          5    1    4    4  502    0 -0.51720659332E+02  0.53455218301E+02 -0.19608753716E+03  0.20977344731E+03  0.47000000000E+01 0. -1.
         -5    1    4    4    0  502  0.37366663876E+01 -0.30045466557E+02 -0.24170009549E+01  0.30734746297E+02  0.47000000000E+01 0. -1.
          5    1    5    5  503    0 -0.13276374275E+02 -0.18568490357E+01  0.12209759893E+02  0.18731744149E+02  0.47000000000E+01 0.  1.
         -5    1    5    5    0  503  0.61260367218E+02 -0.21552902708E+02 -0.22258941330E+03  0.23191700481E+03  0.47000000000E+01 0.  1.
<mgrwt>
<rscale>  0 0.27211920E+03</rscale>
<asrwt>0</asrwt>
<pdfrwt beam="1">  1        1 0.69233933E-01 0.27211920E+03</pdfrwt>
<pdfrwt beam="2">  1       -1 0.63286732E-02 0.27211920E+03</pdfrwt>
<totfact> 0.63630522E+03</totfact>
</mgrwt>
</event>
<event>
 9    1  0.8175317E-001  0.2942797E+03  0.7818608E-02  0.1088136E+00
          2   -1    0    0  501    0  0.00000000000E+00  0.00000000000E+00  0.22942904379E+03  0.22942904379E+03  0.00000000000E+00 0. -1.
         -2   -1    0    0    0  501 -0.00000000000E+00 -0.00000000000E+00 -0.94365262004E+02  0.94365262004E+02  0.00000000000E+00 0. -1.
         35    2    1    2    0    0  0.00000000000E+00  0.71054273576E-14  0.13506378178E+03  0.32379430579E+03  0.29427967533E+03 0.  0.
         25    2    3    3    0    0 -0.16456712919E+02  0.43490107243E+02 -0.29855637169E+01  0.13165790365E+03  0.12313682299E+03 0.  0.
         25    2    3    3    0    0  0.16456712919E+02 -0.43490107243E+02  0.13804934550E+03  0.19213640214E+03  0.12528592262E+03 0.  0.
          5    1    4    4  502    0 -0.69487051337E+02  0.33943933209E+02 -0.37047955103E+01  0.77565819889E+02  0.47000000000E+01 0. -1.
         -5    1    4    4    0  502  0.53030338419E+02  0.95461740346E+01  0.71923179334E+00  0.54092083764E+02  0.47000000000E+01 0. -1.
          5    1    5    5  503    0  0.42393278617E+02 -0.74830151031E+01  0.14091656479E+03  0.14742033041E+03  0.47000000000E+01 0.  1.
         -5    1    5    5    0  503 -0.25936565698E+02 -0.36007092140E+02 -0.28672192850E+01  0.44716071731E+02  0.47000000000E+01 0.  1.
<mgrwt>
<rscale>  0 0.29427968E+03</rscale>
<asrwt>0</asrwt>
<pdfrwt beam="1">  1        2 0.35296776E-01 0.29427968E+03</pdfrwt>
<pdfrwt beam="2">  1       -2 0.14517733E-01 0.29427968E+03</pdfrwt>
<totfact> 0.52774323E+03</totfact>
</mgrwt>
</event>
<event>
 9    1  0.8175317E-001  0.2729785E+03  0.7818608E-02  0.1099587E+00
          2   -1    0    0  501    0  0.00000000000E+00  0.00000000000E+00  0.58613008256E+02  0.58613008256E+02  0.00000000000E+00 0.  1.
         -2   -1    0    0    0  501 -0.00000000000E+00 -0.00000000000E+00 -0.31783586737E+03  0.31783586737E+03  0.00000000000E+00 0.  1.
         35    2    1    2    0    0 -0.71054273576E-14 -0.14210854715E-13 -0.25922285911E+03  0.37644887563E+03  0.27297850698E+03 0.  0.
         25    2    3    3    0    0 -0.38092763551E+02 -0.33453657606E+02 -0.15605560064E+03  0.20652319238E+03  0.12541241029E+03 0.  0.
         25    2    3    3    0    0  0.38092763551E+02  0.33453657606E+02 -0.10316725847E+03  0.16992568325E+03  0.12514411199E+03 0.  0.
          5    1    4    4  502    0  0.21754069609E+02  0.36665604675E+02 -0.52717712271E+02  0.67962146066E+02  0.47000000000E+01 0.  1.
         -5    1    4    4    0  502 -0.59846833160E+02 -0.70119262281E+02 -0.10333788837E+03  0.13856104631E+03  0.47000000000E+01 0.  1.
          5    1    5    5  503    0  0.33440552755E+02  0.52206164084E+01  0.22528477359E+02  0.40928568218E+02  0.47000000000E+01 0.  1.
         -5    1    5    5    0  503  0.46522107960E+01  0.28233041197E+02 -0.12569573583E+03  0.12899711503E+03  0.47000000000E+01 0.  1.
<mgrwt>
<rscale>  0 0.27297851E+03</rscale>
<asrwt>0</asrwt>
<pdfrwt beam="1">  1        2 0.90173859E-02 0.27297851E+03</pdfrwt>
<pdfrwt beam="2">  1       -2 0.48897825E-01 0.27297851E+03</pdfrwt>
<totfact> 0.29204398E+03</totfact>
</mgrwt>
</event>
<event>
 9    1  0.8175317E-001  0.2745326E+03  0.7818608E-02  0.1098713E+00
          2   -1    0    0  501    0  0.00000000000E+00  0.00000000000E+00  0.89904015290E+03  0.89904015290E+03  0.00000000000E+00 0.  1.
         -2   -1    0    0    0  501 -0.00000000000E+00 -0.00000000000E+00 -0.20957945656E+02  0.20957945656E+02  0.00000000000E+00 0.  1.
         35    2    1    2    0    0  0.35527136788E-14  0.28421709430E-13  0.87808220724E+03  0.91999809856E+03  0.27453258216E+03 0.  0.
         25    2    3    3    0    0 -0.18647973195E+02 -0.62763760613E+02  0.51113912510E+03  0.53023871635E+03  0.12491138683E+03 0.  0.
         25    2    3    3    0    0  0.18647973195E+02  0.62763760613E+02  0.36694308214E+03  0.38975938220E+03  0.11392152533E+03 0.  0.
          5    1    4    4  502    0  0.59188394772E+00 -0.74349712255E+02  0.49851219858E+03  0.50404834309E+03  0.47000000000E+01 0. -1.
         -5    1    4    4    0  502 -0.19239857142E+02  0.11585951642E+02  0.12626926521E+02  0.26190373264E+02  0.47000000000E+01 0. -1.
          5    1    5    5  503    0 -0.38374756521E+01 -0.31056483599E+02  0.13190555720E+03  0.13564806454E+03  0.47000000000E+01 0.  1.
         -5    1    5    5    0  503  0.22485448847E+02  0.93820244212E+02  0.23503752495E+03  0.25411131767E+03  0.47000000000E+01 0.  1.
<mgrwt>
<rscale>  0 0.27453258E+03</rscale>
<asrwt>0</asrwt>
<pdfrwt beam="1">  1        2 0.13831384E+00 0.27453258E+03</pdfrwt>
<pdfrwt beam="2">  1       -2 0.32243000E-02 0.27453258E+03</pdfrwt>
<totfact> 0.11532799E+04</totfact>
</mgrwt>
</event>
<event>
 9    1  0.8175317E-001  0.2720355E+03  0.7818608E-02  0.1100120E+00
         -2   -1    0    0    0  501 -0.00000000000E+00  0.00000000000E+00  0.11387841307E+02  0.11387841307E+02  0.00000000000E+00 0. -1.
          2   -1    0    0  501    0  0.00000000000E+00 -0.00000000000E+00 -0.16246125763E+04  0.16246125763E+04  0.00000000000E+00 0. -1.
         35    2    1    2    0    0 -0.71054273576E-14  0.00000000000E+00 -0.16132247350E+04  0.16360004177E+04  0.27203551389E+03 0.  0.
         25    2    3    3    0    0  0.23762769950E+02 -0.38200799735E+02 -0.71440611510E+03  0.72677397361E+03  0.12569940768E+03 0.  0.
         25    2    3    3    0    0 -0.23762769950E+02  0.38200799735E+02 -0.89881861994E+03  0.90922644404E+03  0.12959106705E+03 0.  0.
          5    1    4    4  502    0  0.58492028817E+02  0.22854106191E+02 -0.32101496497E+03  0.32713349773E+03  0.47000000000E+01 0.  1.
         -5    1    4    4    0  502 -0.34729258867E+02 -0.61054905925E+02 -0.39339115013E+03  0.39964047588E+03  0.47000000000E+01 0.  1.
          5    1    5    5  503    0  0.41880266523E+02  0.50123802330E+02 -0.32567947097E+03  0.33219807359E+03  0.47000000000E+01 0.  1.
         -5    1    5    5    0  503 -0.65643036473E+02 -0.11923002595E+02 -0.57313914897E+03  0.57702837045E+03  0.47000000000E+01 0.  1.
<mgrwt>
<rscale>  0 0.27203551E+03</rscale>
<asrwt>0</asrwt>
<pdfrwt beam="1">  1        2 0.24994060E+00 0.27203551E+03</pdfrwt>
<pdfrwt beam="2">  1       -2 0.17519741E-02 0.27203551E+03</pdfrwt>
<totfact> 0.10997491E+04</totfact>
</mgrwt>
</event>
<event>
 9    1  0.8175317E-001  0.2788662E+03  0.7818608E-02  0.1096310E+00
          2   -1    0    0  501    0  0.00000000000E+00  0.00000000000E+00  0.47544525501E+03  0.47544525501E+03  0.00000000000E+00 0. -1.
         -2   -1    0    0    0  501 -0.00000000000E+00 -0.00000000000E+00 -0.40891341940E+02  0.40891341940E+02  0.00000000000E+00 0. -1.
         35    2    1    2    0    0  0.00000000000E+00 -0.71054273576E-14  0.43455391307E+03  0.51633659695E+03  0.27886623672E+03 0.  0.
         25    2    3    3    0    0 -0.47387186544E+02  0.29572350303E+02  0.27127429848E+03  0.30342519056E+03  0.12392349213E+03 0.  0.
         25    2    3    3    0    0  0.47387186544E+02 -0.29572350303E+02  0.16327961459E+03  0.21291140638E+03  0.12470350868E+03 0.  0.
          5    1    4    4  502    0 -0.18198010510E+02  0.29509665185E+02  0.27161395364E+03  0.27385802478E+03  0.47000000000E+01 0.  1.
         -5    1    4    4    0  502 -0.29189176034E+02  0.62685117775E-01 -0.33965515728E+00  0.29567165785E+02  0.47000000000E+01 0.  1.
          5    1    5    5  503    0  0.87754153030E+02 -0.24959850922E+02  0.85954131128E+02  0.12543519518E+03  0.47000000000E+01 0.  1.
         -5    1    5    5    0  503 -0.40366966486E+02 -0.46124993809E+01  0.77325483459E+02  0.87476211200E+02  0.47000000000E+01 0.  1.
<mgrwt>
<rscale>  0 0.27886624E+03</rscale>
<asrwt>0</asrwt>
<pdfrwt beam="1">  1        2 0.73145420E-01 0.27886624E+03</pdfrwt>
<pdfrwt beam="2">  1       -2 0.62909760E-02 0.27886624E+03</pdfrwt>
<totfact> 0.90164521E+03</totfact>
</mgrwt>
</event>
<event>
 9    1  0.8175317E-001  0.2702732E+03  0.7818608E-02  0.1101123E+00
         -1   -1    0    0    0  501 -0.00000000000E+00  0.00000000000E+00  0.93630760133E+01  0.93630760133E+01  0.00000000000E+00 0.  1.
          1   -1    0    0  501    0  0.00000000000E+00 -0.00000000000E+00 -0.19504173133E+04  0.19504173133E+04  0.00000000000E+00 0.  1.
         35    2    1    2    0    0 -0.35527136788E-14  0.00000000000E+00 -0.19410542373E+04  0.19597803893E+04  0.27027323628E+03 0.  0.
         25    2    3    3    0    0  0.18868504169E+02 -0.13010166493E+02 -0.63800459334E+03  0.65061710596E+03  0.12540922043E+03 0.  0.
         25    2    3    3    0    0 -0.18868504169E+02  0.13010166493E+02 -0.13030496439E+04  0.13091632833E+04  0.12427728270E+03 0.  0.
          5    1    4    4  502    0  0.41421532769E+02 -0.59881356382E+02 -0.30930657684E+03  0.31779579716E+03  0.47000000000E+01 0. -1.
         -5    1    4    4    0  502 -0.22553028600E+02  0.46871189889E+02 -0.32869801650E+03  0.33282130880E+03  0.47000000000E+01 0. -1.
          5    1    5    5  503    0 -0.31842048156E+02  0.43086241293E+02 -0.25587539075E+03  0.26146633782E+03  0.47000000000E+01 0. -1.
         -5    1    5    5    0  503  0.12973543988E+02 -0.30076074800E+02 -0.10471742532E+04  0.10476969455E+04  0.47000000000E+01 0. -1.
<mgrwt>
<rscale>  0 0.27027324E+03</rscale>
<asrwt>0</asrwt>
<pdfrwt beam="1">  1        1 0.30006428E+00 0.27027324E+03</pdfrwt>
<pdfrwt beam="2">  1       -1 0.14404729E-02 0.27027324E+03</pdfrwt>
<totfact> 0.40225935E+03</totfact>
</mgrwt>
</event>
<event>
 9    1  0.8175317E-001  0.2753535E+03  0.7818608E-02  0.1098254E+00
          2   -1    0    0  501    0  0.00000000000E+00  0.00000000000E+00  0.56339835458E+03  0.56339835458E+03  0.00000000000E+00 0.  1.
         -2   -1    0    0    0  501 -0.00000000000E+00 -0.00000000000E+00 -0.33643840275E+02  0.33643840275E+02  0.00000000000E+00 0.  1.
         35    2    1    2    0    0 -0.35527136788E-14  0.17763568394E-14  0.52975451430E+03  0.59704219485E+03  0.27535347648E+03 0.  0.
         25    2    3    3    0    0 -0.14671994102E+02 -0.89641321517E+01  0.36673282825E+03  0.39064644288E+03  0.13347678801E+03 0.  0.
         25    2    3    3    0    0  0.14671994102E+02  0.89641321517E+01  0.16302168605E+03  0.20639575197E+03  0.12540938256E+03 0.  0.
          5    1    4    4  502    0 -0.35625408736E+01 -0.67940004805E+02  0.25220356248E+03  0.26126090959E+03  0.47000000000E+01 0.  1.
         -5    1    4    4    0  502 -0.11109453228E+02  0.58975872654E+02  0.11452926577E+03  0.12938553329E+03  0.47000000000E+01 0.  1.
          5    1    5    5  503    0 -0.51225751347E+02 -0.47399515818E+01  0.37315107928E+02  0.63726384032E+02  0.47000000000E+01 0.  1.
         -5    1    5    5    0  503  0.65897745449E+02  0.13704083734E+02  0.12570657812E+03  0.14266936794E+03  0.47000000000E+01 0.  1.
<mgrwt>
<rscale>  0 0.27535348E+03</rscale>
<asrwt>0</asrwt>
<pdfrwt beam="1">  1        2 0.86676663E-01 0.27535348E+03</pdfrwt>
<pdfrwt beam="2">  1       -2 0.51759758E-02 0.27535348E+03</pdfrwt>
<totfact> 0.10033578E+04</totfact>
</mgrwt>
</event>
<event>
 9    1  0.8175317E-001  0.2789585E+03  0.7818608E-02  0.1096259E+00
          1   -1    0    0  501    0  0.00000000000E+00  0.00000000000E+00  0.48489396434E+03  0.48489396434E+03  0.00000000000E+00 0. -1.
         -1   -1    0    0    0  501 -0.00000000000E+00 -0.00000000000E+00 -0.40121050888E+02  0.40121050888E+02  0.00000000000E+00 0. -1.
         35    2    1    2    0    0  0.00000000000E+00  0.71054273576E-14  0.44477291346E+03  0.52501501523E+03  0.27895845869E+03 0.  0.
         25    2    3    3    0    0 -0.52202638718E+02  0.19218223997E+02  0.27389853402E+03  0.30617487040E+03  0.12501275417E+03 0.  0.
         25    2    3    3    0    0  0.52202638718E+02 -0.19218223997E+02  0.17087437943E+03  0.21884014483E+03  0.12489395429E+03 0.  0.
          5    1    4    4  502    0 -0.53265498918E+02 -0.13689175231E+02  0.26643094458E+03  0.27208848767E+03  0.47000000000E+01 0.  1.
         -5    1    4    4    0  502  0.10628601999E+01  0.32907399228E+02  0.74675894434E+01  0.34086382734E+02  0.47000000000E+01 0.  1.
          5    1    5    5  503    0  0.21704725633E+00  0.10996763735E+02  0.15634614163E+03  0.15680300356E+03  0.47000000000E+01 0.  1.
         -5    1    5    5    0  503  0.51985591462E+02 -0.30214987732E+02  0.14528237803E+02  0.62037141270E+02  0.47000000000E+01 0.  1.
<mgrwt>
<rscale>  0 0.27895846E+03</rscale>
<asrwt>0</asrwt>
<pdfrwt beam="1">  1        1 0.74599067E-01 0.27895846E+03</pdfrwt>
<pdfrwt beam="2">  1       -1 0.61724697E-02 0.27895846E+03</pdfrwt>
<totfact> 0.59961349E+03</totfact>
</mgrwt>
</event>
<event>
 9    1  0.8175317E-001  0.2742669E+03  0.7818608E-02  0.1098862E+00
         -4   -1    0    0    0  501 -0.00000000000E+00  0.00000000000E+00  0.43540443672E+02  0.43540443672E+02  0.00000000000E+00 0. -1.
          4   -1    0    0  501    0  0.00000000000E+00 -0.00000000000E+00 -0.43191056728E+03  0.43191056728E+03  0.00000000000E+00 0. -1.
         35    2    1    2    0    0  0.00000000000E+00  0.00000000000E+00 -0.38837012361E+03  0.47545101096E+03  0.27426686075E+03 0.  0.
         25    2    3    3    0    0 -0.48879950478E+02  0.17425777181E+02 -0.22294445771E+03  0.26129384995E+03  0.12600530754E+03 0.  0.
         25    2    3    3    0    0  0.48879950478E+02 -0.17425777181E+02 -0.16542566590E+03  0.21415716101E+03  0.12571687000E+03 0.  0.
          5    1    4    4  502    0 -0.56919785995E+02  0.63914241393E+02 -0.16886621845E+03  0.18937471327E+03  0.47000000000E+01 0.  1.
         -5    1    4    4    0  502  0.80398355166E+01 -0.46488464212E+02 -0.54078239258E+02  0.71919136683E+02  0.47000000000E+01 0.  1.
          5    1    5    5  503    0 -0.22789135870E+02 -0.34331151096E+02 -0.12127604071E+03  0.12817152843E+03  0.47000000000E+01 0.  1.
         -5    1    5    5    0  503  0.71669086348E+02  0.16905373915E+02 -0.44149625188E+02  0.85985632575E+02  0.47000000000E+01 0.  1.
<mgrwt>
<rscale>  0 0.27426686E+03</rscale>
<asrwt>0</asrwt>
<pdfrwt beam="1">  1        4 0.66447778E-01 0.27426686E+03</pdfrwt>
<pdfrwt beam="2">  1       -4 0.66985299E-02 0.27426686E+03</pdfrwt>
<totfact> 0.59218308E+02</totfact>
</mgrwt>
</event>
<event>
 9    1  0.8175317E-001  0.2708387E+03  0.7818608E-02  0.1100801E+00
         -3   -1    0    0    0  501 -0.00000000000E+00  0.00000000000E+00  0.14751110285E+02  0.14751110285E+02  0.00000000000E+00 0. -1.
          3   -1    0    0  501    0  0.00000000000E+00 -0.00000000000E+00 -0.12431882560E+04  0.12431882560E+04  0.00000000000E+00 0. -1.
         35    2    1    2    0    0  0.00000000000E+00 -0.71054273576E-14 -0.12284371457E+04  0.12579393662E+04  0.27083874958E+03 0.  0.
         25    2    3    3    0    0 -0.23113134354E+02 -0.18939054874E+02 -0.41690698794E+03  0.43638812392E+03  0.12542030669E+03 0.  0.
         25    2    3    3    0    0  0.23113134354E+02  0.18939054874E+02 -0.81153015773E+03  0.82155124232E+03  0.12438786944E+03 0.  0.
          5    1    4    4  502    0 -0.10513097711E+02  0.51700925554E+02 -0.23249087795E+03  0.23844833666E+03  0.47000000000E+01 0. -1.
         -5    1    4    4    0  502 -0.12600036643E+02 -0.70639980428E+02 -0.18441610999E+03  0.19793978726E+03  0.47000000000E+01 0. -1.
          5    1    5    5  503    0 -0.15641540265E+02 -0.29358494472E+02 -0.60387235361E+03  0.60480615774E+03  0.47000000000E+01 0. -1.
         -5    1    5    5    0  503  0.38754674619E+02  0.48297549346E+02 -0.20765780412E+03  0.21674508458E+03  0.47000000000E+01 0. -1.
<mgrwt>
<rscale>  0 0.27083875E+03</rscale>
<asrwt>0</asrwt>
<pdfrwt beam="1">  1        3 0.19125977E+00 0.27083875E+03</pdfrwt>
<pdfrwt beam="2">  1       -3 0.22694011E-02 0.27083875E+03</pdfrwt>
<totfact> 0.36053531E+02</totfact>
</mgrwt>
</event>
<event>
 9    1  0.8175317E-001  0.2839347E+03  0.7818608E-02  0.1093559E+00
         -1   -1    0    0    0  501 -0.00000000000E+00  0.00000000000E+00  0.14233049133E+03  0.14233049133E+03  0.00000000000E+00 0.  1.
          1   -1    0    0  501    0  0.00000000000E+00 -0.00000000000E+00 -0.14160514309E+03  0.14160514309E+03  0.00000000000E+00 0.  1.
         35    2    1    2    0    0  0.71054273576E-14  0.14210854715E-13  0.72534824417E+00  0.28393563441E+03  0.28393470792E+03 0.  0.
         25    2    3    3    0    0 -0.31697477188E+02 -0.52788105890E+02  0.29613307984E+02  0.14189583607E+03  0.12436304154E+03 0.  0.
         25    2    3    3    0    0  0.31697477188E+02  0.52788105890E+02 -0.28887959740E+02  0.14203979835E+03  0.12469753772E+03 0.  0.
          5    1    4    4  502    0 -0.72493723726E+02 -0.60015683763E+02  0.33523383087E+02  0.10001564623E+03  0.47000000000E+01 0.  1.
         -5    1    4    4    0  502  0.40796246538E+02  0.72275778726E+01 -0.39100751035E+01  0.41880189837E+02  0.47000000000E+01 0.  1.
          5    1    5    5  503    0  0.28371026562E+02  0.41323034559E+01  0.44892117063E+02  0.53473201273E+02  0.47000000000E+01 0.  1.
         -5    1    5    5    0  503  0.33264506262E+01  0.48655802434E+02 -0.73780076802E+02  0.88566597074E+02  0.47000000000E+01 0.  1.
<mgrwt>
<rscale>  0 0.28393471E+03</rscale>
<asrwt>0</asrwt>
<pdfrwt beam="1">  1        1 0.21785407E-01 0.28393471E+03</pdfrwt>
<pdfrwt beam="2">  1       -1 0.21896999E-01 0.28393471E+03</pdfrwt>
<totfact> 0.39508241E+03</totfact>
</mgrwt>
</event>
<event>
 9    1  0.8175317E-001  0.2705138E+03  0.7818608E-02  0.1100986E+00
          2   -1    0    0  501    0  0.00000000000E+00  0.00000000000E+00  0.22633480621E+03  0.22633480621E+03  0.00000000000E+00 0. -1.
         -2   -1    0    0    0  501 -0.00000000000E+00 -0.00000000000E+00 -0.80829070180E+02  0.80829070180E+02  0.00000000000E+00 0. -1.
         35    2    1    2    0    0  0.14210854715E-13  0.71054273576E-14  0.14550573603E+03  0.30716387639E+03  0.27051382172E+03 0.  0.
         25    2    3    3    0    0  0.37669004258E+02  0.23050841582E+02  0.96218906769E+02  0.16602735831E+03  0.12789335600E+03 0.  0.
         25    2    3    3    0    0 -0.37669004258E+02 -0.23050841582E+02  0.49286829258E+02  0.14113651808E+03  0.12465965673E+03 0.  0.
          5    1    4    4  502    0  0.42581078133E+02  0.69075249988E+02  0.33445985598E+02  0.87893471479E+02  0.47000000000E+01 0.  1.
         -5    1    4    4    0  502 -0.49120738743E+01 -0.46024408406E+02  0.62772921171E+02  0.78133886830E+02  0.47000000000E+01 0.  1.
          5    1    5    5  503    0  0.28653579112E+01 -0.67151146691E+02  0.71584701564E+01  0.67755593664E+02  0.47000000000E+01 0. -1.
         -5    1    5    5    0  503 -0.40534362170E+02  0.44100305108E+02  0.42128359102E+02  0.73380924413E+02  0.47000000000E+01 0. -1.
<mgrwt>
<rscale>  0 0.27051382E+03</rscale>
<asrwt>0</asrwt>
<pdfrwt beam="1">  1        2 0.34820739E-01 0.27051382E+03</pdfrwt>
<pdfrwt beam="2">  1       -2 0.12435242E-01 0.27051382E+03</pdfrwt>
<totfact> 0.68782603E+03</totfact>
</mgrwt>
</event>
<event>
 9    1  0.8175317E-001  0.2757110E+03  0.7818608E-02  0.1098055E+00
         -1   -1    0    0    0  501 -0.00000000000E+00  0.00000000000E+00  0.29689880605E+02  0.29689880605E+02  0.00000000000E+00 0. -1.
          1   -1    0    0  501    0  0.00000000000E+00 -0.00000000000E+00 -0.64008795208E+03  0.64008795208E+03  0.00000000000E+00 0. -1.
         35    2    1    2    0    0  0.71054273576E-14 -0.35527136788E-14 -0.61039807147E+03  0.66977783268E+03  0.27571097094E+03 0.  0.
         25    2    3    3    0    0  0.38249997884E+02 -0.23834541571E+02 -0.22486303928E+03  0.26186416771E+03  0.12640533291E+03 0.  0.
         25    2    3    3    0    0 -0.38249997884E+02  0.23834541571E+02 -0.38553503219E+03  0.40791366497E+03  0.12539995738E+03 0.  0.
          5    1    4    4  502    0  0.76562659931E+02 -0.44127320726E+02 -0.17117378315E+03  0.19269565477E+03  0.47000000000E+01 0.  1.
         -5    1    4    4    0  502 -0.38312662046E+02  0.20292779155E+02 -0.53689256133E+02  0.69168512945E+02  0.47000000000E+01 0.  1.
          5    1    5    5  503    0 -0.70073672245E+02  0.80923491695E+01 -0.11481283035E+03  0.13483279152E+03  0.47000000000E+01 0.  1.
         -5    1    5    5    0  503  0.31823674361E+02  0.15742192401E+02 -0.27072220185E+03  0.27308087345E+03  0.47000000000E+01 0.  1.
<mgrwt>
<rscale>  0 0.27571097E+03</rscale>
<asrwt>0</asrwt>
<pdfrwt beam="1">  1        1 0.98475059E-01 0.27571097E+03</pdfrwt>
<pdfrwt beam="2">  1       -1 0.45676744E-02 0.27571097E+03</pdfrwt>
<totfact> 0.64504215E+03</totfact>
</mgrwt>
</event>
<event>
 9    1  0.8175317E-001  0.3076335E+03  0.7818608E-02  0.1081486E+00
         -1   -1    0    0    0  501 -0.00000000000E+00  0.00000000000E+00  0.59901309904E+02  0.59901309904E+02  0.00000000000E+00 0. -1.
          1   -1    0    0  501    0  0.00000000000E+00 -0.00000000000E+00 -0.39497629339E+03  0.39497629339E+03  0.00000000000E+00 0. -1.
         35    2    1    2    0    0 -0.62172489379E-14  0.00000000000E+00 -0.33507498349E+03  0.45487760330E+03  0.30763353104E+03 0.  0.
         25    2    3    3    0    0 -0.12681080234E+01  0.59994482539E+01 -0.29917954206E+03  0.32397801686E+03  0.12416020115E+03 0.  0.
         25    2    3    3    0    0  0.12681080234E+01 -0.59994482539E+01 -0.35895441434E+02  0.13089958643E+03  0.12573232494E+03 0.  0.
          5    1    4    4  502    0  0.46461856394E+02 -0.20337144200E+02 -0.23104478719E+03  0.23659266096E+03  0.47000000000E+01 0.  1.
         -5    1    4    4    0  502 -0.47729964417E+02  0.26336592454E+02 -0.68134754869E+02  0.87385355903E+02  0.47000000000E+01 0.  1.
          5    1    5    5  503    0 -0.42603276402E+01 -0.65513082018E+02 -0.21489796632E+02  0.69238830625E+02  0.47000000000E+01 0.  1.
         -5    1    5    5    0  503  0.55284356636E+01  0.59513633764E+02 -0.14405644802E+02  0.61660755808E+02  0.47000000000E+01 0.  1.
<mgrwt>
<rscale>  0 0.30763353E+03</rscale>
<asrwt>0</asrwt>
<pdfrwt beam="1">  1        1 0.60765583E-01 0.30763353E+03</pdfrwt>
<pdfrwt beam="2">  1       -1 0.92155862E-02 0.30763353E+03</pdfrwt>
<totfact> 0.42585718E+03</totfact>
</mgrwt>
</event>
<event>
 9    1  0.8175317E-001  0.2668536E+03  0.7818608E-02  0.1103094E+00
         -2   -1    0    0    0  501 -0.00000000000E+00  0.00000000000E+00  0.11389364537E+03  0.11389364537E+03  0.00000000000E+00 0. -1.
          2   -1    0    0  501    0  0.00000000000E+00 -0.00000000000E+00 -0.15630997056E+03  0.15630997056E+03  0.00000000000E+00 0. -1.
         35    2    1    2    0    0  0.35527136788E-14  0.00000000000E+00 -0.42416325187E+02  0.27020361593E+03  0.26685361046E+03 0.  0.
         25    2    3    3    0    0  0.26845408789E+02 -0.68634392022E+01 -0.58190513232E+02  0.14078301486E+03  0.12516364756E+03 0.  0.
         25    2    3    3    0    0 -0.26845408789E+02  0.68634392022E+01  0.15774188045E+02  0.12942060107E+03  0.12543159173E+03 0.  0.
          5    1    4    4  502    0  0.70031979094E+02  0.23986621194E+02 -0.41250564071E+02  0.84873642129E+02  0.47000000000E+01 0.  1.
         -5    1    4    4    0  502 -0.43186570304E+02 -0.30850060396E+02 -0.16939949162E+02  0.55909372727E+02  0.47000000000E+01 0.  1.
          5    1    5    5  503    0 -0.52436852100E+02 -0.43942674445E+02 -0.48020554749E+01  0.68743958515E+02  0.47000000000E+01 0. -1.
         -5    1    5    5    0  503  0.25591443310E+02  0.50806113647E+02  0.20576243520E+02  0.60676642557E+02  0.47000000000E+01 0. -1.
<mgrwt>
<rscale>  0 0.26685361E+03</rscale>
<asrwt>0</asrwt>
<pdfrwt beam="1">  1        2 0.24047688E-01 0.26685361E+03</pdfrwt>
<pdfrwt beam="2">  1       -2 0.17522099E-01 0.26685361E+03</pdfrwt>
<totfact> 0.58713389E+03</totfact>
</mgrwt>
</event>
<event>
 9    1  0.8175317E-001  0.2694706E+03  0.7818608E-02  0.1101583E+00
         -2   -1    0    0    0  501 -0.00000000000E+00  0.00000000000E+00  0.61156104811E+01  0.61156104811E+01  0.00000000000E+00 0.  1.
          2   -1    0    0  501    0  0.00000000000E+00 -0.00000000000E+00 -0.29684040874E+04  0.29684040874E+04  0.00000000000E+00 0.  1.
         35    2    1    2    0    0  0.00000000000E+00  0.35527136788E-14 -0.29622884769E+04  0.29745196979E+04  0.26947061546E+03 0.  0.
         25    2    3    3    0    0 -0.23404783170E+02 -0.86373685156E+01 -0.99459454241E+03  0.10026821737E+04  0.12462282927E+03 0.  0.
         25    2    3    3    0    0  0.23404783170E+02  0.86373685156E+01 -0.19676939345E+04  0.19718375242E+04  0.12530528325E+03 0.  0.
          5    1    4    4  502    0 -0.18733375049E+01 -0.61729876014E+02 -0.34220577629E+03  0.34776568306E+03  0.47000000000E+01 0.  1.
         -5    1    4    4    0  502 -0.21531445665E+02  0.53092507498E+02 -0.65238876612E+03  0.65491649060E+03  0.47000000000E+01 0.  1.
          5    1    5    5  503    0  0.44029924464E+02 -0.13733611030E+02 -0.27623493456E+03  0.28009833164E+03  0.47000000000E+01 0.  1.
         -5    1    5    5    0  503 -0.20625141294E+02  0.22370979546E+02 -0.16914590000E+04  0.16917391926E+04  0.47000000000E+01 0.  1.
<mgrwt>
<rscale>  0 0.26947062E+03</rscale>
<asrwt>0</asrwt>
<pdfrwt beam="1">  1        2 0.45667881E+00 0.26947062E+03</pdfrwt>
<pdfrwt beam="2">  1       -2 0.94086056E-03 0.26947062E+03</pdfrwt>
<totfact> 0.50688627E+03</totfact>
</mgrwt>
</event>
<event>
 9    1  0.8175317E-001  0.2783522E+03  0.7818608E-02  0.1096592E+00
         -1   -1    0    0    0  501 -0.00000000000E+00  0.00000000000E+00  0.18987261931E+03  0.18987261931E+03  0.00000000000E+00 0. -1.
          1   -1    0    0  501    0  0.00000000000E+00 -0.00000000000E+00 -0.10201567148E+03  0.10201567148E+03  0.00000000000E+00 0. -1.
         35    2    1    2    0    0  0.71054273576E-14  0.00000000000E+00  0.87856947829E+02  0.29188829079E+03  0.27835217085E+03 0.  0.
         25    2    3    3    0    0 -0.29754270726E+02 -0.22561904890E+02  0.21307300392E+01  0.13027026178E+03  0.12478559579E+03 0.  0.
         25    2    3    3    0    0  0.29754270726E+02  0.22561904890E+02  0.85726217789E+02  0.16161802900E+03  0.13182202662E+03 0.  0.
          5    1    4    4  502    0 -0.76336882120E+02 -0.92200375079E+01 -0.15339391239E+02  0.78547537116E+02  0.47000000000E+01 0. -1.
         -5    1    4    4    0  502  0.46582611394E+02 -0.13341867383E+02  0.17470121278E+02  0.51722724667E+02  0.47000000000E+01 0. -1.
          5    1    5    5  503    0  0.25334091386E+02 -0.17923936273E+02  0.10971651360E+03  0.11411786465E+03  0.47000000000E+01 0. -1.
         -5    1    5    5    0  503  0.44201793399E+01  0.40485841164E+02 -0.23990295806E+02  0.47500164347E+02  0.47000000000E+01 0. -1.
<mgrwt>
<rscale>  0 0.27835217E+03</rscale>
<asrwt>0</asrwt>
<pdfrwt beam="1">  1        1 0.15694719E-01 0.27835217E+03</pdfrwt>
<pdfrwt beam="2">  1       -1 0.29211172E-01 0.27835217E+03</pdfrwt>
<totfact> 0.37353680E+03</totfact>
</mgrwt>
</event>
<event>
 9    1  0.8175317E-001  0.2739170E+03  0.7818608E-02  0.1099058E+00
          1   -1    0    0  501    0  0.00000000000E+00  0.00000000000E+00  0.10616403285E+03  0.10616403285E+03  0.00000000000E+00 0.  1.
         -1   -1    0    0    0  501 -0.00000000000E+00 -0.00000000000E+00 -0.17668537992E+03  0.17668537992E+03  0.00000000000E+00 0.  1.
         35    2    1    2    0    0  0.00000000000E+00  0.00000000000E+00 -0.70521347078E+02  0.28284941277E+03  0.27391701282E+03 0.  0.
         25    2    3    3    0    0 -0.53628536947E+02 -0.47490042510E+01 -0.24361709731E+02  0.13895908810E+03  0.12576789037E+03 0.  0.
         25    2    3    3    0    0  0.53628536947E+02  0.47490042510E+01 -0.46159637346E+02  0.14389032467E+03  0.12520040094E+03 0.  0.
          5    1    4    4  502    0 -0.74118569824E+02  0.46646337236E+01  0.29756716517E+02  0.80142831110E+02  0.47000000000E+01 0. -1.
         -5    1    4    4    0  502  0.20490032877E+02 -0.94136379747E+01 -0.54118426248E+02  0.58816256994E+02  0.47000000000E+01 0. -1.
          5    1    5    5  503    0 -0.16363284707E+02  0.24473938603E+02  0.27296217773E+02  0.40421581634E+02  0.47000000000E+01 0. -1.
         -5    1    5    5    0  503  0.69991821654E+02 -0.19724934352E+02 -0.73455855119E+02  0.10346874303E+03  0.47000000000E+01 0. -1.
<mgrwt>
<rscale>  0 0.27391701E+03</rscale>
<asrwt>0</asrwt>
<pdfrwt beam="1">  1        1 0.16332928E-01 0.27391701E+03</pdfrwt>
<pdfrwt beam="2">  1       -1 0.27182366E-01 0.27391701E+03</pdfrwt>
<totfact> 0.40019419E+03</totfact>
</mgrwt>
</event>
<event>
 9    1  0.8175317E-001  0.2718375E+03  0.7818608E-02  0.1100233E+00
          2   -1    0    0  501    0  0.00000000000E+00  0.00000000000E+00  0.24342442729E+02  0.24342442729E+02  0.00000000000E+00 0. -1.
         -2   -1    0    0    0  501 -0.00000000000E+00 -0.00000000000E+00 -0.75891745001E+03  0.75891745001E+03  0.00000000000E+00 0. -1.
         35    2    1    2    0    0  0.14210854715E-13  0.00000000000E+00 -0.73457500728E+03  0.78325989274E+03  0.27183748500E+03 0.  0.
         25    2    3    3    0    0  0.54472663791E+02  0.13778198626E+01 -0.38702060061E+03  0.41005865891E+03  0.12407251493E+03 0.  0.
         25    2    3    3    0    0 -0.54472663791E+02 -0.13778198626E+01 -0.34755440666E+03  0.37320123383E+03  0.12456293931E+03 0.  0.
          5    1    4    4  502    0 -0.31992701470E+02 -0.59063208867E+01 -0.21327777934E+03  0.21579601186E+03  0.47000000000E+01 0.  1.
         -5    1    4    4    0  502  0.86465365261E+02  0.72841407494E+01 -0.17374282128E+03  0.19426264706E+03  0.47000000000E+01 0.  1.
          5    1    5    5  503    0 -0.85506529968E+02  0.23575977101E+02 -0.17749822782E+03  0.19848149597E+03  0.47000000000E+01 0.  1.
         -5    1    5    5    0  503  0.31033866178E+02 -0.24953796964E+02 -0.17005617885E+03  0.17471973786E+03  0.47000000000E+01 0.  1.
<mgrwt>
<rscale>  0 0.27183749E+03</rscale>
<asrwt>0</asrwt>
<pdfrwt beam="1">  1        2 0.37449914E-02 0.27183749E+03</pdfrwt>
<pdfrwt beam="2">  1       -2 0.11675652E+00 0.27183749E+03</pdfrwt>
<totfact> 0.13740746E+03</totfact>
</mgrwt>
</event>
<event>
 9    1  0.8175317E-001  0.2742143E+03  0.7818608E-02  0.1098892E+00
         -2   -1    0    0    0  501 -0.00000000000E+00  0.00000000000E+00  0.68431947102E+02  0.68431947102E+02  0.00000000000E+00 0.  1.
          2   -1    0    0  501    0  0.00000000000E+00 -0.00000000000E+00 -0.27470157907E+03  0.27470157907E+03  0.00000000000E+00 0.  1.
         35    2    1    2    0    0  0.00000000000E+00  0.00000000000E+00 -0.20626963197E+03  0.34313352617E+03  0.27421425147E+03 0.  0.
         25    2    3    3    0    0  0.52662341981E+02 -0.13021827404E+02 -0.14125826373E+03  0.19648475742E+03  0.12533743484E+03 0.  0.
         25    2    3    3    0    0 -0.52662341981E+02  0.13021827404E+02 -0.65011368233E+02  0.14664876875E+03  0.11973509563E+03 0.  0.
          5    1    4    4  502    0 -0.29029901329E+01 -0.41342752538E+02  0.31547780511E+00  0.41711390116E+02  0.47000000000E+01 0.  1.
         -5    1    4    4    0  502  0.55565332114E+02  0.28320925134E+02 -0.14157374154E+03  0.15477336730E+03  0.47000000000E+01 0.  1.
          5    1    5    5  503    0 -0.69046754615E+02  0.48430319328E+02 -0.66221140830E+02  0.10733256564E+03  0.47000000000E+01 0.  1.
         -5    1    5    5    0  503  0.16384412634E+02 -0.35408491924E+02  0.12097725969E+01  0.39316203116E+02  0.47000000000E+01 0.  1.
<mgrwt>
<rscale>  0 0.27421425E+03</rscale>
<asrwt>0</asrwt>
<pdfrwt beam="1">  1        2 0.42261781E-01 0.27421425E+03</pdfrwt>
<pdfrwt beam="2">  1       -2 0.10527992E-01 0.27421425E+03</pdfrwt>
<totfact> 0.72957655E+03</totfact>
</mgrwt>
</event>
<event>
 9    1  0.8175317E-001  0.2767485E+03  0.7818608E-02  0.1097478E+00
         -1   -1    0    0    0  501 -0.00000000000E+00  0.00000000000E+00  0.22113010013E+02  0.22113010013E+02  0.00000000000E+00 0.  1.
          1   -1    0    0  501    0  0.00000000000E+00 -0.00000000000E+00 -0.86589022711E+03  0.86589022711E+03  0.00000000000E+00 0.  1.
         35    2    1    2    0    0  0.35527136788E-14  0.00000000000E+00 -0.84377721710E+03  0.88800323713E+03  0.27674854480E+03 0.  0.
         25    2    3    3    0    0 -0.25989276117E+02  0.40749789121E+02 -0.50531575962E+03  0.52371480457E+03  0.12883008898E+03 0.  0.
         25    2    3    3    0    0  0.25989276117E+02 -0.40749789121E+02 -0.33846145748E+03  0.36428843255E+03  0.12575339400E+03 0.  0.
          5    1    4    4  502    0  0.17647283492E+02  0.59839946810E+02 -0.11899048404E+03  0.13443612290E+03  0.47000000000E+01 0.  1.
         -5    1    4    4    0  502 -0.43636559609E+02 -0.19090157689E+02 -0.38632527557E+03  0.38927868167E+03  0.47000000000E+01 0.  1.
          5    1    5    5  503    0 -0.41196775383E+02 -0.51507958093E+02 -0.18054157312E+03  0.19226958593E+03  0.47000000000E+01 0.  1.
         -5    1    5    5    0  503  0.67186051500E+02  0.10758168971E+02 -0.15791988437E+03  0.17201884663E+03  0.47000000000E+01 0.  1.
<mgrwt>
<rscale>  0 0.27674854E+03</rscale>
<asrwt>0</asrwt>
<pdfrwt beam="1">  1        1 0.13321385E+00 0.27674854E+03</pdfrwt>
<pdfrwt beam="2">  1       -1 0.34020022E-02 0.27674854E+03</pdfrwt>
<totfact> 0.63570038E+03</totfact>
</mgrwt>
</event>
<event>
 9    1  0.8175317E-001  0.2750535E+03  0.7818608E-02  0.1098422E+00
         -2   -1    0    0    0  501 -0.00000000000E+00  0.00000000000E+00  0.18189277136E+02  0.18189277136E+02  0.00000000000E+00 0.  1.
          2   -1    0    0  501    0  0.00000000000E+00 -0.00000000000E+00 -0.10398217140E+04  0.10398217140E+04  0.00000000000E+00 0.  1.
         35    2    1    2    0    0  0.00000000000E+00  0.00000000000E+00 -0.10216324369E+04  0.10580109912E+04  0.27505348810E+03 0.  0.
         25    2    3    3    0    0  0.22014435838E+02  0.51843354491E+02 -0.43516851871E+03  0.45576277781E+03  0.12318969586E+03 0.  0.
         25    2    3    3    0    0 -0.22014435838E+02 -0.51843354491E+02 -0.58646391819E+03  0.60224821337E+03  0.12486238175E+03 0.  0.
          5    1    4    4  502    0  0.47079410839E+02 -0.14301311215E+02 -0.29031750109E+03  0.29449505915E+03  0.47000000000E+01 0. -1.
         -5    1    4    4    0  502 -0.25064975000E+02  0.66144665706E+02 -0.14485101763E+03  0.16126771866E+03  0.47000000000E+01 0. -1.
          5    1    5    5  503    0 -0.28547568793E+02 -0.42369229716E+02 -0.76371883202E+02  0.92004727349E+02  0.47000000000E+01 0.  1.
         -5    1    5    5    0  503  0.65331329545E+01 -0.94741247748E+01 -0.51009203499E+03  0.51024348602E+03  0.47000000000E+01 0.  1.
<mgrwt>
<rscale>  0 0.27505349E+03</rscale>
<asrwt>0</asrwt>
<pdfrwt beam="1">  1        2 0.15997259E+00 0.27505349E+03</pdfrwt>
<pdfrwt beam="2">  1       -2 0.27983501E-02 0.27505349E+03</pdfrwt>
<totfact> 0.11638717E+04</totfact>
</mgrwt>
</event>
<event>
 9    1  0.8175317E-001  0.2739328E+03  0.7818608E-02  0.1099050E+00
          2   -1    0    0  501    0  0.00000000000E+00  0.00000000000E+00  0.19732065709E+04  0.19732065709E+04  0.00000000000E+00 0.  1.
         -2   -1    0    0    0  501 -0.00000000000E+00 -0.00000000000E+00 -0.95072663816E+01  0.95072663816E+01  0.00000000000E+00 0.  1.
         35    2    1    2    0    0 -0.10658141036E-13 -0.14210854715E-13  0.19636993045E+04  0.19827138373E+04  0.27393284210E+03 0.  0.
         25    2    3    3    0    0  0.19948939661E+02  0.34778954899E+02  0.12872872723E+04  0.12938892048E+04  0.12423049938E+03 0.  0.
         25    2    3    3    0    0 -0.19948939661E+02 -0.34778954899E+02  0.67641203222E+03  0.68882463248E+03  0.12384910611E+03 0.  0.
          5    1    4    4  502    0 -0.25857363652E+02  0.31264013495E+02  0.11079132515E+04  0.11086658219E+04  0.47000000000E+01 0. -1.
         -5    1    4    4    0  502  0.45806303313E+02  0.35149414043E+01  0.17937402082E+03  0.18522338292E+03  0.47000000000E+01 0. -1.
          5    1    5    5  503    0  0.21577317089E+02  0.30545290541E+02  0.94044918578E+02  0.10131698820E+03  0.47000000000E+01 0. -1.
         -5    1    5    5    0  503 -0.41526256750E+02 -0.65324245440E+02  0.58236711364E+03  0.58750764429E+03  0.47000000000E+01 0. -1.
<mgrwt>
<rscale>  0 0.27393284E+03</rscale>
<asrwt>0</asrwt>
<pdfrwt beam="1">  1        2 0.30356991E+00 0.27393284E+03</pdfrwt>
<pdfrwt beam="2">  1       -2 0.14626579E-02 0.27393284E+03</pdfrwt>
<totfact> 0.93944704E+03</totfact>
</mgrwt>
</event>
<event>
 9    1  0.8175317E-001  0.2745726E+03  0.7818608E-02  0.1098691E+00
         -1   -1    0    0    0  501 -0.00000000000E+00  0.00000000000E+00  0.11979183490E+02  0.11979183490E+02  0.00000000000E+00 0.  1.
          1   -1    0    0  501    0  0.00000000000E+00 -0.00000000000E+00 -0.15733565851E+04  0.15733565851E+04  0.00000000000E+00 0.  1.
         35    2    1    2    0    0 -0.71054273576E-14  0.71054273576E-14 -0.15613774016E+04  0.15853357686E+04  0.27457259315E+03 0.  0.
         25    2    3    3    0    0  0.37986785324E+02  0.27661020581E+02 -0.57352190275E+03  0.58850355419E+03  0.12329206154E+03 0.  0.
         25    2    3    3    0    0 -0.37986785324E+02 -0.27661020581E+02 -0.98785549885E+03  0.99683221439E+03  0.12493137765E+03 0.  0.
          5    1    4    4  502    0 -0.41653552385E+02 -0.51917261420E+01 -0.25633617787E+03  0.25979279923E+03  0.47000000000E+01 0.  1.
         -5    1    4    4    0  502  0.79640337709E+02  0.32852746723E+02 -0.31718572488E+03  0.32871075496E+03  0.47000000000E+01 0.  1.
          5    1    5    5  503    0 -0.32051353442E+02 -0.76635097189E+02 -0.56772001747E+03  0.57378422392E+03  0.47000000000E+01 0. -1.
         -5    1    5    5    0  503 -0.59354318819E+01  0.48974076608E+02 -0.42013548138E+03  0.42304799047E+03  0.47000000000E+01 0. -1.
<mgrwt>
<rscale>  0 0.27457259E+03</rscale>
<asrwt>0</asrwt>
<pdfrwt beam="1">  1        1 0.24205469E+00 0.27457259E+03</pdfrwt>
<pdfrwt beam="2">  1       -1 0.18429526E-02 0.27457259E+03</pdfrwt>
<totfact> 0.49464657E+03</totfact>
</mgrwt>
</event>
<event>
 9    1  0.8175317E-001  0.2761169E+03  0.7818608E-02  0.1097829E+00
          2   -1    0    0  501    0  0.00000000000E+00  0.00000000000E+00  0.13489390387E+03  0.13489390387E+03  0.00000000000E+00 0.  1.
         -2   -1    0    0    0  501 -0.00000000000E+00 -0.00000000000E+00 -0.14129728393E+03  0.14129728393E+03  0.00000000000E+00 0.  1.
         35    2    1    2    0    0  0.00000000000E+00  0.00000000000E+00 -0.64033800624E+01  0.27619118780E+03  0.27611694794E+03 0.  0.
         25    2    3    3    0    0 -0.32384896025E+02  0.47037212750E+02 -0.98823886807E+01  0.13790394578E+03  0.12513415114E+03 0.  0.
         25    2    3    3    0    0  0.32384896025E+02 -0.47037212750E+02  0.34790086183E+01  0.13828724202E+03  0.12589669150E+03 0.  0.
          5    1    4    4  502    0  0.24977582812E+02 -0.31293408870E+02 -0.15222701674E+01  0.40343083525E+02  0.47000000000E+01 0.  1.
         -5    1    4    4    0  502 -0.57362478837E+02  0.78330621620E+02 -0.83601185133E+01  0.97560862252E+02  0.47000000000E+01 0.  1.
          5    1    5    5  503    0 -0.18584293950E+02  0.20939344327E+02 -0.34859428034E+02  0.44956666306E+02  0.47000000000E+01 0. -1.
         -5    1    5    5    0  503  0.50969189975E+02 -0.67976557077E+02  0.38338436653E+02  0.93330575717E+02  0.47000000000E+01 0. -1.
<mgrwt>
<rscale>  0 0.27611695E+03</rscale>
<asrwt>0</asrwt>
<pdfrwt beam="1">  1        2 0.20752908E-01 0.27611695E+03</pdfrwt>
<pdfrwt beam="2">  1       -2 0.21738044E-01 0.27611695E+03</pdfrwt>
<totfact> 0.48083274E+03</totfact>
</mgrwt>
</event>
<event>
 9    1  0.8175317E-001  0.2767896E+03  0.7818608E-02  0.1097455E+00
          1   -1    0    0  501    0  0.00000000000E+00  0.00000000000E+00  0.11412835982E+04  0.11412835982E+04  0.00000000000E+00 0.  1.
         -1   -1    0    0    0  501 -0.00000000000E+00 -0.00000000000E+00 -0.16782087861E+02  0.16782087861E+02  0.00000000000E+00 0.  1.
         35    2    1    2    0    0 -0.71054273576E-14  0.10658141036E-13  0.11245015103E+04  0.11580656860E+04  0.27678960688E+03 0.  0.
         25    2    3    3    0    0  0.62026240633E+02 -0.18899332662E+02  0.58927184962E+03  0.60528111191E+03  0.12214529211E+03 0.  0.
         25    2    3    3    0    0 -0.62026240633E+02  0.18899332662E+02  0.53522966069E+03  0.55278457412E+03  0.12204735309E+03 0.  0.
          5    1    4    4  502    0  0.58979556305E+02 -0.65349796816E+02  0.44379454961E+03  0.45246533157E+03  0.47000000000E+01 0.  1.
         -5    1    4    4    0  502  0.30466843274E+01  0.46450464154E+02  0.14547730000E+03  0.15281578034E+03  0.47000000000E+01 0.  1.
          5    1    5    5  503    0 -0.79016970401E+02  0.34359656630E+02  0.21461352896E+03  0.23131217959E+03  0.47000000000E+01 0. -1.
         -5    1    5    5    0  503  0.16990729769E+02 -0.15460323968E+02  0.32061613174E+03  0.32147239453E+03  0.47000000000E+01 0. -1.
<mgrwt>
<rscale>  0 0.27678961E+03</rscale>
<asrwt>0</asrwt>
<pdfrwt beam="1">  1        1 0.17558203E+00 0.27678961E+03</pdfrwt>
<pdfrwt beam="2">  1       -1 0.25818606E-02 0.27678961E+03</pdfrwt>
<totfact> 0.59335092E+03</totfact>
</mgrwt>
</event>
<event>
 9    1  0.8175317E-001  0.2832663E+03  0.7818608E-02  0.1093918E+00
         -2   -1    0    0    0  501 -0.00000000000E+00  0.00000000000E+00  0.75203540312E+02  0.75203540312E+02  0.00000000000E+00 0.  1.
          2   -1    0    0  501    0  0.00000000000E+00 -0.00000000000E+00 -0.26674217484E+03  0.26674217484E+03  0.00000000000E+00 0.  1.
         35    2    1    2    0    0  0.00000000000E+00 -0.10658141036E-13 -0.19153863453E+03  0.34194571515E+03  0.28326634744E+03 0.  0.
         25    2    3    3    0    0  0.64159027373E+02 -0.12062324417E+02 -0.10248819862E+03  0.17492024730E+03  0.12582281826E+03 0.  0.
         25    2    3    3    0    0 -0.64159027373E+02  0.12062324417E+02 -0.89050435909E+02  0.16702546785E+03  0.12532217007E+03 0.  0.
          5    1    4    4  502    0  0.60408877274E+02 -0.64558295896E+02 -0.57980917826E+02  0.10583422345E+03  0.47000000000E+01 0.  1.
         -5    1    4    4    0  502  0.37501500995E+01  0.52495971479E+02 -0.44507280794E+02  0.69086023847E+02  0.47000000000E+01 0.  1.
          5    1    5    5  503    0  0.17053005828E+02  0.42242554469E+02 -0.47358076524E+01  0.46040811135E+02  0.47000000000E+01 0.  1.
         -5    1    5    5    0  503 -0.81212033201E+02 -0.30180230052E+02 -0.84314628257E+02  0.12098465672E+03  0.47000000000E+01 0.  1.
<mgrwt>
<rscale>  0 0.28326635E+03</rscale>
<asrwt>0</asrwt>
<pdfrwt beam="1">  1        2 0.41037258E-01 0.28326635E+03</pdfrwt>
<pdfrwt beam="2">  1       -2 0.11569775E-01 0.28326635E+03</pdfrwt>
<totfact> 0.64809179E+03</totfact>
</mgrwt>
</event>
<event>
 9    1  0.8175317E-001  0.2747605E+03  0.7818608E-02  0.1098586E+00
          3   -1    0    0  501    0  0.00000000000E+00  0.00000000000E+00  0.63442812948E+03  0.63442812948E+03  0.00000000000E+00 0. -1.
         -3   -1    0    0    0  501 -0.00000000000E+00 -0.00000000000E+00 -0.29748577735E+02  0.29748577735E+02  0.00000000000E+00 0. -1.
         35    2    1    2    0    0  0.00000000000E+00  0.00000000000E+00  0.60467955174E+03  0.66417670721E+03  0.27476051046E+03 0.  0.
         25    2    3    3    0    0 -0.43377713479E+02  0.83293189955E+01  0.38934707449E+03  0.41135142275E+03  0.12517126269E+03 0.  0.
         25    2    3    3    0    0  0.43377713479E+02 -0.83293189955E+01  0.21533247726E+03  0.25282528447E+03  0.12490614525E+03 0.  0.
          5    1    4    4  502    0 -0.11322077989E+01  0.58847606161E+02  0.25383403026E+03  0.26061106570E+03  0.47000000000E+01 0. -1.
         -5    1    4    4    0  502 -0.42245505680E+02 -0.50518287165E+02  0.13551304422E+03  0.15074035705E+03  0.47000000000E+01 0. -1.
          5    1    5    5  503    0  0.11686764789E+02  0.54829618626E+02  0.13184813909E+03  0.14334883792E+03  0.47000000000E+01 0.  1.
         -5    1    5    5    0  503  0.31690948689E+02 -0.63158937621E+02  0.83484338166E+02  0.10947644655E+03  0.47000000000E+01 0.  1.
<mgrwt>
<rscale>  0 0.27476051E+03</rscale>
<asrwt>0</asrwt>
<pdfrwt beam="1">  1        3 0.97604317E-01 0.27476051E+03</pdfrwt>
<pdfrwt beam="2">  1       -3 0.45767048E-02 0.27476051E+03</pdfrwt>
<totfact> 0.63822551E+02</totfact>
</mgrwt>
</event>
<event>
 9    1  0.8175317E-001  0.2743420E+03  0.7818608E-02  0.1098820E+00
         -1   -1    0    0    0  501 -0.00000000000E+00  0.00000000000E+00  0.48652403448E+03  0.48652403448E+03  0.00000000000E+00 0.  1.
          1   -1    0    0  501    0  0.00000000000E+00 -0.00000000000E+00 -0.38674119041E+02  0.38674119041E+02  0.00000000000E+00 0.  1.
         35    2    1    2    0    0  0.00000000000E+00  0.00000000000E+00  0.44784991544E+03  0.52519815352E+03  0.27434203780E+03 0.  0.
         25    2    3    3    0    0  0.51244226122E+01  0.28956821599E+02  0.13132177656E+03  0.18368507503E+03  0.12502016064E+03 0.  0.
         25    2    3    3    0    0 -0.51244226122E+01 -0.28956821599E+02  0.31652813888E+03  0.34151307849E+03  0.12480529979E+03 0.  0.
          5    1    4    4  502    0  0.49877135310E+02 -0.55646306096E+01  0.11357495367E+03  0.12425801319E+03  0.47000000000E+01 0.  1.
         -5    1    4    4    0  502 -0.44752712698E+02  0.34521452209E+02  0.17746822893E+02  0.59427061842E+02  0.47000000000E+01 0.  1.
          5    1    5    5  503    0  0.58190951695E+02 -0.18777521112E+02  0.18884779930E+03  0.19855569359E+03  0.47000000000E+01 0.  1.
         -5    1    5    5    0  503 -0.63315374307E+02 -0.10179300487E+02  0.12768033958E+03  0.14295738490E+03  0.47000000000E+01 0.  1.
<mgrwt>
<rscale>  0 0.27434204E+03</rscale>
<asrwt>0</asrwt>
<pdfrwt beam="1">  1        1 0.59498648E-02 0.27434204E+03</pdfrwt>
<pdfrwt beam="2">  1       -1 0.74849847E-01 0.27434204E+03</pdfrwt>
<totfact> 0.24412739E+03</totfact>
</mgrwt>
</event>
<event>
 9    1  0.8175317E-001  0.2709120E+03  0.7818608E-02  0.1100759E+00
          2   -1    0    0  501    0  0.00000000000E+00  0.00000000000E+00  0.54687890169E+02  0.54687890169E+02  0.00000000000E+00 0.  1.
         -2   -1    0    0    0  501 -0.00000000000E+00 -0.00000000000E+00 -0.33550982874E+03  0.33550982874E+03  0.00000000000E+00 0.  1.
         35    2    1    2    0    0  0.00000000000E+00  0.00000000000E+00 -0.28082193857E+03  0.39019771890E+03  0.27091197585E+03 0.  0.
         25    2    3    3    0    0 -0.33307680511E+02  0.10147219509E+02 -0.82304972626E+02  0.15324899339E+03  0.12449408746E+03 0.  0.
         25    2    3    3    0    0  0.33307680511E+02 -0.10147219509E+02 -0.19851696594E+03  0.23694872552E+03  0.12459271693E+03 0.  0.
          5    1    4    4  502    0 -0.75916301324E+02 -0.17752997162E+02 -0.51008243480E+02  0.93286572549E+02  0.47000000000E+01 0. -1.
         -5    1    4    4    0  502  0.42608620813E+02  0.27900216671E+02 -0.31296729146E+02  0.59962420841E+02  0.47000000000E+01 0. -1.
          5    1    5    5  503    0  0.80819070771E+02 -0.40054610237E+01 -0.11851981667E+03  0.14358552456E+03  0.47000000000E+01 0. -1.
         -5    1    5    5    0  503 -0.47511390261E+02 -0.61417584855E+01 -0.79997149267E+02  0.93363200956E+02  0.47000000000E+01 0. -1.
<mgrwt>
<rscale>  0 0.27091198E+03</rscale>
<asrwt>0</asrwt>
<pdfrwt beam="1">  1        2 0.84135217E-02 0.27091198E+03</pdfrwt>
<pdfrwt beam="2">  1       -2 0.51616896E-01 0.27091198E+03</pdfrwt>
<totfact> 0.28599462E+03</totfact>
</mgrwt>
</event>
<event>
 9    1  0.8175317E-001  0.2701683E+03  0.7818608E-02  0.1101183E+00
          2   -1    0    0  501    0  0.00000000000E+00  0.00000000000E+00  0.19351503297E+03  0.19351503297E+03  0.00000000000E+00 0. -1.
         -2   -1    0    0    0  501 -0.00000000000E+00 -0.00000000000E+00 -0.94296181245E+02  0.94296181245E+02  0.00000000000E+00 0. -1.
         35    2    1    2    0    0 -0.35527136788E-14  0.14210854715E-13  0.99218851728E+02  0.28781121422E+03  0.27016830771E+03 0.  0.
         25    2    3    3    0    0  0.10572654928E+02 -0.46932586205E+02  0.66550706618E+02  0.15000505735E+03  0.12553115947E+03 0.  0.
         25    2    3    3    0    0 -0.10572654928E+02  0.46932586205E+02  0.32668145110E+02  0.13780615687E+03  0.12493550530E+03 0.  0.
          5    1    4    4  502    0 -0.14725267768E+02  0.29811156753E+02  0.60050773995E+02  0.68802064178E+02  0.47000000000E+01 0. -1.
         -5    1    4    4    0  502  0.25297922697E+02 -0.76743742958E+02  0.64999326232E+01  0.81202993172E+02  0.47000000000E+01 0. -1.
          5    1    5    5  503    0  0.22288335924E+02 -0.33443930453E+02  0.30751687407E+02  0.50823446172E+02  0.47000000000E+01 0.  1.
         -5    1    5    5    0  503 -0.32860990852E+02  0.80376516658E+02  0.19164577027E+01  0.86982710696E+02  0.47000000000E+01 0.  1.
<mgrwt>
<rscale>  0 0.27016831E+03</rscale>
<asrwt>0</asrwt>
<pdfrwt beam="1">  1        2 0.29771543E-01 0.27016831E+03</pdfrwt>
<pdfrwt beam="2">  1       -2 0.14507105E-01 0.27016831E+03</pdfrwt>
<totfact> 0.63452470E+03</totfact>
</mgrwt>
</event>
<event>
 9    1  0.8175317E-001  0.2737300E+03  0.7818608E-02  0.1099164E+00
         -2   -1    0    0    0  501 -0.00000000000E+00  0.00000000000E+00  0.28813367896E+02  0.28813367896E+02  0.00000000000E+00 0.  1.
          2   -1    0    0  501    0  0.00000000000E+00 -0.00000000000E+00 -0.65011595267E+03  0.65011595267E+03  0.00000000000E+00 0.  1.
         35    2    1    2    0    0  0.00000000000E+00  0.71054273576E-14 -0.62130258477E+03  0.67892932056E+03  0.27373001384E+03 0.  0.
         25    2    3    3    0    0 -0.14282441037E+02  0.45750401284E+02 -0.40802534731E+03  0.42925610771E+03  0.12441476848E+03 0.  0.
         25    2    3    3    0    0  0.14282441037E+02 -0.45750401284E+02 -0.21327723746E+03  0.24967321285E+03  0.12063351881E+03 0.  0.
          5    1    4    4  502    0  0.28022576044E+02  0.56346110037E+02 -0.10086079503E+03  0.11897537081E+03  0.47000000000E+01 0. -1.
         -5    1    4    4    0  502 -0.42305017082E+02 -0.10595708753E+02 -0.30716455228E+03  0.31028073690E+03  0.47000000000E+01 0. -1.
          5    1    5    5  503    0 -0.31673808979E+02  0.70614520258E+01 -0.94759886080E+01  0.34131783429E+02  0.47000000000E+01 0. -1.
         -5    1    5    5    0  503  0.45956250016E+02 -0.52811853310E+02 -0.20380124885E+03  0.21554142943E+03  0.47000000000E+01 0. -1.
<mgrwt>
<rscale>  0 0.27373001E+03</rscale>
<asrwt>0</asrwt>
<pdfrwt beam="1">  1        2 0.10001785E+00 0.27373001E+03</pdfrwt>
<pdfrwt beam="2">  1       -2 0.44328255E-02 0.27373001E+03</pdfrwt>
<totfact> 0.10740767E+04</totfact>
</mgrwt>
</event>
<event>
 9    1  0.8175317E-001  0.2765276E+03  0.7818608E-02  0.1097601E+00
         -2   -1    0    0    0  501 -0.00000000000E+00  0.00000000000E+00  0.28820708253E+03  0.28820708253E+03  0.00000000000E+00 0.  1.
          2   -1    0    0  501    0  0.00000000000E+00 -0.00000000000E+00 -0.66330350176E+02  0.66330350176E+02  0.00000000000E+00 0.  1.
         35    2    1    2    0    0 -0.17763568394E-14 -0.71054273576E-14  0.22187673235E+03  0.35453743271E+03  0.27652758783E+03 0.  0.
         25    2    3    3    0    0 -0.18404432089E+01 -0.48324875168E+02  0.15183107539E+03  0.20224864865E+03  0.12455183513E+03 0.  0.
         25    2    3    3    0    0  0.18404432089E+01  0.48324875168E+02  0.70045656960E+02  0.15228878406E+03  0.12628063549E+03 0.  0.
          5    1    4    4  502    0 -0.30204036249E+02 -0.82998425726E+02  0.10460482343E+03  0.13698642839E+03  0.47000000000E+01 0. -1.
         -5    1    4    4    0  502  0.28363593040E+02  0.34673550558E+02  0.47226251961E+02  0.65262220256E+02  0.47000000000E+01 0. -1.
          5    1    5    5  503    0 -0.59128684923E+01 -0.28069908949E+02  0.69523871906E+02  0.75356091771E+02  0.47000000000E+01 0.  1.
         -5    1    5    5    0  503  0.77533117011E+01  0.76394784117E+02  0.52178505402E+00  0.76932692285E+02  0.47000000000E+01 0.  1.
<mgrwt>
<rscale>  0 0.27652759E+03</rscale>
<asrwt>0</asrwt>
<pdfrwt beam="1">  1        2 0.10204669E-01 0.27652759E+03</pdfrwt>
<pdfrwt beam="2">  1       -2 0.44339551E-01 0.27652759E+03</pdfrwt>
<totfact> 0.30350952E+03</totfact>
</mgrwt>
</event>
<event>
 9    1  0.8175317E-001  0.2940286E+03  0.7818608E-02  0.1088264E+00
          1   -1    0    0  501    0  0.00000000000E+00  0.00000000000E+00  0.44401480976E+03  0.44401480976E+03  0.00000000000E+00 0.  1.
         -1   -1    0    0    0  501 -0.00000000000E+00 -0.00000000000E+00 -0.48676770775E+02  0.48676770775E+02  0.00000000000E+00 0.  1.
         35    2    1    2    0    0  0.00000000000E+00  0.00000000000E+00  0.39533803899E+03  0.49269158053E+03  0.29402861844E+03 0.  0.
         25    2    3    3    0    0  0.56623060661E+02  0.28053081115E+02  0.27268490258E+03  0.30667933973E+03  0.12530768119E+03 0.  0.
         25    2    3    3    0    0 -0.56623060661E+02 -0.28053081115E+02  0.12265313641E+03  0.18601224080E+03  0.12475422036E+03 0.  0.
          5    1    4    4  502    0 -0.23433901740E+02  0.11997092918E+02  0.55599966735E+01  0.27314493447E+02  0.47000000000E+01 0. -1.
         -5    1    4    4    0  502  0.80056962401E+02  0.16055988197E+02  0.26712490590E+03  0.27936484629E+03  0.47000000000E+01 0. -1.
          5    1    5    5  503    0  0.31403653608E+02 -0.79266765837E+01  0.79193607953E+02  0.85689784702E+02  0.47000000000E+01 0. -1.
         -5    1    5    5    0  503 -0.88026714269E+02 -0.20126404531E+02  0.43459528454E+02  0.10032245610E+03  0.47000000000E+01 0. -1.
<mgrwt>
<rscale>  0 0.29402862E+03</rscale>
<asrwt>0</asrwt>
<pdfrwt beam="1">  1        1 0.68309968E-01 0.29402862E+03</pdfrwt>
<pdfrwt beam="2">  1       -1 0.74887343E-02 0.29402862E+03</pdfrwt>
<totfact> 0.50262009E+03</totfact>
</mgrwt>
</event>
<event>
 9    1  0.8175317E-001  0.2693710E+03  0.7818608E-02  0.1101640E+00
         -1   -1    0    0    0  501 -0.00000000000E+00  0.00000000000E+00  0.11761789540E+02  0.11761789540E+02  0.00000000000E+00 0. -1.
          1   -1    0    0  501    0  0.00000000000E+00 -0.00000000000E+00 -0.15422977892E+04  0.15422977892E+04  0.00000000000E+00 0. -1.
         35    2    1    2    0    0 -0.10658141036E-13  0.35527136788E-14 -0.15305359996E+04  0.15540595787E+04  0.26937098585E+03 0.  0.
         25    2    3    3    0    0  0.21006996366E+02  0.22918914260E+02 -0.10471077675E+04  0.10540774837E+04  0.11695338503E+03 0.  0.
         25    2    3    3    0    0 -0.21006996366E+02 -0.22918914260E+02 -0.48342823210E+03  0.49998209502E+03  0.12374437047E+03 0.  0.
          5    1    4    4  502    0 -0.12969309467E+02  0.32545337390E+02 -0.94973142272E+03  0.95038900839E+03  0.47000000000E+01 0. -1.
         -5    1    4    4    0  502  0.33976305833E+02 -0.96264231293E+01 -0.97376344798E+02  0.10368847528E+03  0.47000000000E+01 0. -1.
          5    1    5    5  503    0  0.49623391018E+02 -0.21696584301E+02 -0.16301804144E+03  0.17184351760E+03  0.47000000000E+01 0. -1.
         -5    1    5    5    0  503 -0.70630387384E+02 -0.12223299597E+01 -0.32041019066E+03  0.32813857742E+03  0.47000000000E+01 0. -1.
<mgrwt>
<rscale>  0 0.26937099E+03</rscale>
<asrwt>0</asrwt>
<pdfrwt beam="1">  1        1 0.23727660E+00 0.26937099E+03</pdfrwt>
<pdfrwt beam="2">  1       -1 0.18095060E-02 0.26937099E+03</pdfrwt>
<totfact> 0.53247623E+03</totfact>
</mgrwt>
</event>
<event>
 9    1  0.8175317E-001  0.2762668E+03  0.7818608E-02  0.1097746E+00
          2   -1    0    0  501    0  0.00000000000E+00  0.00000000000E+00  0.16667361044E+03  0.16667361044E+03  0.00000000000E+00 0.  1.
         -2   -1    0    0    0  501 -0.00000000000E+00 -0.00000000000E+00 -0.11448023077E+03  0.11448023077E+03  0.00000000000E+00 0.  1.
         35    2    1    2    0    0  0.00000000000E+00  0.00000000000E+00  0.52193379671E+02  0.28115384122E+03  0.27626677967E+03 0.  0.
         25    2    3    3    0    0 -0.44706413952E+02  0.12166827909E+02  0.62702358197E+02  0.14741503966E+03  0.12511160236E+03 0.  0.
         25    2    3    3    0    0  0.44706413952E+02 -0.12166827909E+02 -0.10508978526E+02  0.13373880156E+03  0.12501573206E+03 0.  0.
          5    1    4    4  502    0  0.35209149774E+02  0.35276982447E+02  0.25054517765E+02  0.55981859372E+02  0.47000000000E+01 0. -1.
         -5    1    4    4    0  502 -0.79915563726E+02 -0.23110154539E+02  0.37647840432E+02  0.91433180289E+02  0.47000000000E+01 0. -1.
          5    1    5    5  503    0 -0.20453451368E+02  0.30546246738E+02 -0.35961519712E+02  0.51640466329E+02  0.47000000000E+01 0. -1.
         -5    1    5    5    0  503  0.65159865321E+02 -0.42713074646E+02  0.25452541187E+02  0.82098335228E+02  0.47000000000E+01 0. -1.
<mgrwt>
<rscale>  0 0.27626678E+03</rscale>
<asrwt>0</asrwt>
<pdfrwt beam="1">  1        2 0.25642094E-01 0.27626678E+03</pdfrwt>
<pdfrwt beam="2">  1       -2 0.17612343E-01 0.27626678E+03</pdfrwt>
<totfact> 0.54245781E+03</totfact>
</mgrwt>
</event>
<event>
 9    1  0.8175317E-001  0.2752462E+03  0.7818608E-02  0.1098314E+00
         -1   -1    0    0    0  501 -0.00000000000E+00  0.00000000000E+00  0.11169531773E+03  0.11169531773E+03  0.00000000000E+00 0. -1.
          1   -1    0    0  501    0  0.00000000000E+00 -0.00000000000E+00 -0.16956942683E+03  0.16956942683E+03  0.00000000000E+00 0. -1.
         35    2    1    2    0    0 -0.71054273576E-14  0.00000000000E+00 -0.57874109103E+02  0.28126474456E+03  0.27524615171E+03 0.  0.
         25    2    3    3    0    0  0.37630976477E+02  0.41318241072E+02 -0.33992238920E+02  0.14118637303E+03  0.12511927185E+03 0.  0.
         25    2    3    3    0    0 -0.37630976477E+02 -0.41318241072E+02 -0.23881870182E+02  0.14007837153E+03  0.12620744436E+03 0.  0.
          5    1    4    4  502    0 -0.37033746706E+02 -0.17102202875E+02 -0.23426059911E+01  0.41128597607E+02  0.47000000000E+01 0. -1.
         -5    1    4    4    0  502  0.74664723183E+02  0.58420443947E+02 -0.31649632929E+02  0.10005777543E+03  0.47000000000E+01 0. -1.
          5    1    5    5  503    0 -0.59647138627E+02  0.78232642700E+01  0.26760010219E+02  0.66008883926E+02  0.47000000000E+01 0. -1.
         -5    1    5    5    0  503  0.22016162150E+02 -0.49141505342E+02 -0.50641880402E+02  0.74069487603E+02  0.47000000000E+01 0. -1.
<mgrwt>
<rscale>  0 0.27524615E+03</rscale>
<asrwt>0</asrwt>
<pdfrwt beam="1">  1        1 0.26087604E-01 0.27524615E+03</pdfrwt>
<pdfrwt beam="2">  1       -1 0.17183895E-01 0.27524615E+03</pdfrwt>
<totfact> 0.46463910E+03</totfact>
</mgrwt>
</event>
<event>
 9    1  0.8175317E-001  0.2762761E+03  0.7818608E-02  0.1097740E+00
         -2   -1    0    0    0  501 -0.00000000000E+00  0.00000000000E+00  0.18617591111E+02  0.18617591111E+02  0.00000000000E+00 0. -1.
          2   -1    0    0  501    0  0.00000000000E+00 -0.00000000000E+00 -0.10249510665E+04  0.10249510665E+04  0.00000000000E+00 0. -1.
         35    2    1    2    0    0 -0.35527136788E-14  0.71054273576E-14 -0.10063334754E+04  0.10435686576E+04  0.27627609282E+03 0.  0.
         25    2    3    3    0    0 -0.78779494213E+00  0.55449412034E+02 -0.58570077239E+03  0.60138676915E+03  0.12468116703E+03 0.  0.
         25    2    3    3    0    0  0.78779494213E+00 -0.55449412034E+02 -0.42063270301E+03  0.44218188847E+03  0.12457003547E+03 0.  0.
          5    1    4    4  502    0  0.53590311947E+02  0.43795421420E+02 -0.20043782316E+03  0.21210226643E+03  0.47000000000E+01 0.  1.
         -5    1    4    4    0  502 -0.54378106889E+02  0.11653990614E+02 -0.38526294923E+03  0.38928450272E+03  0.47000000000E+01 0.  1.
          5    1    5    5  503    0 -0.10000343157E+02 -0.47974738095E+02 -0.46276381164E+02  0.67566084777E+02  0.47000000000E+01 0.  1.
         -5    1    5    5    0  503  0.10788138099E+02 -0.74746739391E+01 -0.37435632184E+03  0.37461580370E+03  0.47000000000E+01 0.  1.
<mgrwt>
<rscale>  0 0.27627609E+03</rscale>
<asrwt>0</asrwt>
<pdfrwt beam="1">  1        2 0.15768474E+00 0.27627609E+03</pdfrwt>
<pdfrwt beam="2">  1       -2 0.28642455E-02 0.27627609E+03</pdfrwt>
<totfact> 0.11479601E+04</totfact>
</mgrwt>
</event>
<event>
 9    1  0.8175317E-001  0.2736591E+03  0.7818608E-02  0.1099203E+00
         -2   -1    0    0    0  501 -0.00000000000E+00  0.00000000000E+00  0.24569621657E+03  0.24569621657E+03  0.00000000000E+00 0.  1.
          2   -1    0    0  501    0  0.00000000000E+00 -0.00000000000E+00 -0.76201112716E+02  0.76201112716E+02  0.00000000000E+00 0.  1.
         35    2    1    2    0    0  0.14210854715E-13  0.00000000000E+00  0.16949510385E+03  0.32189732928E+03  0.27365909517E+03 0.  0.
         25    2    3    3    0    0  0.46913928077E+02 -0.74810666479E+01  0.10954611799E+03  0.17564006282E+03  0.12881070100E+03 0.  0.
         25    2    3    3    0    0 -0.46913928077E+02  0.74810666479E+01  0.59948985860E+02  0.14625726647E+03  0.12466123729E+03 0.  0.
          5    1    4    4  502    0 -0.33457460011E+02  0.32951184628E+02  0.38490635100E+02  0.60899927661E+02  0.47000000000E+01 0.  1.
         -5    1    4    4    0  502  0.80371388087E+02 -0.40432251276E+02  0.71055482891E+02  0.11474013515E+03  0.47000000000E+01 0.  1.
          5    1    5    5  503    0  0.19334448511E+02 -0.44526814819E+02  0.26570013398E+02  0.55538398871E+02  0.47000000000E+01 0.  1.
         -5    1    5    5    0  503 -0.66248376588E+02  0.52007881467E+02  0.33378972462E+02  0.90718867596E+02  0.47000000000E+01 0.  1.
<mgrwt>
<rscale>  0 0.27365910E+03</rscale>
<asrwt>0</asrwt>
<pdfrwt beam="1">  1        2 0.11723248E-01 0.27365910E+03</pdfrwt>
<pdfrwt beam="2">  1       -2 0.37799418E-01 0.27365910E+03</pdfrwt>
<totfact> 0.34744696E+03</totfact>
</mgrwt>
</event>
<event>
 9    1  0.8175317E-001  0.3023804E+03  0.7818608E-02  0.1084057E+00
         -3   -1    0    0    0  501 -0.00000000000E+00  0.00000000000E+00  0.54810549760E+03  0.54810549760E+03  0.00000000000E+00 0.  1.
          3   -1    0    0  501    0  0.00000000000E+00 -0.00000000000E+00 -0.41704530756E+02  0.41704530756E+02  0.00000000000E+00 0.  1.
         35    2    1    2    0    0  0.00000000000E+00  0.00000000000E+00  0.50640096684E+03  0.58981002835E+03  0.30238043972E+03 0.  0.
         25    2    3    3    0    0  0.69510159228E+02 -0.40318346091E+02  0.21719729292E+03  0.26429607620E+03  0.12735980755E+03 0.  0.
         25    2    3    3    0    0 -0.69510159228E+02  0.40318346091E+02  0.28920367392E+03  0.32551395215E+03  0.12594973905E+03 0.  0.
          5    1    4    4  502    0 -0.16285160353E+02 -0.16377307664E+02  0.15198808181E+03  0.15380471276E+03  0.47000000000E+01 0.  1.
         -5    1    4    4    0  502  0.85795319581E+02 -0.23941038427E+02  0.65209211108E+02  0.11049136345E+03  0.47000000000E+01 0.  1.
          5    1    5    5  503    0 -0.32415651377E+02 -0.42964065735E+02  0.72919314841E+02  0.90752420770E+02  0.47000000000E+01 0. -1.
         -5    1    5    5    0  503 -0.37094507850E+02  0.83282411825E+02  0.21628435908E+03  0.23476153138E+03  0.47000000000E+01 0. -1.
<mgrwt>
<rscale>  0 0.30238044E+03</rscale>
<asrwt>0</asrwt>
<pdfrwt beam="1">  1        3 0.64160820E-02 0.30238044E+03</pdfrwt>
<pdfrwt beam="2">  1       -3 0.84323918E-01 0.30238044E+03</pdfrwt>
<totfact> 0.51922751E+02</totfact>
</mgrwt>
</event>
<event>
 9    1  0.8175317E-001  0.2762032E+03  0.7818608E-02  0.1097781E+00
         -1   -1    0    0    0  501 -0.00000000000E+00  0.00000000000E+00  0.36253315583E+02  0.36253315583E+02  0.00000000000E+00 0.  1.
          1   -1    0    0  501    0  0.00000000000E+00 -0.00000000000E+00 -0.52607733280E+03  0.52607733280E+03  0.00000000000E+00 0.  1.
         35    2    1    2    0    0 -0.35527136788E-14  0.00000000000E+00 -0.48982401721E+03  0.56233064838E+03  0.27620316846E+03 0.  0.
         25    2    3    3    0    0  0.14834671584E+02  0.13866229529E+02 -0.35743635978E+03  0.37928159307E+03  0.12522553951E+03 0.  0.
         25    2    3    3    0    0 -0.14834671584E+02 -0.13866229529E+02 -0.13238765744E+03  0.18304905531E+03  0.12477229263E+03 0.  0.
          5    1    4    4  502    0  0.21296945763E+02  0.55373555108E+02 -0.31035412832E+03  0.31600880600E+03  0.47000000000E+01 0.  1.
         -5    1    4    4    0  502 -0.64622741787E+01 -0.41507325578E+02 -0.47082231459E+02  0.63272787068E+02  0.47000000000E+01 0.  1.
          5    1    5    5  503    0  0.21576395895E+02 -0.50911473569E+02 -0.11564721486E+03  0.12827270678E+03  0.47000000000E+01 0. -1.
         -5    1    5    5    0  503 -0.36411067479E+02  0.37045244040E+02 -0.16740442581E+02  0.54776348534E+02  0.47000000000E+01 0. -1.
<mgrwt>
<rscale>  0 0.27620317E+03</rscale>
<asrwt>0</asrwt>
<pdfrwt beam="1">  1        1 0.80934969E-01 0.27620317E+03</pdfrwt>
<pdfrwt beam="2">  1       -1 0.55774335E-02 0.27620317E+03</pdfrwt>
<totfact> 0.62653642E+03</totfact>
</mgrwt>
</event>
<event>
 9    1  0.8175317E-001  0.2755444E+03  0.7818608E-02  0.1098148E+00
          3   -1    0    0  501    0  0.00000000000E+00  0.00000000000E+00  0.10315303526E+03  0.10315303526E+03  0.00000000000E+00 0.  1.
         -3   -1    0    0    0  501 -0.00000000000E+00 -0.00000000000E+00 -0.18400990776E+03  0.18400990776E+03  0.00000000000E+00 0.  1.
         35    2    1    2    0    0  0.00000000000E+00  0.71054273576E-14 -0.80856872495E+02  0.28716294302E+03  0.27554441024E+03 0.  0.
         25    2    3    3    0    0  0.26514996392E+02  0.49377518494E+02 -0.55901693892E+02  0.14793691729E+03  0.12497658881E+03 0.  0.
         25    2    3    3    0    0 -0.26514996392E+02 -0.49377518494E+02 -0.24955178603E+02  0.13922602573E+03  0.12497976210E+03 0.  0.
          5    1    4    4  502    0  0.41149800961E+01 -0.37759880367E+02  0.58423703300E+01  0.38716468300E+02  0.47000000000E+01 0.  1.
         -5    1    4    4    0  502  0.22400016296E+02  0.87137398861E+02 -0.61744064222E+02  0.10922044899E+03  0.47000000000E+01 0.  1.
          5    1    5    5  503    0  0.47466012285E+02 -0.23066657143E+02  0.86556489405E+01  0.53685223782E+02  0.47000000000E+01 0.  1.
         -5    1    5    5    0  503 -0.73981008677E+02 -0.26310861351E+02 -0.33610827544E+02  0.85540801949E+02  0.47000000000E+01 0.  1.
<mgrwt>
<rscale>  0 0.27554441E+03</rscale>
<asrwt>0</asrwt>
<pdfrwt beam="1">  1        3 0.15869698E-01 0.27554441E+03</pdfrwt>
<pdfrwt beam="2">  1       -3 0.28309216E-01 0.27554441E+03</pdfrwt>
<totfact> 0.10242133E+03</totfact>
</mgrwt>
</event>
<event>
 9    1  0.8175317E-001  0.2815989E+03  0.7818608E-02  0.1094819E+00
         -2   -1    0    0    0  501 -0.00000000000E+00  0.00000000000E+00  0.35043005763E+02  0.35043005763E+02  0.00000000000E+00 0.  1.
          2   -1    0    0  501    0  0.00000000000E+00 -0.00000000000E+00 -0.56571891990E+03  0.56571891990E+03  0.00000000000E+00 0.  1.
         35    2    1    2    0    0  0.35527136788E-14  0.00000000000E+00 -0.53067591414E+03  0.60076192567E+03  0.28159894439E+03 0.  0.
         25    2    3    3    0    0 -0.29081340574E+02 -0.68565546856E+02 -0.25576990126E+03  0.28938517828E+03  0.11304238334E+03 0.  0.
         25    2    3    3    0    0  0.29081340574E+02  0.68565546856E+02 -0.27490601288E+03  0.31137674739E+03  0.12583800821E+03 0.  0.
          5    1    4    4  502    0 -0.63545013022E+02 -0.72646884820E+02 -0.21448127587E+03  0.23524422682E+03  0.47000000000E+01 0.  1.
         -5    1    4    4    0  502  0.34463672448E+02  0.40813379639E+01 -0.41288625388E+02  0.54140951457E+02  0.47000000000E+01 0.  1.
          5    1    5    5  503    0  0.32032997065E+02 -0.18326190553E+02 -0.17474803449E+03  0.17866428776E+03  0.47000000000E+01 0.  1.
         -5    1    5    5    0  503 -0.29516564903E+01  0.86891737409E+02 -0.10015797839E+03  0.13271245963E+03  0.47000000000E+01 0.  1.
<mgrwt>
<rscale>  0 0.28159894E+03</rscale>
<asrwt>0</asrwt>
<pdfrwt beam="1">  1        2 0.87033683E-01 0.28159894E+03</pdfrwt>
<pdfrwt beam="2">  1       -2 0.53912315E-02 0.28159894E+03</pdfrwt>
<totfact> 0.93928927E+03</totfact>
</mgrwt>
</event>
<event>
 9    1  0.8175317E-001  0.2751445E+03  0.7818608E-02  0.1098371E+00
          1   -1    0    0  501    0  0.00000000000E+00  0.00000000000E+00  0.13869044113E+02  0.13869044113E+02  0.00000000000E+00 0.  1.
         -1   -1    0    0    0  501 -0.00000000000E+00 -0.00000000000E+00 -0.13646311495E+04  0.13646311495E+04  0.00000000000E+00 0.  1.
         35    2    1    2    0    0  0.71054273576E-14  0.71054273576E-14 -0.13507621054E+04  0.13785001936E+04  0.27514454100E+03 0.  0.
         25    2    3    3    0    0 -0.18577168099E+02 -0.52066644828E+02 -0.75916316755E+03  0.77125154410E+03  0.12427462585E+03 0.  0.
         25    2    3    3    0    0  0.18577168099E+02  0.52066644828E+02 -0.59159893780E+03  0.60724864948E+03  0.12532187523E+03 0.  0.
          5    1    4    4  502    0 -0.28118436853E+02  0.20409612012E+02 -0.70842086414E+02  0.79043595320E+02  0.47000000000E+01 0.  1.
         -5    1    4    4    0  502  0.95412687539E+01 -0.72476256840E+02 -0.68832108113E+03  0.69220794878E+03  0.47000000000E+01 0.  1.
          5    1    5    5  503    0  0.65500417593E+02  0.24349260304E+01 -0.22896108416E+03  0.23820474729E+03  0.47000000000E+01 0.  1.
         -5    1    5    5    0  503 -0.46923249494E+02  0.49631718798E+02 -0.36263785364E+03  0.36904390220E+03  0.47000000000E+01 0.  1.
<mgrwt>
<rscale>  0 0.27514454E+03</rscale>
<asrwt>0</asrwt>
<pdfrwt beam="1">  1        1 0.21336993E-02 0.27514454E+03</pdfrwt>
<pdfrwt beam="2">  1       -1 0.20994324E+00 0.27514454E+03</pdfrwt>
<totfact> 0.79172932E+02</totfact>
</mgrwt>
</event>
<event>
 9    1  0.8175317E-001  0.2686657E+03  0.7818608E-02  0.1102046E+00
         -2   -1    0    0    0  501 -0.00000000000E+00  0.00000000000E+00  0.35255171629E+02  0.35255171629E+02  0.00000000000E+00 0.  1.
          2   -1    0    0  501    0  0.00000000000E+00 -0.00000000000E+00 -0.51184887572E+03  0.51184887572E+03  0.00000000000E+00 0.  1.
         35    2    1    2    0    0 -0.71054273576E-14  0.71054273576E-14 -0.47659370409E+03  0.54710404735E+03  0.26866573999E+03 0.  0.
         25    2    3    3    0    0 -0.36509869666E+02 -0.34688812281E+02 -0.25565763685E+03  0.28900712443E+03  0.12501202508E+03 0.  0.
         25    2    3    3    0    0  0.36509869666E+02  0.34688812281E+02 -0.22093606724E+03  0.25809692291E+03  0.12355157437E+03 0.  0.
          5    1    4    4  502    0  0.32961493071E+02 -0.31906865573E+02 -0.35829747192E+02  0.58398363675E+02  0.47000000000E+01 0.  1.
         -5    1    4    4    0  502 -0.69471362737E+02 -0.27819467083E+01 -0.21982788966E+03  0.23060876076E+03  0.47000000000E+01 0.  1.
          5    1    5    5  503    0  0.55055419434E+02  0.67024329525E+02 -0.10526912227E+03  0.13648090732E+03  0.47000000000E+01 0. -1.
         -5    1    5    5    0  503 -0.18545549768E+02 -0.32335517243E+02 -0.11566694497E+03  0.12161601560E+03  0.47000000000E+01 0. -1.
<mgrwt>
<rscale>  0 0.26866574E+03</rscale>
<asrwt>0</asrwt>
<pdfrwt beam="1">  1        2 0.78745971E-01 0.26866574E+03</pdfrwt>
<pdfrwt beam="2">  1       -2 0.54238732E-02 0.26866574E+03</pdfrwt>
<totfact> 0.10406468E+04</totfact>
</mgrwt>
</event>
<event>
 9    1  0.8175317E-001  0.2611352E+03  0.7818608E-02  0.1106463E+00
         -1   -1    0    0    0  501 -0.00000000000E+00  0.00000000000E+00  0.40492509766E+03  0.40492509766E+03  0.00000000000E+00 0. -1.
          1   -1    0    0  501    0  0.00000000000E+00 -0.00000000000E+00 -0.42101374845E+02  0.42101374845E+02  0.00000000000E+00 0. -1.
         35    2    1    2    0    0 -0.35527136788E-14 -0.35527136788E-14  0.36282372281E+03  0.44702647251E+03  0.26113523945E+03 0.  0.
         25    2    3    3    0    0  0.27118331359E+02 -0.26878933616E+02  0.18306857755E+03  0.22473957755E+03  0.12464306102E+03 0.  0.
         25    2    3    3    0    0 -0.27118331359E+02  0.26878933616E+02  0.17975514526E+03  0.22228689496E+03  0.12506666404E+03 0.  0.
          5    1    4    4  502    0 -0.23573653517E+02 -0.63215402485E+02  0.10103108961E+03  0.12157826829E+03  0.47000000000E+01 0. -1.
         -5    1    4    4    0  502  0.50691984876E+02  0.36336468869E+02  0.82037487941E+02  0.10316130926E+03  0.47000000000E+01 0. -1.
          5    1    5    5  503    0 -0.25944031510E+02  0.27769583782E+02 -0.39679741718E+01  0.38497758031E+02  0.47000000000E+01 0. -1.
         -5    1    5    5    0  503 -0.11742998490E+01 -0.89065016538E+00  0.18372311943E+03  0.18378913693E+03  0.47000000000E+01 0. -1.
<mgrwt>
<rscale>  0 0.26113524E+03</rscale>
<asrwt>0</asrwt>
<pdfrwt beam="1">  1        1 0.64771349E-02 0.26113524E+03</pdfrwt>
<pdfrwt beam="2">  1       -1 0.62296166E-01 0.26113524E+03</pdfrwt>
<totfact> 0.31238685E+03</totfact>
</mgrwt>
</event>
<event>
 9    1  0.8175317E-001  0.2719424E+03  0.7818608E-02  0.1100173E+00
          2   -1    0    0  501    0  0.00000000000E+00  0.00000000000E+00  0.18460807772E+04  0.18460807772E+04  0.00000000000E+00 0. -1.
         -2   -1    0    0    0  501 -0.00000000000E+00 -0.00000000000E+00 -0.10014818279E+02  0.10014818279E+02  0.00000000000E+00 0. -1.
         35    2    1    2    0    0  0.10658141036E-13 -0.35527136788E-14  0.18360659589E+04  0.18560955955E+04  0.27194237266E+03 0.  0.
         25    2    3    3    0    0 -0.28195438756E+02  0.23518104242E+02  0.11700387702E+04  0.11773658248E+04  0.12590265114E+03 0.  0.
         25    2    3    3    0    0  0.28195438756E+02 -0.23518104242E+02  0.66602718871E+03  0.67872977070E+03  0.12543445117E+03 0.  0.
          5    1    4    4  502    0  0.24779750140E+02  0.77157202245E+01  0.55514972077E+02  0.61461943350E+02  0.47000000000E+01 0.  1.
         -5    1    4    4    0  502 -0.52975188896E+02  0.15802384018E+02  0.11145237981E+04  0.11159038814E+04  0.47000000000E+01 0.  1.
          5    1    5    5  503    0 -0.10681078760E+02  0.47706701412E+02  0.27368250160E+03  0.27805434088E+03  0.47000000000E+01 0. -1.
         -5    1    5    5    0  503  0.38876517516E+02 -0.71224805654E+02  0.39234468711E+03  0.40067542981E+03  0.47000000000E+01 0. -1.
<mgrwt>
<rscale>  0 0.27194237E+03</rscale>
<asrwt>0</asrwt>
<pdfrwt beam="1">  1        2 0.28401216E+00 0.27194237E+03</pdfrwt>
<pdfrwt beam="2">  1       -2 0.15407427E-02 0.27194237E+03</pdfrwt>
<totfact> 0.10151521E+04</totfact>
</mgrwt>
</event>
<event>
 9    1  0.8175317E-001  0.2735786E+03  0.7818608E-02  0.1099249E+00
         -2   -1    0    0    0  501 -0.00000000000E+00  0.00000000000E+00  0.51647883026E+02  0.51647883026E+02  0.00000000000E+00 0. -1.
          2   -1    0    0  501    0  0.00000000000E+00 -0.00000000000E+00 -0.36228625448E+03  0.36228625448E+03  0.00000000000E+00 0. -1.
         35    2    1    2    0    0  0.00000000000E+00 -0.71054273576E-14 -0.31063837145E+03  0.41393413750E+03  0.27357864020E+03 0.  0.
         25    2    3    3    0    0  0.44653575580E+02 -0.32966137929E+02 -0.12996369620E+03  0.18875759916E+03  0.12513257309E+03 0.  0.
         25    2    3    3    0    0 -0.44653575580E+02  0.32966137929E+02 -0.18067467525E+03  0.22517653835E+03  0.12239455496E+03 0.  0.
          5    1    4    4  502    0 -0.24780486886E+02  0.27155377236E+02 -0.11538119656E+02  0.38816301322E+02  0.47000000000E+01 0. -1.
         -5    1    4    4    0  502  0.69434062466E+02 -0.60121515165E+02 -0.11842557655E+03  0.14994129784E+03  0.47000000000E+01 0. -1.
          5    1    5    5  503    0  0.61045357233E+01 -0.39579575604E+02 -0.88642221996E+02  0.97382450584E+02  0.47000000000E+01 0.  1.
         -5    1    5    5    0  503 -0.50758111303E+02  0.72545713533E+02 -0.92032453254E+02  0.12779408776E+03  0.47000000000E+01 0.  1.
<mgrwt>
<rscale>  0 0.27357864E+03</rscale>
<asrwt>0</asrwt>
<pdfrwt beam="1">  1        2 0.55736346E-01 0.27357864E+03</pdfrwt>
<pdfrwt beam="2">  1       -2 0.79458283E-02 0.27357864E+03</pdfrwt>
<totfact> 0.84426912E+03</totfact>
</mgrwt>
</event>
<event>
 9    1  0.8175317E-001  0.2845670E+03  0.7818608E-02  0.1093220E+00
          2   -1    0    0  501    0  0.00000000000E+00  0.00000000000E+00  0.10864370345E+04  0.10864370345E+04  0.00000000000E+00 0. -1.
         -2   -1    0    0    0  501 -0.00000000000E+00 -0.00000000000E+00 -0.18633938936E+02  0.18633938936E+02  0.00000000000E+00 0. -1.
         35    2    1    2    0    0  0.00000000000E+00  0.71054273576E-14  0.10678030955E+04  0.11050709734E+04  0.28456704909E+03 0.  0.
         25    2    3    3    0    0  0.66402935830E+02  0.90967234651E+01  0.58382741724E+03  0.60074665477E+03  0.12469959834E+03 0.  0.
         25    2    3    3    0    0 -0.66402935830E+02 -0.90967234651E+01  0.48397567828E+03  0.50432431862E+03  0.12497384097E+03 0.  0.
          5    1    4    4  502    0  0.79055220919E+02  0.32610825664E+02  0.22267463387E+03  0.23857761101E+03  0.47000000000E+01 0.  1.
         -5    1    4    4    0  502 -0.12652285089E+02 -0.23514102199E+02  0.36115278337E+03  0.36216904376E+03  0.47000000000E+01 0.  1.
          5    1    5    5  503    0 -0.26575209893E+02  0.48956783736E+02  0.33318217674E+03  0.33783940172E+03  0.47000000000E+01 0. -1.
         -5    1    5    5    0  503 -0.39827725937E+02 -0.58053507202E+02  0.15079350154E+03  0.16648491691E+03  0.47000000000E+01 0. -1.
<mgrwt>
<rscale>  0 0.28456705E+03</rscale>
<asrwt>0</asrwt>
<pdfrwt beam="1">  1        2 0.16714411E+00 0.28456705E+03</pdfrwt>
<pdfrwt beam="2">  1       -2 0.28667607E-02 0.28456705E+03</pdfrwt>
<totfact> 0.10542460E+04</totfact>
</mgrwt>
</event>
<event>
 9    1  0.8175317E-001  0.2726494E+03  0.7818608E-02  0.1099773E+00
         -4   -1    0    0    0  501 -0.00000000000E+00  0.00000000000E+00  0.12612367183E+02  0.12612367183E+02  0.00000000000E+00 0.  1.
          4   -1    0    0  501    0  0.00000000000E+00 -0.00000000000E+00 -0.14735084815E+04  0.14735084815E+04  0.00000000000E+00 0.  1.
         35    2    1    2    0    0  0.17763568394E-14  0.71054273576E-14 -0.14608961143E+04  0.14861208487E+04  0.27264944537E+03 0.  0.
         25    2    3    3    0    0  0.13782304726E+02 -0.37843876373E+02 -0.93028189846E+03  0.93943179269E+03  0.12444103673E+03 0.  0.
         25    2    3    3    0    0 -0.13782304726E+02  0.37843876373E+02 -0.53061421584E+03  0.54668905596E+03  0.12528115167E+03 0.  0.
          5    1    4    4  502    0 -0.39144829867E+00  0.44622362873E+02 -0.24854335098E+03  0.25256127141E+03  0.47000000000E+01 0. -1.
         -5    1    4    4    0  502  0.14173753025E+02 -0.82466239246E+02 -0.68173854748E+03  0.68687052128E+03  0.47000000000E+01 0. -1.
          5    1    5    5  503    0 -0.14228808413E+02 -0.53116523114E+01 -0.47891925565E+03  0.47918307157E+03  0.47000000000E+01 0.  1.
         -5    1    5    5    0  503  0.44650368747E+00  0.43155528684E+02 -0.51694960181E+02  0.67505984399E+02  0.47000000000E+01 0.  1.
<mgrwt>
<rscale>  0 0.27264945E+03</rscale>
<asrwt>0</asrwt>
<pdfrwt beam="1">  1        4 0.22669367E+00 0.27264945E+03</pdfrwt>
<pdfrwt beam="2">  1       -4 0.19403637E-02 0.27264945E+03</pdfrwt>
<totfact> 0.19600989E+02</totfact>
</mgrwt>
</event>
<event>
 9    1  0.8175317E-001  0.2754153E+03  0.7818608E-02  0.1098220E+00
         -1   -1    0    0    0  501 -0.00000000000E+00  0.00000000000E+00  0.33863492961E+03  0.33863492961E+03  0.00000000000E+00 0. -1.
          1   -1    0    0  501    0  0.00000000000E+00 -0.00000000000E+00 -0.55999546740E+02  0.55999546740E+02  0.00000000000E+00 0. -1.
         35    2    1    2    0    0 -0.71054273576E-14 -0.14210854715E-13  0.28263538287E+03  0.39463447635E+03  0.27541534139E+03 0.  0.
         25    2    3    3    0    0  0.47512353806E+02  0.57801455764E+02  0.11392305441E+03  0.17524927016E+03  0.11016084746E+03 0.  0.
         25    2    3    3    0    0 -0.47512353806E+02 -0.57801455764E+02  0.16871232846E+03  0.21938520619E+03  0.11860685844E+03 0.  0.
          5    1    4    4  502    0 -0.20131835383E+02  0.24564631282E+02  0.90745051016E+02  0.96257291619E+02  0.47000000000E+01 0.  1.
         -5    1    4    4    0  502  0.67644189188E+02  0.33236824483E+02  0.23178003395E+02  0.78991978542E+02  0.47000000000E+01 0.  1.
          5    1    5    5  503    0 -0.47598861548E+02  0.24602487736E+02  0.92721932152E+02  0.10719319347E+03  0.47000000000E+01 0.  1.
         -5    1    5    5    0  503  0.86507742488E-01 -0.82403943500E+02  0.75990396305E+02  0.11219201272E+03  0.47000000000E+01 0.  1.
<mgrwt>
<rscale>  0 0.27541534E+03</rscale>
<asrwt>0</asrwt>
<pdfrwt beam="1">  1        1 0.86153151E-02 0.27541534E+03</pdfrwt>
<pdfrwt beam="2">  1       -1 0.52097680E-01 0.27541534E+03</pdfrwt>
<totfact> 0.29787064E+03</totfact>
</mgrwt>
</event>
<event>
 9    1  0.8175317E-001  0.2784057E+03  0.7818608E-02  0.1096563E+00
          2   -1    0    0  501    0  0.00000000000E+00  0.00000000000E+00  0.60106459699E+03  0.60106459699E+03  0.00000000000E+00 0.  1.
         -2   -1    0    0    0  501 -0.00000000000E+00 -0.00000000000E+00 -0.32238519453E+02  0.32238519453E+02  0.00000000000E+00 0.  1.
         35    2    1    2    0    0  0.00000000000E+00  0.00000000000E+00  0.56882607754E+03  0.63330311645E+03  0.27840569465E+03 0.  0.
         25    2    3    3    0    0 -0.38361175198E+02 -0.45046646754E+01  0.39104155808E+03  0.41187823751E+03  0.12344355237E+03 0.  0.
         25    2    3    3    0    0  0.38361175198E+02  0.45046646754E+01  0.17778451946E+03  0.22142487893E+03  0.12621319221E+03 0.  0.
          5    1    4    4  502    0 -0.24411967989E+02  0.57539478096E+02  0.23726752773E+03  0.24540722368E+03  0.47000000000E+01 0. -1.
         -5    1    4    4    0  502 -0.13949207209E+02 -0.62044142771E+02  0.15377403035E+03  0.16647101383E+03  0.47000000000E+01 0. -1.
          5    1    5    5  503    0  0.29378093066E+02 -0.30877468785E+02  0.17952803388E+03  0.18457761343E+03  0.47000000000E+01 0. -1.
         -5    1    5    5    0  503  0.89830821324E+01  0.35382133460E+02 -0.17435144221E+01  0.36847265507E+02  0.47000000000E+01 0. -1.
<mgrwt>
<rscale>  0 0.27840569E+03</rscale>
<asrwt>0</asrwt>
<pdfrwt beam="1">  1        2 0.92471468E-01 0.27840569E+03</pdfrwt>
<pdfrwt beam="2">  1       -2 0.49597727E-02 0.27840569E+03</pdfrwt>
<totfact> 0.99403634E+03</totfact>
</mgrwt>
</event>
<event>
 9    1  0.8175317E-001  0.2766375E+03  0.7818608E-02  0.1097540E+00
          1   -1    0    0  501    0  0.00000000000E+00  0.00000000000E+00  0.11876484368E+04  0.11876484368E+04  0.00000000000E+00 0. -1.
         -1   -1    0    0    0  501 -0.00000000000E+00 -0.00000000000E+00 -0.16109203370E+02  0.16109203370E+02  0.00000000000E+00 0. -1.
         35    2    1    2    0    0 -0.14210854715E-13  0.71054273576E-14  0.11715392334E+04  0.12037576402E+04  0.27663745372E+03 0.  0.
         25    2    3    3    0    0  0.39153459236E+02 -0.34584533890E+02  0.68955525560E+03  0.70300367255E+03  0.12648568984E+03 0.  0.
         25    2    3    3    0    0 -0.39153459236E+02  0.34584533890E+02  0.48198397782E+03  0.50075396761E+03  0.12536705249E+03 0.  0.
          5    1    4    4  502    0  0.63586297928E+01 -0.44927570814E+02  0.77237322535E+02  0.89702914024E+02  0.47000000000E+01 0.  1.
         -5    1    4    4    0  502  0.32794829443E+02  0.10343036924E+02  0.61231793307E+03  0.61330075852E+03  0.47000000000E+01 0.  1.
          5    1    5    5  503    0  0.36202196848E+02  0.46510757926E+02  0.22543078066E+03  0.23305573696E+03  0.47000000000E+01 0.  1.
         -5    1    5    5    0  503 -0.75355656084E+02 -0.11926224036E+02  0.25655319716E+03  0.26769823065E+03  0.47000000000E+01 0.  1.
<mgrwt>
<rscale>  0 0.27663745E+03</rscale>
<asrwt>0</asrwt>
<pdfrwt beam="1">  1        1 0.18271508E+00 0.27663745E+03</pdfrwt>
<pdfrwt beam="2">  1       -1 0.24783399E-02 0.27663745E+03</pdfrwt>
<totfact> 0.58432991E+03</totfact>
</mgrwt>
</event>
<event>
 9    1  0.8175317E-001  0.2746776E+03  0.7818608E-02  0.1098632E+00
         -3   -1    0    0    0  501 -0.00000000000E+00  0.00000000000E+00  0.20516535525E+04  0.20516535525E+04  0.00000000000E+00 0. -1.
          3   -1    0    0  501    0  0.00000000000E+00 -0.00000000000E+00 -0.91935346336E+01  0.91935346336E+01  0.00000000000E+00 0. -1.
         35    2    1    2    0    0  0.00000000000E+00  0.00000000000E+00  0.20424600179E+04  0.20608470871E+04  0.27467761460E+03 0.  0.
         25    2    3    3    0    0 -0.54350546937E+02 -0.12967083349E+02  0.98826064017E+03  0.99773760810E+03  0.12529610731E+03 0.  0.
         25    2    3    3    0    0  0.54350546937E+02  0.12967083349E+02  0.10541993777E+04  0.10631094790E+04  0.12547234465E+03 0.  0.
          5    1    4    4  502    0 -0.16502026806E+02  0.55208496897E+02  0.48834326362E+03  0.49175352377E+03  0.47000000000E+01 0.  1.
         -5    1    4    4    0  502 -0.37848520131E+02 -0.68175580246E+02  0.49991737655E+03  0.50598408433E+03  0.47000000000E+01 0.  1.
          5    1    5    5  503    0  0.55125392426E+02  0.13994116314E+02  0.10562731618E+04  0.10578136540E+04  0.47000000000E+01 0. -1.
         -5    1    5    5    0  503 -0.77484548859E+00 -0.10270329645E+01 -0.20737841288E+01  0.52958250400E+01  0.47000000000E+01 0. -1.
<mgrwt>
<rscale>  0 0.27467761E+03</rscale>
<asrwt>0</asrwt>
<pdfrwt beam="1">  1        3 0.14143916E-02 0.27467761E+03</pdfrwt>
<pdfrwt beam="2">  1       -3 0.31563864E+00 0.27467761E+03</pdfrwt>
<totfact> 0.14804058E+02</totfact>
</mgrwt>
</event>
<event>
 9    1  0.8175317E-001  0.2697594E+03  0.7818608E-02  0.1101417E+00
         -1   -1    0    0    0  501 -0.00000000000E+00  0.00000000000E+00  0.24464515160E+02  0.24464515160E+02  0.00000000000E+00 0.  1.
          1   -1    0    0  501    0  0.00000000000E+00 -0.00000000000E+00 -0.74362943948E+03  0.74362943948E+03  0.00000000000E+00 0.  1.
         35    2    1    2    0    0  0.00000000000E+00  0.71054273576E-14 -0.71916492432E+03  0.76809395464E+03  0.26975940165E+03 0.  0.
         25    2    3    3    0    0 -0.40881497518E+02  0.16461088105E+02 -0.29630518607E+03  0.32464514825E+03  0.12512171966E+03 0.  0.
         25    2    3    3    0    0  0.40881497518E+02 -0.16461088105E+02 -0.42285973825E+03  0.44344880639E+03  0.12607228638E+03 0.  0.
          5    1    4    4  502    0 -0.32051421474E+02  0.57423354083E+02 -0.26234878120E+03  0.27050639218E+03  0.47000000000E+01 0. -1.
         -5    1    4    4    0  502 -0.88300760441E+01 -0.40962265979E+02 -0.33956404866E+02  0.54138756067E+02  0.47000000000E+01 0. -1.
          5    1    5    5  503    0  0.51369151296E+01 -0.61394359345E+02 -0.31664352953E+03  0.32261566926E+03  0.47000000000E+01 0. -1.
         -5    1    5    5    0  503  0.35744582388E+02  0.44933271241E+02 -0.10621620872E+03  0.12083313713E+03  0.47000000000E+01 0. -1.
<mgrwt>
<rscale>  0 0.26975940E+03</rscale>
<asrwt>0</asrwt>
<pdfrwt beam="1">  1        1 0.11440455E+00 0.26975940E+03</pdfrwt>
<pdfrwt beam="2">  1       -1 0.37637707E-02 0.26975940E+03</pdfrwt>
<totfact> 0.69165658E+03</totfact>
</mgrwt>
</event>
<event>
 9    1  0.8175317E-001  0.2760446E+03  0.7818608E-02  0.1097869E+00
          2   -1    0    0  501    0  0.00000000000E+00  0.00000000000E+00  0.17365533968E+03  0.17365533968E+03  0.00000000000E+00 0. -1.
         -2   -1    0    0    0  501 -0.00000000000E+00 -0.00000000000E+00 -0.10970090945E+03  0.10970090945E+03  0.00000000000E+00 0. -1.
         35    2    1    2    0    0  0.71054273576E-14  0.00000000000E+00  0.63954430222E+02  0.28335624913E+03  0.27604455216E+03 0.  0.
         25    2    3    3    0    0 -0.27290211086E+02 -0.30179753370E+02 -0.10744079544E+02  0.13144228128E+03  0.12452335094E+03 0.  0.
         25    2    3    3    0    0  0.27290211086E+02  0.30179753370E+02  0.74698509766E+02  0.15191396785E+03  0.12586664821E+03 0.  0.
          5    1    4    4  502    0 -0.32220747842E+02 -0.66553489180E+01  0.53335003410E+02  0.62842524213E+02  0.47000000000E+01 0. -1.
         -5    1    4    4    0  502  0.49305367558E+01 -0.23524404452E+02 -0.64079082954E+02  0.68599757068E+02  0.47000000000E+01 0. -1.
          5    1    5    5  503    0  0.74422039452E+02 -0.93372057555E+00  0.51753596546E+02  0.90774647043E+02  0.47000000000E+01 0.  1.
         -5    1    5    5    0  503 -0.47131828366E+02  0.31113473946E+02  0.22944913220E+02  0.61139320807E+02  0.47000000000E+01 0.  1.
<mgrwt>
<rscale>  0 0.27604455E+03</rscale>
<asrwt>0</asrwt>
<pdfrwt beam="1">  1        2 0.26716206E-01 0.27604455E+03</pdfrwt>
<pdfrwt beam="2">  1       -2 0.16877063E-01 0.27604455E+03</pdfrwt>
<totfact> 0.55668975E+03</totfact>
</mgrwt>
</event>
<event>
 9    1  0.8175317E-001  0.2713847E+03  0.7818608E-02  0.1100490E+00
         -2   -1    0    0    0  501 -0.00000000000E+00  0.00000000000E+00  0.16096359898E+03  0.16096359898E+03  0.00000000000E+00 0. -1.
          2   -1    0    0  501    0  0.00000000000E+00 -0.00000000000E+00 -0.11438870119E+03  0.11438870119E+03  0.00000000000E+00 0. -1.
         35    2    1    2    0    0  0.00000000000E+00  0.00000000000E+00  0.46574897792E+02  0.27535230018E+03  0.27138472342E+03 0.  0.
         25    2    3    3    0    0  0.94144546092E+01 -0.52943905438E+02  0.28828202336E+02  0.13822898446E+03  0.12403426066E+03 0.  0.
         25    2    3    3    0    0 -0.94144546092E+01  0.52943905438E+02  0.17746695455E+02  0.13712331571E+03  0.12488462449E+03 0.  0.
          5    1    4    4  502    0 -0.53410080649E+02 -0.42450523271E+01  0.73047331890E+00  0.53789225459E+02  0.47000000000E+01 0.  1.
         -5    1    4    4    0  502  0.62824535258E+02 -0.48698853111E+02  0.28097729017E+02  0.84439759004E+02  0.47000000000E+01 0.  1.
          5    1    5    5  503    0  0.50411993285E+02  0.25948883168E+02 -0.21134761292E+02  0.60691694156E+02  0.47000000000E+01 0.  1.
         -5    1    5    5    0  503 -0.59826447894E+02  0.26995022270E+02  0.38881456748E+02  0.76431621557E+02  0.47000000000E+01 0.  1.
<mgrwt>
<rscale>  0 0.27138472E+03</rscale>
<asrwt>0</asrwt>
<pdfrwt beam="1">  1        2 0.17598262E-01 0.27138472E+03</pdfrwt>
<pdfrwt beam="2">  1       -2 0.24763631E-01 0.27138472E+03</pdfrwt>
<totfact> 0.46280749E+03</totfact>
</mgrwt>
</event>
<event>
 9    1  0.8175317E-001  0.2787261E+03  0.7818608E-02  0.1096387E+00
          2   -1    0    0  501    0  0.00000000000E+00  0.00000000000E+00  0.37260427511E+03  0.37260427511E+03  0.00000000000E+00 0.  1.
         -2   -1    0    0    0  501 -0.00000000000E+00 -0.00000000000E+00 -0.52125148951E+02  0.52125148951E+02  0.00000000000E+00 0.  1.
         35    2    1    2    0    0 -0.35527136788E-14 -0.17763568394E-14  0.32047912616E+03  0.42472942406E+03  0.27872605432E+03 0.  0.
         25    2    3    3    0    0  0.15809816039E+02  0.37814396891E+01  0.70438636622E+02  0.14436924464E+03  0.12496650632E+03 0.  0.
         25    2    3    3    0    0 -0.15809816039E+02 -0.37814396891E+01  0.25004048954E+03  0.28036017942E+03  0.12576698384E+03 0.  0.
          5    1    4    4  502    0  0.51782704287E+02 -0.12951714878E+02  0.86137077201E+02  0.10144398183E+03  0.47000000000E+01 0.  1.
         -5    1    4    4    0  502 -0.35972888248E+02  0.16733154567E+02 -0.15698440579E+02  0.42925262810E+02  0.47000000000E+01 0.  1.
          5    1    5    5  503    0 -0.25905667907E+02  0.58010723306E+02  0.13587015444E+03  0.15006377482E+03  0.47000000000E+01 0. -1.
         -5    1    5    5    0  503  0.10095851868E+02 -0.61792162995E+02  0.11417033510E+03  0.13029640459E+03  0.47000000000E+01 0. -1.
<mgrwt>
<rscale>  0 0.27872605E+03</rscale>
<asrwt>0</asrwt>
<pdfrwt beam="1">  1        2 0.57323733E-01 0.27872605E+03</pdfrwt>
<pdfrwt beam="2">  1       -2 0.80192539E-02 0.27872605E+03</pdfrwt>
<totfact> 0.80789068E+03</totfact>
</mgrwt>
</event>
<event>
 9    1  0.8175317E-001  0.2710401E+03  0.7818608E-02  0.1100686E+00
          1   -1    0    0  501    0  0.00000000000E+00  0.00000000000E+00  0.45582832482E+03  0.45582832482E+03  0.00000000000E+00 0.  1.
         -1   -1    0    0    0  501 -0.00000000000E+00 -0.00000000000E+00 -0.40290793949E+02  0.40290793949E+02  0.00000000000E+00 0.  1.
         35    2    1    2    0    0  0.00000000000E+00  0.00000000000E+00  0.41553753087E+03  0.49611911877E+03  0.27104010856E+03 0.  0.
         25    2    3    3    0    0 -0.49613257035E+02  0.83249075332E+01  0.18091807910E+03  0.22532247780E+03  0.12453147512E+03 0.  0.
         25    2    3    3    0    0  0.49613257035E+02 -0.83249075332E+01  0.23461945177E+03  0.27079664097E+03  0.12551396039E+03 0.  0.
          5    1    4    4  502    0 -0.44277216758E+01 -0.48298842193E+01  0.17773723995E+03  0.17792006341E+03  0.47000000000E+01 0.  1.
         -5    1    4    4    0  502 -0.45185535359E+02  0.13154791752E+02  0.31808391517E+01  0.47402414384E+02  0.47000000000E+01 0.  1.
          5    1    5    5  503    0 -0.76352306239E+01  0.58221433788E+01 -0.12642466205E+02  0.16556450463E+02  0.47000000000E+01 0. -1.
         -5    1    5    5    0  503  0.57248487659E+02 -0.14147050912E+02  0.24726191798E+03  0.25424019051E+03  0.47000000000E+01 0. -1.
<mgrwt>
<rscale>  0 0.27104011E+03</rscale>
<asrwt>0</asrwt>
<pdfrwt beam="1">  1        1 0.70127431E-01 0.27104011E+03</pdfrwt>
<pdfrwt beam="2">  1       -1 0.61985840E-02 0.27104011E+03</pdfrwt>
<totfact> 0.64561219E+03</totfact>
</mgrwt>
</event>
<event>
 9    1  0.8175317E-001  0.2736701E+03  0.7818608E-02  0.1099197E+00
          1   -1    0    0  501    0  0.00000000000E+00  0.00000000000E+00  0.17276756113E+04  0.17276756113E+04  0.00000000000E+00 0.  1.
         -1   -1    0    0    0  501 -0.00000000000E+00 -0.00000000000E+00 -0.10837586374E+02  0.10837586374E+02  0.00000000000E+00 0.  1.
         35    2    1    2    0    0  0.00000000000E+00  0.71054273576E-14  0.17168380249E+04  0.17385131976E+04  0.27367012013E+03 0.  0.
         25    2    3    3    0    0 -0.31136714037E+02 -0.18698795930E+02  0.10828183522E+04  0.10906187739E+04  0.12503833963E+03 0.  0.
         25    2    3    3    0    0  0.31136714037E+02  0.18698795930E+02  0.63401967273E+03  0.64789442370E+03  0.12832419457E+03 0.  0.
          5    1    4    4  502    0  0.59190083814E+00  0.45730648664E+02  0.66983544355E+03  0.67141138955E+03  0.47000000000E+01 0.  1.
         -5    1    4    4    0  502 -0.31728614875E+02 -0.64429444594E+02  0.41298290861E+03  0.41920738440E+03  0.47000000000E+01 0.  1.
          5    1    5    5  503    0 -0.22506236772E+00 -0.22433695988E+02  0.16617955722E+02  0.28311973105E+02  0.47000000000E+01 0. -1.
         -5    1    5    5    0  503  0.31361776405E+02  0.41132491919E+02  0.61740171701E+03  0.61958245059E+03  0.47000000000E+01 0. -1.
<mgrwt>
<rscale>  0 0.27367012E+03</rscale>
<asrwt>0</asrwt>
<pdfrwt beam="1">  1        1 0.26579603E+00 0.27367012E+03</pdfrwt>
<pdfrwt beam="2">  1       -1 0.16673224E-02 0.27367012E+03</pdfrwt>
<totfact> 0.45366909E+03</totfact>
</mgrwt>
</event>
<event>
 9    1  0.8175317E-001  0.2747289E+03  0.7818608E-02  0.1098603E+00
         -2   -1    0    0    0  501 -0.00000000000E+00  0.00000000000E+00  0.10816953918E+02  0.10816953918E+02  0.00000000000E+00 0. -1.
          2   -1    0    0  501    0  0.00000000000E+00 -0.00000000000E+00 -0.17443900572E+04  0.17443900572E+04  0.00000000000E+00 0. -1.
         35    2    1    2    0    0  0.00000000000E+00  0.71054273576E-14 -0.17335731033E+04  0.17552070111E+04  0.27472886171E+03 0.  0.
         25    2    3    3    0    0  0.26356356843E+02 -0.50659150510E+02 -0.91079657044E+03  0.92086936171E+03  0.12324358624E+03 0.  0.
         25    2    3    3    0    0 -0.26356356843E+02  0.50659150510E+02 -0.82277653285E+03  0.83433764941E+03  0.12608363548E+03 0.  0.
          5    1    4    4  502    0 -0.12606843406E+02 -0.75738297699E+02 -0.36106212409E+03  0.36916550447E+03  0.47000000000E+01 0. -1.
         -5    1    4    4    0  502  0.38963200249E+02  0.25079147189E+02 -0.54973444635E+03  0.55170385725E+03  0.47000000000E+01 0. -1.
          5    1    5    5  503    0 -0.42582439427E+02  0.40924811253E+02 -0.14997263786E+03  0.16125131451E+03  0.47000000000E+01 0. -1.
         -5    1    5    5    0  503  0.16226082584E+02  0.97343392572E+01 -0.67280389499E+03  0.67308633491E+03  0.47000000000E+01 0. -1.
<mgrwt>
<rscale>  0 0.27472886E+03</rscale>
<asrwt>0</asrwt>
<pdfrwt beam="1">  1        2 0.26836775E+00 0.27472886E+03</pdfrwt>
<pdfrwt beam="2">  1       -2 0.16641464E-02 0.27472886E+03</pdfrwt>
<totfact> 0.10256263E+04</totfact>
</mgrwt>
</event>
<event>
 9    1  0.8175317E-001  0.2738039E+03  0.7818608E-02  0.1099122E+00
         -4   -1    0    0    0  501 -0.00000000000E+00  0.00000000000E+00  0.22494780109E+04  0.22494780109E+04  0.00000000000E+00 0.  1.
          4   -1    0    0  501    0  0.00000000000E+00 -0.00000000000E+00 -0.83317776058E+01  0.83317776058E+01  0.00000000000E+00 0.  1.
         35    2    1    2    0    0  0.17763568394E-14  0.00000000000E+00  0.22411462333E+04  0.22578097885E+04  0.27380394823E+03 0.  0.
         25    2    3    3    0    0 -0.54941171934E+01 -0.59350357718E+02  0.94570951116E+03  0.95502191092E+03  0.11894419089E+03 0.  0.
         25    2    3    3    0    0  0.54941171934E+01  0.59350357718E+02  0.12954367221E+04  0.13027878776E+04  0.12468882330E+03 0.  0.
          5    1    4    4  502    0  0.10123137396E+02 -0.20984215955E+02  0.85344874134E+03  0.85377963159E+03  0.47000000000E+01 0.  1.
         -5    1    4    4    0  502 -0.15617254589E+02 -0.38366141763E+02  0.92260769822E+02  0.10124227932E+03  0.47000000000E+01 0.  1.
          5    1    5    5  503    0  0.56012278021E+02 -0.38003059189E+01  0.60411657926E+03  0.60673779258E+03  0.47000000000E+01 0.  1.
         -5    1    5    5    0  503 -0.50518160827E+02  0.63150663637E+02  0.69132014289E+03  0.69605008502E+03  0.47000000000E+01 0.  1.
<mgrwt>
<rscale>  0 0.27380395E+03</rscale>
<asrwt>0</asrwt>
<pdfrwt beam="1">  1        4 0.12818137E-02 0.27380395E+03</pdfrwt>
<pdfrwt beam="2">  1       -4 0.34607306E+00 0.27380395E+03</pdfrwt>
<totfact> 0.71908791E+01</totfact>
</mgrwt>
</event>
<event>
 9    1  0.8175317E-001  0.2607876E+03  0.7818608E-02  0.1106671E+00
         -2   -1    0    0    0  501 -0.00000000000E+00  0.00000000000E+00  0.94148299030E+02  0.94148299030E+02  0.00000000000E+00 0. -1.
          2   -1    0    0  501    0  0.00000000000E+00 -0.00000000000E+00 -0.18059316969E+03  0.18059316969E+03  0.00000000000E+00 0. -1.
         35    2    1    2    0    0  0.35527136788E-14  0.17763568394E-14 -0.86444870661E+02  0.27474146872E+03  0.26078757442E+03 0.  0.
         25    2    3    3    0    0  0.23726353638E+02  0.15506903049E+02 -0.16748909715E+02  0.12894097069E+03  0.12466693245E+03 0.  0.
         25    2    3    3    0    0 -0.23726353638E+02 -0.15506903049E+02 -0.69695960946E+02  0.14580049803E+03  0.12488736667E+03 0.  0.
          5    1    4    4  502    0  0.60719166996E+01  0.20588864559E+02  0.52621567529E+02  0.57025335470E+02  0.47000000000E+01 0. -1.
         -5    1    4    4    0  502  0.17654436938E+02 -0.50819615095E+01 -0.69370477244E+02  0.71915635222E+02  0.47000000000E+01 0. -1.
          5    1    5    5  503    0  0.25208470250E+02  0.17739608214E+02  0.20870896841E+02  0.37521260732E+02  0.47000000000E+01 0.  1.
         -5    1    5    5    0  503 -0.48934823888E+02 -0.33246511263E+02 -0.90566857787E+02  0.10827923730E+03  0.47000000000E+01 0.  1.
<mgrwt>
<rscale>  0 0.26078757E+03</rscale>
<asrwt>0</asrwt>
<pdfrwt beam="1">  1        2 0.27783564E-01 0.26078757E+03</pdfrwt>
<pdfrwt beam="2">  1       -2 0.14484354E-01 0.26078757E+03</pdfrwt>
<totfact> 0.68549214E+03</totfact>
</mgrwt>
</event>
<event>
 9    1  0.8175317E-001  0.2782855E+03  0.7818608E-02  0.1096629E+00
          3   -1    0    0  501    0  0.00000000000E+00  0.00000000000E+00  0.23166784329E+02  0.23166784329E+02  0.00000000000E+00 0. -1.
         -3   -1    0    0    0  501 -0.00000000000E+00 -0.00000000000E+00 -0.83570948528E+03  0.83570948528E+03  0.00000000000E+00 0. -1.
         35    2    1    2    0    0 -0.53290705182E-14  0.71054273576E-14 -0.81254270095E+03  0.85887626961E+03  0.27828547506E+03 0.  0.
         25    2    3    3    0    0  0.44078344316E+01 -0.44065205026E+01 -0.58194988253E+03  0.59543540415E+03  0.12585232742E+03 0.  0.
         25    2    3    3    0    0 -0.44078344316E+01  0.44065205026E+01 -0.23059281842E+03  0.26344086546E+03  0.12723676849E+03 0.  0.
          5    1    4    4  502    0  0.52844167607E+02  0.26590290510E+02 -0.18422056510E+03  0.19354290533E+03  0.47000000000E+01 0. -1.
         -5    1    4    4    0  502 -0.48436333176E+02 -0.30996811013E+02 -0.39772931743E+03  0.40189249882E+03  0.47000000000E+01 0. -1.
          5    1    5    5  503    0  0.86416128994E+01 -0.45842579835E+02 -0.19441471989E+03  0.19998848194E+03  0.47000000000E+01 0.  1.
         -5    1    5    5    0  503 -0.13049447331E+02  0.50249100338E+02 -0.36178098536E+02  0.63452383518E+02  0.47000000000E+01 0.  1.
<mgrwt>
<rscale>  0 0.27828548E+03</rscale>
<asrwt>0</asrwt>
<pdfrwt beam="1">  1        3 0.35641205E-02 0.27828548E+03</pdfrwt>
<pdfrwt beam="2">  1       -3 0.12857070E+00 0.27828548E+03</pdfrwt>
<totfact> 0.49470731E+02</totfact>
</mgrwt>
</event>
<event>
 9    1  0.8175317E-001  0.2679733E+03  0.7818608E-02  0.1102445E+00
         -1   -1    0    0    0  501 -0.00000000000E+00  0.00000000000E+00  0.12628165098E+02  0.12628165098E+02  0.00000000000E+00 0.  1.
          1   -1    0    0  501    0  0.00000000000E+00 -0.00000000000E+00 -0.14216178317E+04  0.14216178317E+04  0.00000000000E+00 0.  1.
         35    2    1    2    0    0  0.00000000000E+00  0.00000000000E+00 -0.14089896666E+04  0.14342459968E+04  0.26797331722E+03 0.  0.
         25    2    3    3    0    0  0.15691168525E+02 -0.14043595139E+02 -0.93509056435E+03  0.94359267355E+03  0.12461675129E+03 0.  0.
         25    2    3    3    0    0 -0.15691168525E+02  0.14043595139E+02 -0.47389910228E+03  0.49065332327E+03  0.12536701787E+03 0.  0.
          5    1    4    4  502    0  0.15271191625E+02 -0.55426618265E+02 -0.22483027595E+03  0.23211217609E+03  0.47000000000E+01 0. -1.
         -5    1    4    4    0  502  0.41997690067E+00  0.41383023126E+02 -0.71026028840E+03  0.71148049746E+03  0.47000000000E+01 0. -1.
          5    1    5    5  503    0 -0.27704204609E+02  0.58669618334E+02 -0.15081040136E+03  0.16424224252E+03  0.47000000000E+01 0. -1.
         -5    1    5    5    0  503  0.12013036084E+02 -0.44626023195E+02 -0.32308870092E+03  0.32641108076E+03  0.47000000000E+01 0. -1.
<mgrwt>
<rscale>  0 0.26797332E+03</rscale>
<asrwt>0</asrwt>
<pdfrwt beam="1">  1        1 0.21871058E+00 0.26797332E+03</pdfrwt>
<pdfrwt beam="2">  1       -1 0.19427934E-02 0.26797332E+03</pdfrwt>
<totfact> 0.57723255E+03</totfact>
</mgrwt>
</event>
<event>
 9    1  0.8175317E-001  0.2747129E+03  0.7818608E-02  0.1098612E+00
         -4   -1    0    0    0  501 -0.00000000000E+00  0.00000000000E+00  0.14713281120E+03  0.14713281120E+03  0.00000000000E+00 0.  1.
          4   -1    0    0  501    0  0.00000000000E+00 -0.00000000000E+00 -0.12822973080E+03  0.12822973080E+03  0.00000000000E+00 0.  1.
         35    2    1    2    0    0  0.53290705182E-14  0.00000000000E+00  0.18903080409E+02  0.27536254200E+03  0.27471294671E+03 0.  0.
         25    2    3    3    0    0 -0.95933187219E+01 -0.51211904787E+02  0.27148311191E+02  0.13904003930E+03  0.12601750185E+03 0.  0.
         25    2    3    3    0    0  0.95933187219E+01  0.51211904787E+02 -0.82452307819E+01  0.13632250270E+03  0.12570262509E+03 0.  0.
          5    1    4    4  502    0  0.85019930624E+01  0.36736327023E+02  0.31006019946E+02  0.49043907696E+02  0.47000000000E+01 0.  1.
         -5    1    4    4    0  502 -0.18095311784E+02 -0.87948231811E+02 -0.38577087547E+01  0.89996131606E+02  0.47000000000E+01 0.  1.
          5    1    5    5  503    0 -0.35766315567E+02  0.64112999513E+02  0.25812394915E+02  0.77962014899E+02  0.47000000000E+01 0.  1.
         -5    1    5    5    0  503  0.45359634289E+02 -0.12901094726E+02 -0.34057625697E+02  0.58360487799E+02  0.47000000000E+01 0.  1.
<mgrwt>
<rscale>  0 0.27471295E+03</rscale>
<asrwt>0</asrwt>
<pdfrwt beam="1">  1        4 0.19727651E-01 0.27471295E+03</pdfrwt>
<pdfrwt beam="2">  1       -4 0.22635817E-01 0.27471295E+03</pdfrwt>
<totfact> 0.78073080E+02</totfact>
</mgrwt>
</event>
<event>
 9    1  0.8175317E-001  0.2788445E+03  0.7818608E-02  0.1096322E+00
          1   -1    0    0  501    0  0.00000000000E+00  0.00000000000E+00  0.50950824690E+02  0.50950824690E+02  0.00000000000E+00 0.  1.
         -1   -1    0    0    0  501 -0.00000000000E+00 -0.00000000000E+00 -0.38151611799E+03  0.38151611799E+03  0.00000000000E+00 0.  1.
         35    2    1    2    0    0  0.14210854715E-13  0.00000000000E+00 -0.33056529330E+03  0.43246694268E+03  0.27884447883E+03 0.  0.
         25    2    3    3    0    0 -0.63046691498E+02 -0.17033461222E+02 -0.21155666904E+03  0.24785019439E+03  0.11139331457E+03 0.  0.
         25    2    3    3    0    0  0.63046691498E+02  0.17033461222E+02 -0.11900862426E+03  0.18461674829E+03  0.12512100940E+03 0.  0.
          5    1    4    4  502    0 -0.59202043032E+02  0.11122179867E+02 -0.21053028327E+03  0.21902893635E+03  0.47000000000E+01 0.  1.
         -5    1    4    4    0  502 -0.38446484664E+01 -0.28155641088E+02 -0.10263857668E+01  0.28821258034E+02  0.47000000000E+01 0.  1.
          5    1    5    5  503    0 -0.21350511352E+02  0.10212097372E+02  0.13233309058E+02  0.27519842593E+02  0.47000000000E+01 0.  1.
         -5    1    5    5    0  503  0.84397202850E+02  0.68213638495E+01 -0.13224193331E+03  0.15709690570E+03  0.47000000000E+01 0.  1.
<mgrwt>
<rscale>  0 0.27884448E+03</rscale>
<asrwt>0</asrwt>
<pdfrwt beam="1">  1        1 0.78385889E-02 0.27884448E+03</pdfrwt>
<pdfrwt beam="2">  1       -1 0.58694784E-01 0.27884448E+03</pdfrwt>
<totfact> 0.27044982E+03</totfact>
</mgrwt>
</event>
<event>
 9    1  0.8175317E-001  0.2865404E+03  0.7818608E-02  0.1092169E+00
         -2   -1    0    0    0  501 -0.00000000000E+00  0.00000000000E+00  0.81886326245E+01  0.81886326245E+01  0.00000000000E+00 0. -1.
          2   -1    0    0  501    0  0.00000000000E+00 -0.00000000000E+00 -0.25066882208E+04  0.25066882208E+04  0.00000000000E+00 0. -1.
         35    2    1    2    0    0 -0.14210854715E-13  0.00000000000E+00 -0.24984995881E+04  0.25148768534E+04  0.28654039118E+03 0.  0.
         25    2    3    3    0    0 -0.59186849681E+02  0.21630158032E+02 -0.93148938419E+03  0.94196673996E+03  0.12513160841E+03 0.  0.
         25    2    3    3    0    0  0.59186849681E+02 -0.21630158032E+02 -0.15670102040E+04  0.15729101134E+04  0.12064119830E+03 0.  0.
          5    1    4    4  502    0  0.12999260365E+02 -0.41283954249E+02 -0.33613582718E+03  0.33894354982E+03  0.47000000000E+01 0.  1.
         -5    1    4    4    0  502 -0.72186110046E+02  0.62914112281E+02 -0.59535355701E+03  0.60302319014E+03  0.47000000000E+01 0.  1.
          5    1    5    5  503    0  0.77915235700E+02 -0.21505784483E+02 -0.15190849451E+04  0.15212410864E+04  0.47000000000E+01 0. -1.
         -5    1    5    5    0  503 -0.18728386019E+02 -0.12437354871E+00 -0.47925258889E+02  0.51669027001E+02  0.47000000000E+01 0. -1.
<mgrwt>
<rscale>  0 0.28654039E+03</rscale>
<asrwt>0</asrwt>
<pdfrwt beam="1">  1        2 0.38564410E+00 0.28654039E+03</pdfrwt>
<pdfrwt beam="2">  1       -2 0.12597904E-02 0.28654039E+03</pdfrwt>
<totfact> 0.60554464E+03</totfact>
</mgrwt>
</event>
<event>
 9    1  0.8175317E-001  0.2750764E+03  0.7818608E-02  0.1098409E+00
          2   -1    0    0  501    0  0.00000000000E+00  0.00000000000E+00  0.26575795608E+04  0.26575795608E+04  0.00000000000E+00 0.  1.
         -2   -1    0    0    0  501 -0.00000000000E+00 -0.00000000000E+00 -0.71180404962E+01  0.71180404962E+01  0.00000000000E+00 0.  1.
         35    2    1    2    0    0 -0.71054273576E-14  0.00000000000E+00  0.26504615203E+04  0.26646976013E+04  0.27507641800E+03 0.  0.
         25    2    3    3    0    0 -0.37656739979E+02 -0.33388543779E+02  0.14193354016E+04  0.14257229176E+04  0.12506010838E+03 0.  0.
         25    2    3    3    0    0  0.37656739979E+02  0.33388543779E+02  0.12311261187E+04  0.12389746837E+04  0.12982265473E+03 0.  0.
          5    1    4    4  502    0 -0.12409759945E+02  0.22750592434E+02  0.11086873596E+04  0.11090001546E+04  0.47000000000E+01 0. -1.
         -5    1    4    4    0  502 -0.25246980034E+02 -0.56139136213E+02  0.31064804200E+03  0.31672276302E+03  0.47000000000E+01 0. -1.
          5    1    5    5  503    0  0.60127663070E+02  0.63586706477E+02  0.10637364897E+04  0.10673406273E+04  0.47000000000E+01 0.  1.
         -5    1    5    5    0  503 -0.22470923091E+02 -0.30198162698E+02  0.16738962896E+03  0.17163405635E+03  0.47000000000E+01 0.  1.
<mgrwt>
<rscale>  0 0.27507642E+03</rscale>
<asrwt>0</asrwt>
<pdfrwt beam="1">  1        2 0.40885760E+00 0.27507642E+03</pdfrwt>
<pdfrwt beam="2">  1       -2 0.10950853E-02 0.27507642E+03</pdfrwt>
<totfact> 0.61280085E+03</totfact>
</mgrwt>
</event>
<event>
 9    1  0.8175317E-001  0.2797018E+03  0.7818608E-02  0.1095852E+00
          1   -1    0    0  501    0  0.00000000000E+00  0.00000000000E+00  0.21816664085E+03  0.21816664085E+03  0.00000000000E+00 0. -1.
         -1   -1    0    0    0  501 -0.00000000000E+00 -0.00000000000E+00 -0.89648304100E+02  0.89648304100E+02  0.00000000000E+00 0. -1.
         35    2    1    2    0    0  0.00000000000E+00  0.17763568394E-14  0.12851833675E+03  0.30781494495E+03  0.27970176519E+03 0.  0.
         25    2    3    3    0    0  0.35741894988E+01  0.62667470828E+01  0.12035709938E+03  0.17357485160E+03  0.12486132622E+03 0.  0.
         25    2    3    3    0    0 -0.35741894988E+01 -0.62667470828E+01  0.81612373618E+01  0.13424009335E+03  0.13379742119E+03 0.  0.
          5    1    4    4  502    0 -0.57378083148E+02  0.90250020890E+01  0.84509046851E+02  0.10265263800E+03  0.47000000000E+01 0. -1.
         -5    1    4    4    0  502  0.60952272647E+02 -0.27582550062E+01  0.35848052533E+02  0.70922213600E+02  0.47000000000E+01 0. -1.
          5    1    5    5  503    0 -0.66624760402E+01  0.53429743467E+01 -0.62071583015E+02  0.62832375252E+02  0.47000000000E+01 0. -1.
         -5    1    5    5    0  503  0.30882865414E+01 -0.11609721430E+02  0.70232820377E+02  0.71407718095E+02  0.47000000000E+01 0. -1.
<mgrwt>
<rscale>  0 0.27970177E+03</rscale>
<asrwt>0</asrwt>
<pdfrwt beam="1">  1        1 0.33564098E-01 0.27970177E+03</pdfrwt>
<pdfrwt beam="2">  1       -1 0.13792047E-01 0.27970177E+03</pdfrwt>
<totfact> 0.47967902E+03</totfact>
</mgrwt>
</event>
<event>
 9    1  0.8175317E-001  0.2744639E+03  0.7818608E-02  0.1098752E+00
          2   -1    0    0  501    0  0.00000000000E+00  0.00000000000E+00  0.25135790937E+04  0.25135790937E+04  0.00000000000E+00 0. -1.
         -2   -1    0    0    0  501 -0.00000000000E+00 -0.00000000000E+00 -0.74923493916E+01  0.74923493916E+01  0.00000000000E+00 0. -1.
         35    2    1    2    0    0 -0.71054273576E-14  0.17763568394E-14  0.25060867443E+04  0.25210714431E+04  0.27446393420E+03 0.  0.
         25    2    3    3    0    0  0.50665342060E+02  0.20121600019E+01  0.15337195921E+04  0.15395511880E+04  0.12389934443E+03 0.  0.
         25    2    3    3    0    0 -0.50665342060E+02 -0.20121600019E+01  0.97236715222E+03  0.98152025512E+03  0.12374613862E+03 0.  0.
          5    1    4    4  502    0 -0.19768131055E+02  0.14321887432E+02  0.10734048545E+04  0.10736926781E+04  0.47000000000E+01 0. -1.
         -5    1    4    4    0  502  0.70433473114E+02 -0.12309727430E+02  0.46031473766E+03  0.46585850988E+03  0.47000000000E+01 0. -1.
          5    1    5    5  503    0  0.19428221326E+02  0.25295187946E+02  0.84206444818E+02  0.90167165122E+02  0.47000000000E+01 0. -1.
         -5    1    5    5    0  503 -0.70093563386E+02 -0.27307347948E+02  0.88816070740E+03  0.89135309000E+03  0.47000000000E+01 0. -1.
<mgrwt>
<rscale>  0 0.27446393E+03</rscale>
<asrwt>0</asrwt>
<pdfrwt beam="1">  1        2 0.38670381E+00 0.27446393E+03</pdfrwt>
<pdfrwt beam="2">  1       -2 0.11526711E-02 0.27446393E+03</pdfrwt>
<totfact> 0.68350192E+03</totfact>
</mgrwt>
</event>
<event>
 9    1  0.8175317E-001  0.2680913E+03  0.7818608E-02  0.1102377E+00
          2   -1    0    0  501    0  0.00000000000E+00  0.00000000000E+00  0.22598370631E+03  0.22598370631E+03  0.00000000000E+00 0. -1.
         -2   -1    0    0    0  501 -0.00000000000E+00 -0.00000000000E+00 -0.79511191170E+02  0.79511191170E+02  0.00000000000E+00 0. -1.
         35    2    1    2    0    0  0.00000000000E+00 -0.35527136788E-14  0.14647251514E+03  0.30549489748E+03  0.26809128053E+03 0.  0.
         25    2    3    3    0    0  0.43024393341E+02  0.13587808325E+02  0.85496154059E+02  0.15791130863E+03  0.12486257277E+03 0.  0.
         25    2    3    3    0    0 -0.43024393341E+02 -0.13587808325E+02  0.60976361085E+02  0.14758358885E+03  0.12659807317E+03 0.  0.
          5    1    4    4  502    0 -0.31884786022E+02  0.32328715023E+02  0.44428418404E+01  0.45865174570E+02  0.47000000000E+01 0.  1.
         -5    1    4    4    0  502  0.74909179364E+02 -0.18740906698E+02  0.81053312219E+02  0.11204613406E+03  0.47000000000E+01 0.  1.
          5    1    5    5  503    0  0.13725598985E+02  0.10885390107E+02 -0.31446376853E+02  0.36302181786E+02  0.47000000000E+01 0. -1.
         -5    1    5    5    0  503 -0.56749992326E+02 -0.24473198431E+02  0.92422737938E+02  0.11128140707E+03  0.47000000000E+01 0. -1.
<mgrwt>
<rscale>  0 0.26809128E+03</rscale>
<asrwt>0</asrwt>
<pdfrwt beam="1">  1        2 0.34766724E-01 0.26809128E+03</pdfrwt>
<pdfrwt beam="2">  1       -2 0.12232491E-01 0.26809128E+03</pdfrwt>
<totfact> 0.70731426E+03</totfact>
</mgrwt>
</event>
<event>
 9    1  0.8175317E-001  0.2768590E+03  0.7818608E-02  0.1097417E+00
          2   -1    0    0  501    0  0.00000000000E+00  0.00000000000E+00  0.20926610189E+04  0.20926610189E+04  0.00000000000E+00 0. -1.
         -2   -1    0    0    0  501 -0.00000000000E+00 -0.00000000000E+00 -0.91571125815E+01  0.91571125815E+01  0.00000000000E+00 0. -1.
         35    2    1    2    0    0  0.00000000000E+00  0.00000000000E+00  0.20835039063E+04  0.21018181315E+04  0.27685904388E+03 0.  0.
         25    2    3    3    0    0  0.58603379520E+02  0.81901620342E+01  0.95720755098E+03  0.96702324126E+03  0.12404119740E+03 0.  0.
         25    2    3    3    0    0 -0.58603379520E+02 -0.81901620342E+01  0.11262963553E+04  0.11347948902E+04  0.12535760033E+03 0.  0.
          5    1    4    4  502    0 -0.10546462201E+02 -0.27932882651E+02  0.62559076591E+03  0.62632050118E+03  0.47000000000E+01 0. -1.
         -5    1    4    4    0  502  0.69149841722E+02  0.36123044685E+02  0.33161678506E+03  0.34070274009E+03  0.47000000000E+01 0. -1.
          5    1    5    5  503    0 -0.29281392789E+02  0.56441932539E+02  0.66465652489E+03  0.66770762898E+03  0.47000000000E+01 0. -1.
         -5    1    5    5    0  503 -0.29321986732E+02 -0.64632094574E+02  0.46163983042E+03  0.46708726121E+03  0.47000000000E+01 0. -1.
<mgrwt>
<rscale>  0 0.27685904E+03</rscale>
<asrwt>0</asrwt>
<pdfrwt beam="1">  1        2 0.32194747E+00 0.27685904E+03</pdfrwt>
<pdfrwt beam="2">  1       -2 0.14087882E-02 0.27685904E+03</pdfrwt>
<totfact> 0.85860522E+03</totfact>
</mgrwt>
</event>
<event>
 9    1  0.8175317E-001  0.2767889E+03  0.7818608E-02  0.1097456E+00
          2   -1    0    0  501    0  0.00000000000E+00  0.00000000000E+00  0.12118759802E+04  0.12118759802E+04  0.00000000000E+00 0.  1.
         -2   -1    0    0    0  501 -0.00000000000E+00 -0.00000000000E+00 -0.15804443558E+02  0.15804443558E+02  0.00000000000E+00 0.  1.
         35    2    1    2    0    0  0.35527136788E-14 -0.71054273576E-14  0.11960715367E+04  0.12276804238E+04  0.27678891256E+03 0.  0.
         25    2    3    3    0    0 -0.86313768367E+00 -0.51197762591E+02  0.46257305966E+03  0.48183301591E+03  0.12476884146E+03 0.  0.
         25    2    3    3    0    0  0.86313768367E+00  0.51197762591E+02  0.73349847703E+03  0.74584740789E+03  0.12508550737E+03 0.  0.
          5    1    4    4  502    0  0.58713242311E+02 -0.34062987827E+02  0.17830795231E+03  0.19084901839E+03  0.47000000000E+01 0. -1.
         -5    1    4    4    0  502 -0.59576379995E+02 -0.17134774764E+02  0.28426510734E+03  0.29098399752E+03  0.47000000000E+01 0. -1.
          5    1    5    5  503    0  0.17953795819E+02 -0.20029181251E+02  0.39739517050E+02  0.48216450526E+02  0.47000000000E+01 0.  1.
         -5    1    5    5    0  503 -0.17090658136E+02  0.71226943842E+02  0.69375895997E+03  0.69763095736E+03  0.47000000000E+01 0.  1.
<mgrwt>
<rscale>  0 0.27678891E+03</rscale>
<asrwt>0</asrwt>
<pdfrwt beam="1">  1        2 0.18644239E+00 0.27678891E+03</pdfrwt>
<pdfrwt beam="2">  1       -2 0.24314538E-02 0.27678891E+03</pdfrwt>
<totfact> 0.11380879E+04</totfact>
</mgrwt>
</event>
<event>
 9    1  0.8175317E-001  0.2739015E+03  0.7818608E-02  0.1099067E+00
          1   -1    0    0  501    0  0.00000000000E+00  0.00000000000E+00  0.14438208323E+03  0.14438208323E+03  0.00000000000E+00 0. -1.
         -1   -1    0    0    0  501 -0.00000000000E+00 -0.00000000000E+00 -0.12990191769E+03  0.12990191769E+03  0.00000000000E+00 0. -1.
         35    2    1    2    0    0 -0.35527136788E-14  0.00000000000E+00  0.14480165536E+02  0.27428400092E+03  0.27390151143E+03 0.  0.
         25    2    3    3    0    0  0.31895943933E+02 -0.40144622509E+02  0.30990267023E+02  0.13794062549E+03  0.12425086541E+03 0.  0.
         25    2    3    3    0    0 -0.31895943933E+02  0.40144622509E+02 -0.16510101488E+02  0.13634337542E+03  0.12525170903E+03 0.  0.
          5    1    4    4  502    0  0.39609231348E+01 -0.20502285746E+02 -0.47562754873E+02  0.52156862290E+02  0.47000000000E+01 0.  1.
         -5    1    4    4    0  502  0.27935020799E+02 -0.19642336763E+02  0.78553021896E+02  0.85783763204E+02  0.47000000000E+01 0.  1.
          5    1    5    5  503    0 -0.43546849585E+02  0.55852151966E+02  0.36379673267E+02  0.79758144506E+02  0.47000000000E+01 0. -1.
         -5    1    5    5    0  503  0.11650905651E+02 -0.15707529457E+02 -0.52889774755E+02  0.56585230915E+02  0.47000000000E+01 0. -1.
<mgrwt>
<rscale>  0 0.27390151E+03</rscale>
<asrwt>0</asrwt>
<pdfrwt beam="1">  1        1 0.22212628E-01 0.27390151E+03</pdfrwt>
<pdfrwt beam="2">  1       -1 0.19984910E-01 0.27390151E+03</pdfrwt>
<totfact> 0.44692708E+03</totfact>
</mgrwt>
</event>
<event>
 9    1  0.8175317E-001  0.2758974E+03  0.7818608E-02  0.1097951E+00
          1   -1    0    0  501    0  0.00000000000E+00  0.00000000000E+00  0.42899331270E+03  0.42899331270E+03  0.00000000000E+00 0.  1.
         -1   -1    0    0    0  501 -0.00000000000E+00 -0.00000000000E+00 -0.44359303062E+02  0.44359303062E+02  0.00000000000E+00 0.  1.
         35    2    1    2    0    0 -0.71054273576E-14 -0.17763568394E-14  0.38463400964E+03  0.47335261576E+03  0.27589740390E+03 0.  0.
         25    2    3    3    0    0 -0.55127298134E+02  0.39851451726E+01  0.17161044950E+03  0.21994179344E+03  0.12597359145E+03 0.  0.
         25    2    3    3    0    0  0.55127298134E+02 -0.39851451726E+01  0.21302356014E+03  0.25341082232E+03  0.12563083743E+03 0.  0.
          5    1    4    4  502    0  0.20926040161E+02  0.45697516617E+02  0.69095797452E+02  0.85571498803E+02  0.47000000000E+01 0. -1.
         -5    1    4    4    0  502 -0.76053338295E+02 -0.41712371444E+02  0.10251465205E+03  0.13437029464E+03  0.47000000000E+01 0. -1.
          5    1    5    5  503    0  0.79340241205E+02  0.11811499015E+02  0.20891454992E+03  0.22383423454E+03  0.47000000000E+01 0.  1.
         -5    1    5    5    0  503 -0.24212943072E+02 -0.15796644187E+02  0.41090102201E+01  0.29576587781E+02  0.47000000000E+01 0.  1.
<mgrwt>
<rscale>  0 0.27589740E+03</rscale>
<asrwt>0</asrwt>
<pdfrwt beam="1">  1        1 0.65998968E-01 0.27589740E+03</pdfrwt>
<pdfrwt beam="2">  1       -1 0.68245085E-02 0.27589740E+03</pdfrwt>
<totfact> 0.60429650E+03</totfact>
</mgrwt>
</event>
<event>
 9    1  0.8175317E-001  0.2672655E+03  0.7818608E-02  0.1102855E+00
         -2   -1    0    0    0  501 -0.00000000000E+00  0.00000000000E+00  0.11417842166E+03  0.11417842166E+03  0.00000000000E+00 0.  1.
          2   -1    0    0  501    0  0.00000000000E+00 -0.00000000000E+00 -0.15640186057E+03  0.15640186057E+03  0.00000000000E+00 0.  1.
         35    2    1    2    0    0  0.35527136788E-14 -0.14210854715E-13 -0.42223438912E+02  0.27058028222E+03  0.26726554274E+03 0.  0.
         25    2    3    3    0    0 -0.20661793999E+02 -0.26290571986E+02 -0.56229316029E+02  0.14073904867E+03  0.12460995118E+03 0.  0.
         25    2    3    3    0    0  0.20661793999E+02  0.26290571986E+02  0.14005877117E+02  0.12984123355E+03  0.12467749367E+03 0.  0.
          5    1    4    4  502    0 -0.41615540079E+02  0.40261320119E+02 -0.16875254340E+02  0.60495382327E+02  0.47000000000E+01 0. -1.
         -5    1    4    4    0  502  0.20953746080E+02 -0.66551892105E+02 -0.39354061689E+02  0.80243666348E+02  0.47000000000E+01 0. -1.
          5    1    5    5  503    0  0.28491909611E+02  0.74008825986E+02  0.16711605975E+02  0.81181666720E+02  0.47000000000E+01 0. -1.
         -5    1    5    5    0  503 -0.78301156125E+01 -0.47718254000E+02 -0.27057288575E+01  0.48659566829E+02  0.47000000000E+01 0. -1.
<mgrwt>
<rscale>  0 0.26726554E+03</rscale>
<asrwt>0</asrwt>
<pdfrwt beam="1">  1        2 0.24061825E-01 0.26726554E+03</pdfrwt>
<pdfrwt beam="2">  1       -2 0.17565911E-01 0.26726554E+03</pdfrwt>
<totfact> 0.58432323E+03</totfact>
</mgrwt>
</event>
<event>
 9    1  0.8175317E-001  0.2752175E+03  0.7818608E-02  0.1098330E+00
         -3   -1    0    0    0  501 -0.00000000000E+00  0.00000000000E+00  0.86142493009E+02  0.86142493009E+02  0.00000000000E+00 0. -1.
          3   -1    0    0  501    0  0.00000000000E+00 -0.00000000000E+00 -0.21982376305E+03  0.21982376305E+03  0.00000000000E+00 0. -1.
         35    2    1    2    0    0 -0.71054273576E-14  0.35527136788E-14 -0.13368127004E+03  0.30596625606E+03  0.27521749197E+03 0.  0.
         25    2    3    3    0    0 -0.39886772743E+02 -0.11616678372E+02 -0.21921848134E+02  0.13362841917E+03  0.12510030027E+03 0.  0.
         25    2    3    3    0    0  0.39886772743E+02  0.11616678372E+02 -0.11175942190E+03  0.17233783689E+03  0.12443576569E+03 0.  0.
          5    1    4    4  502    0 -0.38908951292E+02 -0.65986359685E+02 -0.71283386462E+01  0.77077943453E+02  0.47000000000E+01 0. -1.
         -5    1    4    4    0  502 -0.97782145070E+00  0.54369681313E+02 -0.14793509488E+02  0.56550475717E+02  0.47000000000E+01 0. -1.
          5    1    5    5  503    0  0.76407945969E+02 -0.10726146843E+02 -0.36181698233E+02  0.85348870645E+02  0.47000000000E+01 0. -1.
         -5    1    5    5    0  503 -0.36521173226E+02  0.22342825215E+02 -0.75577723670E+02  0.86988966240E+02  0.47000000000E+01 0. -1.
<mgrwt>
<rscale>  0 0.27521749E+03</rscale>
<asrwt>0</asrwt>
<pdfrwt beam="1">  1        3 0.33819040E-01 0.27521749E+03</pdfrwt>
<pdfrwt beam="2">  1       -3 0.13252692E-01 0.27521749E+03</pdfrwt>
<totfact> 0.10006959E+03</totfact>
</mgrwt>
</event>
<event>
 9    1  0.8175317E-001  0.2636422E+03  0.7818608E-02  0.1104974E+00
         -2   -1    0    0    0  501 -0.00000000000E+00  0.00000000000E+00  0.58544285692E+01  0.58544285692E+01  0.00000000000E+00 0.  1.
          2   -1    0    0  501    0  0.00000000000E+00 -0.00000000000E+00 -0.29681460257E+04  0.29681460257E+04  0.00000000000E+00 0.  1.
         35    2    1    2    0    0  0.00000000000E+00  0.00000000000E+00 -0.29622915971E+04  0.29740004543E+04  0.26364217334E+03 0.  0.
         25    2    3    3    0    0  0.77231860829E+01 -0.31573679758E+02 -0.12022327938E+04  0.12091294318E+04  0.12479482138E+03 0.  0.
         25    2    3    3    0    0 -0.77231860829E+01  0.31573679758E+02 -0.17600588033E+04  0.17648710225E+04  0.12611974467E+03 0.  0.
          5    1    4    4  502    0 -0.10110523858E+02 -0.77612228803E+02 -0.80599103475E+03  0.80979597359E+03  0.47000000000E+01 0. -1.
         -5    1    4    4    0  502  0.17833709941E+02  0.46038549045E+02 -0.39624175905E+03  0.39933345819E+03  0.47000000000E+01 0. -1.
          5    1    5    5  503    0 -0.46943973376E+02  0.59906249774E+02 -0.81389616163E+03  0.81746042553E+03  0.47000000000E+01 0.  1.
         -5    1    5    5    0  503  0.39220787293E+02 -0.28332570016E+02 -0.94616264171E+03  0.94741059696E+03  0.47000000000E+01 0.  1.
<mgrwt>
<rscale>  0 0.26364217E+03</rscale>
<asrwt>0</asrwt>
<pdfrwt beam="1">  1        2 0.45663698E+00 0.26364217E+03</pdfrwt>
<pdfrwt beam="2">  1       -2 0.90068304E-03 0.26364217E+03</pdfrwt>
<totfact> 0.54039265E+03</totfact>
</mgrwt>
</event>
<event>
 9    1  0.8175317E-001  0.2746960E+03  0.7818608E-02  0.1098622E+00
          4   -1    0    0  501    0  0.00000000000E+00  0.00000000000E+00  0.71827334772E+02  0.71827334772E+02  0.00000000000E+00 0.  1.
         -4   -1    0    0    0  501 -0.00000000000E+00 -0.00000000000E+00 -0.26263648145E+03  0.26263648145E+03  0.00000000000E+00 0.  1.
         35    2    1    2    0    0 -0.71054273576E-14  0.00000000000E+00 -0.19080914668E+03  0.33446381622E+03  0.27469603912E+03 0.  0.
         25    2    3    3    0    0  0.41225375734E+02  0.16633699312E+02 -0.14003965022E+03  0.19284241149E+03  0.12490348465E+03 0.  0.
         25    2    3    3    0    0 -0.41225375734E+02 -0.16633699312E+02 -0.50769496458E+02  0.14162140473E+03  0.12451051743E+03 0.  0.
          5    1    4    4  502    0  0.32824935463E+02 -0.43395693654E+02 -0.11458018680E+03  0.12693057876E+03  0.47000000000E+01 0. -1.
         -5    1    4    4    0  502  0.84004402711E+01  0.60029392966E+02 -0.25459463417E+02  0.65911832732E+02  0.47000000000E+01 0. -1.
          5    1    5    5  503    0 -0.12356080155E+02  0.14457813189E+02 -0.84797450023E+02  0.87031020960E+02  0.47000000000E+01 0.  1.
         -5    1    5    5    0  503 -0.28869295579E+02 -0.31091512501E+02  0.34027953564E+02  0.54590383774E+02  0.47000000000E+01 0.  1.
<mgrwt>
<rscale>  0 0.27469604E+03</rscale>
<asrwt>0</asrwt>
<pdfrwt beam="1">  1        4 0.11050359E-01 0.27469604E+03</pdfrwt>
<pdfrwt beam="2">  1       -4 0.40405613E-01 0.27469604E+03</pdfrwt>
<totfact> 0.71543947E+02</totfact>
</mgrwt>
</event>
<event>
 9    1  0.8175317E-001  0.2737393E+03  0.7818608E-02  0.1099158E+00
          2   -1    0    0  501    0  0.00000000000E+00  0.00000000000E+00  0.22347677987E+04  0.22347677987E+04  0.00000000000E+00 0. -1.
         -2   -1    0    0    0  501 -0.00000000000E+00 -0.00000000000E+00 -0.83826589029E+01  0.83826589029E+01  0.00000000000E+00 0. -1.
         35    2    1    2    0    0  0.00000000000E+00  0.00000000000E+00  0.22263851398E+04  0.22431504576E+04  0.27373926415E+03 0.  0.
         25    2    3    3    0    0  0.26359000774E+02  0.46015167711E+02  0.10586173071E+04  0.10673972115E+04  0.12591271405E+03 0.  0.
         25    2    3    3    0    0 -0.26359000774E+02 -0.46015167711E+02  0.11677678327E+04  0.11757532462E+04  0.12610230828E+03 0.  0.
          5    1    4    4  502    0  0.43785796201E+02  0.75661717111E+02  0.93220046131E+03  0.93630213150E+03  0.47000000000E+01 0.  1.
         -5    1    4    4    0  502 -0.17426795427E+02 -0.29646549400E+02  0.12641684580E+03  0.13109507997E+03  0.47000000000E+01 0.  1.
          5    1    5    5  503    0  0.44985890378E+02 -0.98259035789E+01  0.23275336611E+03  0.23731097352E+03  0.47000000000E+01 0.  1.
         -5    1    5    5    0  503 -0.71344891152E+02 -0.36189264132E+02  0.93501446661E+03  0.93844227265E+03  0.47000000000E+01 0.  1.
<mgrwt>
<rscale>  0 0.27373926E+03</rscale>
<asrwt>0</asrwt>
<pdfrwt beam="1">  1        2 0.34380996E+00 0.27373926E+03</pdfrwt>
<pdfrwt beam="2">  1       -2 0.12896416E-02 0.27373926E+03</pdfrwt>
<totfact> 0.82107850E+03</totfact>
</mgrwt>
</event>
<event>
 9    1  0.8175317E-001  0.2959252E+03  0.7818608E-02  0.1087295E+00
         -1   -1    0    0    0  501 -0.00000000000E+00  0.00000000000E+00  0.13607748458E+04  0.13607748458E+04  0.00000000000E+00 0. -1.
          1   -1    0    0  501    0  0.00000000000E+00 -0.00000000000E+00 -0.16088577343E+02  0.16088577343E+02  0.00000000000E+00 0. -1.
         35    2    1    2    0    0  0.00000000000E+00  0.00000000000E+00  0.13446862685E+04  0.13768634232E+04  0.29592520240E+03 0.  0.
         25    2    3    3    0    0  0.73206695323E+02 -0.18788734549E+02  0.57841636033E+03  0.59675357318E+03  0.12584555780E+03 0.  0.
         25    2    3    3    0    0 -0.73206695323E+02  0.18788734549E+02  0.76626990818E+03  0.78010985002E+03  0.12525801024E+03 0.  0.
          5    1    4    4  502    0  0.19208642838E+02  0.53132109117E+02  0.23075342525E+03  0.23761571127E+03  0.47000000000E+01 0.  1.
         -5    1    4    4    0  502  0.53998052485E+02 -0.71920843666E+02  0.34766293508E+03  0.35913786191E+03  0.47000000000E+01 0.  1.
          5    1    5    5  503    0  0.17908270009E+02 -0.35388920791E+02  0.23022738139E+03  0.23366604159E+03  0.47000000000E+01 0. -1.
         -5    1    5    5    0  503 -0.91114965332E+02  0.54177655340E+02  0.53604252679E+03  0.54644380843E+03  0.47000000000E+01 0. -1.
<mgrwt>
<rscale>  0 0.29592520E+03</rscale>
<asrwt>0</asrwt>
<pdfrwt beam="1">  1        1 0.24751668E-02 0.29592520E+03</pdfrwt>
<pdfrwt beam="2">  1       -1 0.20934989E+00 0.29592520E+03</pdfrwt>
<totfact> 0.64774303E+02</totfact>
</mgrwt>
</event>
<event>
 9    1  0.8175317E-001  0.2526703E+03  0.7818608E-02  0.1111629E+00
          3   -1    0    0  501    0  0.00000000000E+00  0.00000000000E+00  0.24894950961E+02  0.24894950961E+02  0.00000000000E+00 0. -1.
         -3   -1    0    0    0  501 -0.00000000000E+00 -0.00000000000E+00 -0.64111696228E+03  0.64111696228E+03  0.00000000000E+00 0. -1.
         35    2    1    2    0    0  0.00000000000E+00 -0.17763568394E-14 -0.61622201132E+03  0.66601191324E+03  0.25267034125E+03 0.  0.
         25    2    3    3    0    0  0.97578332419E+01  0.15005912048E+02 -0.29476852494E+03  0.32062278055E+03  0.12486028755E+03 0.  0.
         25    2    3    3    0    0 -0.97578332419E+01 -0.15005912048E+02 -0.32145348638E+03  0.34538913269E+03  0.12506364927E+03 0.  0.
          5    1    4    4  502    0  0.59339502485E+02 -0.74684085182E+01 -0.21989729442E+03  0.22793390221E+03  0.47000000000E+01 0.  1.
         -5    1    4    4    0  502 -0.49581669243E+02  0.22474320566E+02 -0.74871230515E+02  0.92688878344E+02  0.47000000000E+01 0.  1.
          5    1    5    5  503    0 -0.14863298218E+02 -0.49028107116E+02 -0.30041870224E+03  0.30479199396E+03  0.47000000000E+01 0. -1.
         -5    1    5    5    0  503  0.51054649762E+01  0.34022195069E+02 -0.21034784140E+02  0.40597138738E+02  0.47000000000E+01 0. -1.
<mgrwt>
<rscale>  0 0.25267034E+03</rscale>
<asrwt>0</asrwt>
<pdfrwt beam="1">  1        3 0.38299930E-02 0.25267034E+03</pdfrwt>
<pdfrwt beam="2">  1       -3 0.98633365E-01 0.25267034E+03</pdfrwt>
<totfact> 0.81729393E+02</totfact>
</mgrwt>
</event>
<event>
 8    1  0.8175317E-001  0.3829778E+03  0.7818608E-02  0.1049839E+00
         -2   -1    0    0    0  501 -0.00000000000E+00  0.00000000000E+00  0.93641418917E+02  0.93641418917E+02  0.00000000000E+00 0. -1.
          2   -1    0    0  501    0  0.00000000000E+00 -0.00000000000E+00 -0.39157893535E+03  0.39157893535E+03  0.00000000000E+00 0. -1.
         25    2    1    2    0    0 -0.80155055048E+02 -0.93649823684E+02 -0.39794965014E+02  0.17528130501E+03  0.11808799396E+03 0.  0.
         25    2    1    2    0    0  0.80155055048E+02  0.93649823684E+02 -0.25814255142E+03  0.30993904926E+03  0.11928753111E+03 0.  0.
          5    1    3    3  502    0 -0.72191912392E+01 -0.17215173037E+02  0.38938418624E+02  0.43436958339E+02  0.47000000000E+01 0. -1.
         -5    1    3    3    0  502 -0.72935863808E+02 -0.76434650647E+02 -0.78733383638E+02  0.13184434667E+03  0.47000000000E+01 0. -1.
          5    1    4    4  503    0 -0.16901806825E+02  0.46296905134E+02 -0.14606865158E+03  0.15423104575E+03  0.47000000000E+01 0. -1.
         -5    1    4    4    0  503  0.97056861873E+02  0.47352918550E+02 -0.11207389984E+03  0.15570800351E+03  0.47000000000E+01 0. -1.
<mgrwt>
<rscale>  0 0.38297784E+03</rscale>
<asrwt>0</asrwt>
<pdfrwt beam="1">  1        2 0.60242913E-01 0.38297784E+03</pdfrwt>
<pdfrwt beam="2">  1       -2 0.14406372E-01 0.38297784E+03</pdfrwt>
<totfact> 0.30083697E+03</totfact>
</mgrwt>
</event>
<event>
 9    1  0.8175317E-001  0.2752258E+03  0.7818608E-02  0.1098325E+00
          2   -1    0    0  501    0  0.00000000000E+00  0.00000000000E+00  0.35828448388E+03  0.35828448388E+03  0.00000000000E+00 0. -1.
         -2   -1    0    0    0  501 -0.00000000000E+00 -0.00000000000E+00 -0.52855507511E+02  0.52855507511E+02  0.00000000000E+00 0. -1.
         35    2    1    2    0    0  0.71054273576E-14  0.71054273576E-14  0.30542897636E+03  0.41113999139E+03  0.27522578534E+03 0.  0.
         25    2    3    3    0    0  0.11646390886E+02  0.36589803479E+02  0.21661303735E+03  0.25278927975E+03  0.12452614131E+03 0.  0.
         25    2    3    3    0    0 -0.11646390886E+02 -0.36589803479E+02  0.88815939012E+02  0.15835071163E+03  0.12534841328E+03 0.  0.
          5    1    4    4  502    0  0.62561498039E+02  0.46245183919E+02  0.12088193726E+03  0.14383007623E+03  0.47000000000E+01 0. -1.
         -5    1    4    4    0  502 -0.50915107153E+02 -0.96553804397E+01  0.95731100095E+02  0.10895920353E+03  0.47000000000E+01 0. -1.
          5    1    5    5  503    0  0.54331374495E+02 -0.89741534505E+01  0.58637748581E+02  0.80578590477E+02  0.47000000000E+01 0.  1.
         -5    1    5    5    0  503 -0.65977765381E+02 -0.27615650029E+02  0.30178190431E+02  0.77772121155E+02  0.47000000000E+01 0.  1.
<mgrwt>
<rscale>  0 0.27522579E+03</rscale>
<asrwt>0</asrwt>
<pdfrwt beam="1">  1        2 0.55120688E-01 0.27522579E+03</pdfrwt>
<pdfrwt beam="2">  1       -2 0.81316168E-02 0.27522579E+03</pdfrwt>
<totfact> 0.82434665E+03</totfact>
</mgrwt>
</event>
<event>
 9    1  0.8175317E-001  0.2839685E+03  0.7818608E-02  0.1093541E+00
          1   -1    0    0  501    0  0.00000000000E+00  0.00000000000E+00  0.17558379899E+04  0.17558379899E+04  0.00000000000E+00 0.  1.
         -1   -1    0    0    0  501 -0.00000000000E+00 -0.00000000000E+00 -0.11481427035E+02  0.11481427035E+02  0.00000000000E+00 0.  1.
         35    2    1    2    0    0 -0.71054273576E-14  0.00000000000E+00  0.17443565629E+04  0.17673194169E+04  0.28396848957E+03 0.  0.
         25    2    3    3    0    0 -0.57627964979E+02 -0.18051220440E+01  0.64241310341E+03  0.65706339870E+03  0.12535339513E+03 0.  0.
         25    2    3    3    0    0  0.57627964979E+02  0.18051220440E+01  0.11019434595E+04  0.11102560182E+04  0.12273873622E+03 0.  0.
          5    1    4    4  502    0  0.18830946068E+01 -0.56590829068E+02  0.27920111056E+03  0.28492353029E+03  0.47000000000E+01 0. -1.
         -5    1    4    4    0  502 -0.59511059586E+02  0.54785707024E+02  0.36321199285E+03  0.37213986841E+03  0.47000000000E+01 0. -1.
          5    1    5    5  503    0 -0.36342491025E+02  0.16152025469E+02  0.36574911694E+03  0.36793500937E+03  0.47000000000E+01 0. -1.
         -5    1    5    5    0  503  0.93970456005E+02 -0.14346903425E+02  0.73619434252E+03  0.74232100886E+03  0.47000000000E+01 0. -1.
<mgrwt>
<rscale>  0 0.28396849E+03</rscale>
<asrwt>0</asrwt>
<pdfrwt beam="1">  1        1 0.27012871E+00 0.28396849E+03</pdfrwt>
<pdfrwt beam="2">  1       -1 0.17663748E-02 0.28396849E+03</pdfrwt>
<totfact> 0.39980370E+03</totfact>
</mgrwt>
</event>
<event>
 9    1  0.8175317E-001  0.2767946E+03  0.7818608E-02  0.1097453E+00
         -2   -1    0    0    0  501 -0.00000000000E+00  0.00000000000E+00  0.21912835982E+03  0.21912835982E+03  0.00000000000E+00 0. -1.
          2   -1    0    0  501    0  0.00000000000E+00 -0.00000000000E+00 -0.87409100553E+02  0.87409100553E+02  0.00000000000E+00 0. -1.
         35    2    1    2    0    0  0.26645352591E-14  0.14210854715E-13  0.13171925926E+03  0.30653746037E+03  0.27679460137E+03 0.  0.
         25    2    3    3    0    0 -0.52457530255E+01  0.64113362762E+02  0.59797031843E+02  0.14853111147E+03  0.11978215579E+03 0.  0.
         25    2    3    3    0    0  0.52457530255E+01 -0.64113362762E+02  0.71922227421E+02  0.15800634890E+03  0.12512057500E+03 0.  0.
          5    1    4    4  502    0  0.50206821223E+00  0.10457430247E+02 -0.36381273465E+02  0.38148354864E+02  0.47000000000E+01 0. -1.
         -5    1    4    4    0  502 -0.57478212377E+01  0.53655932515E+02  0.96178305308E+02  0.11038275660E+03  0.47000000000E+01 0. -1.
          5    1    5    5  503    0  0.53055439868E+02  0.12103235562E+01  0.52131656918E+02  0.74539548132E+02  0.47000000000E+01 0.  1.
         -5    1    5    5    0  503 -0.47809686843E+02 -0.65323686318E+02  0.19790570503E+02  0.83466800772E+02  0.47000000000E+01 0.  1.
<mgrwt>
<rscale>  0 0.27679460E+03</rscale>
<asrwt>0</asrwt>
<pdfrwt beam="1">  1        2 0.13447554E-01 0.27679460E+03</pdfrwt>
<pdfrwt beam="2">  1       -2 0.33712055E-01 0.27679460E+03</pdfrwt>
<totfact> 0.36463891E+03</totfact>
</mgrwt>
</event>
<event>
 9    1  0.8175317E-001  0.2729835E+03  0.7818608E-02  0.1099584E+00
          2   -1    0    0  501    0  0.00000000000E+00  0.00000000000E+00  0.10494294835E+04  0.10494294835E+04  0.00000000000E+00 0. -1.
         -2   -1    0    0    0  501 -0.00000000000E+00 -0.00000000000E+00 -0.17752504984E+02  0.17752504984E+02  0.00000000000E+00 0. -1.
         35    2    1    2    0    0  0.00000000000E+00 -0.17763568394E-14  0.10316769785E+04  0.10671819885E+04  0.27298353164E+03 0.  0.
         25    2    3    3    0    0 -0.42639050426E+02 -0.97694553895E+01  0.65340277356E+03  0.66670317215E+03  0.12507759344E+03 0.  0.
         25    2    3    3    0    0  0.42639050426E+02  0.97694553895E+01  0.37827420496E+03  0.40047881634E+03  0.12400958558E+03 0.  0.
          5    1    4    4  502    0  0.81997404976E+01  0.51724112261E+02  0.25895351949E+03  0.26423783754E+03  0.47000000000E+01 0.  1.
         -5    1    4    4    0  502 -0.50838790923E+02 -0.61493567651E+02  0.39444925407E+03  0.40246533461E+03  0.47000000000E+01 0.  1.
          5    1    5    5  503    0  0.78148999288E+02  0.17816102053E+02  0.33113417542E+03  0.34072952868E+03  0.47000000000E+01 0. -1.
         -5    1    5    5    0  503 -0.35509948862E+02 -0.80466466634E+01  0.47140029544E+02  0.59749287662E+02  0.47000000000E+01 0. -1.
<mgrwt>
<rscale>  0 0.27298353E+03</rscale>
<asrwt>0</asrwt>
<pdfrwt beam="1">  1        2 0.16145064E+00 0.27298353E+03</pdfrwt>
<pdfrwt beam="2">  1       -2 0.27311554E-02 0.27298353E+03</pdfrwt>
<totfact> 0.11904226E+04</totfact>
</mgrwt>
</event>
<event>
 9    1  0.8175317E-001  0.2750788E+03  0.7818608E-02  0.1098408E+00
          1   -1    0    0  501    0  0.00000000000E+00  0.00000000000E+00  0.16826137993E+03  0.16826137993E+03  0.00000000000E+00 0.  1.
         -1   -1    0    0    0  501 -0.00000000000E+00 -0.00000000000E+00 -0.11242675643E+03  0.11242675643E+03  0.00000000000E+00 0.  1.
         35    2    1    2    0    0  0.00000000000E+00 -0.71054273576E-14  0.55834623509E+02  0.28068813636E+03  0.27507876092E+03 0.  0.
         25    2    3    3    0    0  0.29562080725E+01 -0.54538928479E+02  0.48208356620E+02  0.14449678069E+03  0.12478798058E+03 0.  0.
         25    2    3    3    0    0 -0.29562080725E+01  0.54538928479E+02  0.76262668885E+01  0.13619135567E+03  0.12452586690E+03 0.  0.
          5    1    4    4  502    0  0.61408214507E+02 -0.37244695683E+02  0.41270377900E+02  0.82966681611E+02  0.47000000000E+01 0.  1.
         -5    1    4    4    0  502 -0.58452006435E+02 -0.17294232796E+02  0.69379787201E+01  0.61530099082E+02  0.47000000000E+01 0.  1.
          5    1    5    5  503    0 -0.50140645309E+02 -0.11509644740E+02  0.16909037017E+02  0.54355880702E+02  0.47000000000E+01 0.  1.
         -5    1    5    5    0  503  0.47184437237E+02  0.66048573219E+02 -0.92827701282E+01  0.81835474966E+02  0.47000000000E+01 0.  1.
<mgrwt>
<rscale>  0 0.27507876E+03</rscale>
<asrwt>0</asrwt>
<pdfrwt beam="1">  1        1 0.25886366E-01 0.27507876E+03</pdfrwt>
<pdfrwt beam="2">  1       -1 0.17296424E-01 0.27507876E+03</pdfrwt>
<totfact> 0.46433628E+03</totfact>
</mgrwt>
</event>
<event>
 9    1  0.8175317E-001  0.2741008E+03  0.7818608E-02  0.1098955E+00
         -1   -1    0    0    0  501 -0.00000000000E+00  0.00000000000E+00  0.13394778714E+03  0.13394778714E+03  0.00000000000E+00 0.  1.
          1   -1    0    0  501    0  0.00000000000E+00 -0.00000000000E+00 -0.14022489264E+03  0.14022489264E+03  0.00000000000E+00 0.  1.
         35    2    1    2    0    0  0.00000000000E+00  0.35527136788E-14 -0.62771055044E+01  0.27417267978E+03  0.27410081409E+03 0.  0.
         25    2    3    3    0    0  0.21333711311E+02  0.11092008763E+02  0.47513415091E+02  0.13637931209E+03  0.12555330444E+03 0.  0.
         25    2    3    3    0    0 -0.21333711311E+02 -0.11092008763E+02 -0.53790520595E+02  0.13779336769E+03  0.12456095768E+03 0.  0.
          5    1    4    4  502    0  0.19961584124E+02  0.41854296238E+02 -0.28222969321E+02  0.54487365064E+02  0.47000000000E+01 0. -1.
         -5    1    4    4    0  502  0.13721271875E+01 -0.30762287475E+02  0.75736384412E+02  0.81891947025E+02  0.47000000000E+01 0. -1.
          5    1    5    5  503    0  0.28041234032E+02 -0.52490994548E+02 -0.39632090602E+02  0.71654782954E+02  0.47000000000E+01 0.  1.
         -5    1    5    5    0  503 -0.49374945344E+02  0.41398985785E+02 -0.14158429993E+02  0.66138584741E+02  0.47000000000E+01 0.  1.
<mgrwt>
<rscale>  0 0.27410081E+03</rscale>
<asrwt>0</asrwt>
<pdfrwt beam="1">  1        1 0.21573061E-01 0.27410081E+03</pdfrwt>
<pdfrwt beam="2">  1       -1 0.20607352E-01 0.27410081E+03</pdfrwt>
<totfact> 0.44139318E+03</totfact>
</mgrwt>
</event>
<event>
 9    1  0.8175317E-001  0.2837791E+03  0.7818608E-02  0.1093643E+00
         -1   -1    0    0    0  501 -0.00000000000E+00  0.00000000000E+00  0.41734221918E+02  0.41734221918E+02  0.00000000000E+00 0.  1.
          1   -1    0    0  501    0  0.00000000000E+00 -0.00000000000E+00 -0.48240148043E+03  0.48240148043E+03  0.00000000000E+00 0.  1.
         35    2    1    2    0    0  0.00000000000E+00  0.71054273576E-14 -0.44066725851E+03  0.52413570234E+03  0.28377914256E+03 0.  0.
         25    2    3    3    0    0 -0.52134051541E+02 -0.15184425322E+02 -0.15716952945E+03  0.20870344034E+03  0.12612033508E+03 0.  0.
         25    2    3    3    0    0  0.52134051541E+02  0.15184425322E+02 -0.28349772906E+03  0.31543226200E+03  0.12719285918E+03 0.  0.
          5    1    4    4  502    0  0.49587138385E+00 -0.62384240627E+02 -0.49329874701E+02  0.79671612919E+02  0.47000000000E+01 0. -1.
         -5    1    4    4    0  502 -0.52629922925E+02  0.47199815306E+02 -0.10783965475E+03  0.12903182742E+03  0.47000000000E+01 0. -1.
          5    1    5    5  503    0  0.79544486419E+02 -0.49296413711E+01 -0.26432449235E+03  0.27611800727E+03  0.47000000000E+01 0.  1.
         -5    1    5    5    0  503 -0.27410434877E+02  0.20114066693E+02 -0.19173236712E+02  0.39314254732E+02  0.47000000000E+01 0.  1.
<mgrwt>
<rscale>  0 0.28377914E+03</rscale>
<asrwt>0</asrwt>
<pdfrwt beam="1">  1        1 0.74215611E-01 0.28377914E+03</pdfrwt>
<pdfrwt beam="2">  1       -1 0.64206497E-02 0.28377914E+03</pdfrwt>
<totfact> 0.56904456E+03</totfact>
</mgrwt>
</event>
<event>
 9    1  0.8175317E-001  0.2764029E+03  0.7818608E-02  0.1097670E+00
          2   -1    0    0  501    0  0.00000000000E+00  0.00000000000E+00  0.91143198628E+03  0.91143198628E+03  0.00000000000E+00 0. -1.
         -2   -1    0    0    0  501 -0.00000000000E+00 -0.00000000000E+00 -0.20955633559E+02  0.20955633559E+02  0.00000000000E+00 0. -1.
         35    2    1    2    0    0 -0.71054273576E-14  0.00000000000E+00  0.89047635272E+03  0.93238761984E+03  0.27640285612E+03 0.  0.
         25    2    3    3    0    0 -0.22906065532E+01 -0.38626603297E+02  0.57410613460E+03  0.58888731854E+03  0.12527233845E+03 0.  0.
         25    2    3    3    0    0  0.22906065532E+01  0.38626603297E+02  0.31637021812E+03  0.34350030131E+03  0.12808232011E+03 0.  0.
          5    1    4    4  502    0  0.39304227923E+02 -0.16243177766E+02  0.66560761799E+02  0.79127038159E+02  0.47000000000E+01 0. -1.
         -5    1    4    4    0  502 -0.41594834477E+02 -0.22383425531E+02  0.50754537280E+03  0.50976028038E+03  0.47000000000E+01 0. -1.
          5    1    5    5  503    0  0.42339321876E+02  0.40619872697E+02  0.28849665901E+03  0.29444015435E+03  0.47000000000E+01 0.  1.
         -5    1    5    5    0  503 -0.40048715322E+02 -0.19932693998E+01  0.27873559114E+02  0.49060146958E+02  0.47000000000E+01 0.  1.
<mgrwt>
<rscale>  0 0.27640286E+03</rscale>
<asrwt>0</asrwt>
<pdfrwt beam="1">  1        2 0.14022027E+00 0.27640286E+03</pdfrwt>
<pdfrwt beam="2">  1       -2 0.32239443E-02 0.27640286E+03</pdfrwt>
<totfact> 0.11327206E+04</totfact>
</mgrwt>
</event>
<event>
 9    1  0.8175317E-001  0.2687322E+03  0.7818608E-02  0.1102007E+00
         -1   -1    0    0    0  501 -0.00000000000E+00  0.00000000000E+00  0.91582246951E+01  0.91582246951E+01  0.00000000000E+00 0. -1.
          1   -1    0    0  501    0  0.00000000000E+00 -0.00000000000E+00 -0.19713699042E+04  0.19713699042E+04  0.00000000000E+00 0. -1.
         35    2    1    2    0    0 -0.71054273576E-14  0.71054273576E-14 -0.19622116795E+04  0.19805281289E+04  0.26873219785E+03 0.  0.
         25    2    3    3    0    0  0.29041404205E+02  0.21564443729E+01 -0.68521268250E+03  0.69705052406E+03  0.12455905998E+03 0.  0.
         25    2    3    3    0    0 -0.29041404205E+02 -0.21564443729E+01 -0.12769989970E+04  0.12834776048E+04  0.12546023414E+03 0.  0.
          5    1    4    4  502    0  0.36965386073E+02 -0.41412553742E+02 -0.15038414861E+03  0.16037119919E+03  0.47000000000E+01 0.  1.
         -5    1    4    4    0  502 -0.79239818680E+01  0.43568998115E+02 -0.53482853389E+03  0.53667932487E+03  0.47000000000E+01 0.  1.
          5    1    5    5  503    0  0.38733822427E+02  0.22650849442E+02 -0.25798997455E+03  0.26190511058E+03  0.47000000000E+01 0.  1.
         -5    1    5    5    0  503 -0.67775226633E+02 -0.24807293815E+02 -0.10190090225E+04  0.10215724943E+04  0.47000000000E+01 0.  1.
<mgrwt>
<rscale>  0 0.26873220E+03</rscale>
<asrwt>0</asrwt>
<pdfrwt beam="1">  1        1 0.30328770E+00 0.26873220E+03</pdfrwt>
<pdfrwt beam="2">  1       -1 0.14089576E-02 0.26873220E+03</pdfrwt>
<totfact> 0.40260827E+03</totfact>
</mgrwt>
</event>
<event>
 9    1  0.8175317E-001  0.2940193E+03  0.7818608E-02  0.1088269E+00
          2   -1    0    0  501    0  0.00000000000E+00  0.00000000000E+00  0.32205617484E+03  0.32205617484E+03  0.00000000000E+00 0.  1.
         -2   -1    0    0    0  501 -0.00000000000E+00 -0.00000000000E+00 -0.67105789379E+02  0.67105789379E+02  0.00000000000E+00 0.  1.
         35    2    1    2    0    0  0.00000000000E+00  0.00000000000E+00  0.25495038547E+03  0.38916196422E+03  0.29401927717E+03 0.  0.
         25    2    3    3    0    0  0.65594368499E+02  0.38999303779E+02  0.11811771179E+03  0.18757959096E+03  0.12414001059E+03 0.  0.
         25    2    3    3    0    0 -0.65594368499E+02 -0.38999303779E+02  0.13683267367E+03  0.20158237327E+03  0.12684126203E+03 0.  0.
          5    1    4    4  502    0 -0.38497874793E+01  0.47913280977E+02  0.10584455862E+03  0.11634287235E+03  0.47000000000E+01 0.  1.
         -5    1    4    4    0  502  0.69444155978E+02 -0.89139771980E+01  0.12273153177E+02  0.71236718607E+02  0.47000000000E+01 0.  1.
          5    1    5    5  503    0  0.37728282875E+02 -0.13607753766E+02  0.26896440773E+02  0.48519097452E+02  0.47000000000E+01 0.  1.
         -5    1    5    5    0  503 -0.10332265137E+03 -0.25391550013E+02  0.10993623290E+03  0.15306327581E+03  0.47000000000E+01 0.  1.
<mgrwt>
<rscale>  0 0.29401928E+03</rscale>
<asrwt>0</asrwt>
<pdfrwt beam="1">  1        2 0.49547103E-01 0.29401928E+03</pdfrwt>
<pdfrwt beam="2">  1       -2 0.10323968E-01 0.29401928E+03</pdfrwt>
<totfact> 0.63577685E+03</totfact>
</mgrwt>
</event>
<event>
 9    1  0.8175317E-001  0.2748063E+03  0.7818608E-02  0.1098560E+00
          2   -1    0    0  501    0  0.00000000000E+00  0.00000000000E+00  0.15663124387E+04  0.15663124387E+04  0.00000000000E+00 0.  1.
         -2   -1    0    0    0  501 -0.00000000000E+00 -0.00000000000E+00 -0.12053550538E+02  0.12053550538E+02  0.00000000000E+00 0.  1.
         35    2    1    2    0    0 -0.71054273576E-14 -0.71054273576E-14  0.15542588882E+04  0.15783659893E+04  0.27480630371E+03 0.  0.
         25    2    3    3    0    0  0.11860544227E+02  0.44630922159E+02  0.95100032539E+03  0.96046418938E+03  0.12632200313E+03 0.  0.
         25    2    3    3    0    0 -0.11860544227E+02 -0.44630922159E+02  0.60325856279E+03  0.61790179988E+03  0.12549561341E+03 0.  0.
          5    1    4    4  502    0  0.32174767198E+02 -0.35676259948E+02  0.45729408552E+03  0.45983473316E+03  0.47000000000E+01 0. -1.
         -5    1    4    4    0  502 -0.20314222971E+02  0.80307182107E+02  0.49370623986E+03  0.50062945622E+03  0.47000000000E+01 0. -1.
          5    1    5    5  503    0 -0.61051682602E+02 -0.43999253493E+02  0.24760450121E+03  0.25883068071E+03  0.47000000000E+01 0. -1.
         -5    1    5    5    0  503  0.49191138375E+02 -0.63166866628E+00  0.35565406158E+03  0.35907111917E+03  0.47000000000E+01 0. -1.
<mgrwt>
<rscale>  0 0.27480630E+03</rscale>
<asrwt>0</asrwt>
<pdfrwt beam="1">  1        2 0.24097098E+00 0.27480630E+03</pdfrwt>
<pdfrwt beam="2">  1       -2 0.18543936E-02 0.27480630E+03</pdfrwt>
<totfact> 0.10866008E+04</totfact>
</mgrwt>
</event>
<event>
 9    1  0.8175317E-001  0.2638030E+03  0.7818608E-02  0.1104880E+00
          1   -1    0    0  501    0  0.00000000000E+00  0.00000000000E+00  0.22629861392E+03  0.22629861392E+03  0.00000000000E+00 0. -1.
         -1   -1    0    0    0  501 -0.00000000000E+00 -0.00000000000E+00 -0.76880740410E+02  0.76880740410E+02  0.00000000000E+00 0. -1.
         35    2    1    2    0    0 -0.71054273576E-14  0.00000000000E+00  0.14941787351E+03  0.30317935433E+03  0.26380299461E+03 0.  0.
         25    2    3    3    0    0  0.31169474484E+02 -0.24164288032E+02  0.62566320338E+02  0.14665794462E+03  0.12664343380E+03 0.  0.
         25    2    3    3    0    0 -0.31169474484E+02  0.24164288032E+02  0.86851553170E+02  0.15652140970E+03  0.12409798730E+03 0.  0.
          5    1    4    4  502    0 -0.48842150364E+02 -0.56741287475E+01  0.14914753379E+02  0.51597395841E+02  0.47000000000E+01 0.  1.
         -5    1    4    4    0  502  0.80011624849E+02 -0.18490159285E+02  0.47651566959E+02  0.95060548783E+02  0.47000000000E+01 0.  1.
          5    1    5    5  503    0 -0.52047858370E+02  0.65213000241E+02  0.61338539017E+02  0.10366398280E+03  0.47000000000E+01 0. -1.
         -5    1    5    5    0  503  0.20878383886E+02 -0.41048712209E+02  0.25513014154E+02  0.52857426904E+02  0.47000000000E+01 0. -1.
<mgrwt>
<rscale>  0 0.26380299E+03</rscale>
<asrwt>0</asrwt>
<pdfrwt beam="1">  1        1 0.34815171E-01 0.26380299E+03</pdfrwt>
<pdfrwt beam="2">  1       -1 0.11827806E-01 0.26380299E+03</pdfrwt>
<totfact> 0.58179725E+03</totfact>
</mgrwt>
</event>
<event>
 9    1  0.8175317E-001  0.2701744E+03  0.7818608E-02  0.1101180E+00
         -2   -1    0    0    0  501 -0.00000000000E+00  0.00000000000E+00  0.52462016766E+03  0.52462016766E+03  0.00000000000E+00 0.  1.
          2   -1    0    0  501    0  0.00000000000E+00 -0.00000000000E+00 -0.34784310482E+02  0.34784310482E+02  0.00000000000E+00 0.  1.
         35    2    1    2    0    0 -0.35527136788E-14  0.35527136788E-14  0.48983585718E+03  0.55940447814E+03  0.27017439403E+03 0.  0.
         25    2    3    3    0    0 -0.19521084104E+02 -0.31608049033E+02  0.28727602436E+03  0.31794248878E+03  0.13107162359E+03 0.  0.
         25    2    3    3    0    0  0.19521084104E+02  0.31608049033E+02  0.20255983282E+03  0.24146198937E+03  0.12606849308E+03 0.  0.
          5    1    4    4  502    0 -0.10933827355E+01 -0.28036689691E+02 -0.15289746191E+01  0.28489984521E+02  0.47000000000E+01 0. -1.
         -5    1    4    4    0  502 -0.18427701368E+02 -0.35713593422E+01  0.28880499898E+03  0.28945250425E+03  0.47000000000E+01 0. -1.
          5    1    5    5  503    0 -0.45993570088E+02 -0.16934907882E+02  0.86749387550E+02  0.99748412692E+02  0.47000000000E+01 0.  1.
         -5    1    5    5    0  503  0.65514654191E+02  0.48542956915E+02  0.11581044527E+03  0.14171357667E+03  0.47000000000E+01 0.  1.
<mgrwt>
<rscale>  0 0.27017439E+03</rscale>
<asrwt>0</asrwt>
<pdfrwt beam="1">  1        2 0.53514328E-02 0.27017439E+03</pdfrwt>
<pdfrwt beam="2">  1       -2 0.80710789E-01 0.27017439E+03</pdfrwt>
<totfact> 0.20012059E+03</totfact>
</mgrwt>
</event>
<event>
 9    1  0.8175317E-001  0.2721292E+03  0.7818608E-02  0.1100067E+00
         -2   -1    0    0    0  501 -0.00000000000E+00  0.00000000000E+00  0.28072710513E+02  0.28072710513E+02  0.00000000000E+00 0. -1.
          2   -1    0    0  501    0  0.00000000000E+00 -0.00000000000E+00 -0.65948646216E+03  0.65948646216E+03  0.00000000000E+00 0. -1.
         35    2    1    2    0    0  0.00000000000E+00  0.14210854715E-13 -0.63141375165E+03  0.68755917267E+03  0.27212917917E+03 0.  0.
         25    2    3    3    0    0 -0.39272446320E+02  0.21570005771E+02 -0.23925521922E+03  0.27344281638E+03  0.12458059126E+03 0.  0.
         25    2    3    3    0    0  0.39272446320E+02 -0.21570005771E+02 -0.39215853242E+03  0.41411635629E+03  0.12528548122E+03 0.  0.
          5    1    4    4  502    0 -0.36890933367E+02  0.63212740470E+02 -0.20956790980E+03  0.22203060677E+03  0.47000000000E+01 0.  1.
         -5    1    4    4    0  502 -0.23815129532E+01 -0.41642734699E+02 -0.29687309422E+02  0.51412209619E+02  0.47000000000E+01 0.  1.
          5    1    5    5  503    0  0.20833034653E+02  0.50357810295E+02 -0.21746195581E+03  0.22423585042E+03  0.47000000000E+01 0. -1.
         -5    1    5    5    0  503  0.18439411667E+02 -0.71927816066E+02 -0.17469657662E+03  0.18988050587E+03  0.47000000000E+01 0. -1.
<mgrwt>
<rscale>  0 0.27212918E+03</rscale>
<asrwt>0</asrwt>
<pdfrwt beam="1">  1        2 0.10145946E+00 0.27212918E+03</pdfrwt>
<pdfrwt beam="2">  1       -2 0.43188785E-02 0.27212918E+03</pdfrwt>
<totfact> 0.10980650E+04</totfact>
</mgrwt>
</event>
<event>
 9    1  0.8175317E-001  0.2741721E+03  0.7818608E-02  0.1098915E+00
          1   -1    0    0  501    0  0.00000000000E+00  0.00000000000E+00  0.56297683997E+03  0.56297683997E+03  0.00000000000E+00 0. -1.
         -1   -1    0    0    0  501 -0.00000000000E+00 -0.00000000000E+00 -0.33380737802E+02  0.33380737802E+02  0.00000000000E+00 0. -1.
         35    2    1    2    0    0  0.00000000000E+00  0.00000000000E+00  0.52959610217E+03  0.59635757777E+03  0.27417207942E+03 0.  0.
         25    2    3    3    0    0  0.36222505057E+02  0.37214884247E+02  0.32123382266E+03  0.34810245646E+03  0.12364114966E+03 0.  0.
         25    2    3    3    0    0 -0.36222505057E+02 -0.37214884247E+02  0.20836227950E+03  0.24825512131E+03  0.12457426803E+03 0.  0.
          5    1    4    4  502    0 -0.34913188066E+02 -0.39262119738E+01  0.18936235925E+03  0.19265134036E+03  0.47000000000E+01 0. -1.
         -5    1    4    4    0  502  0.71135693122E+02  0.41141096221E+02  0.13187146341E+03  0.15545111610E+03  0.47000000000E+01 0. -1.
          5    1    5    5  503    0 -0.30512201178E+02  0.43242201978E+02  0.67953072737E+02  0.86258869382E+02  0.47000000000E+01 0. -1.
         -5    1    5    5    0  503 -0.57103038787E+01 -0.80457086226E+02  0.14040920677E+03  0.16199625193E+03  0.47000000000E+01 0. -1.
<mgrwt>
<rscale>  0 0.27417208E+03</rscale>
<asrwt>0</asrwt>
<pdfrwt beam="1">  1        1 0.86611814E-01 0.27417208E+03</pdfrwt>
<pdfrwt beam="2">  1       -1 0.51354985E-02 0.27417208E+03</pdfrwt>
<totfact> 0.64688540E+03</totfact>
</mgrwt>
</event>
<event>
 9    1  0.8175317E-001  0.2708967E+03  0.7818608E-02  0.1100767E+00
          2   -1    0    0  501    0  0.00000000000E+00  0.00000000000E+00  0.19911807031E+04  0.19911807031E+04  0.00000000000E+00 0. -1.
         -2   -1    0    0    0  501 -0.00000000000E+00 -0.00000000000E+00 -0.92137577327E+01  0.92137577327E+01  0.00000000000E+00 0. -1.
         35    2    1    2    0    0  0.00000000000E+00 -0.14210854715E-13  0.19819669453E+04  0.20003944608E+04  0.27089670799E+03 0.  0.
         25    2    3    3    0    0  0.74359287187E+01 -0.50811984346E+02  0.93234638101E+03  0.94206529277E+03  0.12482023416E+03 0.  0.
         25    2    3    3    0    0 -0.74359287187E+01  0.50811984346E+02  0.10496205643E+04  0.10583291680E+04  0.12538001467E+03 0.  0.
          5    1    4    4  502    0 -0.11771573876E+00 -0.27482265007E+02  0.90343289301E+03  0.90386302663E+03  0.47000000000E+01 0.  1.
         -5    1    4    4    0  502  0.75536444574E+01 -0.23329719338E+02  0.28913488007E+02  0.38202266133E+02  0.47000000000E+01 0.  1.
          5    1    5    5  503    0  0.36383046310E+02  0.57965906397E+02  0.88828286948E+03  0.89092778527E+03  0.47000000000E+01 0. -1.
         -5    1    5    5    0  503 -0.43818975029E+02 -0.71539220515E+01  0.16133769486E+03  0.16740138277E+03  0.47000000000E+01 0. -1.
<mgrwt>
<rscale>  0 0.27089671E+03</rscale>
<asrwt>0</asrwt>
<pdfrwt beam="1">  1        2 0.30633515E+00 0.27089671E+03</pdfrwt>
<pdfrwt beam="2">  1       -2 0.14175028E-02 0.27089671E+03</pdfrwt>
<totfact> 0.96222365E+03</totfact>
</mgrwt>
</event>
<event>
 9    1  0.8175317E-001  0.2752768E+03  0.7818608E-02  0.1098297E+00
         -1   -1    0    0    0  501 -0.00000000000E+00  0.00000000000E+00  0.12770545054E+02  0.12770545054E+02  0.00000000000E+00 0. -1.
          1   -1    0    0  501    0  0.00000000000E+00 -0.00000000000E+00 -0.14834388980E+04  0.14834388980E+04  0.00000000000E+00 0. -1.
         35    2    1    2    0    0  0.00000000000E+00  0.00000000000E+00 -0.14706683529E+04  0.14962094430E+04  0.27527675733E+03 0.  0.
         25    2    3    3    0    0  0.10267025450E+02 -0.77808607398E+01 -0.43342994825E+03  0.45138639665E+03  0.12538821892E+03 0.  0.
         25    2    3    3    0    0 -0.10267025450E+02  0.77808607398E+01 -0.10372384047E+04  0.10448230464E+04  0.12500294595E+03 0.  0.
          5    1    4    4  502    0  0.55112726072E+02 -0.20801871237E+02 -0.35577995693E+03  0.36065440268E+03  0.47000000000E+01 0.  1.
         -5    1    4    4    0  502 -0.44845700622E+02  0.13021010498E+02 -0.77649991315E+02  0.90731993971E+02  0.47000000000E+01 0.  1.
          5    1    5    5  503    0  0.19013559456E+02  0.13310262097E+02 -0.35757119035E+02  0.42887528280E+02  0.47000000000E+01 0.  1.
         -5    1    5    5    0  503 -0.29280584907E+02 -0.55294013568E+01 -0.10014812856E+04  0.10019355181E+04  0.47000000000E+01 0.  1.
<mgrwt>
<rscale>  0 0.27527676E+03</rscale>
<asrwt>0</asrwt>
<pdfrwt beam="1">  1        1 0.22822130E+00 0.27527676E+03</pdfrwt>
<pdfrwt beam="2">  1       -1 0.19646998E-02 0.27527676E+03</pdfrwt>
<totfact> 0.51659832E+03</totfact>
</mgrwt>
</event>
<event>
 9    1  0.8175317E-001  0.2720569E+03  0.7818608E-02  0.1100108E+00
          2   -1    0    0  501    0  0.00000000000E+00  0.00000000000E+00  0.28755329074E+02  0.28755329074E+02  0.00000000000E+00 0. -1.
         -2   -1    0    0    0  501 -0.00000000000E+00 -0.00000000000E+00 -0.64348887836E+03  0.64348887836E+03  0.00000000000E+00 0. -1.
         35    2    1    2    0    0  0.00000000000E+00  0.00000000000E+00 -0.61473354929E+03  0.67224420744E+03  0.27205686503E+03 0.  0.
         25    2    3    3    0    0 -0.51216860265E+02 -0.25818144329E+01 -0.32854906093E+03  0.35528743573E+03  0.12511931908E+03 0.  0.
         25    2    3    3    0    0  0.51216860265E+02  0.25818144329E+01 -0.28618448836E+03  0.31695677171E+03  0.12621490091E+03 0.  0.
          5    1    4    4  502    0 -0.61247542769E+02 -0.43676831650E+02 -0.28334885508E+03  0.29320230353E+03  0.47000000000E+01 0.  1.
         -5    1    4    4    0  502  0.10030682504E+02  0.41095017217E+02 -0.45200205845E+02  0.62085132197E+02  0.47000000000E+01 0.  1.
          5    1    5    5  503    0  0.51719332820E+02 -0.56597019729E+02 -0.15693711531E+03  0.17472681589E+03  0.47000000000E+01 0. -1.
         -5    1    5    5    0  503 -0.50247255500E+00  0.59178834162E+02 -0.12924737304E+03  0.14222995581E+03  0.47000000000E+01 0. -1.
<mgrwt>
<rscale>  0 0.27205687E+03</rscale>
<asrwt>0</asrwt>
<pdfrwt beam="1">  1        2 0.44238967E-02 0.27205687E+03</pdfrwt>
<pdfrwt beam="2">  1       -2 0.98998291E-01 0.27205687E+03</pdfrwt>
<totfact> 0.16231651E+03</totfact>
</mgrwt>
</event>
<event>
 9    1  0.8175317E-001  0.2747321E+03  0.7818608E-02  0.1098601E+00
          1   -1    0    0  501    0  0.00000000000E+00  0.00000000000E+00  0.13366678094E+03  0.13366678094E+03  0.00000000000E+00 0. -1.
         -1   -1    0    0    0  501 -0.00000000000E+00 -0.00000000000E+00 -0.14116770228E+03  0.14116770228E+03  0.00000000000E+00 0. -1.
         35    2    1    2    0    0 -0.35527136788E-14  0.71054273576E-14 -0.75009213407E+01  0.27483448322E+03  0.27473210469E+03 0.  0.
         25    2    3    3    0    0  0.28807718572E+01 -0.54382414971E+02 -0.73592629122E+00  0.13645125704E+03  0.12511058331E+03 0.  0.
         25    2    3    3    0    0 -0.28807718572E+01  0.54382414971E+02 -0.67649950495E+01  0.13838322618E+03  0.12703702698E+03 0.  0.
          5    1    4    4  502    0  0.17736072039E+01  0.40700088813E+02  0.34534741904E+01  0.41154093307E+02  0.47000000000E+01 0. -1.
         -5    1    4    4    0  502  0.11071646532E+01 -0.95082503785E+02 -0.41894004816E+01  0.95297163735E+02  0.47000000000E+01 0. -1.
          5    1    5    5  503    0 -0.37528528595E+02  0.83011732665E+02  0.60158048889E+01  0.91420009446E+02  0.47000000000E+01 0.  1.
         -5    1    5    5    0  503  0.34647756738E+02 -0.28629317694E+02 -0.12780799938E+02  0.46963216730E+02  0.47000000000E+01 0.  1.
<mgrwt>
<rscale>  0 0.27473210E+03</rscale>
<asrwt>0</asrwt>
<pdfrwt beam="1">  1        1 0.20564120E-01 0.27473210E+03</pdfrwt>
<pdfrwt beam="2">  1       -1 0.21718108E-01 0.27473210E+03</pdfrwt>
<totfact> 0.43083621E+03</totfact>
</mgrwt>
</event>
<event>
 9    1  0.8175317E-001  0.2743884E+03  0.7818608E-02  0.1098794E+00
         -1   -1    0    0    0  501 -0.00000000000E+00  0.00000000000E+00  0.13073220201E+02  0.13073220201E+02  0.00000000000E+00 0.  1.
          1   -1    0    0  501    0  0.00000000000E+00 -0.00000000000E+00 -0.14397564102E+04  0.14397564102E+04  0.00000000000E+00 0.  1.
         35    2    1    2    0    0  0.71054273576E-14  0.35527136788E-14 -0.14266831900E+04  0.14528296304E+04  0.27438842968E+03 0.  0.
         25    2    3    3    0    0 -0.46964159762E+02  0.82880404113E+01 -0.88206741431E+03  0.89185538228E+03  0.12283637739E+03 0.  0.
         25    2    3    3    0    0  0.46964159762E+02 -0.82880404113E+01 -0.54461577568E+03  0.56097424811E+03  0.12574354855E+03 0.  0.
          5    1    4    4  502    0 -0.84306011737E+02  0.28120742876E+02 -0.57157649410E+03  0.57846353247E+03  0.47000000000E+01 0. -1.
         -5    1    4    4    0  502  0.37341851975E+02 -0.19832702465E+02 -0.31049092021E+03  0.31339184981E+03  0.47000000000E+01 0. -1.
          5    1    5    5  503    0  0.16000698553E+02  0.47901196881E+02 -0.39323536356E+03  0.39649298628E+03  0.47000000000E+01 0. -1.
         -5    1    5    5    0  503  0.30963461209E+02 -0.56189237292E+02 -0.15138041213E+03  0.16448126183E+03  0.47000000000E+01 0. -1.
<mgrwt>
<rscale>  0 0.27438843E+03</rscale>
<asrwt>0</asrwt>
<pdfrwt beam="1">  1        1 0.22150104E+00 0.27438843E+03</pdfrwt>
<pdfrwt beam="2">  1       -1 0.20112641E-02 0.27438843E+03</pdfrwt>
<totfact> 0.53377701E+03</totfact>
</mgrwt>
</event>
<event>
 9    1  0.8175317E-001  0.2698866E+03  0.7818608E-02  0.1101345E+00
         -4   -1    0    0    0  501 -0.00000000000E+00  0.00000000000E+00  0.17632956424E+03  0.17632956424E+03  0.00000000000E+00 0.  1.
          4   -1    0    0  501    0  0.00000000000E+00 -0.00000000000E+00 -0.10327081470E+03  0.10327081470E+03  0.00000000000E+00 0.  1.
         35    2    1    2    0    0 -0.71054273576E-14 -0.71054273576E-14  0.73058749538E+02  0.27960037893E+03  0.26988662623E+03 0.  0.
         25    2    3    3    0    0 -0.26100269032E+02 -0.42849130036E+02  0.38714072868E+02  0.14004507186E+03  0.12488623113E+03 0.  0.
         25    2    3    3    0    0  0.26100269032E+02  0.42849130036E+02  0.34344676670E+02  0.13955530708E+03  0.12561391217E+03 0.  0.
          5    1    4    4  502    0 -0.72779900515E+00  0.33228392940E+02  0.48641520837E+02  0.59099436022E+02  0.47000000000E+01 0.  1.
         -5    1    4    4    0  502 -0.25372470027E+02 -0.76077522976E+02 -0.99274479690E+01  0.80945635835E+02  0.47000000000E+01 0.  1.
          5    1    5    5  503    0 -0.44184914727E+02  0.11120221839E+02  0.41706167485E+02  0.61947239079E+02  0.47000000000E+01 0.  1.
         -5    1    5    5    0  503  0.70285183759E+02  0.31728908197E+02 -0.73614908152E+01  0.77608067999E+02  0.47000000000E+01 0.  1.
<mgrwt>
<rscale>  0 0.26988663E+03</rscale>
<asrwt>0</asrwt>
<pdfrwt beam="1">  1        4 0.15887818E-01 0.26988663E+03</pdfrwt>
<pdfrwt beam="2">  1       -4 0.27127625E-01 0.26988663E+03</pdfrwt>
<totfact> 0.81942339E+02</totfact>
</mgrwt>
</event>
<event>
 9    1  0.8175317E-001  0.2758570E+03  0.7818608E-02  0.1097974E+00
         -3   -1    0    0    0  501 -0.00000000000E+00  0.00000000000E+00  0.22700016000E+02  0.22700016000E+02  0.00000000000E+00 0. -1.
          3   -1    0    0  501    0  0.00000000000E+00 -0.00000000000E+00 -0.83807292429E+03  0.83807292429E+03  0.00000000000E+00 0. -1.
         35    2    1    2    0    0  0.00000000000E+00  0.00000000000E+00 -0.81537290829E+03  0.86077294029E+03  0.27585698317E+03 0.  0.
         25    2    3    3    0    0 -0.33321536239E+02 -0.45301610278E+02 -0.36558848920E+03  0.39036388686E+03  0.12476562050E+03 0.  0.
         25    2    3    3    0    0  0.33321536239E+02  0.45301610278E+02 -0.44978441910E+03  0.47040905343E+03  0.12576205000E+03 0.  0.
          5    1    4    4  502    0 -0.19085345692E+02 -0.34856166676E+02 -0.20814085883E+02  0.45105642071E+02  0.47000000000E+01 0.  1.
         -5    1    4    4    0  502 -0.14236190548E+02 -0.10445443603E+02 -0.34477440331E+03  0.34525824479E+03  0.47000000000E+01 0.  1.
          5    1    5    5  503    0 -0.18055718003E+02 -0.17675829614E+02 -0.28945895166E+03  0.29059769201E+03  0.47000000000E+01 0.  1.
         -5    1    5    5    0  503  0.51377254242E+02  0.62977439893E+02 -0.16032546744E+03  0.17981136143E+03  0.47000000000E+01 0.  1.
<mgrwt>
<rscale>  0 0.27585698E+03</rscale>
<asrwt>0</asrwt>
<pdfrwt beam="1">  1        3 0.12893430E+00 0.27585698E+03</pdfrwt>
<pdfrwt beam="2">  1       -3 0.34923100E-02 0.27585698E+03</pdfrwt>
<totfact> 0.50846915E+02</totfact>
</mgrwt>
</event>
<event>
 9    1  0.8175317E-001  0.2743381E+03  0.7818608E-02  0.1098822E+00
         -1   -1    0    0    0  501 -0.00000000000E+00  0.00000000000E+00  0.20777446532E+02  0.20777446532E+02  0.00000000000E+00 0.  1.
          1   -1    0    0  501    0  0.00000000000E+00 -0.00000000000E+00 -0.90556605980E+03  0.90556605980E+03  0.00000000000E+00 0.  1.
         35    2    1    2    0    0  0.00000000000E+00  0.00000000000E+00 -0.88478861327E+03  0.92634350633E+03  0.27433811538E+03 0.  0.
         25    2    3    3    0    0 -0.20390283614E+02 -0.35945755662E+02 -0.54862648255E+03  0.56500901099E+03  0.12859356180E+03 0.  0.
         25    2    3    3    0    0  0.20390283614E+02  0.35945755662E+02 -0.33616213072E+03  0.36133449534E+03  0.12589590293E+03 0.  0.
          5    1    4    4  502    0 -0.55393368392E+02 -0.34943682580E+02 -0.13757247599E+03  0.15243937275E+03  0.47000000000E+01 0. -1.
         -5    1    4    4    0  502  0.35003084778E+02 -0.10020730826E+01 -0.41105400656E+03  0.41256963825E+03  0.47000000000E+01 0. -1.
          5    1    5    5  503    0 -0.27859688102E+02 -0.12943110356E+02 -0.24567261741E+03  0.24763039246E+03  0.47000000000E+01 0. -1.
         -5    1    5    5    0  503  0.48249971716E+02  0.48888866018E+02 -0.90489513313E+02  0.11370410288E+03  0.47000000000E+01 0. -1.
<mgrwt>
<rscale>  0 0.27433812E+03</rscale>
<asrwt>0</asrwt>
<pdfrwt beam="1">  1        1 0.13931783E+00 0.27433812E+03</pdfrwt>
<pdfrwt beam="2">  1       -1 0.31965309E-02 0.27433812E+03</pdfrwt>
<totfact> 0.64827823E+03</totfact>
</mgrwt>
</event>
<event>
 9    1  0.8175317E-001  0.2530674E+03  0.7818608E-02  0.1111382E+00
          2   -1    0    0  501    0  0.00000000000E+00  0.00000000000E+00  0.16498680614E+04  0.16498680614E+04  0.00000000000E+00 0. -1.
         -2   -1    0    0    0  501 -0.00000000000E+00 -0.00000000000E+00 -0.97042761331E+01  0.97042761331E+01  0.00000000000E+00 0. -1.
         35    2    1    2    0    0  0.00000000000E+00  0.00000000000E+00  0.16401637853E+04  0.16595723376E+04  0.25306738432E+03 0.  0.
         25    2    3    3    0    0  0.62716938387E+01  0.25995291416E+00  0.84866610556E+03  0.85823489828E+03  0.12764630892E+03 0.  0.
         25    2    3    3    0    0 -0.62716938387E+01 -0.25995291416E+00  0.79149767973E+03  0.80133743928E+03  0.12503484654E+03 0.  0.
          5    1    4    4  502    0  0.27385490562E+02  0.22676700048E+02  0.79767836437E+03  0.79848422702E+03  0.47000000000E+01 0.  1.
         -5    1    4    4    0  502 -0.21113796723E+02 -0.22416747134E+02  0.50987741188E+02  0.59750671257E+02  0.47000000000E+01 0.  1.
          5    1    5    5  503    0  0.24453103971E+01  0.43576523013E+02  0.11111110500E+03  0.11946824078E+03  0.47000000000E+01 0. -1.
         -5    1    5    5    0  503 -0.87170042358E+01 -0.43836475927E+02  0.68038657474E+03  0.68186919850E+03  0.47000000000E+01 0. -1.
<mgrwt>
<rscale>  0 0.25306738E+03</rscale>
<asrwt>0</asrwt>
<pdfrwt beam="1">  1        2 0.25382563E+00 0.25306738E+03</pdfrwt>
<pdfrwt beam="2">  1       -2 0.14929669E-02 0.25306738E+03</pdfrwt>
<totfact> 0.13455975E+04</totfact>
</mgrwt>
</event>
<event>
 9    1  0.8175317E-001  0.2779445E+03  0.7818608E-02  0.1096817E+00
         -2   -1    0    0    0  501 -0.00000000000E+00  0.00000000000E+00  0.11684876924E+03  0.11684876924E+03  0.00000000000E+00 0. -1.
          2   -1    0    0  501    0  0.00000000000E+00 -0.00000000000E+00 -0.16528443813E+03  0.16528443813E+03  0.00000000000E+00 0. -1.
         35    2    1    2    0    0  0.00000000000E+00  0.00000000000E+00 -0.48435668888E+02  0.28213320736E+03  0.27794447769E+03 0.  0.
         25    2    3    3    0    0  0.32779789185E+02  0.52692000060E+02 -0.38745684398E+02  0.14312244130E+03  0.12301155919E+03 0.  0.
         25    2    3    3    0    0 -0.32779789185E+02 -0.52692000060E+02 -0.96899844898E+01  0.13901076607E+03  0.12401264384E+03 0.  0.
          5    1    4    4  502    0 -0.42069243126E+02  0.16938208450E+01  0.45801205112E+01  0.42611709073E+02  0.47000000000E+01 0.  1.
         -5    1    4    4    0  502  0.74849032311E+02  0.50998179215E+02 -0.43325804909E+02  0.10051073222E+03  0.47000000000E+01 0.  1.
          5    1    5    5  503    0  0.34615990767E+02 -0.22670963605E+02  0.33449594063E+02  0.53415398066E+02  0.47000000000E+01 0.  1.
         -5    1    5    5    0  503 -0.67395779952E+02 -0.30021036455E+02 -0.43139578553E+02  0.85595367999E+02  0.47000000000E+01 0.  1.
<mgrwt>
<rscale>  0 0.27794448E+03</rscale>
<asrwt>0</asrwt>
<pdfrwt beam="1">  1        2 0.25428375E-01 0.27794448E+03</pdfrwt>
<pdfrwt beam="2">  1       -2 0.17976734E-01 0.27794448E+03</pdfrwt>
<totfact> 0.52908681E+03</totfact>
</mgrwt>
</event>
<event>
 9    1  0.8175317E-001  0.2801830E+03  0.7818608E-02  0.1095589E+00
          2   -1    0    0  501    0  0.00000000000E+00  0.00000000000E+00  0.19732989887E+04  0.19732989887E+04  0.00000000000E+00 0. -1.
         -2   -1    0    0    0  501 -0.00000000000E+00 -0.00000000000E+00 -0.99455894684E+01  0.99455894684E+01  0.00000000000E+00 0. -1.
         35    2    1    2    0    0  0.14210854715E-13 -0.35527136788E-14  0.19633533993E+04  0.19832445782E+04  0.28018295195E+03 0.  0.
         25    2    3    3    0    0  0.57450711898E+02  0.19958397449E+02  0.11040146554E+04  0.11127539420E+04  0.12519606234E+03 0.  0.
         25    2    3    3    0    0 -0.57450711898E+02 -0.19958397449E+02  0.85933874381E+03  0.87049063622E+03  0.12486772680E+03 0.  0.
          5    1    4    4  502    0  0.52796878160E+02  0.67292453620E+02  0.84805915094E+03  0.85237444715E+03  0.47000000000E+01 0.  1.
         -5    1    4    4    0  502  0.46538337387E+01 -0.47334056171E+02  0.25595550450E+03  0.26037949483E+03  0.47000000000E+01 0.  1.
          5    1    5    5  503    0  0.25485045326E+02  0.30953784458E+02  0.30421406054E+03  0.30688093609E+03  0.47000000000E+01 0. -1.
         -5    1    5    5    0  503 -0.82935757224E+02 -0.50912181907E+02  0.55512468328E+03  0.56360970013E+03  0.47000000000E+01 0. -1.
<mgrwt>
<rscale>  0 0.28018295E+03</rscale>
<asrwt>0</asrwt>
<pdfrwt beam="1">  1        2 0.30358415E+00 0.28018295E+03</pdfrwt>
<pdfrwt beam="2">  1       -2 0.15300923E-02 0.28018295E+03</pdfrwt>
<totfact> 0.87957911E+03</totfact>
</mgrwt>
</event>
<event>
 9    1  0.8175317E-001  0.2759996E+03  0.7818608E-02  0.1097894E+00
          1   -1    0    0  501    0  0.00000000000E+00  0.00000000000E+00  0.70752221261E+03  0.70752221261E+03  0.00000000000E+00 0.  1.
         -1   -1    0    0    0  501 -0.00000000000E+00 -0.00000000000E+00 -0.26916384737E+02  0.26916384737E+02  0.00000000000E+00 0.  1.
         35    2    1    2    0    0  0.00000000000E+00  0.00000000000E+00  0.68060582787E+03  0.73443859735E+03  0.27599956583E+03 0.  0.
         25    2    3    3    0    0 -0.62550114253E+02 -0.44518670012E+01  0.32167767061E+03  0.35041652858E+03  0.12402775423E+03 0.  0.
         25    2    3    3    0    0  0.62550114253E+02  0.44518670012E+01  0.35892815726E+03  0.38402206876E+03  0.12128969994E+03 0.  0.
          5    1    4    4  502    0 -0.41287322609E+02 -0.63353877455E+02  0.18927238306E+03  0.20387369076E+03  0.47000000000E+01 0.  1.
         -5    1    4    4    0  502 -0.21262791644E+02  0.58902010454E+02  0.13240528755E+03  0.14654283782E+03  0.47000000000E+01 0.  1.
          5    1    5    5  503    0  0.51485697866E+02  0.43593129696E+02  0.93155195742E+02  0.11511350284E+03  0.47000000000E+01 0.  1.
         -5    1    5    5    0  503  0.11064416387E+02 -0.39141262694E+02  0.26577296152E+03  0.26890856593E+03  0.47000000000E+01 0.  1.
<mgrwt>
<rscale>  0 0.27599957E+03</rscale>
<asrwt>0</asrwt>
<pdfrwt beam="1">  1        1 0.10884956E+00 0.27599957E+03</pdfrwt>
<pdfrwt beam="2">  1       -1 0.41409828E-02 0.27599957E+03</pdfrwt>
<totfact> 0.64634981E+03</totfact>
</mgrwt>
</event>
<event>
 9    1  0.8175317E-001  0.2742790E+03  0.7818608E-02  0.1098855E+00
         -2   -1    0    0    0  501 -0.00000000000E+00  0.00000000000E+00  0.14193990920E+03  0.14193990920E+03  0.00000000000E+00 0.  1.
          2   -1    0    0  501    0  0.00000000000E+00 -0.00000000000E+00 -0.13250143868E+03  0.13250143868E+03  0.00000000000E+00 0.  1.
         35    2    1    2    0    0  0.00000000000E+00 -0.71054273576E-14  0.94384705135E+01  0.27444134788E+03  0.27427899792E+03 0.  0.
         25    2    3    3    0    0 -0.32932833262E+02 -0.40568262666E+02  0.43681877674E+02  0.13500606968E+03  0.11656833605E+03 0.  0.
         25    2    3    3    0    0  0.32932833262E+02  0.40568262666E+02 -0.34243407160E+02  0.13943527820E+03  0.12465644961E+03 0.  0.
          5    1    4    4  502    0 -0.12066675652E+02 -0.36619765493E+02 -0.35664893056E+02  0.52732214848E+02  0.47000000000E+01 0. -1.
         -5    1    4    4    0  502 -0.20866157610E+02 -0.39484971736E+01  0.79346770730E+02  0.82273854830E+02  0.47000000000E+01 0. -1.
          5    1    5    5  503    0 -0.19605901312E+02 -0.36169840970E+02 -0.43578379367E+01  0.41638077688E+02  0.47000000000E+01 0.  1.
         -5    1    5    5    0  503  0.52538734575E+02  0.76738103636E+02 -0.29885569223E+02  0.97797200513E+02  0.47000000000E+01 0.  1.
<mgrwt>
<rscale>  0 0.27427900E+03</rscale>
<asrwt>0</asrwt>
<pdfrwt beam="1">  1        2 0.20384837E-01 0.27427900E+03</pdfrwt>
<pdfrwt beam="2">  1       -2 0.21836909E-01 0.27427900E+03</pdfrwt>
<totfact> 0.48680464E+03</totfact>
</mgrwt>
</event>
<event>
 9    1  0.8175317E-001  0.2870558E+03  0.7818608E-02  0.1091896E+00
          1   -1    0    0  501    0  0.00000000000E+00  0.00000000000E+00  0.11639845760E+04  0.11639845760E+04  0.00000000000E+00 0.  1.
         -1   -1    0    0    0  501 -0.00000000000E+00 -0.00000000000E+00 -0.17698045123E+02  0.17698045123E+02  0.00000000000E+00 0.  1.
         35    2    1    2    0    0  0.17763568394E-14  0.00000000000E+00  0.11462865309E+04  0.11816826211E+04  0.28705575450E+03 0.  0.
         25    2    3    3    0    0 -0.13983247575E+01 -0.49935460627E+02  0.36846058137E+03  0.39236595564E+03  0.12526906073E+03 0.  0.
         25    2    3    3    0    0  0.13983247575E+01  0.49935460627E+02  0.77782594952E+03  0.78931666550E+03  0.12454752166E+03 0.  0.
          5    1    4    4  502    0  0.37027252254E+02 -0.77944969536E+02  0.25531856604E+03  0.26954794722E+03  0.47000000000E+01 0.  1.
         -5    1    4    4    0  502 -0.38425577012E+02  0.28009508909E+02  0.11314201534E+03  0.12281800842E+03  0.47000000000E+01 0.  1.
          5    1    5    5  503    0  0.14181027326E+02 -0.33762122003E+02  0.10782128076E+03  0.11396710492E+03  0.47000000000E+01 0. -1.
         -5    1    5    5    0  503 -0.12782702568E+02  0.83697582630E+02  0.67000466875E+03  0.67534956058E+03  0.47000000000E+01 0. -1.
<mgrwt>
<rscale>  0 0.28705575E+03</rscale>
<asrwt>0</asrwt>
<pdfrwt beam="1">  1        1 0.17907449E+00 0.28705575E+03</pdfrwt>
<pdfrwt beam="2">  1       -1 0.27227771E-02 0.28705575E+03</pdfrwt>
<totfact> 0.52901547E+03</totfact>
</mgrwt>
</event>
<event>
 9    1  0.8175317E-001  0.2758498E+03  0.7818608E-02  0.1097977E+00
          2   -1    0    0  501    0  0.00000000000E+00  0.00000000000E+00  0.34626091517E+03  0.34626091517E+03  0.00000000000E+00 0. -1.
         -2   -1    0    0    0  501 -0.00000000000E+00 -0.00000000000E+00 -0.54939162075E+02  0.54939162075E+02  0.00000000000E+00 0. -1.
         35    2    1    2    0    0  0.00000000000E+00  0.00000000000E+00  0.29132175310E+03  0.40120007725E+03  0.27584984712E+03 0.  0.
         25    2    3    3    0    0  0.21127004404E+02 -0.42909728866E+02  0.19893059913E+03  0.23875034482E+03  0.12304774981E+03 0.  0.
         25    2    3    3    0    0 -0.21127004404E+02  0.42909728866E+02  0.92391153963E+02  0.16244973243E+03  0.12476455862E+03 0.  0.
          5    1    4    4  502    0 -0.46306234799E+02 -0.42501532544E+02  0.78800402039E+02  0.10090709099E+03  0.47000000000E+01 0.  1.
         -5    1    4    4    0  502  0.67433239203E+02 -0.40819632167E+00  0.12013019710E+03  0.13784325384E+03  0.47000000000E+01 0.  1.
          5    1    5    5  503    0  0.44328816426E+02  0.66436471607E+01  0.71665479865E+02  0.84659394148E+02  0.47000000000E+01 0.  1.
         -5    1    5    5    0  503 -0.65455820830E+02  0.36266081705E+02  0.20725674098E+02  0.77790338279E+02  0.47000000000E+01 0.  1.
<mgrwt>
<rscale>  0 0.27584985E+03</rscale>
<asrwt>0</asrwt>
<pdfrwt beam="1">  1        2 0.53270909E-01 0.27584985E+03</pdfrwt>
<pdfrwt beam="2">  1       -2 0.84521790E-02 0.27584985E+03</pdfrwt>
<totfact> 0.80510930E+03</totfact>
</mgrwt>
</event>
<event>
 9    1  0.8175317E-001  0.2725597E+03  0.7818608E-02  0.1099823E+00
          2   -1    0    0  501    0  0.00000000000E+00  0.00000000000E+00  0.29957581561E+03  0.29957581561E+03  0.00000000000E+00 0.  1.
         -2   -1    0    0    0  501 -0.00000000000E+00 -0.00000000000E+00 -0.61995004365E+02  0.61995004365E+02  0.00000000000E+00 0.  1.
         35    2    1    2    0    0  0.00000000000E+00  0.00000000000E+00  0.23758081125E+03  0.36157081998E+03  0.27255974755E+03 0.  0.
         25    2    3    3    0    0  0.29047561476E+02 -0.43427799237E+02  0.13840369691E+03  0.19327670996E+03  0.12438074096E+03 0.  0.
         25    2    3    3    0    0 -0.29047561476E+02  0.43427799237E+02  0.99177114344E+02  0.16829411002E+03  0.12552717986E+03 0.  0.
          5    1    4    4  502    0  0.62335954916E+02 -0.88657670969E+01  0.12974177374E+03  0.14428926140E+03  0.47000000000E+01 0.  1.
         -5    1    4    4    0  502 -0.33288393439E+02 -0.34562032140E+02  0.86619231653E+01  0.48987448560E+02  0.47000000000E+01 0.  1.
          5    1    5    5  503    0  0.49567733152E+02  0.14154851645E+02  0.42081753297E+02  0.66710448623E+02  0.47000000000E+01 0. -1.
         -5    1    5    5    0  503 -0.78615294628E+02  0.29272947593E+02  0.57095361047E+02  0.10158366140E+03  0.47000000000E+01 0. -1.
<mgrwt>
<rscale>  0 0.27255975E+03</rscale>
<asrwt>0</asrwt>
<pdfrwt beam="1">  1        2 0.46088586E-01 0.27255975E+03</pdfrwt>
<pdfrwt beam="2">  1       -2 0.95376932E-02 0.27255975E+03</pdfrwt>
<totfact> 0.77746338E+03</totfact>
</mgrwt>
</event>
<event>
 9    1  0.8175317E-001  0.2699418E+03  0.7818608E-02  0.1101313E+00
          1   -1    0    0  501    0  0.00000000000E+00  0.00000000000E+00  0.62090430427E+03  0.62090430427E+03  0.00000000000E+00 0. -1.
         -1   -1    0    0    0  501 -0.00000000000E+00 -0.00000000000E+00 -0.29339686788E+02  0.29339686788E+02  0.00000000000E+00 0. -1.
         35    2    1    2    0    0  0.00000000000E+00  0.00000000000E+00  0.59156461748E+03  0.65024399106E+03  0.26994175529E+03 0.  0.
         25    2    3    3    0    0  0.73371916282E+00 -0.11090580584E+02  0.42131048875E+03  0.43930412740E+03  0.12394373358E+03 0.  0.
         25    2    3    3    0    0 -0.73371916282E+00  0.11090580584E+02  0.17025412873E+03  0.21093986366E+03  0.12403877785E+03 0.  0.
          5    1    4    4  502    0  0.55988890810E+02 -0.27547031207E+02  0.27374816942E+03  0.28080909010E+03  0.47000000000E+01 0. -1.
         -5    1    4    4    0  502 -0.55255171647E+02  0.16456450623E+02  0.14756231933E+03  0.15849503729E+03  0.47000000000E+01 0. -1.
          5    1    5    5  503    0  0.18849040776E+02 -0.24184704304E+02 -0.46623564075E+01  0.31368994688E+02  0.47000000000E+01 0. -1.
         -5    1    5    5    0  503 -0.19582759939E+02  0.35275284889E+02  0.17491648514E+03  0.17957086897E+03  0.47000000000E+01 0. -1.
<mgrwt>
<rscale>  0 0.26994176E+03</rscale>
<asrwt>0</asrwt>
<pdfrwt beam="1">  1        1 0.95523729E-01 0.26994176E+03</pdfrwt>
<pdfrwt beam="2">  1       -1 0.45137984E-02 0.26994176E+03</pdfrwt>
<totfact> 0.68490747E+03</totfact>
</mgrwt>
</event>
<event>
 9    1  0.8175317E-001  0.2677073E+03  0.7818608E-02  0.1102599E+00
         -1   -1    0    0    0  501 -0.00000000000E+00  0.00000000000E+00  0.21522065860E+02  0.21522065860E+02  0.00000000000E+00 0.  1.
          1   -1    0    0  501    0  0.00000000000E+00 -0.00000000000E+00 -0.83248481254E+03  0.83248481254E+03  0.00000000000E+00 0.  1.
         35    2    1    2    0    0 -0.71054273576E-14  0.00000000000E+00 -0.81096274668E+03  0.85400687840E+03  0.26770725028E+03 0.  0.
         25    2    3    3    0    0  0.34998941604E+02 -0.10366885419E+02 -0.43502219867E+03  0.45609392714E+03  0.13207936559E+03 0.  0.
         25    2    3    3    0    0 -0.34998941604E+02  0.10366885419E+02 -0.37594054801E+03  0.39791295126E+03  0.12518395629E+03 0.  0.
          5    1    4    4  502    0  0.78222320376E+02  0.16028300123E+02 -0.19547830788E+03  0.21120960362E+03  0.47000000000E+01 0.  1.
         -5    1    4    4    0  502 -0.43223378772E+02 -0.26395185542E+02 -0.23954389079E+03  0.24488432353E+03  0.47000000000E+01 0.  1.
          5    1    5    5  503    0 -0.62974268653E+02 -0.19943898609E+02 -0.32744730482E+03  0.33407685499E+03  0.47000000000E+01 0.  1.
         -5    1    5    5    0  503  0.27975327049E+02  0.30310784028E+02 -0.48493243189E+02  0.63836096269E+02  0.47000000000E+01 0.  1.
<mgrwt>
<rscale>  0 0.26770725E+03</rscale>
<asrwt>0</asrwt>
<pdfrwt beam="1">  1        1 0.12807457E+00 0.26770725E+03</pdfrwt>
<pdfrwt beam="2">  1       -1 0.33110874E-02 0.26770725E+03</pdfrwt>
<totfact> 0.70358931E+03</totfact>
</mgrwt>
</event>
<event>
 9    1  0.8175317E-001  0.2746371E+03  0.7818608E-02  0.1098655E+00
         -2   -1    0    0    0  501 -0.00000000000E+00  0.00000000000E+00  0.22918930024E+02  0.22918930024E+02  0.00000000000E+00 0. -1.
          2   -1    0    0  501    0  0.00000000000E+00 -0.00000000000E+00 -0.82274291308E+03  0.82274291308E+03  0.00000000000E+00 0. -1.
         35    2    1    2    0    0  0.35527136788E-14  0.00000000000E+00 -0.79982398306E+03  0.84566184311E+03  0.27463712242E+03 0.  0.
         25    2    3    3    0    0  0.32864984723E+01 -0.15674374908E+02 -0.22953133577E+03  0.26190779952E+03  0.12511824107E+03 0.  0.
         25    2    3    3    0    0 -0.32864984723E+01  0.15674374908E+02 -0.57029264729E+03  0.58375404359E+03  0.12360660481E+03 0.  0.
          5    1    4    4  502    0  0.24973863468E+02 -0.13566378421E+02 -0.23673560009E+03  0.23848181237E+03  0.47000000000E+01 0. -1.
         -5    1    4    4    0  502 -0.21687364995E+02 -0.21079964872E+01  0.72042643214E+01  0.23425987152E+02  0.47000000000E+01 0. -1.
          5    1    5    5  503    0 -0.63074578918E+02  0.30060392700E+01 -0.28416826560E+03  0.29113765121E+03  0.47000000000E+01 0.  1.
         -5    1    5    5    0  503  0.59788080446E+02  0.12668335638E+02 -0.28612438168E+03  0.29261639237E+03  0.47000000000E+01 0.  1.
<mgrwt>
<rscale>  0 0.27463712E+03</rscale>
<asrwt>0</asrwt>
<pdfrwt beam="1">  1        2 0.12657582E+00 0.27463712E+03</pdfrwt>
<pdfrwt beam="2">  1       -2 0.35259895E-02 0.27463712E+03</pdfrwt>
<totfact> 0.11335047E+04</totfact>
</mgrwt>
</event>
<event>
 9    1  0.8175317E-001  0.2589074E+03  0.7818608E-02  0.1107801E+00
          2   -1    0    0  501    0  0.00000000000E+00  0.00000000000E+00  0.21444369806E+04  0.21444369806E+04  0.00000000000E+00 0.  1.
         -2   -1    0    0    0  501 -0.00000000000E+00 -0.00000000000E+00 -0.78147594708E+01  0.78147594708E+01  0.00000000000E+00 0.  1.
         35    2    1    2    0    0  0.00000000000E+00  0.44408920985E-14  0.21366222212E+04  0.21522517401E+04  0.25890739042E+03 0.  0.
         25    2    3    3    0    0 -0.24025728520E+02  0.68362515394E+01  0.86388855345E+03  0.87318644306E+03  0.12460803184E+03 0.  0.
         25    2    3    3    0    0  0.24025728520E+02 -0.68362515394E+01  0.12727336677E+04  0.12790652970E+04  0.12463175841E+03 0.  0.
          5    1    4    4  502    0  0.49513099435E+01 -0.51664702448E+02  0.55488229458E+03  0.55732414965E+03  0.47000000000E+01 0. -1.
         -5    1    4    4    0  502 -0.28977038463E+02  0.58500953988E+02  0.30900625887E+03  0.31586229340E+03  0.47000000000E+01 0. -1.
          5    1    5    5  503    0  0.29149135575E+02 -0.40377921092E+00  0.12682362132E+04  0.12685799216E+04  0.47000000000E+01 0. -1.
         -5    1    5    5    0  503 -0.51234070556E+01 -0.64324723284E+01  0.44974545195E+01  0.10485375400E+02  0.47000000000E+01 0. -1.
<mgrwt>
<rscale>  0 0.25890739E+03</rscale>
<asrwt>0</asrwt>
<pdfrwt beam="1">  1        2 0.32991291E+00 0.25890739E+03</pdfrwt>
<pdfrwt beam="2">  1       -2 0.12022724E-02 0.25890739E+03</pdfrwt>
<totfact> 0.10151992E+04</totfact>
</mgrwt>
</event>
<event>
 9    1  0.8175317E-001  0.2737422E+03  0.7818608E-02  0.1099157E+00
         -1   -1    0    0    0  501 -0.00000000000E+00  0.00000000000E+00  0.33160894623E+02  0.33160894623E+02  0.00000000000E+00 0.  1.
          1   -1    0    0  501    0  0.00000000000E+00 -0.00000000000E+00 -0.56493363137E+03  0.56493363137E+03  0.00000000000E+00 0.  1.
         35    2    1    2    0    0  0.71054273576E-14  0.71054273576E-14 -0.53177273675E+03  0.59809452599E+03  0.27374224825E+03 0.  0.
         25    2    3    3    0    0 -0.16802330687E+02 -0.36791931464E+02 -0.17967118306E+03  0.22221393026E+03  0.12434360555E+03 0.  0.
         25    2    3    3    0    0  0.16802330687E+02  0.36791931464E+02 -0.35210155369E+03  0.37588059574E+03  0.12519885624E+03 0.  0.
          5    1    4    4  502    0 -0.32689958571E+01 -0.66604488050E+02 -0.17679657718E+03  0.18901313146E+03  0.47000000000E+01 0. -1.
         -5    1    4    4    0  502 -0.13533334830E+02  0.29812556586E+02 -0.28746058795E+01  0.33200798797E+02  0.47000000000E+01 0. -1.
          5    1    5    5  503    0  0.57767994306E+02  0.17027475999E+02 -0.30227566921E+03  0.30825273122E+03  0.47000000000E+01 0.  1.
         -5    1    5    5    0  503 -0.40965663619E+02  0.19764455465E+02 -0.49825884478E+02  0.67627864520E+02  0.47000000000E+01 0.  1.
<mgrwt>
<rscale>  0 0.27374225E+03</rscale>
<asrwt>0</asrwt>
<pdfrwt beam="1">  1        1 0.86912873E-01 0.27374225E+03</pdfrwt>
<pdfrwt beam="2">  1       -1 0.51016757E-02 0.27374225E+03</pdfrwt>
<totfact> 0.65020634E+03</totfact>
</mgrwt>
</event>
<event>
 9    1  0.8175317E-001  0.2765003E+03  0.7818608E-02  0.1097616E+00
          2   -1    0    0  501    0  0.00000000000E+00  0.00000000000E+00  0.15218223852E+04  0.15218223852E+04  0.00000000000E+00 0.  1.
         -2   -1    0    0    0  501 -0.00000000000E+00 -0.00000000000E+00 -0.12559353873E+02  0.12559353873E+02  0.00000000000E+00 0.  1.
         35    2    1    2    0    0  0.00000000000E+00 -0.35527136788E-14  0.15092630313E+04  0.15343817391E+04  0.27650031369E+03 0.  0.
         25    2    3    3    0    0 -0.38352879676E+02 -0.20436768862E+02  0.98620900844E+03  0.99495146003E+03  0.12422396942E+03 0.  0.
         25    2    3    3    0    0  0.38352879676E+02  0.20436768862E+02  0.52305402290E+03  0.53943027906E+03  0.12454280467E+03 0.  0.
          5    1    4    4  502    0 -0.44977917865E+02  0.95146917148E+01  0.12640743827E+03  0.13459001784E+03  0.47000000000E+01 0.  1.
         -5    1    4    4    0  502  0.66250381886E+01 -0.29951460577E+02  0.85980157018E+03  0.86036144219E+03  0.47000000000E+01 0.  1.
          5    1    5    5  503    0  0.59543315178E+02 -0.16953667538E+01  0.49177723693E+03  0.49539400624E+03  0.47000000000E+01 0.  1.
         -5    1    5    5    0  503 -0.21190435502E+02  0.22132135616E+02  0.31276785965E+02  0.44036272821E+02  0.47000000000E+01 0.  1.
<mgrwt>
<rscale>  0 0.27650031E+03</rscale>
<asrwt>0</asrwt>
<pdfrwt beam="1">  1        2 0.23412638E+00 0.27650031E+03</pdfrwt>
<pdfrwt beam="2">  1       -2 0.19322095E-02 0.27650031E+03</pdfrwt>
<totfact> 0.10804152E+04</totfact>
</mgrwt>
</event>
<event>
 9    1  0.8175317E-001  0.2758109E+03  0.7818608E-02  0.1097999E+00
         -2   -1    0    0    0  501 -0.00000000000E+00  0.00000000000E+00  0.85946999132E+01  0.85946999132E+01  0.00000000000E+00 0.  1.
          2   -1    0    0  501    0  0.00000000000E+00 -0.00000000000E+00 -0.22127493699E+04  0.22127493699E+04  0.00000000000E+00 0.  1.
         35    2    1    2    0    0 -0.71054273576E-14  0.00000000000E+00 -0.22041546700E+04  0.22213440698E+04  0.27581092667E+03 0.  0.
         25    2    3    3    0    0 -0.52630191056E+02 -0.19338795344E+02 -0.12615763215E+04  0.12689530168E+04  0.12459140407E+03 0.  0.
         25    2    3    3    0    0  0.52630191056E+02  0.19338795344E+02 -0.94257834856E+03  0.95239105304E+03  0.12430144298E+03 0.  0.
          5    1    4    4  502    0 -0.41441301426E+02  0.22843966697E+02 -0.17086574397E+03  0.17735958034E+03  0.47000000000E+01 0. -1.
         -5    1    4    4    0  502 -0.11188889630E+02 -0.42182762041E+02 -0.10907105775E+04  0.10915934365E+04  0.47000000000E+01 0. -1.
          5    1    5    5  503    0  0.62860761815E+02  0.10644630243E+02 -0.93312329805E+03  0.93531062374E+03  0.47000000000E+01 0.  1.
         -5    1    5    5    0  503 -0.10230570759E+02  0.86941651010E+01 -0.94550505112E+01  0.17080429299E+02  0.47000000000E+01 0.  1.
<mgrwt>
<rscale>  0 0.27581093E+03</rscale>
<asrwt>0</asrwt>
<pdfrwt beam="1">  1        2 0.34042281E+00 0.27581093E+03</pdfrwt>
<pdfrwt beam="2">  1       -2 0.13222622E-02 0.27581093E+03</pdfrwt>
<totfact> 0.81339029E+03</totfact>
</mgrwt>
</event>
<event>
 9    1  0.8175317E-001  0.2726435E+03  0.7818608E-02  0.1099776E+00
         -1   -1    0    0    0  501 -0.00000000000E+00  0.00000000000E+00  0.31839009300E+03  0.31839009300E+03  0.00000000000E+00 0. -1.
          1   -1    0    0  501    0  0.00000000000E+00 -0.00000000000E+00 -0.58367467343E+02  0.58367467343E+02  0.00000000000E+00 0. -1.
         35    2    1    2    0    0  0.71054273576E-14  0.00000000000E+00  0.26002262566E+03  0.37675756035E+03  0.27264352812E+03 0.  0.
         25    2    3    3    0    0  0.38768251067E+02 -0.20972361433E+02  0.17684023073E+03  0.22051219298E+03  0.12413840185E+03 0.  0.
         25    2    3    3    0    0 -0.38768251067E+02  0.20972361433E+02  0.83182394932E+02  0.15624536737E+03  0.12470159086E+03 0.  0.
          5    1    4    4  502    0  0.71150904441E+02 -0.39025302589E+02  0.16011843019E+03  0.17957011759E+03  0.47000000000E+01 0.  1.
         -5    1    4    4    0  502 -0.32382653374E+02  0.18052941156E+02  0.16721800536E+02  0.40942075388E+02  0.47000000000E+01 0.  1.
          5    1    5    5  503    0 -0.12784765784E+01  0.58567672367E+02  0.15964431093E+01  0.58791541734E+02  0.47000000000E+01 0. -1.
         -5    1    5    5    0  503 -0.37489774488E+02 -0.37595310935E+02  0.81585951822E+02  0.97453825631E+02  0.47000000000E+01 0. -1.
<mgrwt>
<rscale>  0 0.27264353E+03</rscale>
<asrwt>0</asrwt>
<pdfrwt beam="1">  1        1 0.89796106E-02 0.27264353E+03</pdfrwt>
<pdfrwt beam="2">  1       -1 0.48983090E-01 0.27264353E+03</pdfrwt>
<totfact> 0.31562604E+03</totfact>
</mgrwt>
</event>
<event>
 9    1  0.8175317E-001  0.2706180E+03  0.7818608E-02  0.1100926E+00
         -2   -1    0    0    0  501 -0.00000000000E+00  0.00000000000E+00  0.15343973161E+02  0.15343973161E+02  0.00000000000E+00 0. -1.
          2   -1    0    0  501    0  0.00000000000E+00 -0.00000000000E+00 -0.11932063915E+04  0.11932063915E+04  0.00000000000E+00 0. -1.
         35    2    1    2    0    0  0.00000000000E+00  0.71054273576E-14 -0.11778624184E+04  0.12085503647E+04  0.27061801010E+03 0.  0.
         25    2    3    3    0    0  0.14663533208E+02 -0.35922977218E+02 -0.43585186483E+03  0.45505060709E+03  0.12489486553E+03 0.  0.
         25    2    3    3    0    0 -0.14663533208E+02  0.35922977218E+02 -0.74201055354E+03  0.75349975760E+03  0.12520680352E+03 0.  0.
          5    1    4    4  502    0  0.32743265477E+02 -0.50842788341E+02 -0.90949757876E+02  0.10932089927E+03  0.47000000000E+01 0. -1.
         -5    1    4    4    0  502 -0.18079732269E+02  0.14919811122E+02 -0.34490210696E+03  0.34572970782E+03  0.47000000000E+01 0. -1.
          5    1    5    5  503    0 -0.12867649436E+02  0.25794604635E+02 -0.31716621903E+02  0.43115799137E+02  0.47000000000E+01 0.  1.
         -5    1    5    5    0  503 -0.17958837722E+01  0.10128372584E+02 -0.71029393163E+03  0.71038395847E+03  0.47000000000E+01 0.  1.
<mgrwt>
<rscale>  0 0.27061801E+03</rscale>
<asrwt>0</asrwt>
<pdfrwt beam="1">  1        2 0.18357024E+00 0.27061801E+03</pdfrwt>
<pdfrwt beam="2">  1       -2 0.23606109E-02 0.27061801E+03</pdfrwt>
<totfact> 0.12175343E+04</totfact>
</mgrwt>
</event>
<event>
 9    1  0.8175317E-001  0.2724976E+03  0.7818608E-02  0.1099859E+00
          1   -1    0    0  501    0  0.00000000000E+00  0.00000000000E+00  0.12170826092E+02  0.12170826092E+02  0.00000000000E+00 0.  1.
         -1   -1    0    0    0  501 -0.00000000000E+00 -0.00000000000E+00 -0.15252646907E+04  0.15252646907E+04  0.00000000000E+00 0.  1.
         35    2    1    2    0    0  0.71054273576E-14  0.00000000000E+00 -0.15130938646E+04  0.15374355168E+04  0.27249756912E+03 0.  0.
         25    2    3    3    0    0 -0.43869891011E+02 -0.10584792156E+02 -0.95065082039E+03  0.95991816326E+03  0.12517704533E+03 0.  0.
         25    2    3    3    0    0  0.43869891011E+02  0.10584792156E+02 -0.56244304421E+03  0.57751735353E+03  0.12307522287E+03 0.  0.
          5    1    4    4  502    0  0.20594316853E+02  0.43552818483E+02 -0.38068654388E+03  0.38375162354E+03  0.47000000000E+01 0.  1.
         -5    1    4    4    0  502 -0.64464207864E+02 -0.54137610638E+02 -0.56996427652E+03  0.57616653972E+03  0.47000000000E+01 0.  1.
          5    1    5    5  503    0  0.70259448467E+02 -0.25195654757E+02 -0.45560290583E+03  0.46170045367E+03  0.47000000000E+01 0. -1.
         -5    1    5    5    0  503 -0.26389557456E+02  0.35780446912E+02 -0.10684013838E+03  0.11581689986E+03  0.47000000000E+01 0. -1.
<mgrwt>
<rscale>  0 0.27249757E+03</rscale>
<asrwt>0</asrwt>
<pdfrwt beam="1">  1        1 0.18724359E-02 0.27249757E+03</pdfrwt>
<pdfrwt beam="2">  1       -1 0.23465597E+00 0.27249757E+03</pdfrwt>
<totfact> 0.65925876E+02</totfact>
</mgrwt>
</event>
<event>
 9    1  0.8175317E-001  0.2740137E+03  0.7818608E-02  0.1099004E+00
         -1   -1    0    0    0  501 -0.00000000000E+00  0.00000000000E+00  0.22031489728E+02  0.22031489728E+02  0.00000000000E+00 0. -1.
          1   -1    0    0  501    0  0.00000000000E+00 -0.00000000000E+00 -0.85200195846E+03  0.85200195846E+03  0.00000000000E+00 0. -1.
         35    2    1    2    0    0  0.71054273576E-14 -0.35527136788E-14 -0.82997046873E+03  0.87403344819E+03  0.27401366678E+03 0.  0.
         25    2    3    3    0    0 -0.41396797155E+02 -0.68671752291E+01 -0.53983662365E+03  0.55571005315E+03  0.12501691895E+03 0.  0.
         25    2    3    3    0    0  0.41396797155E+02  0.68671752291E+01 -0.29013384508E+03  0.31832339504E+03  0.12406160913E+03 0.  0.
          5    1    4    4  502    0  0.15750467286E+02  0.46750888684E+02 -0.27708595648E+03  0.28148257511E+03  0.47000000000E+01 0.  1.
         -5    1    4    4    0  502 -0.57147264441E+02 -0.53618063913E+02 -0.26275066717E+03  0.27422747804E+03  0.47000000000E+01 0.  1.
          5    1    5    5  503    0  0.48508761064E+02  0.93357058913E+01 -0.29891307958E+02  0.57929574449E+02  0.47000000000E+01 0.  1.
         -5    1    5    5    0  503 -0.71119639091E+01 -0.24685306622E+01 -0.26024253712E+03  0.26039382059E+03  0.47000000000E+01 0.  1.
<mgrwt>
<rscale>  0 0.27401367E+03</rscale>
<asrwt>0</asrwt>
<pdfrwt beam="1">  1        1 0.13107725E+00 0.27401367E+03</pdfrwt>
<pdfrwt beam="2">  1       -1 0.33894593E-02 0.27401367E+03</pdfrwt>
<totfact> 0.65568466E+03</totfact>
</mgrwt>
</event>
<event>
 9    1  0.8175317E-001  0.2746415E+03  0.7818608E-02  0.1098652E+00
          2   -1    0    0  501    0  0.00000000000E+00  0.00000000000E+00  0.25587411331E+04  0.25587411331E+04  0.00000000000E+00 0.  1.
         -2   -1    0    0    0  501 -0.00000000000E+00 -0.00000000000E+00 -0.73696336129E+01  0.73696336129E+01  0.00000000000E+00 0.  1.
         35    2    1    2    0    0  0.00000000000E+00  0.00000000000E+00  0.25513714994E+04  0.25661107667E+04  0.27464147291E+03 0.  0.
         25    2    3    3    0    0 -0.16925304138E+02  0.50685464753E+02  0.12000737845E+04  0.12079701163E+04  0.12711896528E+03 0.  0.
         25    2    3    3    0    0  0.16925304138E+02 -0.50685464753E+02  0.13512977149E+04  0.13581406503E+04  0.12523988805E+03 0.  0.
          5    1    4    4  502    0  0.24497613485E+01 -0.41530446210E+02  0.46138166256E+03  0.46327735520E+03  0.47000000000E+01 0. -1.
         -5    1    4    4    0  502 -0.19375065487E+02  0.92215910963E+02  0.73869212198E+03  0.74469276112E+03  0.47000000000E+01 0. -1.
          5    1    5    5  503    0  0.47144906021E+02  0.16064276647E+02  0.85265713922E+03  0.85412352164E+03  0.47000000000E+01 0.  1.
         -5    1    5    5    0  503 -0.30219601883E+02 -0.66749741400E+02  0.49864057567E+03  0.50401712870E+03  0.47000000000E+01 0.  1.
<mgrwt>
<rscale>  0 0.27464147E+03</rscale>
<asrwt>0</asrwt>
<pdfrwt beam="1">  1        2 0.39365177E+00 0.27464147E+03</pdfrwt>
<pdfrwt beam="2">  1       -2 0.11337918E-02 0.27464147E+03</pdfrwt>
<totfact> 0.66117306E+03</totfact>
</mgrwt>
</event>
<event>
 9    1  0.8175317E-001  0.2735948E+03  0.7818608E-02  0.1099240E+00
         -1   -1    0    0    0  501 -0.00000000000E+00  0.00000000000E+00  0.24598835896E+02  0.24598835896E+02  0.00000000000E+00 0.  1.
          1   -1    0    0  501    0  0.00000000000E+00 -0.00000000000E+00 -0.76074845265E+03  0.76074845265E+03  0.00000000000E+00 0.  1.
         35    2    1    2    0    0  0.00000000000E+00  0.35527136788E-14 -0.73614961676E+03  0.78534728855E+03  0.27359478317E+03 0.  0.
         25    2    3    3    0    0 -0.23902695476E+02  0.31949812302E+02 -0.24563471278E+03  0.27764400501E+03  0.12311641662E+03 0.  0.
         25    2    3    3    0    0  0.23902695476E+02 -0.31949812302E+02 -0.49051490398E+03  0.50770328354E+03  0.12476226886E+03 0.  0.
          5    1    4    4  502    0  0.26582257281E+02  0.46409749048E+02 -0.44562032281E+02  0.69773533162E+02  0.47000000000E+01 0. -1.
         -5    1    4    4    0  502 -0.50484952757E+02 -0.14459936746E+02 -0.20107268049E+03  0.20787047185E+03  0.47000000000E+01 0. -1.
          5    1    5    5  503    0  0.17265380039E+02 -0.32391475207E+02 -0.31444869799E+02  0.48561001335E+02  0.47000000000E+01 0. -1.
         -5    1    5    5    0  503  0.66373154366E+01  0.44166290487E+00 -0.45907003418E+03  0.45914228220E+03  0.47000000000E+01 0. -1.
<mgrwt>
<rscale>  0 0.27359478E+03</rscale>
<asrwt>0</asrwt>
<pdfrwt beam="1">  1        1 0.11703821E+00 0.27359478E+03</pdfrwt>
<pdfrwt beam="2">  1       -1 0.37844366E-02 0.27359478E+03</pdfrwt>
<totfact> 0.66330345E+03</totfact>
</mgrwt>
</event>
<event>
 9    1  0.8175317E-001  0.2782768E+03  0.7818608E-02  0.1096634E+00
          4   -1    0    0  501    0  0.00000000000E+00  0.00000000000E+00  0.75848204943E+02  0.75848204943E+02  0.00000000000E+00 0. -1.
         -4   -1    0    0    0  501 -0.00000000000E+00 -0.00000000000E+00 -0.25524001281E+03  0.25524001281E+03  0.00000000000E+00 0. -1.
         35    2    1    2    0    0  0.71054273576E-14  0.00000000000E+00 -0.17939180787E+03  0.33108821775E+03  0.27827681758E+03 0.  0.
         25    2    3    3    0    0  0.43399941995E+02  0.56529870041E+01 -0.13789018873E+03  0.19099349697E+03  0.12469683441E+03 0.  0.
         25    2    3    3    0    0 -0.43399941995E+02 -0.56529870041E+01 -0.41501619141E+02  0.14009472078E+03  0.12644617500E+03 0.  0.
          5    1    4    4  502    0 -0.31232991239E+02  0.38979261175E+02 -0.48564201995E+02  0.69824453158E+02  0.47000000000E+01 0. -1.
         -5    1    4    4    0  502  0.74632933234E+02 -0.33326274171E+02 -0.89325986732E+02  0.12116904381E+03  0.47000000000E+01 0. -1.
          5    1    5    5  503    0 -0.60464225933E+01 -0.52510226683E+02  0.17491104477E+02  0.55874071521E+02  0.47000000000E+01 0.  1.
         -5    1    5    5    0  503 -0.37353519402E+02  0.46857239679E+02 -0.58992723618E+02  0.84220649260E+02  0.47000000000E+01 0.  1.
<mgrwt>
<rscale>  0 0.27827682E+03</rscale>
<asrwt>0</asrwt>
<pdfrwt beam="1">  1        4 0.11668955E-01 0.27827682E+03</pdfrwt>
<pdfrwt beam="2">  1       -4 0.39267695E-01 0.27827682E+03</pdfrwt>
<totfact> 0.69080370E+02</totfact>
</mgrwt>
</event>
<event>
 9    1  0.8175317E-001  0.2739495E+03  0.7818608E-02  0.1099040E+00
          2   -1    0    0  501    0  0.00000000000E+00  0.00000000000E+00  0.18192399813E+04  0.18192399813E+04  0.00000000000E+00 0. -1.
         -2   -1    0    0    0  501 -0.00000000000E+00 -0.00000000000E+00 -0.10313140091E+02  0.10313140091E+02  0.00000000000E+00 0. -1.
         35    2    1    2    0    0  0.00000000000E+00  0.00000000000E+00  0.18089268412E+04  0.18295531214E+04  0.27394946093E+03 0.  0.
         25    2    3    3    0    0 -0.63621398730E+00 -0.57479097958E+01  0.12640519079E+04  0.12702679226E+04  0.12537912948E+03 0.  0.
         25    2    3    3    0    0  0.63621398730E+00  0.57479097958E+01  0.54487493336E+03  0.55928519883E+03  0.12600713231E+03 0.  0.
          5    1    4    4  502    0 -0.31060910371E+02  0.30267431560E+02  0.10555264954E+04  0.10564275508E+04  0.47000000000E+01 0. -1.
         -5    1    4    4    0  502  0.30424696384E+02 -0.36015341356E+02  0.20852541245E+03  0.21384037178E+03  0.47000000000E+01 0. -1.
          5    1    5    5  503    0 -0.34793225616E+02  0.24324626654E+02  0.48644735984E+03  0.48831893257E+03  0.47000000000E+01 0.  1.
         -5    1    5    5    0  503  0.35429439603E+02 -0.18576716858E+02  0.58427573517E+02  0.70966266260E+02  0.47000000000E+01 0.  1.
<mgrwt>
<rscale>  0 0.27394946E+03</rscale>
<asrwt>0</asrwt>
<pdfrwt beam="1">  1        2 0.27988282E+00 0.27394946E+03</pdfrwt>
<pdfrwt beam="2">  1       -2 0.15866384E-02 0.27394946E+03</pdfrwt>
<totfact> 0.10046213E+04</totfact>
</mgrwt>
</event>
<event>
 9    1  0.8175317E-001  0.2819163E+03  0.7818608E-02  0.1094647E+00
          1   -1    0    0  501    0  0.00000000000E+00  0.00000000000E+00  0.54313139864E+03  0.54313139864E+03  0.00000000000E+00 0.  1.
         -1   -1    0    0    0  501 -0.00000000000E+00 -0.00000000000E+00 -0.36582666813E+02  0.36582666813E+02  0.00000000000E+00 0.  1.
         35    2    1    2    0    0 -0.71054273576E-14  0.00000000000E+00  0.50654873182E+03  0.57971406545E+03  0.28191626411E+03 0.  0.
         25    2    3    3    0    0  0.42909527403E+02  0.44999070702E+02  0.24571905676E+03  0.28345484538E+03  0.12689621984E+03 0.  0.
         25    2    3    3    0    0 -0.42909527403E+02 -0.44999070702E+02  0.26082967507E+03  0.29625922007E+03  0.12598119770E+03 0.  0.
          5    1    4    4  502    0  0.33526809935E+02  0.89214903819E+02  0.17668166249E+03  0.20080300274E+03  0.47000000000E+01 0.  1.
         -5    1    4    4    0  502  0.93827174676E+01 -0.44215833117E+02  0.69037394267E+02  0.82651842644E+02  0.47000000000E+01 0.  1.
          5    1    5    5  503    0 -0.11805791229E+02 -0.24887857691E+02  0.25723721269E+03  0.25875056669E+03  0.47000000000E+01 0.  1.
         -5    1    5    5    0  503 -0.31103736174E+02 -0.20111213011E+02  0.35924623774E+01  0.37508653384E+02  0.47000000000E+01 0.  1.
<mgrwt>
<rscale>  0 0.28191626E+03</rscale>
<asrwt>0</asrwt>
<pdfrwt beam="1">  1        1 0.83558671E-01 0.28191626E+03</pdfrwt>
<pdfrwt beam="2">  1       -1 0.56281030E-02 0.28191626E+03</pdfrwt>
<totfact> 0.59238580E+03</totfact>
</mgrwt>
</event>
<event>
 9    1  0.8175317E-001  0.2761123E+03  0.7818608E-02  0.1097831E+00
         -1   -1    0    0    0  501 -0.00000000000E+00  0.00000000000E+00  0.81489112265E+01  0.81489112265E+01  0.00000000000E+00 0. -1.
          1   -1    0    0  501    0  0.00000000000E+00 -0.00000000000E+00 -0.23389018649E+04  0.23389018649E+04  0.00000000000E+00 0. -1.
         35    2    1    2    0    0  0.00000000000E+00  0.35527136788E-14 -0.23307529537E+04  0.23470507762E+04  0.27611232254E+03 0.  0.
         25    2    3    3    0    0  0.38037646685E+02  0.76680058779E+01 -0.79897176614E+03  0.80972654380E+03  0.12568027596E+03 0.  0.
         25    2    3    3    0    0 -0.38037646685E+02 -0.76680058779E+01 -0.15317811876E+04  0.15373242324E+04  0.12452521005E+03 0.  0.
          5    1    4    4  502    0  0.14119464966E+02  0.34219706225E+02 -0.73767196622E+03  0.73861516863E+03  0.47000000000E+01 0. -1.
         -5    1    4    4    0  502  0.23918181719E+02 -0.26551700347E+02 -0.61299799918E+02  0.71111375166E+02  0.47000000000E+01 0. -1.
          5    1    5    5  503    0  0.12622666112E+02 -0.57164997253E+02 -0.61415984611E+03  0.61696156702E+03  0.47000000000E+01 0. -1.
         -5    1    5    5    0  503 -0.50660312797E+02  0.49496991375E+02 -0.91762134147E+03  0.92036266535E+03  0.47000000000E+01 0. -1.
<mgrwt>
<rscale>  0 0.27611232E+03</rscale>
<asrwt>0</asrwt>
<pdfrwt beam="1">  1        1 0.35983134E+00 0.27611232E+03</pdfrwt>
<pdfrwt beam="2">  1       -1 0.12536777E-02 0.27611232E+03</pdfrwt>
<totfact> 0.27462395E+03</totfact>
</mgrwt>
</event>
<event>
 9    1  0.8175317E-001  0.2770342E+03  0.7818608E-02  0.1097320E+00
          2   -1    0    0  501    0  0.00000000000E+00  0.00000000000E+00  0.77709955632E+03  0.77709955632E+03  0.00000000000E+00 0.  1.
         -2   -1    0    0    0  501 -0.00000000000E+00 -0.00000000000E+00 -0.24690520848E+02  0.24690520848E+02  0.00000000000E+00 0.  1.
         35    2    1    2    0    0 -0.17763568394E-14 -0.71054273576E-14  0.75240903547E+03  0.80179007717E+03  0.27703424190E+03 0.  0.
         25    2    3    3    0    0 -0.16275700676E+01  0.57443540673E+02  0.42051812836E+03  0.44271197156E+03  0.12592054691E+03 0.  0.
         25    2    3    3    0    0  0.16275700676E+01 -0.57443540673E+02  0.33189090712E+03  0.35907810561E+03  0.12443111489E+03 0.  0.
          5    1    4    4  502    0  0.38696150354E+02  0.91078758825E+01  0.32964585226E+03  0.33206749821E+03  0.47000000000E+01 0.  1.
         -5    1    4    4    0  502 -0.40323720422E+02  0.48335664791E+02  0.90872276096E+02  0.11064447335E+03  0.47000000000E+01 0.  1.
          5    1    5    5  503    0 -0.70195803333E+01 -0.18105708964E+02 -0.43112140454E+01  0.20439368182E+02  0.47000000000E+01 0. -1.
         -5    1    5    5    0  503  0.86471504009E+01 -0.39337831710E+02  0.33620212116E+03  0.33863873743E+03  0.47000000000E+01 0. -1.
<mgrwt>
<rscale>  0 0.27703424E+03</rscale>
<asrwt>0</asrwt>
<pdfrwt beam="1">  1        2 0.11955376E+00 0.27703424E+03</pdfrwt>
<pdfrwt beam="2">  1       -2 0.37985423E-02 0.27703424E+03</pdfrwt>
<totfact> 0.10905281E+04</totfact>
</mgrwt>
</event>
<event>
 9    1  0.8175317E-001  0.2738244E+03  0.7818608E-02  0.1099111E+00
         -1   -1    0    0    0  501 -0.00000000000E+00  0.00000000000E+00  0.17981868174E+03  0.17981868174E+03  0.00000000000E+00 0.  1.
          1   -1    0    0  501    0  0.00000000000E+00 -0.00000000000E+00 -0.10424360179E+03  0.10424360179E+03  0.00000000000E+00 0.  1.
         35    2    1    2    0    0  0.00000000000E+00  0.71054273576E-14  0.75575079955E+02  0.28406228353E+03  0.27382437476E+03 0.  0.
         25    2    3    3    0    0 -0.33600144561E+02  0.28818467410E+02  0.80847561947E+02  0.15346494701E+03  0.12270162146E+03 0.  0.
         25    2    3    3    0    0  0.33600144561E+02 -0.28818467410E+02 -0.52724819920E+01  0.13059733652E+03  0.12275337658E+03 0.  0.
          5    1    4    4  502    0  0.64142485450E+01 -0.35044866138E+02  0.67941694054E+02  0.76859931160E+02  0.47000000000E+01 0.  1.
         -5    1    4    4    0  502 -0.40014393106E+02  0.63863333548E+02  0.12905867893E+02  0.76605015851E+02  0.47000000000E+01 0.  1.
          5    1    5    5  503    0  0.34943233880E+02  0.36074421719E+02  0.27802886420E+02  0.57597604027E+02  0.47000000000E+01 0. -1.
         -5    1    5    5    0  503 -0.13430893195E+01 -0.64892889128E+02 -0.33075368412E+02  0.72999732492E+02  0.47000000000E+01 0. -1.
<mgrwt>
<rscale>  0 0.27382437E+03</rscale>
<asrwt>0</asrwt>
<pdfrwt beam="1">  1        1 0.16037477E-01 0.27382437E+03</pdfrwt>
<pdfrwt beam="2">  1       -1 0.27664412E-01 0.27382437E+03</pdfrwt>
<totfact> 0.39790464E+03</totfact>
</mgrwt>
</event>
<event>
 9    1  0.8175317E-001  0.2836551E+03  0.7818608E-02  0.1093709E+00
          1   -1    0    0  501    0  0.00000000000E+00  0.00000000000E+00  0.34911173325E+02  0.34911173325E+02  0.00000000000E+00 0.  1.
         -1   -1    0    0    0  501 -0.00000000000E+00 -0.00000000000E+00 -0.57617828360E+03  0.57617828360E+03  0.00000000000E+00 0.  1.
         35    2    1    2    0    0  0.13322676296E-14  0.10658141036E-13 -0.54126711027E+03  0.61108945692E+03  0.28365514220E+03 0.  0.
         25    2    3    3    0    0 -0.28846688755E+01 -0.29160876249E+02 -0.14160709120E+03  0.19122144914E+03  0.12511753002E+03 0.  0.
         25    2    3    3    0    0  0.28846688755E+01  0.29160876249E+02 -0.39966001908E+03  0.41986800778E+03  0.12530895854E+03 0.  0.
          5    1    4    4  502    0  0.10337448730E+02 -0.23085830848E+02  0.17670552412E+02  0.31211485942E+02  0.47000000000E+01 0.  1.
         -5    1    4    4    0  502 -0.13222117605E+02 -0.60750454008E+01 -0.15927764361E+03  0.16000996320E+03  0.47000000000E+01 0.  1.
          5    1    5    5  503    0 -0.73276943406E+00 -0.14204610121E+02  0.26256397209E+01  0.15208283391E+02  0.47000000000E+01 0.  1.
         -5    1    5    5    0  503  0.36174383096E+01  0.43365486370E+02 -0.40228565880E+03  0.40465972439E+03  0.47000000000E+01 0.  1.
<mgrwt>
<rscale>  0 0.28365514E+03</rscale>
<asrwt>0</asrwt>
<pdfrwt beam="1">  1        1 0.53709498E-02 0.28365514E+03</pdfrwt>
<pdfrwt beam="2">  1       -1 0.88642811E-01 0.28365514E+03</pdfrwt>
<totfact> 0.19772766E+03</totfact>
</mgrwt>
</event>
<event>
 9    1  0.8175317E-001  0.2745110E+03  0.7818608E-02  0.1098725E+00
         -3   -1    0    0    0  501 -0.00000000000E+00  0.00000000000E+00  0.46442758076E+02  0.46442758076E+02  0.00000000000E+00 0.  1.
          3   -1    0    0  501    0  0.00000000000E+00 -0.00000000000E+00 -0.40564081691E+03  0.40564081691E+03  0.00000000000E+00 0.  1.
         35    2    1    2    0    0  0.14210854715E-13  0.00000000000E+00 -0.35919805884E+03  0.45208357499E+03  0.27451104405E+03 0.  0.
         25    2    3    3    0    0  0.48862836951E+02 -0.21432614334E+02 -0.21076024142E+03  0.25051092255E+03  0.12445444613E+03 0.  0.
         25    2    3    3    0    0 -0.48862836951E+02  0.21432614334E+02 -0.14843781741E+03  0.20157265244E+03  0.12550225010E+03 0.  0.
          5    1    4    4  502    0  0.84495730969E+02 -0.41443650883E+02 -0.14375976989E+03  0.17188969192E+03  0.47000000000E+01 0.  1.
         -5    1    4    4    0  502 -0.35632894017E+02  0.20011036550E+02 -0.67000471533E+02  0.78621230628E+02  0.47000000000E+01 0.  1.
          5    1    5    5  503    0 -0.27685985255E+02  0.72027107738E+02 -0.62019973106E+02  0.99110973624E+02  0.47000000000E+01 0. -1.
         -5    1    5    5    0  503 -0.21176851696E+02 -0.50594493404E+02 -0.86417844308E+02  0.10246167881E+03  0.47000000000E+01 0. -1.
<mgrwt>
<rscale>  0 0.27451104E+03</rscale>
<asrwt>0</asrwt>
<pdfrwt beam="1">  1        3 0.62406280E-01 0.27451104E+03</pdfrwt>
<pdfrwt beam="2">  1       -3 0.71450397E-02 0.27451104E+03</pdfrwt>
<totfact> 0.82744176E+02</totfact>
</mgrwt>
</event>
<event>
 9    1  0.8175317E-001  0.2772444E+03  0.7818608E-02  0.1097204E+00
         -2   -1    0    0    0  501 -0.00000000000E+00  0.00000000000E+00  0.26909014097E+04  0.26909014097E+04  0.00000000000E+00 0.  1.
          2   -1    0    0  501    0  0.00000000000E+00 -0.00000000000E+00 -0.71411444121E+01  0.71411444121E+01  0.00000000000E+00 0.  1.
         35    2    1    2    0    0 -0.71054273576E-14 -0.71054273576E-14  0.26837602653E+04  0.26980425541E+04  0.27724440889E+03 0.  0.
         25    2    3    3    0    0 -0.36406280157E+02  0.27913303894E+02  0.17140623354E+04  0.17192353488E+04  0.12512363867E+03 0.  0.
         25    2    3    3    0    0  0.36406280157E+02 -0.27913303894E+02  0.96969792984E+03  0.97880720533E+03  0.12507957582E+03 0.  0.
          5    1    4    4  502    0 -0.21224998682E+01  0.72969630528E+02  0.11483364554E+04  0.11506640590E+04  0.47000000000E+01 0. -1.
         -5    1    4    4    0  502 -0.34283780289E+02 -0.45056326634E+02  0.56572588004E+03  0.56857128973E+03  0.47000000000E+01 0. -1.
          5    1    5    5  503    0  0.15663707659E+01  0.29391222471E+01 -0.19140290769E+01  0.60700464798E+01  0.47000000000E+01 0.  1.
         -5    1    5    5    0  503  0.34839909391E+02 -0.30852426141E+02  0.97161195892E+03  0.97273715885E+03  0.47000000000E+01 0.  1.
<mgrwt>
<rscale>  0 0.27724441E+03</rscale>
<asrwt>0</asrwt>
<pdfrwt beam="1">  1        2 0.10986397E-02 0.27724441E+03</pdfrwt>
<pdfrwt beam="2">  1       -2 0.41398402E+00 0.27724441E+03</pdfrwt>
<totfact> 0.92767759E+01</totfact>
</mgrwt>
</event>
<event>
 9    1  0.8175317E-001  0.2794270E+03  0.7818608E-02  0.1096002E+00
         -2   -1    0    0    0  501 -0.00000000000E+00  0.00000000000E+00  0.11413062719E+03  0.11413062719E+03  0.00000000000E+00 0. -1.
          2   -1    0    0  501    0  0.00000000000E+00 -0.00000000000E+00 -0.17103087948E+03  0.17103087948E+03  0.00000000000E+00 0. -1.
         35    2    1    2    0    0  0.00000000000E+00 -0.71054273576E-14 -0.56900252293E+02  0.28516150667E+03  0.27942699615E+03 0.  0.
         25    2    3    3    0    0  0.32891602045E+02  0.51396146068E+02 -0.23543874867E+02  0.14219523756E+03  0.12626064401E+03 0.  0.
         25    2    3    3    0    0 -0.32891602045E+02 -0.51396146068E+02 -0.33356377426E+02  0.14296626911E+03  0.12491310929E+03 0.  0.
          5    1    4    4  502    0 -0.85888949256E+01  0.45959152757E+02  0.42840323274E+02  0.63587704286E+02  0.47000000000E+01 0.  1.
         -5    1    4    4    0  502  0.41480496971E+02  0.54369933112E+01 -0.66384198140E+02  0.78607533277E+02  0.47000000000E+01 0.  1.
          5    1    5    5  503    0 -0.73163882851E+02 -0.29782839487E+02 -0.50558210289E+02  0.93905238988E+02  0.47000000000E+01 0. -1.
         -5    1    5    5    0  503  0.40272280806E+02 -0.21613306580E+02  0.17201832863E+02  0.49061030120E+02  0.47000000000E+01 0. -1.
<mgrwt>
<rscale>  0 0.27942700E+03</rscale>
<asrwt>0</asrwt>
<pdfrwt beam="1">  1        2 0.26312443E-01 0.27942700E+03</pdfrwt>
<pdfrwt beam="2">  1       -2 0.17558558E-01 0.27942700E+03</pdfrwt>
<totfact> 0.53002191E+03</totfact>
</mgrwt>
</event>
<event>
 9    1  0.8175317E-001  0.3349591E+03  0.7818608E-02  0.1068963E+00
         -2   -1    0    0    0  501 -0.00000000000E+00  0.00000000000E+00  0.13063974172E+02  0.13063974172E+02  0.00000000000E+00 0. -1.
          2   -1    0    0  501    0  0.00000000000E+00 -0.00000000000E+00 -0.21470804944E+04  0.21470804944E+04  0.00000000000E+00 0. -1.
         35    2    1    2    0    0  0.00000000000E+00  0.62172489379E-14 -0.21340165202E+04  0.21601444685E+04  0.33495912661E+03 0.  0.
         25    2    3    3    0    0 -0.11101610226E+03 -0.51657553429E+01 -0.11651932578E+04  0.11770357496E+04  0.12404260469E+03 0.  0.
         25    2    3    3    0    0  0.11101610226E+03  0.51657553429E+01 -0.96882326236E+03  0.98310871893E+03  0.12463137465E+03 0.  0.
          5    1    4    4  502    0 -0.71964705395E+02 -0.94843516575E+00 -0.10871445629E+04  0.10895344001E+04  0.47000000000E+01 0. -1.
         -5    1    4    4    0  502 -0.39051396867E+02 -0.42173201771E+01 -0.78048694952E+02  0.87501349535E+02  0.47000000000E+01 0. -1.
          5    1    5    5  503    0  0.87518823922E+02 -0.53439766539E+02 -0.54514693037E+03  0.55472751769E+03  0.47000000000E+01 0. -1.
         -5    1    5    5    0  503  0.23497278340E+02  0.58605521882E+02 -0.42367633199E+03  0.42838120124E+03  0.47000000000E+01 0. -1.
<mgrwt>
<rscale>  0 0.33495913E+03</rscale>
<asrwt>0</asrwt>
<pdfrwt beam="1">  1        2 0.33032006E+00 0.33495913E+03</pdfrwt>
<pdfrwt beam="2">  1       -2 0.20098423E-02 0.33495913E+03</pdfrwt>
<totfact> 0.47627803E+03</totfact>
</mgrwt>
</event>
<event>
 9    1  0.8175317E-001  0.2764392E+03  0.7818608E-02  0.1097650E+00
          1   -1    0    0  501    0  0.00000000000E+00  0.00000000000E+00  0.13691549470E+03  0.13691549470E+03  0.00000000000E+00 0.  1.
         -1   -1    0    0    0  501 -0.00000000000E+00 -0.00000000000E+00 -0.13953611838E+03  0.13953611838E+03  0.00000000000E+00 0.  1.
         35    2    1    2    0    0  0.00000000000E+00  0.71054273576E-14 -0.26206236791E+01  0.27645161307E+03  0.27643919169E+03 0.  0.
         25    2    3    3    0    0  0.47596520519E+02  0.32688554673E+02  0.27741386029E+00  0.13851526758E+03  0.12590644154E+03 0.  0.
         25    2    3    3    0    0 -0.47596520519E+02 -0.32688554673E+02 -0.28980375394E+01  0.13793634550E+03  0.12523604279E+03 0.  0.
          5    1    4    4  502    0  0.23493610548E+02  0.79149076427E+02  0.14765015080E+02  0.84003700550E+02  0.47000000000E+01 0.  1.
         -5    1    4    4    0  502  0.24102909970E+02 -0.46460521754E+02 -0.14487601219E+02  0.54511567028E+02  0.47000000000E+01 0.  1.
          5    1    5    5  503    0 -0.17187270891E+02 -0.77522607747E+02  0.14476598928E+02  0.80850596220E+02  0.47000000000E+01 0. -1.
         -5    1    5    5    0  503 -0.30409249627E+02  0.44834053074E+02 -0.17374636467E+02  0.57085749275E+02  0.47000000000E+01 0. -1.
<mgrwt>
<rscale>  0 0.27643919E+03</rscale>
<asrwt>0</asrwt>
<pdfrwt beam="1">  1        1 0.21063922E-01 0.27643919E+03</pdfrwt>
<pdfrwt beam="2">  1       -1 0.21467095E-01 0.27643919E+03</pdfrwt>
<totfact> 0.42584905E+03</totfact>
</mgrwt>
</event>
<event>
 9    1  0.8175317E-001  0.2744798E+03  0.7818608E-02  0.1098743E+00
         -2   -1    0    0    0  501 -0.00000000000E+00  0.00000000000E+00  0.23215404719E+03  0.23215404719E+03  0.00000000000E+00 0.  1.
          2   -1    0    0  501    0  0.00000000000E+00 -0.00000000000E+00 -0.81130594140E+02  0.81130594140E+02  0.00000000000E+00 0.  1.
         35    2    1    2    0    0  0.00000000000E+00  0.71054273576E-14  0.15102345305E+03  0.31328464133E+03  0.27447984101E+03 0.  0.
         25    2    3    3    0    0  0.35093743827E+02 -0.42289426779E+02  0.57812573872E+02  0.14811733691E+03  0.12480579042E+03 0.  0.
         25    2    3    3    0    0 -0.35093743827E+02  0.42289426779E+02  0.93210879175E+02  0.16516730442E+03  0.12478783586E+03 0.  0.
          5    1    4    4  502    0  0.41864000296E+02 -0.83400736462E+02  0.48045889528E+02  0.10506557411E+03  0.47000000000E+01 0.  1.
         -5    1    4    4    0  502 -0.67702564689E+01  0.41111309684E+02  0.97666843434E+01  0.43051762794E+02  0.47000000000E+01 0.  1.
          5    1    5    5  503    0  0.43012737249E+02 -0.60443532110E+01  0.22418156329E+02  0.49104923425E+02  0.47000000000E+01 0.  1.
         -5    1    5    5    0  503 -0.78106481076E+02  0.48333779990E+02  0.70792722846E+02  0.11606238099E+03  0.47000000000E+01 0.  1.
<mgrwt>
<rscale>  0 0.27447984E+03</rscale>
<asrwt>0</asrwt>
<pdfrwt beam="1">  1        2 0.12481630E-01 0.27447984E+03</pdfrwt>
<pdfrwt beam="2">  1       -2 0.35716007E-01 0.27447984E+03</pdfrwt>
<totfact> 0.35819525E+03</totfact>
</mgrwt>
</event>
<event>
 9    1  0.8175317E-001  0.2770050E+03  0.7818608E-02  0.1097336E+00
          2   -1    0    0  501    0  0.00000000000E+00  0.00000000000E+00  0.69975409889E+03  0.69975409889E+03  0.00000000000E+00 0. -1.
         -2   -1    0    0    0  501 -0.00000000000E+00 -0.00000000000E+00 -0.27413837885E+02  0.27413837885E+02  0.00000000000E+00 0. -1.
         35    2    1    2    0    0 -0.14210854715E-13  0.71054273576E-14  0.67234026101E+03  0.72716793678E+03  0.27700502108E+03 0.  0.
         25    2    3    3    0    0 -0.49242539204E+02  0.35753347346E+02  0.36796111207E+03  0.39350124570E+03  0.12547796962E+03 0.  0.
         25    2    3    3    0    0  0.49242539204E+02 -0.35753347346E+02  0.30437914894E+03  0.33366669107E+03  0.12240778125E+03 0.  0.
          5    1    4    4  502    0 -0.76372162457E+02  0.59305658687E+02  0.20709452259E+03  0.22860467983E+03  0.47000000000E+01 0.  1.
         -5    1    4    4    0  502  0.27129623253E+02 -0.23552311342E+02  0.16086658948E+03  0.16489656588E+03  0.47000000000E+01 0.  1.
          5    1    5    5  503    0  0.84665460562E+01 -0.10151274137E+01 -0.10447269367E+02  0.14281047686E+02  0.47000000000E+01 0.  1.
         -5    1    5    5    0  503  0.40775993148E+02 -0.34738219932E+02  0.31482641830E+03  0.31938564339E+03  0.47000000000E+01 0.  1.
<mgrwt>
<rscale>  0 0.27700502E+03</rscale>
<asrwt>0</asrwt>
<pdfrwt beam="1">  1        2 0.10765446E+00 0.27700502E+03</pdfrwt>
<pdfrwt beam="2">  1       -2 0.42175140E-02 0.27700502E+03</pdfrwt>
<totfact> 0.10605410E+04</totfact>
</mgrwt>
</event>
<event>
 9    1  0.8175317E-001  0.2759489E+03  0.7818608E-02  0.1097922E+00
         -2   -1    0    0    0  501 -0.00000000000E+00  0.00000000000E+00  0.17147026245E+02  0.17147026245E+02  0.00000000000E+00 0. -1.
          2   -1    0    0  501    0  0.00000000000E+00 -0.00000000000E+00 -0.11102186623E+04  0.11102186623E+04  0.00000000000E+00 0. -1.
         35    2    1    2    0    0  0.00000000000E+00  0.00000000000E+00 -0.10930716361E+04  0.11273656885E+04  0.27594889773E+03 0.  0.
         25    2    3    3    0    0 -0.44393794779E+02  0.27103477212E+02 -0.68476868000E+03  0.69814944357E+03  0.12569444281E+03 0.  0.
         25    2    3    3    0    0  0.44393794779E+02 -0.27103477212E+02 -0.40830295605E+03  0.42921624497E+03  0.12169582383E+03 0.  0.
          5    1    4    4  502    0 -0.55849516085E+02  0.11296361360E+02 -0.11897615045E+03  0.13200072198E+03  0.47000000000E+01 0.  1.
         -5    1    4    4    0  502  0.11455721306E+02  0.15807115852E+02 -0.56579252955E+03  0.56614872159E+03  0.47000000000E+01 0.  1.
          5    1    5    5  503    0  0.64202274568E+02 -0.58472696860E+02 -0.20793996039E+03  0.22539322409E+03  0.47000000000E+01 0. -1.
         -5    1    5    5    0  503 -0.19808479789E+02  0.31369219648E+02 -0.20036299566E+03  0.20382302089E+03  0.47000000000E+01 0. -1.
<mgrwt>
<rscale>  0 0.27594890E+03</rscale>
<asrwt>0</asrwt>
<pdfrwt beam="1">  1        2 0.17080291E+00 0.27594890E+03</pdfrwt>
<pdfrwt beam="2">  1       -2 0.26380034E-02 0.27594890E+03</pdfrwt>
<totfact> 0.11539994E+04</totfact>
</mgrwt>
</event>
<event>
 9    1  0.8175317E-001  0.3012111E+03  0.7818608E-02  0.1084637E+00
          1   -1    0    0  501    0  0.00000000000E+00  0.00000000000E+00  0.18052765964E+04  0.18052765964E+04  0.00000000000E+00 0.  1.
         -1   -1    0    0    0  501 -0.00000000000E+00 -0.00000000000E+00 -0.12564295817E+02  0.12564295817E+02  0.00000000000E+00 0.  1.
         35    2    1    2    0    0 -0.71054273576E-14 -0.53290705182E-14  0.17927123005E+04  0.18178408922E+04  0.30121108338E+03 0.  0.
         25    2    3    3    0    0  0.39613268966E+02 -0.58444820711E+01  0.46413490381E+03  0.48284443834E+03  0.12694161511E+03 0.  0.
         25    2    3    3    0    0 -0.39613268966E+02  0.58444820711E+01  0.13285773967E+04  0.13349964538E+04  0.12447595597E+03 0.  0.
          5    1    4    4  502    0  0.66327710784E+02 -0.38902108751E+02  0.38752604841E+03  0.39510918425E+03  0.47000000000E+01 0.  1.
         -5    1    4    4    0  502 -0.26714441819E+02  0.33057626680E+02  0.76608855401E+02  0.87735254084E+02  0.47000000000E+01 0.  1.
          5    1    5    5  503    0  0.60947256482E+01  0.10898626029E+02  0.13070491209E+02  0.18677619508E+02  0.47000000000E+01 0. -1.
         -5    1    5    5    0  503 -0.45707994614E+02 -0.50541439574E+01  0.13155069055E+04  0.13163188343E+04  0.47000000000E+01 0. -1.
<mgrwt>
<rscale>  0 0.30121108E+03</rscale>
<asrwt>0</asrwt>
<pdfrwt beam="1">  1        1 0.27773465E+00 0.30121108E+03</pdfrwt>
<pdfrwt beam="2">  1       -1 0.19329700E-02 0.30121108E+03</pdfrwt>
<totfact> 0.32532049E+03</totfact>
</mgrwt>
</event>
<event>
 9    1  0.8175317E-001  0.2831031E+03  0.7818608E-02  0.1094006E+00
          1   -1    0    0  501    0  0.00000000000E+00  0.00000000000E+00  0.10985172637E+03  0.10985172637E+03  0.00000000000E+00 0. -1.
         -1   -1    0    0    0  501 -0.00000000000E+00 -0.00000000000E+00 -0.18239897562E+03  0.18239897562E+03  0.00000000000E+00 0. -1.
         35    2    1    2    0    0 -0.35527136788E-14  0.35527136788E-14 -0.72547249252E+02  0.29225070198E+03  0.28310310743E+03 0.  0.
         25    2    3    3    0    0 -0.12788709716E+02 -0.10497206628E+02 -0.10392354412E+03  0.16313196261E+03  0.12465228342E+03 0.  0.
         25    2    3    3    0    0  0.12788709716E+02  0.10497206628E+02  0.31376294863E+02  0.12911873937E+03  0.12415085394E+03 0.  0.
          5    1    4    4  502    0  0.45385345854E+02  0.13790701070E+02 -0.84469383774E+02  0.96990617327E+02  0.47000000000E+01 0.  1.
         -5    1    4    4    0  502 -0.58174055571E+02 -0.24287907698E+02 -0.19454160342E+02  0.66141345288E+02  0.47000000000E+01 0.  1.
          5    1    5    5  503    0  0.43978449764E+01 -0.56792904879E+02  0.17126096796E+02  0.59667145704E+02  0.47000000000E+01 0.  1.
         -5    1    5    5    0  503  0.83908647397E+01  0.67290111507E+02  0.14250198067E+02  0.69451593666E+02  0.47000000000E+01 0.  1.
<mgrwt>
<rscale>  0 0.28310311E+03</rscale>
<asrwt>0</asrwt>
<pdfrwt beam="1">  1        1 0.16900266E-01 0.28310311E+03</pdfrwt>
<pdfrwt beam="2">  1       -1 0.28061381E-01 0.28310311E+03</pdfrwt>
<totfact> 0.36312568E+03</totfact>
</mgrwt>
</event>
<event>
 9    1  0.8175317E-001  0.2738920E+03  0.7818608E-02  0.1099073E+00
          2   -1    0    0  501    0  0.00000000000E+00  0.00000000000E+00  0.46319732774E+02  0.46319732774E+02  0.00000000000E+00 0.  1.
         -2   -1    0    0    0  501 -0.00000000000E+00 -0.00000000000E+00 -0.40488576853E+03  0.40488576853E+03  0.00000000000E+00 0.  1.
         35    2    1    2    0    0 -0.35527136788E-14  0.14210854715E-13 -0.35856603576E+03  0.45120550131E+03  0.27389195390E+03 0.  0.
         25    2    3    3    0    0  0.22022018077E+02 -0.31257249413E+02 -0.11275830601E+03  0.17245587168E+03  0.12475819484E+03 0.  0.
         25    2    3    3    0    0 -0.22022018077E+02  0.31257249413E+02 -0.24580772975E+03  0.27874962963E+03  0.12576935674E+03 0.  0.
          5    1    4    4  502    0  0.40276371656E+02  0.98331854512E+01 -0.11965851258E+03  0.12672461199E+03  0.47000000000E+01 0. -1.
         -5    1    4    4    0  502 -0.18254353579E+02 -0.41090434864E+02  0.69002065702E+01  0.45731259688E+02  0.47000000000E+01 0. -1.
          5    1    5    5  503    0 -0.19043810587E+02  0.76185411498E+02 -0.10743040292E+03  0.13315504165E+03  0.47000000000E+01 0. -1.
         -5    1    5    5    0  503 -0.29782074902E+01 -0.44928162085E+02 -0.13837732683E+03  0.14559458798E+03  0.47000000000E+01 0. -1.
<mgrwt>
<rscale>  0 0.27389195E+03</rscale>
<asrwt>0</asrwt>
<pdfrwt beam="1">  1        2 0.71261128E-02 0.27389195E+03</pdfrwt>
<pdfrwt beam="2">  1       -2 0.62290118E-01 0.27389195E+03</pdfrwt>
<totfact> 0.24063482E+03</totfact>
</mgrwt>
</event>
<event>
 9    1  0.8175317E-001  0.2741955E+03  0.7818608E-02  0.1098902E+00
         -2   -1    0    0    0  501 -0.00000000000E+00  0.00000000000E+00  0.71006288874E+01  0.71006288874E+01  0.00000000000E+00 0. -1.
          2   -1    0    0  501    0  0.00000000000E+00 -0.00000000000E+00 -0.26470596967E+04  0.26470596967E+04  0.00000000000E+00 0. -1.
         35    2    1    2    0    0 -0.71054273576E-14 -0.71054273576E-14 -0.26399590678E+04  0.26541603256E+04  0.27419546713E+03 0.  0.
         25    2    3    3    0    0  0.47160562505E+01 -0.46491091754E+02 -0.10335090497E+04  0.10421950556E+04  0.12588055998E+03 0.  0.
         25    2    3    3    0    0 -0.47160562505E+01  0.46491091754E+02 -0.16064500181E+04  0.16119652700E+04  0.12476661428E+03 0.  0.
          5    1    4    4  502    0 -0.52287223714E+02 -0.17190069034E+02 -0.24879526758E+03  0.25485412967E+03  0.47000000000E+01 0. -1.
         -5    1    4    4    0  502  0.57003279965E+02 -0.29301022720E+02 -0.78471378211E+03  0.78734092596E+03  0.47000000000E+01 0. -1.
          5    1    5    5  503    0  0.37125796700E+02  0.70728257056E+02 -0.11908380445E+04  0.11935234181E+04  0.47000000000E+01 0. -1.
         -5    1    5    5    0  503 -0.41841852951E+02 -0.24237165302E+02 -0.41561197358E+03  0.41844185190E+03  0.47000000000E+01 0. -1.
<mgrwt>
<rscale>  0 0.27419547E+03</rscale>
<asrwt>0</asrwt>
<pdfrwt beam="1">  1        2 0.40723902E+00 0.27419547E+03</pdfrwt>
<pdfrwt beam="2">  1       -2 0.10924069E-02 0.27419547E+03</pdfrwt>
<totfact> 0.62339707E+03</totfact>
</mgrwt>
</event>
<event>
 9    1  0.8175317E-001  0.2829319E+03  0.7818608E-02  0.1094098E+00
         -1   -1    0    0    0  501 -0.00000000000E+00  0.00000000000E+00  0.53200006870E+03  0.53200006870E+03  0.00000000000E+00 0. -1.
          1   -1    0    0  501    0  0.00000000000E+00 -0.00000000000E+00 -0.37617683977E+02  0.37617683977E+02  0.00000000000E+00 0. -1.
         35    2    1    2    0    0  0.35527136788E-14 -0.35527136788E-14  0.49438238472E+03  0.56961775267E+03  0.28293186784E+03 0.  0.
         25    2    3    3    0    0 -0.24325624670E+02  0.26539565923E+02  0.14238207625E+03  0.19318956786E+03  0.12551282371E+03 0.  0.
         25    2    3    3    0    0  0.24325624670E+02 -0.26539565923E+02  0.35200030847E+03  0.37642818482E+03  0.12844406015E+03 0.  0.
          5    1    4    4  502    0 -0.38027025882E+01  0.54216984745E+02  0.14820838348E+03  0.15792959481E+03  0.47000000000E+01 0.  1.
         -5    1    4    4    0  502 -0.20522922081E+02 -0.27677418822E+02 -0.58263072318E+01  0.35259973048E+02  0.47000000000E+01 0.  1.
          5    1    5    5  503    0  0.41385122039E+02 -0.70949330867E+02  0.26063983586E+03  0.27331620865E+03  0.47000000000E+01 0. -1.
         -5    1    5    5    0  503 -0.17059497369E+02  0.44409764943E+02  0.91360472610E+02  0.10311197616E+03  0.47000000000E+01 0. -1.
<mgrwt>
<rscale>  0 0.28293187E+03</rscale>
<asrwt>0</asrwt>
<pdfrwt beam="1">  1        1 0.57873364E-02 0.28293187E+03</pdfrwt>
<pdfrwt beam="2">  1       -1 0.81846159E-01 0.28293187E+03</pdfrwt>
<totfact> 0.21110317E+03</totfact>
</mgrwt>
</event>
<event>
 9    1  0.8175317E-001  0.2641910E+03  0.7818608E-02  0.1104651E+00
         -1   -1    0    0    0  501 -0.00000000000E+00  0.00000000000E+00  0.43587374645E+02  0.43587374645E+02  0.00000000000E+00 0.  1.
          1   -1    0    0  501    0  0.00000000000E+00 -0.00000000000E+00 -0.40032742896E+03  0.40032742896E+03  0.00000000000E+00 0.  1.
         35    2    1    2    0    0  0.00000000000E+00 -0.71054273576E-14 -0.35674005431E+03  0.44391480360E+03  0.26419100383E+03 0.  0.
         25    2    3    3    0    0  0.34474646254E+02 -0.23288433750E+02 -0.17157414423E+03  0.21700203256E+03  0.12617980341E+03 0.  0.
         25    2    3    3    0    0 -0.34474646254E+02  0.23288433750E+02 -0.18516591009E+03  0.22691277104E+03  0.12438705328E+03 0.  0.
          5    1    4    4  502    0  0.61379867121E+02 -0.51918366908E+02 -0.65552937326E+02  0.10383777011E+03  0.47000000000E+01 0.  1.
         -5    1    4    4    0  502 -0.26905220867E+02  0.28629933158E+02 -0.10602120690E+03  0.11316426245E+03  0.47000000000E+01 0.  1.
          5    1    5    5  503    0  0.43895732768E+02 -0.10951719506E+02 -0.66240718287E+02  0.80353582836E+02  0.47000000000E+01 0.  1.
         -5    1    5    5    0  503 -0.78370379021E+02  0.34240153256E+02 -0.11892519180E+03  0.14655918820E+03  0.47000000000E+01 0.  1.
<mgrwt>
<rscale>  0 0.26419100E+03</rscale>
<asrwt>0</asrwt>
<pdfrwt beam="1">  1        1 0.61588837E-01 0.26419100E+03</pdfrwt>
<pdfrwt beam="2">  1       -1 0.67057498E-02 0.26419100E+03</pdfrwt>
<totfact> 0.67742015E+03</totfact>
</mgrwt>
</event>
<event>
 9    1  0.8175317E-001  0.2929336E+03  0.7818608E-02  0.1088827E+00
         -2   -1    0    0    0  501 -0.00000000000E+00  0.00000000000E+00  0.23780500211E+02  0.23780500211E+02  0.00000000000E+00 0. -1.
          2   -1    0    0  501    0  0.00000000000E+00 -0.00000000000E+00 -0.90210543910E+03  0.90210543910E+03  0.00000000000E+00 0. -1.
         35    2    1    2    0    0  0.71054273576E-14  0.00000000000E+00 -0.87832493889E+03  0.92588593931E+03  0.29293356643E+03 0.  0.
         25    2    3    3    0    0  0.16158969205E+02 -0.77386620834E+02 -0.46389758899E+03  0.48580615689E+03  0.12065176182E+03 0.  0.
         25    2    3    3    0    0 -0.16158969205E+02  0.77386620834E+02 -0.41442734990E+03  0.44007978243E+03  0.12518140909E+03 0.  0.
          5    1    4    4  502    0  0.64593842431E+02 -0.30288722031E+02 -0.17426861360E+03  0.18836509987E+03  0.47000000000E+01 0. -1.
         -5    1    4    4    0  502 -0.48434873226E+02 -0.47097898803E+02 -0.28962897539E+03  0.29744105702E+03  0.47000000000E+01 0. -1.
          5    1    5    5  503    0 -0.48059995196E+02  0.87134102659E+02 -0.20458212552E+03  0.22754790939E+03  0.47000000000E+01 0. -1.
         -5    1    5    5    0  503  0.31901025990E+02 -0.97474818244E+01 -0.20984522438E+03  0.21253187304E+03  0.47000000000E+01 0. -1.
<mgrwt>
<rscale>  0 0.29293357E+03</rscale>
<asrwt>0</asrwt>
<pdfrwt beam="1">  1        2 0.13878542E+00 0.29293357E+03</pdfrwt>
<pdfrwt beam="2">  1       -2 0.36585392E-02 0.29293357E+03</pdfrwt>
<totfact> 0.95209701E+03</totfact>
</mgrwt>
</event>
<event>
 9    1  0.8175317E-001  0.2762060E+03  0.7818608E-02  0.1097779E+00
          2   -1    0    0  501    0  0.00000000000E+00  0.00000000000E+00  0.11926828081E+02  0.11926828081E+02  0.00000000000E+00 0. -1.
         -2   -1    0    0    0  501 -0.00000000000E+00 -0.00000000000E+00 -0.15991204311E+04  0.15991204311E+04  0.00000000000E+00 0. -1.
         35    2    1    2    0    0  0.35527136788E-14  0.00000000000E+00 -0.15871936031E+04  0.16110472592E+04  0.27620596998E+03 0.  0.
         25    2    3    3    0    0 -0.16185625614E+02 -0.54402440404E+02 -0.72248607432E+03  0.73527470380E+03  0.12418197314E+03 0.  0.
         25    2    3    3    0    0  0.16185625614E+02  0.54402440404E+02 -0.86470752874E+03  0.87577255542E+03  0.12663671894E+03 0.  0.
          5    1    4    4  502    0 -0.69328696908E+02 -0.41512940670E+02 -0.46656518050E+03  0.47353452895E+03  0.47000000000E+01 0. -1.
         -5    1    4    4    0  502  0.53143071295E+02 -0.12889499734E+02 -0.25592089383E+03  0.26174017484E+03  0.47000000000E+01 0. -1.
          5    1    5    5  503    0  0.46870974106E+02 -0.21304831588E+02 -0.45851342099E+03  0.46141893252E+03  0.47000000000E+01 0. -1.
         -5    1    5    5    0  503 -0.30685348493E+02  0.75707271992E+02 -0.40619410775E+03  0.41435362290E+03  0.47000000000E+01 0. -1.
<mgrwt>
<rscale>  0 0.27620597E+03</rscale>
<asrwt>0</asrwt>
<pdfrwt beam="1">  1        2 0.18348965E-02 0.27620597E+03</pdfrwt>
<pdfrwt beam="2">  1       -2 0.24601855E+00 0.27620597E+03</pdfrwt>
<totfact> 0.46733371E+02</totfact>
</mgrwt>
</event>
<event>
 9    1  0.8175317E-001  0.2760336E+03  0.7818608E-02  0.1097875E+00
          2   -1    0    0  501    0  0.00000000000E+00  0.00000000000E+00  0.22512374035E+04  0.22512374035E+04  0.00000000000E+00 0.  1.
         -2   -1    0    0    0  501 -0.00000000000E+00 -0.00000000000E+00 -0.84614068533E+01  0.84614068533E+01  0.00000000000E+00 0.  1.
         35    2    1    2    0    0  0.00000000000E+00  0.17763568394E-14  0.22427759966E+04  0.22596988104E+04  0.27603358922E+03 0.  0.
         25    2    3    3    0    0  0.10170508473E+02 -0.30529495036E+01  0.15398196217E+04  0.15449659076E+04  0.12554851090E+03 0.  0.
         25    2    3    3    0    0 -0.10170508473E+02  0.30529495036E+01  0.70295637497E+03  0.71473290276E+03  0.12877382277E+03 0.  0.
          5    1    4    4  502    0  0.42510055237E+02  0.15921833656E+02  0.13794340406E+04  0.13801887450E+04  0.47000000000E+01 0.  1.
         -5    1    4    4    0  502 -0.32339546764E+02 -0.18974783160E+02  0.16038558108E+03  0.16477716255E+03  0.47000000000E+01 0.  1.
          5    1    5    5  503    0  0.58602796631E+02  0.10972364822E+02  0.31952788758E+03  0.32507667019E+03  0.47000000000E+01 0.  1.
         -5    1    5    5    0  503 -0.68773305104E+02 -0.79194153184E+01  0.38342848739E+03  0.38965623256E+03  0.47000000000E+01 0.  1.
<mgrwt>
<rscale>  0 0.27603359E+03</rscale>
<asrwt>0</asrwt>
<pdfrwt beam="1">  1        2 0.34634374E+00 0.27603359E+03</pdfrwt>
<pdfrwt beam="2">  1       -2 0.13017567E-02 0.27603359E+03</pdfrwt>
<totfact> 0.79374269E+03</totfact>
</mgrwt>
</event>
<event>
 9    1  0.8175317E-001  0.2639499E+03  0.7818608E-02  0.1104793E+00
         -2   -1    0    0    0  501 -0.00000000000E+00  0.00000000000E+00  0.72189310799E+01  0.72189310799E+01  0.00000000000E+00 0. -1.
          2   -1    0    0  501    0  0.00000000000E+00 -0.00000000000E+00 -0.24127371673E+04  0.24127371673E+04  0.00000000000E+00 0. -1.
         35    2    1    2    0    0 -0.35527136788E-14  0.17763568394E-14 -0.24055182362E+04  0.24199560984E+04  0.26394986891E+03 0.  0.
         25    2    3    3    0    0  0.91641469957E+01 -0.97538469456E+01 -0.83820818028E+03  0.84768885686E+03  0.12571525541E+03 0.  0.
         25    2    3    3    0    0 -0.91641469957E+01  0.97538469456E+01 -0.15673100559E+04  0.15722672415E+04  0.12403365742E+03 0.  0.
          5    1    4    4  502    0 -0.10280285337E+02 -0.25326092398E+02 -0.37819614628E+02  0.46898917614E+02  0.47000000000E+01 0. -1.
         -5    1    4    4    0  502  0.19444432333E+02  0.15572245453E+02 -0.80038856565E+03  0.80078993925E+03  0.47000000000E+01 0. -1.
          5    1    5    5  503    0 -0.58586108799E+02 -0.22653491240E+02 -0.65059720887E+03  0.65363929732E+03  0.47000000000E+01 0.  1.
         -5    1    5    5    0  503  0.49421961803E+02  0.32407338185E+02 -0.91671284704E+03  0.91862794417E+03  0.47000000000E+01 0.  1.
<mgrwt>
<rscale>  0 0.26394987E+03</rscale>
<asrwt>0</asrwt>
<pdfrwt beam="1">  1        2 0.37119035E+00 0.26394987E+03</pdfrwt>
<pdfrwt beam="2">  1       -2 0.11106047E-02 0.26394987E+03</pdfrwt>
<totfact> 0.81892485E+03</totfact>
</mgrwt>
</event>
<event>
 9    1  0.8175317E-001  0.2713853E+03  0.7818608E-02  0.1100489E+00
         -2   -1    0    0    0  501 -0.00000000000E+00  0.00000000000E+00  0.39501222922E+02  0.39501222922E+02  0.00000000000E+00 0. -1.
          2   -1    0    0  501    0  0.00000000000E+00 -0.00000000000E+00 -0.46612455319E+03  0.46612455319E+03  0.00000000000E+00 0. -1.
         35    2    1    2    0    0  0.00000000000E+00  0.35527136788E-14 -0.42662333027E+03  0.50562577611E+03  0.27138526036E+03 0.  0.
         25    2    3    3    0    0  0.49547519642E+02  0.55335552101E+00 -0.24841539215E+03  0.28278688701E+03  0.12570979877E+03 0.  0.
         25    2    3    3    0    0 -0.49547519642E+02 -0.55335552101E+00 -0.17820793812E+03  0.22283888910E+03  0.12427324080E+03 0.  0.
          5    1    4    4  502    0  0.86634985142E+02  0.22128938029E+02 -0.19109463724E+03  0.21103213246E+03  0.47000000000E+01 0.  1.
         -5    1    4    4    0  502 -0.37087465500E+02 -0.21575582508E+02 -0.57320754902E+02  0.71754754548E+02  0.47000000000E+01 0.  1.
          5    1    5    5  503    0  0.40026094642E+02  0.13265584449E+02 -0.66926196958E+02  0.79241843885E+02  0.47000000000E+01 0. -1.
         -5    1    5    5    0  503 -0.89573614283E+02 -0.13818939970E+02 -0.11128174116E+03  0.14359704521E+03  0.47000000000E+01 0. -1.
<mgrwt>
<rscale>  0 0.27138526E+03</rscale>
<asrwt>0</asrwt>
<pdfrwt beam="1">  1        2 0.71711470E-01 0.27138526E+03</pdfrwt>
<pdfrwt beam="2">  1       -2 0.60771112E-02 0.27138526E+03</pdfrwt>
<totfact> 0.97094671E+03</totfact>
</mgrwt>
</event>
<event>
 9    1  0.8175317E-001  0.2779014E+03  0.7818608E-02  0.1096841E+00
          2   -1    0    0  501    0  0.00000000000E+00  0.00000000000E+00  0.19021359614E+03  0.19021359614E+03  0.00000000000E+00 0.  1.
         -2   -1    0    0    0  501 -0.00000000000E+00 -0.00000000000E+00 -0.10150326547E+03  0.10150326547E+03  0.00000000000E+00 0.  1.
         35    2    1    2    0    0  0.00000000000E+00  0.00000000000E+00  0.88710330672E+02  0.29171686161E+03  0.27790142962E+03 0.  0.
         25    2    3    3    0    0 -0.45731020609E+02 -0.39024066806E+02  0.68510052573E+02  0.15299360852E+03  0.12287885460E+03 0.  0.
         25    2    3    3    0    0  0.45731020609E+02  0.39024066806E+02  0.20200278099E+02  0.13872325310E+03  0.12337700628E+03 0.  0.
          5    1    4    4  502    0 -0.37737330188E+02 -0.52230731789E+02 -0.16323745153E+02  0.66638653113E+02  0.47000000000E+01 0. -1.
         -5    1    4    4    0  502 -0.79936904206E+01  0.13206664983E+02  0.84833797726E+02  0.86354955406E+02  0.47000000000E+01 0. -1.
          5    1    5    5  503    0  0.67186692353E+02 -0.45586166592E+01 -0.25211261736E+02  0.72059214078E+02  0.47000000000E+01 0. -1.
         -5    1    5    5    0  503 -0.21455671744E+02  0.43582683465E+02  0.45411539835E+02  0.66664039018E+02  0.47000000000E+01 0. -1.
<mgrwt>
<rscale>  0 0.27790143E+03</rscale>
<asrwt>0</asrwt>
<pdfrwt beam="1">  1        2 0.29263630E-01 0.27790143E+03</pdfrwt>
<pdfrwt beam="2">  1       -2 0.15615887E-01 0.27790143E+03</pdfrwt>
<totfact> 0.57312364E+03</totfact>
</mgrwt>
</event>
<event>
 9    1  0.8175317E-001  0.2733832E+03  0.7818608E-02  0.1099359E+00
         -1   -1    0    0    0  501 -0.00000000000E+00  0.00000000000E+00  0.94207346699E+02  0.94207346699E+02  0.00000000000E+00 0.  1.
          1   -1    0    0  501    0  0.00000000000E+00 -0.00000000000E+00 -0.19833484603E+03  0.19833484603E+03  0.00000000000E+00 0.  1.
         35    2    1    2    0    0  0.35527136788E-14  0.00000000000E+00 -0.10412749933E+03  0.29254219273E+03  0.27338324456E+03 0.  0.
         25    2    3    3    0    0 -0.27949049723E+02  0.45508096866E+02 -0.37280176386E+02  0.14060961922E+03  0.12461587862E+03 0.  0.
         25    2    3    3    0    0  0.27949049723E+02 -0.45508096866E+02 -0.66847322941E+02  0.15193257351E+03  0.12555001413E+03 0.  0.
          5    1    4    4  502    0  0.65056891370E+01  0.14805329134E+02 -0.77441549398E+02  0.79251532068E+02  0.47000000000E+01 0.  1.
         -5    1    4    4    0  502 -0.34454738860E+02  0.30702767732E+02  0.40161373012E+02  0.61358087149E+02  0.47000000000E+01 0.  1.
          5    1    5    5  503    0 -0.14570921256E+02 -0.50875679657E+02  0.18545218834E+02  0.56273098976E+02  0.47000000000E+01 0.  1.
         -5    1    5    5    0  503  0.42519970980E+02  0.53675827912E+01 -0.85392541775E+02  0.95659474533E+02  0.47000000000E+01 0.  1.
<mgrwt>
<rscale>  0 0.27338324E+03</rscale>
<asrwt>0</asrwt>
<pdfrwt beam="1">  1        1 0.30513053E-01 0.27338324E+03</pdfrwt>
<pdfrwt beam="2">  1       -1 0.14493438E-01 0.27338324E+03</pdfrwt>
<totfact> 0.49971735E+03</totfact>
</mgrwt>
</event>
<event>
 9    1  0.8175317E-001  0.2748275E+03  0.7818608E-02  0.1098548E+00
          2   -1    0    0  501    0  0.00000000000E+00  0.00000000000E+00  0.79071075184E+03  0.79071075184E+03  0.00000000000E+00 0. -1.
         -2   -1    0    0    0  501 -0.00000000000E+00 -0.00000000000E+00 -0.23880466552E+02  0.23880466552E+02  0.00000000000E+00 0. -1.
         35    2    1    2    0    0 -0.14210854715E-13  0.00000000000E+00  0.76683028528E+03  0.81459121839E+03  0.27482752163E+03 0.  0.
         25    2    3    3    0    0  0.34881575786E+02  0.26399007145E+02  0.29219303692E+03  0.32059492403E+03  0.12446165106E+03 0.  0.
         25    2    3    3    0    0 -0.34881575786E+02 -0.26399007145E+02  0.47463724837E+03  0.49399629436E+03  0.12976204912E+03 0.  0.
          5    1    4    4  502    0  0.79649018231E+02  0.32202374568E+02  0.17770435978E+03  0.19743831573E+03  0.47000000000E+01 0.  1.
         -5    1    4    4    0  502 -0.44767442445E+02 -0.58033674231E+01  0.11448867714E+03  0.12315660831E+03  0.47000000000E+01 0.  1.
          5    1    5    5  503    0 -0.60542804016E+02  0.14718753732E+01  0.97102828314E+02  0.11453666139E+03  0.47000000000E+01 0.  1.
         -5    1    5    5    0  503  0.25661228230E+02 -0.27870882518E+02  0.37753442005E+03  0.37945963297E+03  0.47000000000E+01 0.  1.
<mgrwt>
<rscale>  0 0.27482752E+03</rscale>
<asrwt>0</asrwt>
<pdfrwt beam="1">  1        2 0.12164779E+00 0.27482752E+03</pdfrwt>
<pdfrwt beam="2">  1       -2 0.36739185E-02 0.27482752E+03</pdfrwt>
<totfact> 0.11213055E+04</totfact>
</mgrwt>
</event>
<event>
 9    1  0.8175317E-001  0.2680369E+03  0.7818608E-02  0.1102408E+00
          2   -1    0    0  501    0  0.00000000000E+00  0.00000000000E+00  0.43956346882E+03  0.43956346882E+03  0.00000000000E+00 0.  1.
         -2   -1    0    0    0  501 -0.00000000000E+00 -0.00000000000E+00 -0.40860853423E+02  0.40860853423E+02  0.00000000000E+00 0.  1.
         35    2    1    2    0    0  0.71054273576E-14  0.00000000000E+00  0.39870261540E+03  0.48042432224E+03  0.26803685171E+03 0.  0.
         25    2    3    3    0    0 -0.59614321399E+02 -0.12932304615E+02  0.20126807821E+03  0.24263199136E+03  0.12099724007E+03 0.  0.
         25    2    3    3    0    0  0.59614321399E+02  0.12932304615E+02  0.19743453718E+03  0.23779233088E+03  0.11765918721E+03 0.  0.
          5    1    4    4  502    0 -0.93217558848E+02 -0.27698166329E+02  0.13101237254E+03  0.16322693851E+03  0.47000000000E+01 0. -1.
         -5    1    4    4    0  502  0.33603237448E+02  0.14765861714E+02  0.70255705670E+02  0.79405052852E+02  0.47000000000E+01 0. -1.
          5    1    5    5  503    0  0.15450039289E+02  0.53713186544E+02  0.15281177475E+03  0.16278003141E+03  0.47000000000E+01 0. -1.
         -5    1    5    5    0  503  0.44164282111E+02 -0.40780881929E+02  0.44622762434E+02  0.75012299474E+02  0.47000000000E+01 0. -1.
<mgrwt>
<rscale>  0 0.26803685E+03</rscale>
<asrwt>0</asrwt>
<pdfrwt beam="1">  1        2 0.67625145E-01 0.26803685E+03</pdfrwt>
<pdfrwt beam="2">  1       -2 0.62862855E-02 0.26803685E+03</pdfrwt>
<totfact> 0.98279644E+03</totfact>
</mgrwt>
</event>
<event>
 9    1  0.8175317E-001  0.2735353E+03  0.7818608E-02  0.1099273E+00
          2   -1    0    0  501    0  0.00000000000E+00  0.00000000000E+00  0.55801940436E+03  0.55801940436E+03  0.00000000000E+00 0.  1.
         -2   -1    0    0    0  501 -0.00000000000E+00 -0.00000000000E+00 -0.33521028310E+02  0.33521028310E+02  0.00000000000E+00 0.  1.
         35    2    1    2    0    0  0.35527136788E-14  0.35527136788E-14  0.52449837605E+03  0.59154043267E+03  0.27353525733E+03 0.  0.
         25    2    3    3    0    0 -0.73164340739E+01 -0.16874748433E+02  0.37919298867E+03  0.40019429153E+03  0.12660908725E+03 0.  0.
         25    2    3    3    0    0  0.73164340739E+01  0.16874748433E+02  0.14530538738E+03  0.19134614114E+03  0.12313164819E+03 0.  0.
          5    1    4    4  502    0 -0.27583340522E+02  0.80525655434E+01  0.36253410227E+03  0.36370145696E+03  0.47000000000E+01 0. -1.
         -5    1    4    4    0  502  0.20266906448E+02 -0.24927313976E+02  0.16658886405E+02  0.36492834574E+02  0.47000000000E+01 0. -1.
          5    1    5    5  503    0 -0.14299360673E+02 -0.36449498538E+02  0.12348595441E+03  0.12962989083E+03  0.47000000000E+01 0.  1.
         -5    1    5    5    0  503  0.21615794747E+02  0.53324246971E+02  0.21819432970E+02  0.61716250313E+02  0.47000000000E+01 0.  1.
<mgrwt>
<rscale>  0 0.27353526E+03</rscale>
<asrwt>0</asrwt>
<pdfrwt beam="1">  1        2 0.85849132E-01 0.27353526E+03</pdfrwt>
<pdfrwt beam="2">  1       -2 0.51570817E-02 0.27353526E+03</pdfrwt>
<totfact> 0.10198252E+04</totfact>
</mgrwt>
</event>
<event>
 9    1  0.8175317E-001  0.2707126E+03  0.7818608E-02  0.1100872E+00
         -2   -1    0    0    0  501 -0.00000000000E+00  0.00000000000E+00  0.15809435679E+02  0.15809435679E+02  0.00000000000E+00 0.  1.
          2   -1    0    0  501    0  0.00000000000E+00 -0.00000000000E+00 -0.11588859453E+04  0.11588859453E+04  0.00000000000E+00 0.  1.
         35    2    1    2    0    0  0.17763568394E-14  0.17763568394E-14 -0.11430765096E+04  0.11746953809E+04  0.27071263591E+03 0.  0.
         25    2    3    3    0    0 -0.28711069431E+01  0.39712826553E+01 -0.79662283112E+03  0.80633793925E+03  0.12469532017E+03 0.  0.
         25    2    3    3    0    0  0.28711069431E+01 -0.39712826553E+01 -0.34645367847E+03  0.36835744170E+03  0.12503215261E+03 0.  0.
          5    1    4    4  502    0  0.18383646338E+02  0.43064196495E+02 -0.13070579769E+03  0.13891932559E+03  0.47000000000E+01 0.  1.
         -5    1    4    4    0  502 -0.21254753281E+02 -0.39092913840E+02 -0.66591703343E+03  0.66741861366E+03  0.47000000000E+01 0.  1.
          5    1    5    5  503    0  0.68859468470E+01  0.15061108943E+02 -0.34787064039E+03  0.34829631884E+03  0.47000000000E+01 0.  1.
         -5    1    5    5    0  503 -0.40148399038E+01 -0.19032391599E+02  0.14169619217E+01  0.20061122863E+02  0.47000000000E+01 0.  1.
<mgrwt>
<rscale>  0 0.27071264E+03</rscale>
<asrwt>0</asrwt>
<pdfrwt beam="1">  1        2 0.17829016E+00 0.27071264E+03</pdfrwt>
<pdfrwt beam="2">  1       -2 0.24322206E-02 0.27071264E+03</pdfrwt>
<totfact> 0.12188245E+04</totfact>
</mgrwt>
</event>
<event>
 8    1  0.8175317E-001  0.3419417E+03  0.7818608E-02  0.1065972E+00
         -1   -1    0    0    0  501 -0.00000000000E+00  0.00000000000E+00  0.21891114564E+03  0.21891114564E+03  0.00000000000E+00 0.  1.
          1   -1    0    0  501    0  0.00000000000E+00 -0.00000000000E+00 -0.13352922437E+03  0.13352922437E+03  0.00000000000E+00 0.  1.
         25    2    1    2    0    0  0.41741834929E+02  0.69648306219E+02 -0.43924287783E+02  0.15546888453E+03  0.12509182090E+03 0.  0.
         25    2    1    2    0    0 -0.41741834929E+02 -0.69648306219E+02  0.12930620906E+03  0.19697148549E+03  0.12443634136E+03 0.  0.
          5    1    3    3  502    0 -0.23806979678E+01 -0.34818624564E+02 -0.15428561526E+02  0.38446519350E+02  0.47000000000E+01 0.  1.
         -5    1    3    3    0  502  0.44122532897E+02  0.10446693078E+03 -0.28495726257E+02  0.11702236518E+03  0.47000000000E+01 0.  1.
          5    1    4    4  503    0 -0.64972511162E+02 -0.71525213425E+02  0.14058514526E+03  0.17065625224E+03  0.47000000000E+01 0.  1.
         -5    1    4    4    0  503  0.23230676233E+02  0.18769072068E+01 -0.11278936201E+02  0.26315233245E+02  0.47000000000E+01 0.  1.
<mgrwt>
<rscale>  0 0.34194172E+03</rscale>
<asrwt>0</asrwt>
<pdfrwt beam="1">  1        1 0.20542958E-01 0.34194172E+03</pdfrwt>
<pdfrwt beam="2">  1       -1 0.33678638E-01 0.34194172E+03</pdfrwt>
<totfact> 0.20692775E+03</totfact>
</mgrwt>
</event>
<event>
 9    1  0.8175317E-001  0.2755225E+03  0.7818608E-02  0.1098160E+00
          2   -1    0    0  501    0  0.00000000000E+00  0.00000000000E+00  0.36139546086E+02  0.36139546086E+02  0.00000000000E+00 0. -1.
         -2   -1    0    0    0  501 -0.00000000000E+00 -0.00000000000E+00 -0.52513547384E+03  0.52513547384E+03  0.00000000000E+00 0. -1.
         35    2    1    2    0    0  0.35527136788E-14  0.00000000000E+00 -0.48899592776E+03  0.56127501993E+03  0.27552246847E+03 0.  0.
         25    2    3    3    0    0  0.23929300647E+02 -0.48931539220E+02 -0.27389723573E+03  0.30648132143E+03  0.12627033572E+03 0.  0.
         25    2    3    3    0    0 -0.23929300647E+02  0.48931539220E+02 -0.21509869202E+03  0.25479369850E+03  0.12524166449E+03 0.  0.
          5    1    4    4  502    0  0.43197874044E+02  0.14043678080E+02 -0.20889631939E+03  0.21382947288E+03  0.47000000000E+01 0.  1.
         -5    1    4    4    0  502 -0.19268573397E+02 -0.62975217300E+02 -0.65000916344E+02  0.92651848553E+02  0.47000000000E+01 0.  1.
          5    1    5    5  503    0 -0.33539963931E+02  0.29408095033E+02 -0.22571568055E+03  0.23012914565E+03  0.47000000000E+01 0. -1.
         -5    1    5    5    0  503  0.96106632838E+01  0.19523444187E+02  0.10616988525E+02  0.24664552845E+02  0.47000000000E+01 0. -1.
<mgrwt>
<rscale>  0 0.27552247E+03</rscale>
<asrwt>0</asrwt>
<pdfrwt beam="1">  1        2 0.55599305E-02 0.27552247E+03</pdfrwt>
<pdfrwt beam="2">  1       -2 0.80790067E-01 0.27552247E+03</pdfrwt>
<totfact> 0.19001511E+03</totfact>
</mgrwt>
</event>
<event>
 9    1  0.8175317E-001  0.2795646E+03  0.7818608E-02  0.1095927E+00
         -1   -1    0    0    0  501 -0.00000000000E+00  0.00000000000E+00  0.19562255433E+02  0.19562255433E+02  0.00000000000E+00 0.  1.
          1   -1    0    0  501    0  0.00000000000E+00 -0.00000000000E+00 -0.99881589191E+03  0.99881589191E+03  0.00000000000E+00 0.  1.
         35    2    1    2    0    0  0.00000000000E+00 -0.71054273576E-14 -0.97925363647E+03  0.10183781473E+04  0.27956460153E+03 0.  0.
         25    2    3    3    0    0 -0.45030883527E+02  0.23698537904E+02 -0.35519130075E+03  0.37989042351E+03  0.12476567066E+03 0.  0.
         25    2    3    3    0    0  0.45030883527E+02 -0.23698537904E+02 -0.62406233572E+03  0.63848772382E+03  0.12499349360E+03 0.  0.
          5    1    4    4  502    0  0.19536626449E+02  0.69832081224E+01 -0.30888406639E+01  0.21495950906E+02  0.47000000000E+01 0.  1.
         -5    1    4    4    0  502 -0.64567509976E+02  0.16715329781E+02 -0.35210246009E+03  0.35839447261E+03  0.47000000000E+01 0.  1.
          5    1    5    5  503    0  0.54962903333E+02 -0.47186979454E+02 -0.18607847290E+03  0.19973687654E+03  0.47000000000E+01 0.  1.
         -5    1    5    5    0  503 -0.99320198062E+01  0.23488441551E+02 -0.43798386282E+03  0.43875084728E+03  0.47000000000E+01 0.  1.
<mgrwt>
<rscale>  0 0.27956460E+03</rscale>
<asrwt>0</asrwt>
<pdfrwt beam="1">  1        1 0.15366404E+00 0.27956460E+03</pdfrwt>
<pdfrwt beam="2">  1       -1 0.30095767E-02 0.27956460E+03</pdfrwt>
<totfact> 0.60146212E+03</totfact>
</mgrwt>
</event>
<event>
 9    1  0.8175317E-001  0.2701064E+03  0.7818608E-02  0.1101219E+00
          2   -1    0    0  501    0  0.00000000000E+00  0.00000000000E+00  0.54626038024E+03  0.54626038024E+03  0.00000000000E+00 0.  1.
         -2   -1    0    0    0  501 -0.00000000000E+00 -0.00000000000E+00 -0.33389499382E+02  0.33389499382E+02  0.00000000000E+00 0.  1.
         35    2    1    2    0    0 -0.26645352591E-14 -0.71054273576E-14  0.51287088085E+03  0.57964987962E+03  0.27010635408E+03 0.  0.
         25    2    3    3    0    0  0.76157214067E+01 -0.26925729871E+02  0.16724738592E+03  0.21094037672E+03  0.12546378080E+03 0.  0.
         25    2    3    3    0    0 -0.76157214067E+01  0.26925729871E+02  0.34562349494E+03  0.36870950290E+03  0.12533197171E+03 0.  0.
          5    1    4    4  502    0 -0.43996557738E+01 -0.32793435225E+02 -0.86116398417E+01  0.34511109886E+02  0.47000000000E+01 0.  1.
         -5    1    4    4    0  502  0.12015377180E+02  0.58677053541E+01  0.17585902576E+03  0.17642926683E+03  0.47000000000E+01 0.  1.
          5    1    5    5  503    0  0.48886901518E+02 -0.21521175487E+02  0.13401967866E+03  0.14434837859E+03  0.47000000000E+01 0. -1.
         -5    1    5    5    0  503 -0.56502622925E+02  0.48446905358E+02  0.21160381628E+03  0.22436112431E+03  0.47000000000E+01 0. -1.
<mgrwt>
<rscale>  0 0.27010635E+03</rscale>
<asrwt>0</asrwt>
<pdfrwt beam="1">  1        2 0.84040052E-01 0.27010635E+03</pdfrwt>
<pdfrwt beam="2">  1       -2 0.51368465E-02 0.27010635E+03</pdfrwt>
<totfact> 0.10506174E+04</totfact>
</mgrwt>
</event>
<event>
 9    1  0.8175317E-001  0.2745961E+03  0.7818608E-02  0.1098678E+00
          1   -1    0    0  501    0  0.00000000000E+00  0.00000000000E+00  0.61165077984E+03  0.61165077984E+03  0.00000000000E+00 0. -1.
         -1   -1    0    0    0  501 -0.00000000000E+00 -0.00000000000E+00 -0.30819464576E+02  0.30819464576E+02  0.00000000000E+00 0. -1.
         35    2    1    2    0    0  0.00000000000E+00 -0.71054273576E-14  0.58083131526E+03  0.64247024441E+03  0.27459606364E+03 0.  0.
         25    2    3    3    0    0  0.33272572094E+02  0.13392975999E+02  0.18651605178E+03  0.22715388750E+03  0.12459620850E+03 0.  0.
         25    2    3    3    0    0 -0.33272572094E+02 -0.13392975999E+02  0.39431526348E+03  0.41531635692E+03  0.12536631705E+03 0.  0.
          5    1    4    4  502    0 -0.25411596638E+02 -0.35566104797E+02  0.11196041741E+03  0.12028267590E+03  0.47000000000E+01 0. -1.
         -5    1    4    4    0  502  0.58684168732E+02  0.48959080795E+02  0.74555634373E+02  0.10687121160E+03  0.47000000000E+01 0. -1.
          5    1    5    5  503    0 -0.41089716643E+02  0.50641870550E+02  0.21300416882E+03  0.22281344170E+03  0.47000000000E+01 0.  1.
         -5    1    5    5    0  503  0.78171445485E+01 -0.64034846549E+02  0.18131109466E+03  0.19250291522E+03  0.47000000000E+01 0.  1.
<mgrwt>
<rscale>  0 0.27459606E+03</rscale>
<asrwt>0</asrwt>
<pdfrwt beam="1">  1        1 0.94100111E-01 0.27459606E+03</pdfrwt>
<pdfrwt beam="2">  1       -1 0.47414565E-02 0.27459606E+03</pdfrwt>
<totfact> 0.65020608E+03</totfact>
</mgrwt>
</event>
<event>
 9    1  0.8175317E-001  0.2985322E+03  0.7818608E-02  0.1085977E+00
          2   -1    0    0  501    0  0.00000000000E+00  0.00000000000E+00  0.83550099832E+03  0.83550099832E+03  0.00000000000E+00 0.  1.
         -2   -1    0    0    0  501 -0.00000000000E+00 -0.00000000000E+00 -0.26667073362E+02  0.26667073362E+02  0.00000000000E+00 0.  1.
         35    2    1    2    0    0 -0.71054273576E-14  0.00000000000E+00  0.80883392496E+03  0.86216807168E+03  0.29853218531E+03 0.  0.
         25    2    3    3    0    0 -0.34592167847E+02  0.67328683724E+02  0.34283040303E+03  0.37368554034E+03  0.12797823286E+03 0.  0.
         25    2    3    3    0    0  0.34592167847E+02 -0.67328683724E+02  0.46600352193E+03  0.48848253135E+03  0.12540387256E+03 0.  0.
          5    1    4    4  502    0  0.24445266702E+02 -0.27210813672E+02  0.76088728940E+02  0.84555213420E+02  0.47000000000E+01 0.  1.
         -5    1    4    4    0  502 -0.59037434548E+02  0.94539497396E+02  0.26674167409E+03  0.28913032692E+03  0.47000000000E+01 0.  1.
          5    1    5    5  503    0 -0.31320908269E+02  0.19611608386E+02  0.11474301073E+03  0.12063856344E+03  0.47000000000E+01 0. -1.
         -5    1    5    5    0  503  0.65913076116E+02 -0.86940292110E+02  0.35126051120E+03  0.36784396790E+03  0.47000000000E+01 0. -1.
<mgrwt>
<rscale>  0 0.29853219E+03</rscale>
<asrwt>0</asrwt>
<pdfrwt beam="1">  1        2 0.12853860E+00 0.29853219E+03</pdfrwt>
<pdfrwt beam="2">  1       -2 0.41026273E-02 0.29853219E+03</pdfrwt>
<totfact> 0.88721839E+03</totfact>
</mgrwt>
</event>
<event>
 9    1  0.8175317E-001  0.2845439E+03  0.7818608E-02  0.1093233E+00
          2   -1    0    0  501    0  0.00000000000E+00  0.00000000000E+00  0.43955786968E+03  0.43955786968E+03  0.00000000000E+00 0. -1.
         -2   -1    0    0    0  501 -0.00000000000E+00 -0.00000000000E+00 -0.46049239386E+02  0.46049239386E+02  0.00000000000E+00 0. -1.
         35    2    1    2    0    0  0.00000000000E+00  0.71054273576E-14  0.39350863029E+03  0.48560710907E+03  0.28454388459E+03 0.  0.
         25    2    3    3    0    0 -0.56913532053E+02 -0.29653067115E+02  0.15808478813E+03  0.21158268593E+03  0.12513184337E+03 0.  0.
         25    2    3    3    0    0  0.56913532053E+02  0.29653067115E+02  0.23542384216E+03  0.27402442314E+03  0.12468578306E+03 0.  0.
          5    1    4    4  502    0  0.20717239954E+02 -0.79625732093E+01 -0.10243068843E+02  0.24892108443E+02  0.47000000000E+01 0.  1.
         -5    1    4    4    0  502 -0.77630772007E+02 -0.21690493905E+02  0.16832785697E+03  0.18669057749E+03  0.47000000000E+01 0.  1.
          5    1    5    5  503    0  0.60787170635E+02  0.63615157313E+02  0.95629156457E+02  0.13003458739E+03  0.47000000000E+01 0.  1.
         -5    1    5    5    0  503 -0.38736385814E+01 -0.33962090199E+02  0.13979468571E+03  0.14398983575E+03  0.47000000000E+01 0.  1.
<mgrwt>
<rscale>  0 0.28454388E+03</rscale>
<asrwt>0</asrwt>
<pdfrwt beam="1">  1        2 0.67624285E-01 0.28454388E+03</pdfrwt>
<pdfrwt beam="2">  1       -2 0.70844987E-02 0.28454388E+03</pdfrwt>
<totfact> 0.81899790E+03</totfact>
</mgrwt>
</event>
<event>
 9    1  0.8175317E-001  0.2778897E+03  0.7818608E-02  0.1096847E+00
          3   -1    0    0  501    0  0.00000000000E+00  0.00000000000E+00  0.66041923777E+02  0.66041923777E+02  0.00000000000E+00 0.  1.
         -3   -1    0    0    0  501 -0.00000000000E+00 -0.00000000000E+00 -0.29232439990E+03  0.29232439990E+03  0.00000000000E+00 0.  1.
         35    2    1    2    0    0  0.35527136788E-14  0.00000000000E+00 -0.22628247612E+03  0.35836632368E+03  0.27788965966E+03 0.  0.
         25    2    3    3    0    0  0.19055399378E+02  0.15347538175E+02 -0.41496494791E+02  0.13381020985E+03  0.12483812721E+03 0.  0.
         25    2    3    3    0    0 -0.19055399378E+02 -0.15347538175E+02 -0.18478598133E+03  0.22455611383E+03  0.12522353687E+03 0.  0.
          5    1    4    4  502    0  0.33642026914E+01 -0.23465608799E+02 -0.75751541738E+02  0.79513135593E+02  0.47000000000E+01 0.  1.
         -5    1    4    4    0  502  0.15691196687E+02  0.38813146975E+02  0.34255046947E+02  0.54297074257E+02  0.47000000000E+01 0.  1.
          5    1    5    5  503    0 -0.45868368873E+02 -0.13250120976E+02 -0.11767537902E+02  0.49396739946E+02  0.47000000000E+01 0.  1.
         -5    1    5    5    0  503  0.26812969495E+02 -0.20974171997E+01 -0.17301844343E+03  0.17515937388E+03  0.47000000000E+01 0.  1.
<mgrwt>
<rscale>  0 0.27788966E+03</rscale>
<asrwt>0</asrwt>
<pdfrwt beam="1">  1        3 0.10160296E-01 0.27788966E+03</pdfrwt>
<pdfrwt beam="2">  1       -3 0.44972985E-01 0.27788966E+03</pdfrwt>
<totfact> 0.90253215E+02</totfact>
</mgrwt>
</event>
<event>
 9    1  0.8175317E-001  0.2763778E+03  0.7818608E-02  0.1097684E+00
         -2   -1    0    0    0  501 -0.00000000000E+00  0.00000000000E+00  0.22273559552E+03  0.22273559552E+03  0.00000000000E+00 0. -1.
          2   -1    0    0  501    0  0.00000000000E+00 -0.00000000000E+00 -0.85734705289E+02  0.85734705289E+02  0.00000000000E+00 0. -1.
         35    2    1    2    0    0 -0.10658141036E-13  0.35527136788E-14  0.13700089023E+03  0.30847030081E+03  0.27637778955E+03 0.  0.
         25    2    3    3    0    0 -0.27244984538E+02  0.22539400276E+02  0.16215555366E+02  0.13080578333E+03  0.12488752928E+03 0.  0.
         25    2    3    3    0    0  0.27244984538E+02 -0.22539400276E+02  0.12078533486E+03  0.17766451747E+03  0.12540043821E+03 0.  0.
          5    1    4    4  502    0 -0.20330434729E+02  0.40623884143E+02 -0.46395065428E+02  0.65101602402E+02  0.47000000000E+01 0.  1.
         -5    1    4    4    0  502 -0.69145498088E+01 -0.18084483867E+02  0.62610620794E+02  0.65704180932E+02  0.47000000000E+01 0.  1.
          5    1    5    5  503    0 -0.46296460772E+02  0.14279418649E+01  0.20349495652E+02  0.50809381725E+02  0.47000000000E+01 0.  1.
         -5    1    5    5    0  503  0.73541445310E+02 -0.23967342141E+02  0.10043583921E+03  0.12685513575E+03  0.47000000000E+01 0.  1.
<mgrwt>
<rscale>  0 0.27637779E+03</rscale>
<asrwt>0</asrwt>
<pdfrwt beam="1">  1        2 0.13189955E-01 0.27637779E+03</pdfrwt>
<pdfrwt beam="2">  1       -2 0.34267015E-01 0.27637779E+03</pdfrwt>
<totfact> 0.36206764E+03</totfact>
</mgrwt>
</event>
<event>
 9    1  0.8175317E-001  0.2777384E+03  0.7818608E-02  0.1096931E+00
         -2   -1    0    0    0  501 -0.00000000000E+00  0.00000000000E+00  0.87307714641E+01  0.87307714641E+01  0.00000000000E+00 0. -1.
          2   -1    0    0  501    0  0.00000000000E+00 -0.00000000000E+00 -0.22088143598E+04  0.22088143598E+04  0.00000000000E+00 0. -1.
         35    2    1    2    0    0  0.71054273576E-14  0.00000000000E+00 -0.22000835883E+04  0.22175451312E+04  0.27773839045E+03 0.  0.
         25    2    3    3    0    0 -0.42914658077E+02 -0.38926553734E+02 -0.85615711954E+03  0.86660268684E+03  0.12098867322E+03 0.  0.
         25    2    3    3    0    0  0.42914658077E+02  0.38926553734E+02 -0.13439264688E+04  0.13509424444E+04  0.12470040150E+03 0.  0.
          5    1    4    4  502    0 -0.57746863785E+02  0.45732672337E+01 -0.18631058879E+03  0.19516490603E+03  0.47000000000E+01 0.  1.
         -5    1    4    4    0  502  0.14832205708E+02 -0.43499820968E+02 -0.66984653075E+03  0.67143778082E+03  0.47000000000E+01 0.  1.
          5    1    5    5  503    0  0.68697159676E+02 -0.21087185859E+02 -0.69982817594E+03  0.70352365632E+03  0.47000000000E+01 0. -1.
         -5    1    5    5    0  503 -0.25782501599E+02  0.60013739593E+02 -0.64409829282E+03  0.64741878807E+03  0.47000000000E+01 0. -1.
<mgrwt>
<rscale>  0 0.27773839E+03</rscale>
<asrwt>0</asrwt>
<pdfrwt beam="1">  1        2 0.33981762E+00 0.27773839E+03</pdfrwt>
<pdfrwt beam="2">  1       -2 0.13431955E-02 0.27773839E+03</pdfrwt>
<totfact> 0.79881085E+03</totfact>
</mgrwt>
</event>
<event>
 9    1  0.8175317E-001  0.2745889E+03  0.7818608E-02  0.1098682E+00
         -2   -1    0    0    0  501 -0.00000000000E+00  0.00000000000E+00  0.10688221634E+03  0.10688221634E+03  0.00000000000E+00 0. -1.
          2   -1    0    0  501    0  0.00000000000E+00 -0.00000000000E+00 -0.17636015020E+03  0.17636015020E+03  0.00000000000E+00 0. -1.
         35    2    1    2    0    0  0.00000000000E+00  0.35527136788E-14 -0.69477933854E+02  0.28324236654E+03  0.27458888344E+03 0.  0.
         25    2    3    3    0    0 -0.25271676028E+02  0.18888140727E+02  0.13269877911E+02  0.13025989770E+03  0.12568266317E+03 0.  0.
         25    2    3    3    0    0  0.25271676028E+02 -0.18888140727E+02 -0.82747811765E+02  0.15298246883E+03  0.12474380125E+03 0.  0.
          5    1    4    4  502    0 -0.59357896517E+02  0.16394189381E+02  0.50298788768E+02  0.79650407883E+02  0.47000000000E+01 0.  1.
         -5    1    4    4    0  502  0.34086220489E+02  0.24939513457E+01 -0.37028910857E+02  0.50609489819E+02  0.47000000000E+01 0.  1.
          5    1    5    5  503    0  0.58268083872E+02  0.31434894767E+02 -0.30063463803E+02  0.72864422477E+02  0.47000000000E+01 0. -1.
         -5    1    5    5    0  503 -0.32996407844E+02 -0.50323035494E+02 -0.52684347962E+02  0.80118046357E+02  0.47000000000E+01 0. -1.
<mgrwt>
<rscale>  0 0.27458888E+03</rscale>
<asrwt>0</asrwt>
<pdfrwt beam="1">  1        2 0.27132331E-01 0.27458888E+03</pdfrwt>
<pdfrwt beam="2">  1       -2 0.16443418E-01 0.27458888E+03</pdfrwt>
<totfact> 0.57145504E+03</totfact>
</mgrwt>
</event>
<event>
 9    1  0.8175317E-001  0.2749732E+03  0.7818608E-02  0.1098467E+00
         -2   -1    0    0    0  501 -0.00000000000E+00  0.00000000000E+00  0.16742751139E+02  0.16742751139E+02  0.00000000000E+00 0. -1.
          2   -1    0    0  501    0  0.00000000000E+00 -0.00000000000E+00 -0.11290001429E+04  0.11290001429E+04  0.00000000000E+00 0. -1.
         35    2    1    2    0    0  0.71054273576E-14  0.00000000000E+00 -0.11122573918E+04  0.11457428941E+04  0.27497322363E+03 0.  0.
         25    2    3    3    0    0  0.44536992916E+02 -0.27034350299E+02 -0.64671330088E+03  0.66039580423E+03  0.12316706086E+03 0.  0.
         25    2    3    3    0    0 -0.44536992916E+02  0.27034350299E+02 -0.46554409092E+03  0.48534708984E+03  0.12694919139E+03 0.  0.
          5    1    4    4  502    0  0.13855060971E+02 -0.53822639408E+02 -0.12271401113E+03  0.13479487288E+03  0.47000000000E+01 0.  1.
         -5    1    4    4    0  502  0.30681931944E+02  0.26788289109E+02 -0.52399928974E+03  0.52560093135E+03  0.47000000000E+01 0.  1.
          5    1    5    5  503    0  0.28025755418E+02  0.14714869118E+01 -0.31439341208E+03  0.31567850070E+03  0.47000000000E+01 0. -1.
         -5    1    5    5    0  503 -0.72562748333E+02  0.25562863387E+02 -0.15115067883E+03  0.16966858914E+03  0.47000000000E+01 0. -1.
<mgrwt>
<rscale>  0 0.27497322E+03</rscale>
<asrwt>0</asrwt>
<pdfrwt beam="1">  1        2 0.17369237E+00 0.27497322E+03</pdfrwt>
<pdfrwt beam="2">  1       -2 0.25758072E-02 0.27497322E+03</pdfrwt>
<totfact> 0.11656277E+04</totfact>
</mgrwt>
</event>
<event>
 9    1  0.8175317E-001  0.2745809E+03  0.7818608E-02  0.1098686E+00
         -2   -1    0    0    0  501 -0.00000000000E+00  0.00000000000E+00  0.35260983543E+02  0.35260983543E+02  0.00000000000E+00 0.  1.
          2   -1    0    0  501    0  0.00000000000E+00 -0.00000000000E+00 -0.53454757255E+03  0.53454757255E+03  0.00000000000E+00 0.  1.
         35    2    1    2    0    0 -0.71054273576E-14  0.00000000000E+00 -0.49928658901E+03  0.56980855609E+03  0.27458094004E+03 0.  0.
         25    2    3    3    0    0  0.29269591937E+02 -0.29039594969E+02 -0.33197446796E+03  0.35711402442E+03  0.12499348772E+03 0.  0.
         25    2    3    3    0    0 -0.29269591937E+02  0.29039594969E+02 -0.16731212105E+03  0.21269453167E+03  0.12468203907E+03 0.  0.
          5    1    4    4  502    0  0.65593007227E+01  0.24924718116E+02 -0.73379159107E+01  0.27206635386E+02  0.47000000000E+01 0. -1.
         -5    1    4    4    0  502  0.22710291215E+02 -0.53964313085E+02 -0.32463655205E+03  0.32990738903E+03  0.47000000000E+01 0. -1.
          5    1    5    5  503    0  0.13497814090E+02  0.44666175843E+02 -0.15950795442E+03  0.16625924267E+03  0.47000000000E+01 0.  1.
         -5    1    5    5    0  503 -0.42767406027E+02 -0.15626580874E+02 -0.78041666297E+01  0.46435289004E+02  0.47000000000E+01 0.  1.
<mgrwt>
<rscale>  0 0.27458094E+03</rscale>
<asrwt>0</asrwt>
<pdfrwt beam="1">  1        2 0.82238080E-01 0.27458094E+03</pdfrwt>
<pdfrwt beam="2">  1       -2 0.54247673E-02 0.27458094E+03</pdfrwt>
<totfact> 0.99156209E+03</totfact>
</mgrwt>
</event>
<event>
 9    1  0.8175317E-001  0.2754709E+03  0.7818608E-02  0.1098189E+00
          1   -1    0    0  501    0  0.00000000000E+00  0.00000000000E+00  0.18076987849E+03  0.18076987849E+03  0.00000000000E+00 0.  1.
         -1   -1    0    0    0  501 -0.00000000000E+00 -0.00000000000E+00 -0.10494589725E+03  0.10494589725E+03  0.00000000000E+00 0.  1.
         35    2    1    2    0    0  0.35527136788E-14  0.00000000000E+00  0.75823981245E+02  0.28571577574E+03  0.27547092110E+03 0.  0.
         25    2    3    3    0    0  0.29580075047E+02  0.43983417083E+02  0.11789026395E+02  0.13657268352E+03  0.12531398535E+03 0.  0.
         25    2    3    3    0    0 -0.29580075047E+02 -0.43983417083E+02  0.64034954850E+02  0.14914309221E+03  0.12382917546E+03 0.  0.
          5    1    4    4  502    0  0.56561169023E+02  0.38442914886E+01 -0.36882729225E+02  0.67796534819E+02  0.47000000000E+01 0.  1.
         -5    1    4    4    0  502 -0.26981093977E+02  0.40139125595E+02  0.48671755620E+02  0.68776148706E+02  0.47000000000E+01 0.  1.
          5    1    5    5  503    0 -0.43361665185E+02  0.93866020053E+01 -0.19711321799E+02  0.48774670802E+02  0.47000000000E+01 0.  1.
         -5    1    5    5    0  503  0.13781590138E+02 -0.53370019089E+02  0.83746276649E+02  0.10036842141E+03  0.47000000000E+01 0.  1.
<mgrwt>
<rscale>  0 0.27547092E+03</rscale>
<asrwt>0</asrwt>
<pdfrwt beam="1">  1        1 0.27810751E-01 0.27547092E+03</pdfrwt>
<pdfrwt beam="2">  1       -1 0.16145523E-01 0.27547092E+03</pdfrwt>
<totfact> 0.47337663E+03</totfact>
</mgrwt>
</event>
<event>
 9    1  0.8175317E-001  0.2724950E+03  0.7818608E-02  0.1099860E+00
         -1   -1    0    0    0  501 -0.00000000000E+00  0.00000000000E+00  0.10844105312E+03  0.10844105312E+03  0.00000000000E+00 0.  1.
          1   -1    0    0  501    0  0.00000000000E+00 -0.00000000000E+00 -0.17118412452E+03  0.17118412452E+03  0.00000000000E+00 0.  1.
         35    2    1    2    0    0  0.00000000000E+00 -0.71054273576E-14 -0.62743071402E+02  0.27962517764E+03  0.27249504025E+03 0.  0.
         25    2    3    3    0    0  0.52836574323E+02 -0.16606204327E+02 -0.41150331482E+02  0.14240298081E+03  0.12457042006E+03 0.  0.
         25    2    3    3    0    0 -0.52836574323E+02  0.16606204327E+02 -0.21592739920E+02  0.13722219683E+03  0.12367786899E+03 0.  0.
          5    1    4    4  502    0  0.53496046911E+02 -0.34906076887E+02  0.28593482726E+02  0.70142273225E+02  0.47000000000E+01 0. -1.
         -5    1    4    4    0  502 -0.65947258838E+00  0.18299872560E+02 -0.69743814208E+02  0.72260707581E+02  0.47000000000E+01 0. -1.
          5    1    5    5  503    0 -0.51914279123E+02 -0.27245915653E+02 -0.56049565719E+02  0.81247006800E+02  0.47000000000E+01 0.  1.
         -5    1    5    5    0  503 -0.92229520016E+00  0.43852119980E+02  0.34456825800E+02  0.55975190034E+02  0.47000000000E+01 0.  1.
<mgrwt>
<rscale>  0 0.27249504E+03</rscale>
<asrwt>0</asrwt>
<pdfrwt beam="1">  1        1 0.26336019E-01 0.27249504E+03</pdfrwt>
<pdfrwt beam="2">  1       -1 0.16683239E-01 0.27249504E+03</pdfrwt>
<totfact> 0.48119063E+03</totfact>
</mgrwt>
</event>
<event>
 9    1  0.8175317E-001  0.2754443E+03  0.7818608E-02  0.1098204E+00
         -2   -1    0    0    0  501 -0.00000000000E+00  0.00000000000E+00  0.60367663351E+02  0.60367663351E+02  0.00000000000E+00 0.  1.
          2   -1    0    0  501    0  0.00000000000E+00 -0.00000000000E+00 -0.31419783779E+03  0.31419783779E+03  0.00000000000E+00 0.  1.
         35    2    1    2    0    0 -0.35527136788E-14  0.00000000000E+00 -0.25383017443E+03  0.37456550114E+03  0.27544429054E+03 0.  0.
         25    2    3    3    0    0 -0.21216955896E+02  0.19181890218E+02 -0.19614353558E+03  0.23397388840E+03  0.12431166386E+03 0.  0.
         25    2    3    3    0    0  0.21216955896E+02 -0.19181890218E+02 -0.57686638851E+02  0.14059161274E+03  0.12498059506E+03 0.  0.
          5    1    4    4  502    0 -0.16199769135E+02 -0.24736874279E+01 -0.20775834315E+03  0.20845664009E+03  0.47000000000E+01 0. -1.
         -5    1    4    4    0  502 -0.50171867611E+01  0.21655577646E+02  0.11614807570E+02  0.25517248305E+02  0.47000000000E+01 0. -1.
          5    1    5    5  503    0  0.66221033553E+02 -0.20186744186E+01 -0.63450427067E+02  0.91855032667E+02  0.47000000000E+01 0. -1.
         -5    1    5    5    0  503 -0.45004077657E+02 -0.17163215799E+02  0.57637882161E+01  0.48736580070E+02  0.47000000000E+01 0. -1.
<mgrwt>
<rscale>  0 0.27544429E+03</rscale>
<asrwt>0</asrwt>
<pdfrwt beam="1">  1        2 0.48338129E-01 0.27544429E+03</pdfrwt>
<pdfrwt beam="2">  1       -2 0.92873328E-02 0.27544429E+03</pdfrwt>
<totfact> 0.77067236E+03</totfact>
</mgrwt>
</event>
<event>
 9    1  0.8175317E-001  0.2802673E+03  0.7818608E-02  0.1095543E+00
         -2   -1    0    0    0  501 -0.00000000000E+00  0.00000000000E+00  0.11358374435E+04  0.11358374435E+04  0.00000000000E+00 0. -1.
          2   -1    0    0  501    0  0.00000000000E+00 -0.00000000000E+00 -0.17288954422E+02  0.17288954422E+02  0.00000000000E+00 0. -1.
         35    2    1    2    0    0  0.35527136788E-14 -0.71054273576E-14  0.11185484890E+04  0.11531263979E+04  0.28026731376E+03 0.  0.
         25    2    3    3    0    0  0.89504108164E+01  0.57291368477E+02  0.45729524094E+03  0.47758169100E+03  0.12491166253E+03 0.  0.
         25    2    3    3    0    0 -0.89504108164E+01 -0.57291368477E+02  0.66125324810E+03  0.67554470688E+03  0.12546864996E+03 0.  0.
          5    1    4    4  502    0 -0.33638387194E+02  0.71459325158E+02  0.37936191945E+03  0.38752487942E+03  0.47000000000E+01 0.  1.
         -5    1    4    4    0  502  0.42588798010E+02 -0.14167956682E+02  0.77933321496E+02  0.90056811580E+02  0.47000000000E+01 0.  1.
          5    1    5    5  503    0 -0.23445217127E+02  0.49279680336E+01  0.51853731002E+03  0.51911173648E+03  0.47000000000E+01 0. -1.
         -5    1    5    5    0  503  0.14494806311E+02 -0.62219336510E+02  0.14271593808E+03  0.15643297040E+03  0.47000000000E+01 0. -1.
<mgrwt>
<rscale>  0 0.28026731E+03</rscale>
<asrwt>0</asrwt>
<pdfrwt beam="1">  1        2 0.26598400E-02 0.28026731E+03</pdfrwt>
<pdfrwt beam="2">  1       -2 0.17474416E+00 0.28026731E+03</pdfrwt>
<totfact> 0.78080010E+02</totfact>
</mgrwt>
</event>
<event>
 9    1  0.8175317E-001  0.2718943E+03  0.7818608E-02  0.1100200E+00
          2   -1    0    0  501    0  0.00000000000E+00  0.00000000000E+00  0.24441170799E+03  0.24441170799E+03  0.00000000000E+00 0.  1.
         -2   -1    0    0    0  501 -0.00000000000E+00 -0.00000000000E+00 -0.75616794374E+02  0.75616794374E+02  0.00000000000E+00 0.  1.
         35    2    1    2    0    0  0.00000000000E+00  0.71054273576E-14  0.16879491362E+03  0.32002850237E+03  0.27189431672E+03 0.  0.
         25    2    3    3    0    0 -0.13063100368E+02 -0.51386486000E+02  0.95549118724E+02  0.16546209646E+03  0.12424514374E+03 0.  0.
         25    2    3    3    0    0  0.13063100368E+02  0.51386486000E+02  0.73245794896E+02  0.15456640590E+03  0.12535793485E+03 0.  0.
          5    1    4    4  502    0  0.42436094306E+02 -0.61085238945E+02  0.73807292532E+02  0.10488963222E+03  0.47000000000E+01 0. -1.
         -5    1    4    4    0  502 -0.55499194674E+02  0.96987529451E+01  0.21741826192E+02  0.60572464242E+02  0.47000000000E+01 0. -1.
          5    1    5    5  503    0  0.15972174268E+02 -0.28957456336E+02  0.65670154855E+02  0.73677024011E+02  0.47000000000E+01 0.  1.
         -5    1    5    5    0  503 -0.29090739001E+01  0.80343942336E+02  0.75756400406E+01  0.80889381893E+02  0.47000000000E+01 0.  1.
<mgrwt>
<rscale>  0 0.27189432E+03</rscale>
<asrwt>0</asrwt>
<pdfrwt beam="1">  1        2 0.37601801E-01 0.27189432E+03</pdfrwt>
<pdfrwt beam="2">  1       -2 0.11633353E-01 0.27189432E+03</pdfrwt>
<totfact> 0.70493132E+03</totfact>
</mgrwt>
</event>
<event>
 9    1  0.8175317E-001  0.2752323E+03  0.7818608E-02  0.1098322E+00
          2   -1    0    0  501    0  0.00000000000E+00  0.00000000000E+00  0.14412819119E+04  0.14412819119E+04  0.00000000000E+00 0. -1.
         -2   -1    0    0    0  501 -0.00000000000E+00 -0.00000000000E+00 -0.13139830910E+02  0.13139830910E+02  0.00000000000E+00 0. -1.
         35    2    1    2    0    0 -0.71054273576E-14 -0.71054273576E-14  0.14281420810E+04  0.14544217428E+04  0.27523227003E+03 0.  0.
         25    2    3    3    0    0 -0.39423470077E+02 -0.32760189974E+02  0.83930294870E+03  0.85023125726E+03  0.12584240573E+03 0.  0.
         25    2    3    3    0    0  0.39423470077E+02  0.32760189974E+02  0.58883913230E+03  0.60419048556E+03  0.12524846936E+03 0.  0.
          5    1    4    4  502    0 -0.51355911616E+02 -0.43915397572E+02  0.82566547064E+03  0.82843922602E+03  0.47000000000E+01 0.  1.
         -5    1    4    4    0  502  0.11932441538E+02  0.11155207598E+02  0.13637478061E+02  0.21792031238E+02  0.47000000000E+01 0.  1.
          5    1    5    5  503    0  0.30656532160E+02  0.61258624589E+02  0.15774299795E+03  0.17203890680E+03  0.47000000000E+01 0. -1.
         -5    1    5    5    0  503  0.87669379170E+01 -0.28498434615E+02  0.43109613435E+03  0.43215157876E+03  0.47000000000E+01 0. -1.
<mgrwt>
<rscale>  0 0.27523227E+03</rscale>
<asrwt>0</asrwt>
<pdfrwt beam="1">  1        2 0.22173555E+00 0.27523227E+03</pdfrwt>
<pdfrwt beam="2">  1       -2 0.20215136E-02 0.27523227E+03</pdfrwt>
<totfact> 0.11166277E+04</totfact>
</mgrwt>
</event>
<event>
 9    1  0.8175317E-001  0.2825371E+03  0.7818608E-02  0.1094311E+00
          1   -1    0    0  501    0  0.00000000000E+00  0.00000000000E+00  0.15993927269E+03  0.15993927269E+03  0.00000000000E+00 0. -1.
         -1   -1    0    0    0  501 -0.00000000000E+00 -0.00000000000E+00 -0.12477738201E+03  0.12477738201E+03  0.00000000000E+00 0. -1.
         35    2    1    2    0    0  0.00000000000E+00 -0.71054273576E-14  0.35161890679E+02  0.28471665469E+03  0.28253710359E+03 0.  0.
         25    2    3    3    0    0 -0.31654751091E+02  0.17690813358E+02  0.74136902896E+02  0.14877007599E+03  0.12377910565E+03 0.  0.
         25    2    3    3    0    0  0.31654751091E+02 -0.17690813358E+02 -0.38975012217E+02  0.13594657870E+03  0.12508969797E+03 0.  0.
          5    1    4    4  502    0  0.23978627868E+02  0.55947665177E+02  0.39785208069E+02  0.72870217608E+02  0.47000000000E+01 0. -1.
         -5    1    4    4    0  502 -0.55633378959E+02 -0.38256851819E+02  0.34351694827E+02  0.75899858385E+02  0.47000000000E+01 0. -1.
          5    1    5    5  503    0  0.21027888718E+02  0.34200972877E+02  0.28922272804E+02  0.49703787721E+02  0.47000000000E+01 0. -1.
         -5    1    5    5    0  503  0.10626862372E+02 -0.51891786235E+02 -0.67897285021E+02  0.86242790979E+02  0.47000000000E+01 0. -1.
<mgrwt>
<rscale>  0 0.28253710E+03</rscale>
<asrwt>0</asrwt>
<pdfrwt beam="1">  1        1 0.24606042E-01 0.28253710E+03</pdfrwt>
<pdfrwt beam="2">  1       -1 0.19196520E-01 0.28253710E+03</pdfrwt>
<totfact> 0.41901490E+03</totfact>
</mgrwt>
</event>
<event>
 9    1  0.8175317E-001  0.2752308E+03  0.7818608E-02  0.1098323E+00
         -2   -1    0    0    0  501 -0.00000000000E+00  0.00000000000E+00  0.13995827762E+03  0.13995827762E+03  0.00000000000E+00 0. -1.
          2   -1    0    0  501    0  0.00000000000E+00 -0.00000000000E+00 -0.13531176689E+03  0.13531176689E+03  0.00000000000E+00 0. -1.
         35    2    1    2    0    0  0.00000000000E+00 -0.71054273576E-14  0.46465107330E+01  0.27527004452E+03  0.27523082557E+03 0.  0.
         25    2    3    3    0    0 -0.23655429383E+02 -0.14394855907E+02 -0.50212213001E+02  0.13717470272E+03  0.12461477247E+03 0.  0.
         25    2    3    3    0    0  0.23655429383E+02  0.14394855907E+02  0.54858723734E+02  0.13809534179E+03  0.12366912565E+03 0.  0.
          5    1    4    4  502    0  0.31339115967E+01 -0.65671402415E+02 -0.42964914129E+02  0.78680546154E+02  0.47000000000E+01 0. -1.
         -5    1    4    4    0  502 -0.26789340979E+02  0.51276546508E+02 -0.72472988716E+01  0.58494156570E+02  0.47000000000E+01 0. -1.
          5    1    5    5  503    0  0.19965837121E+02  0.38219395564E+02 -0.28029770137E+02  0.51644117411E+02  0.47000000000E+01 0. -1.
         -5    1    5    5    0  503  0.36895922617E+01 -0.23824539657E+02  0.82888493871E+02  0.86451224382E+02  0.47000000000E+01 0. -1.
<mgrwt>
<rscale>  0 0.27523083E+03</rscale>
<asrwt>0</asrwt>
<pdfrwt beam="1">  1        2 0.20817195E-01 0.27523083E+03</pdfrwt>
<pdfrwt beam="2">  1       -2 0.21532043E-01 0.27523083E+03</pdfrwt>
<totfact> 0.48703843E+03</totfact>
</mgrwt>
</event>
<event>
 9    1  0.8175317E-001  0.2656151E+03  0.7818608E-02  0.1103816E+00
          4   -1    0    0  501    0  0.00000000000E+00  0.00000000000E+00  0.14941415363E+03  0.14941415363E+03  0.00000000000E+00 0.  1.
         -4   -1    0    0    0  501 -0.00000000000E+00 -0.00000000000E+00 -0.11804668229E+03  0.11804668229E+03  0.00000000000E+00 0.  1.
         35    2    1    2    0    0  0.00000000000E+00  0.00000000000E+00  0.31367471340E+02  0.26746083591E+03  0.26561509838E+03 0.  0.
         25    2    3    3    0    0  0.65906509823E+01 -0.44200394581E+02  0.37596412026E+02  0.13555269098E+03  0.12232714446E+03 0.  0.
         25    2    3    3    0    0 -0.65906509823E+01  0.44200394581E+02 -0.62289406862E+01  0.13190814493E+03  0.12395098804E+03 0.  0.
          5    1    4    4  502    0 -0.16390594652E+02  0.14688822842E+02  0.63276353432E+02  0.67159511711E+02  0.47000000000E+01 0. -1.
         -5    1    4    4    0  502  0.22981245635E+02 -0.58889217424E+02 -0.25679941406E+02  0.68393179268E+02  0.47000000000E+01 0. -1.
          5    1    5    5  503    0  0.36910947224E+02 -0.27840265312E+02 -0.10005791605E+02  0.47536346759E+02  0.47000000000E+01 0. -1.
         -5    1    5    5    0  503 -0.43501598206E+02  0.72040659893E+02  0.37768509187E+01  0.84371798174E+02  0.47000000000E+01 0. -1.
<mgrwt>
<rscale>  0 0.26561510E+03</rscale>
<asrwt>0</asrwt>
<pdfrwt beam="1">  1        4 0.22986793E-01 0.26561510E+03</pdfrwt>
<pdfrwt beam="2">  1       -4 0.18161028E-01 0.26561510E+03</pdfrwt>
<totfact> 0.87686062E+02</totfact>
</mgrwt>
</event>
<event>
 9    1  0.8175317E-001  0.2764870E+03  0.7818608E-02  0.1097623E+00
          2   -1    0    0  501    0  0.00000000000E+00  0.00000000000E+00  0.61850362928E+03  0.61850362928E+03  0.00000000000E+00 0.  1.
         -2   -1    0    0    0  501 -0.00000000000E+00 -0.00000000000E+00 -0.30899189751E+02  0.30899189751E+02  0.00000000000E+00 0.  1.
         35    2    1    2    0    0  0.35527136788E-14  0.00000000000E+00  0.58760443953E+03  0.64940281903E+03  0.27648696897E+03 0.  0.
         25    2    3    3    0    0 -0.17813685188E+02 -0.11413124398E+01  0.43246494324E+03  0.44936870768E+03  0.12077946156E+03 0.  0.
         25    2    3    3    0    0  0.17813685188E+02  0.11413124398E+01  0.15513949630E+03  0.20003411136E+03  0.12500700949E+03 0.  0.
          5    1    4    4  502    0 -0.50748445475E+02 -0.21607129050E+02  0.37973114232E+03  0.38374484125E+03  0.47000000000E+01 0.  1.
         -5    1    4    4    0  502  0.32934760287E+02  0.20465816610E+02  0.52733800919E+02  0.65623866421E+02  0.47000000000E+01 0.  1.
          5    1    5    5  503    0  0.11739212543E+02  0.21464969551E+02 -0.14622776320E+02  0.28887187752E+02  0.47000000000E+01 0. -1.
         -5    1    5    5    0  503  0.60744726458E+01 -0.20323657111E+02  0.16976227262E+03  0.17114692361E+03  0.47000000000E+01 0. -1.
<mgrwt>
<rscale>  0 0.27648697E+03</rscale>
<asrwt>0</asrwt>
<pdfrwt beam="1">  1        2 0.95154395E-01 0.27648697E+03</pdfrwt>
<pdfrwt beam="2">  1       -2 0.47537220E-02 0.27648697E+03</pdfrwt>
<totfact> 0.10251097E+04</totfact>
</mgrwt>
</event>
<event>
 9    1  0.8175317E-001  0.2795917E+03  0.7818608E-02  0.1095912E+00
         -2   -1    0    0    0  501 -0.00000000000E+00  0.00000000000E+00  0.19483103997E+03  0.19483103997E+03  0.00000000000E+00 0. -1.
          2   -1    0    0  501    0  0.00000000000E+00 -0.00000000000E+00 -0.10030678441E+03  0.10030678441E+03  0.00000000000E+00 0. -1.
         35    2    1    2    0    0 -0.71054273576E-14 -0.71054273576E-14  0.94524255552E+02  0.29513782438E+03  0.27959166742E+03 0.  0.
         25    2    3    3    0    0 -0.34003382227E+02 -0.33389982632E+02  0.89541717029E+01  0.13625299176E+03  0.12733255526E+03 0.  0.
         25    2    3    3    0    0  0.34003382227E+02  0.33389982632E+02  0.85570083849E+02  0.15888483263E+03  0.12510407605E+03 0.  0.
          5    1    4    4  502    0  0.29100415301E+02 -0.35722803889E+02  0.43997516889E+02  0.63881330456E+02  0.47000000000E+01 0. -1.
         -5    1    4    4    0  502 -0.63103797527E+02  0.23328212571E+01 -0.35043345187E+02  0.72371661300E+02  0.47000000000E+01 0. -1.
          5    1    5    5  503    0  0.38133712633E+02 -0.33606751169E+02  0.13214299617E+01  0.51062999720E+02  0.47000000000E+01 0.  1.
         -5    1    5    5    0  503 -0.41303304058E+01  0.66996733801E+02  0.84248653887E+02  0.10782183291E+03  0.47000000000E+01 0.  1.
<mgrwt>
<rscale>  0 0.27959167E+03</rscale>
<asrwt>0</asrwt>
<pdfrwt beam="1">  1        2 0.15431813E-01 0.27959167E+03</pdfrwt>
<pdfrwt beam="2">  1       -2 0.29974006E-01 0.27959167E+03</pdfrwt>
<totfact> 0.38405891E+03</totfact>
</mgrwt>
</event>
<event>
 9    1  0.8175317E-001  0.2786061E+03  0.7818608E-02  0.1096453E+00
         -4   -1    0    0    0  501 -0.00000000000E+00  0.00000000000E+00  0.56130067638E+03  0.56130067638E+03  0.00000000000E+00 0. -1.
          4   -1    0    0  501    0  0.00000000000E+00 -0.00000000000E+00 -0.34572091316E+02  0.34572091316E+02  0.00000000000E+00 0. -1.
         35    2    1    2    0    0 -0.10658141036E-13  0.00000000000E+00  0.52672858506E+03  0.59587276769E+03  0.27860608923E+03 0.  0.
         25    2    3    3    0    0 -0.30741136521E+02 -0.40348639844E+02  0.33983503518E+03  0.36561640113E+03  0.12495787860E+03 0.  0.
         25    2    3    3    0    0  0.30741136521E+02  0.40348639844E+02  0.18689354988E+03  0.23025636657E+03  0.12456229424E+03 0.  0.
          5    1    4    4  502    0 -0.60406139362E+02  0.76124563384E+01  0.85535211631E+02  0.10509621113E+03  0.47000000000E+01 0. -1.
         -5    1    4    4    0  502  0.29665002841E+02 -0.47961096182E+02  0.25429982355E+03  0.26052019000E+03  0.47000000000E+01 0. -1.
          5    1    5    5  503    0 -0.37585487198E+02 -0.20324521103E+02  0.61066852772E+02  0.74679351319E+02  0.47000000000E+01 0.  1.
         -5    1    5    5    0  503  0.68326623719E+02  0.60673160946E+02  0.12582669711E+03  0.15557701525E+03  0.47000000000E+01 0.  1.
<mgrwt>
<rscale>  0 0.27860609E+03</rscale>
<asrwt>0</asrwt>
<pdfrwt beam="1">  1        4 0.53187837E-02 0.27860609E+03</pdfrwt>
<pdfrwt beam="2">  1       -4 0.86353944E-01 0.27860609E+03</pdfrwt>
<totfact> 0.48488833E+02</totfact>
</mgrwt>
</event>
<event>
 9    1  0.8175317E-001  0.2757149E+03  0.7818608E-02  0.1098053E+00
         -1   -1    0    0    0  501 -0.00000000000E+00  0.00000000000E+00  0.47969414753E+02  0.47969414753E+02  0.00000000000E+00 0. -1.
          1   -1    0    0  501    0  0.00000000000E+00 -0.00000000000E+00 -0.39618332643E+03  0.39618332643E+03  0.00000000000E+00 0. -1.
         35    2    1    2    0    0  0.00000000000E+00  0.71054273576E-14 -0.34821391168E+03  0.44415274119E+03  0.27571494195E+03 0.  0.
         25    2    3    3    0    0  0.56146161472E+02 -0.39238284731E+01 -0.16930875520E+03  0.21776830260E+03  0.12485908517E+03 0.  0.
         25    2    3    3    0    0 -0.56146161472E+02  0.39238284731E+01 -0.17890515648E+03  0.22638443859E+03  0.12678750389E+03 0.  0.
          5    1    4    4  502    0  0.11399562574E+02  0.57554280063E+02 -0.56099473705E+02  0.81312275398E+02  0.47000000000E+01 0. -1.
         -5    1    4    4    0  502  0.44746598898E+02 -0.61478108536E+02 -0.11320928150E+03  0.13645602720E+03  0.47000000000E+01 0. -1.
          5    1    5    5  503    0 -0.26550180912E+01 -0.47069767286E+02 -0.12809689128E+03  0.13657787401E+03  0.47000000000E+01 0. -1.
         -5    1    5    5    0  503 -0.53491143381E+02  0.50993595759E+02 -0.50808265192E+02  0.89806564573E+02  0.47000000000E+01 0. -1.
<mgrwt>
<rscale>  0 0.27571494E+03</rscale>
<asrwt>0</asrwt>
<pdfrwt beam="1">  1        1 0.60951280E-01 0.27571494E+03</pdfrwt>
<pdfrwt beam="2">  1       -1 0.73799101E-02 0.27571494E+03</pdfrwt>
<totfact> 0.59445217E+03</totfact>
</mgrwt>
</event>
<event>
 9    1  0.8175317E-001  0.2734415E+03  0.7818608E-02  0.1099326E+00
          1   -1    0    0  501    0  0.00000000000E+00  0.00000000000E+00  0.94978127911E+03  0.94978127911E+03  0.00000000000E+00 0. -1.
         -1   -1    0    0    0  501 -0.00000000000E+00 -0.00000000000E+00 -0.19680910280E+02  0.19680910280E+02  0.00000000000E+00 0. -1.
         35    2    1    2    0    0  0.00000000000E+00  0.00000000000E+00  0.93010036883E+03  0.96946218939E+03  0.27344147557E+03 0.  0.
         25    2    3    3    0    0  0.93144979958E+00 -0.37437466597E+02  0.31024822876E+03  0.33607032496E+03  0.12364007588E+03 0.  0.
         25    2    3    3    0    0 -0.93144979958E+00  0.37437466597E+02  0.61985214007E+03  0.63339186443E+03  0.12476436542E+03 0.  0.
          5    1    4    4  502    0  0.61893902596E+02 -0.15390260775E+02  0.16407986674E+03  0.17610226568E+03  0.47000000000E+01 0.  1.
         -5    1    4    4    0  502 -0.60962452797E+02 -0.22047205822E+02  0.14616836202E+03  0.15996805928E+03  0.47000000000E+01 0.  1.
          5    1    5    5  503    0 -0.61599123156E+02  0.83757240361E+01  0.32519686580E+03  0.33111885518E+03  0.47000000000E+01 0. -1.
         -5    1    5    5    0  503  0.60667673356E+02  0.29061742561E+02  0.29465527426E+03  0.30227300925E+03  0.47000000000E+01 0. -1.
<mgrwt>
<rscale>  0 0.27344148E+03</rscale>
<asrwt>0</asrwt>
<pdfrwt beam="1">  1        1 0.14612016E+00 0.27344148E+03</pdfrwt>
<pdfrwt beam="2">  1       -1 0.30278331E-02 0.27344148E+03</pdfrwt>
<totfact> 0.64903063E+03</totfact>
</mgrwt>
</event>
<event>
 9    1  0.8175317E-001  0.2743993E+03  0.7818608E-02  0.1098788E+00
          2   -1    0    0  501    0  0.00000000000E+00  0.00000000000E+00  0.22191985196E+04  0.22191985196E+04  0.00000000000E+00 0. -1.
         -2   -1    0    0    0  501 -0.00000000000E+00 -0.00000000000E+00 -0.84822271925E+01  0.84822271925E+01  0.00000000000E+00 0. -1.
         35    2    1    2    0    0  0.00000000000E+00  0.00000000000E+00  0.22107162924E+04  0.22276807468E+04  0.27439931507E+03 0.  0.
         25    2    3    3    0    0  0.15165043448E+02  0.22607391922E+02  0.70723476302E+03  0.71877639827E+03  0.12536916679E+03 0.  0.
         25    2    3    3    0    0 -0.15165043448E+02 -0.22607391922E+02  0.15034815294E+04  0.15089043485E+04  0.12487814481E+03 0.  0.
          5    1    4    4  502    0 -0.26246278651E+02 -0.30307181521E+01  0.31965042215E+02  0.41736151228E+02  0.47000000000E+01 0. -1.
         -5    1    4    4    0  502  0.41411322099E+02  0.25638110074E+02  0.67526972080E+03  0.67704024705E+03  0.47000000000E+01 0. -1.
          5    1    5    5  503    0 -0.52920325447E+02 -0.34607185880E+02  0.13002028736E+04  0.13017479866E+04  0.47000000000E+01 0. -1.
         -5    1    5    5    0  503  0.37755281999E+02  0.11999793959E+02  0.20327865574E+03  0.20715636184E+03  0.47000000000E+01 0. -1.
<mgrwt>
<rscale>  0 0.27439932E+03</rscale>
<asrwt>0</asrwt>
<pdfrwt beam="1">  1        2 0.34141469E+00 0.27439932E+03</pdfrwt>
<pdfrwt beam="2">  1       -2 0.13049598E-02 0.27439932E+03</pdfrwt>
<totfact> 0.82263159E+03</totfact>
</mgrwt>
</event>
<event>
 9    1  0.8175317E-001  0.2751349E+03  0.7818608E-02  0.1098376E+00
          2   -1    0    0  501    0  0.00000000000E+00  0.00000000000E+00  0.15663050198E+04  0.15663050198E+04  0.00000000000E+00 0.  1.
         -2   -1    0    0    0  501 -0.00000000000E+00 -0.00000000000E+00 -0.12082452834E+02  0.12082452834E+02  0.00000000000E+00 0.  1.
         35    2    1    2    0    0  0.00000000000E+00  0.00000000000E+00  0.15542225670E+04  0.15783874727E+04  0.27513492345E+03 0.  0.
         25    2    3    3    0    0  0.21266246937E+02 -0.16395315064E+01  0.39216712271E+03  0.40958989638E+03  0.11624925704E+03 0.  0.
         25    2    3    3    0    0 -0.21266246937E+02  0.16395315064E+01  0.11620554443E+04  0.11687975763E+04  0.12353128108E+03 0.  0.
          5    1    4    4  502    0  0.57294044774E+02 -0.82150319888E+01  0.10439942282E+03  0.11946306460E+03  0.47000000000E+01 0. -1.
         -5    1    4    4    0  502 -0.36027797837E+02  0.65755004824E+01  0.28776769989E+03  0.29012683178E+03  0.47000000000E+01 0. -1.
          5    1    5    5  503    0 -0.50462148819E+02  0.31603120580E+02  0.30991079182E+03  0.31561364765E+03  0.47000000000E+01 0.  1.
         -5    1    5    5    0  503  0.29195901882E+02 -0.29963589073E+02  0.85214465246E+03  0.85318392863E+03  0.47000000000E+01 0.  1.
<mgrwt>
<rscale>  0 0.27513492E+03</rscale>
<asrwt>0</asrwt>
<pdfrwt beam="1">  1        2 0.24096984E+00 0.27513492E+03</pdfrwt>
<pdfrwt beam="2">  1       -2 0.18588401E-02 0.27513492E+03</pdfrwt>
<totfact> 0.10828203E+04</totfact>
</mgrwt>
</event>
<event>
 9    1  0.8175317E-001  0.2729433E+03  0.7818608E-02  0.1099607E+00
         -1   -1    0    0    0  501 -0.00000000000E+00  0.00000000000E+00  0.30166170243E+02  0.30166170243E+02  0.00000000000E+00 0.  1.
          1   -1    0    0  501    0  0.00000000000E+00 -0.00000000000E+00 -0.61739742114E+03  0.61739742114E+03  0.00000000000E+00 0.  1.
         35    2    1    2    0    0  0.00000000000E+00 -0.71054273576E-14 -0.58723125090E+03  0.64756359139E+03  0.27294333268E+03 0.  0.
         25    2    3    3    0    0  0.95647485431E-01 -0.44254061300E+02 -0.20064880891E+03  0.23864532451E+03  0.12138045685E+03 0.  0.
         25    2    3    3    0    0 -0.95647485431E-01  0.44254061300E+02 -0.38658244199E+03  0.40891826688E+03  0.12573676248E+03 0.  0.
          5    1    4    4  502    0 -0.21310392218E+02 -0.34447627252E+02 -0.20921581763E+03  0.21315280947E+03  0.47000000000E+01 0. -1.
         -5    1    4    4    0  502  0.21406039704E+02 -0.98064340480E+01  0.85670087203E+01  0.25492515038E+02  0.47000000000E+01 0. -1.
          5    1    5    5  503    0 -0.51283741936E+02  0.28915787350E+02 -0.90851912386E+02  0.10836191642E+03  0.47000000000E+01 0. -1.
         -5    1    5    5    0  503  0.51188094450E+02  0.15338273949E+02 -0.29573052960E+03  0.30055635046E+03  0.47000000000E+01 0. -1.
<mgrwt>
<rscale>  0 0.27294333E+03</rscale>
<asrwt>0</asrwt>
<pdfrwt beam="1">  1        1 0.94984212E-01 0.27294333E+03</pdfrwt>
<pdfrwt beam="2">  1       -1 0.46409496E-02 0.27294333E+03</pdfrwt>
<totfact> 0.66252901E+03</totfact>
</mgrwt>
</event>
<event>
 9    1  0.8175317E-001  0.2709737E+03  0.7818608E-02  0.1100724E+00
          1   -1    0    0  501    0  0.00000000000E+00  0.00000000000E+00  0.26007550237E+03  0.26007550237E+03  0.00000000000E+00 0.  1.
         -1   -1    0    0    0  501 -0.00000000000E+00 -0.00000000000E+00 -0.70582164074E+02  0.70582164074E+02  0.00000000000E+00 0.  1.
         35    2    1    2    0    0  0.35527136788E-14  0.00000000000E+00  0.18949333830E+03  0.33065766644E+03  0.27097373880E+03 0.  0.
         25    2    3    3    0    0 -0.43748072078E+01 -0.32574639493E+02  0.14485358622E+03  0.19431400526E+03  0.12528018647E+03 0.  0.
         25    2    3    3    0    0  0.43748072078E+01  0.32574639493E+02  0.44639752074E+02  0.13634366118E+03  0.12456580752E+03 0.  0.
          5    1    4    4  502    0  0.14754198353E+02  0.23202028110E+02 -0.91370146247E+01  0.29352947275E+02  0.47000000000E+01 0.  1.
         -5    1    4    4    0  502 -0.19129005561E+02 -0.55776667603E+02  0.15399060085E+03  0.16496105799E+03  0.47000000000E+01 0.  1.
          5    1    5    5  503    0  0.39577430118E+02  0.54802740819E+01 -0.29430408145E+02  0.49846216530E+02  0.47000000000E+01 0. -1.
         -5    1    5    5    0  503 -0.35202622910E+02  0.27094365411E+02  0.74070160219E+02  0.86497444654E+02  0.47000000000E+01 0. -1.
<mgrwt>
<rscale>  0 0.27097374E+03</rscale>
<asrwt>0</asrwt>
<pdfrwt beam="1">  1        1 0.40011615E-01 0.27097374E+03</pdfrwt>
<pdfrwt beam="2">  1       -1 0.10858795E-01 0.27097374E+03</pdfrwt>
<totfact> 0.55861309E+03</totfact>
</mgrwt>
</event>
<event>
 9    1  0.8175317E-001  0.2766485E+03  0.7818608E-02  0.1097534E+00
          2   -1    0    0  501    0  0.00000000000E+00  0.00000000000E+00  0.73107832210E+02  0.73107832210E+02  0.00000000000E+00 0.  1.
         -2   -1    0    0    0  501 -0.00000000000E+00 -0.00000000000E+00 -0.26171747907E+03  0.26171747907E+03  0.00000000000E+00 0.  1.
         35    2    1    2    0    0  0.71054273576E-14  0.00000000000E+00 -0.18860964686E+03  0.33482531128E+03  0.27664849572E+03 0.  0.
         25    2    3    3    0    0 -0.33943883022E+02 -0.87777956763E+01 -0.15511140520E+03  0.20107534599E+03  0.12305490583E+03 0.  0.
         25    2    3    3    0    0  0.33943883022E+02  0.87777956763E+01 -0.33498241657E+02  0.13374996529E+03  0.12465024721E+03 0.  0.
          5    1    4    4  502    0 -0.47164118745E+02 -0.50987225585E+02 -0.46521813750E+02  0.83728850610E+02  0.47000000000E+01 0.  1.
         -5    1    4    4    0  502  0.13220235724E+02  0.42209429909E+02 -0.10858959145E+03  0.11734649538E+03  0.47000000000E+01 0.  1.
          5    1    5    5  503    0 -0.23359955066E+02 -0.23046690509E+01  0.35774396462E+02  0.43045283625E+02  0.47000000000E+01 0. -1.
         -5    1    5    5    0  503  0.57303838088E+02  0.11082464727E+02 -0.69272638119E+02  0.90704681665E+02  0.47000000000E+01 0. -1.
<mgrwt>
<rscale>  0 0.27664850E+03</rscale>
<asrwt>0</asrwt>
<pdfrwt beam="1">  1        2 0.11247359E-01 0.27664850E+03</pdfrwt>
<pdfrwt beam="2">  1       -2 0.40264227E-01 0.27664850E+03</pdfrwt>
<totfact> 0.32426299E+03</totfact>
</mgrwt>
</event>
<event>
 9    1  0.8175317E-001  0.2712783E+03  0.7818608E-02  0.1100550E+00
          1   -1    0    0  501    0  0.00000000000E+00  0.00000000000E+00  0.21151793086E+04  0.21151793086E+04  0.00000000000E+00 0.  1.
         -1   -1    0    0    0  501 -0.00000000000E+00 -0.00000000000E+00 -0.86980692797E+01  0.86980692797E+01  0.00000000000E+00 0.  1.
         35    2    1    2    0    0 -0.14210854715E-13  0.00000000000E+00  0.21064812393E+04  0.21238773779E+04  0.27127827901E+03 0.  0.
         25    2    3    3    0    0 -0.97161405472E+01  0.21577367171E+02  0.13843227201E+04  0.13901997967E+04  0.12548344591E+03 0.  0.
         25    2    3    3    0    0  0.97161405472E+01 -0.21577367171E+02  0.72215851926E+03  0.73367758122E+03  0.12731802733E+03 0.  0.
          5    1    4    4  502    0  0.54754087633E+02  0.27476383688E+02  0.57301588874E+03  0.57630049499E+03  0.47000000000E+01 0.  1.
         -5    1    4    4    0  502 -0.64470228180E+02 -0.58990165165E+01  0.81130683133E+03  0.81389930168E+03  0.47000000000E+01 0.  1.
          5    1    5    5  503    0 -0.34687522673E+02 -0.44116347596E+02  0.16637585709E+03  0.17564877505E+03  0.47000000000E+01 0.  1.
         -5    1    5    5    0  503  0.44403663220E+02  0.22538980425E+02  0.55578266217E+03  0.55802880617E+03  0.47000000000E+01 0.  1.
<mgrwt>
<rscale>  0 0.27127828E+03</rscale>
<asrwt>0</asrwt>
<pdfrwt beam="1">  1        1 0.32541179E+00 0.27127828E+03</pdfrwt>
<pdfrwt beam="2">  1       -1 0.13381662E-02 0.27127828E+03</pdfrwt>
<totfact> 0.34993425E+03</totfact>
</mgrwt>
</event>
<event>
 9    1  0.8175317E-001  0.2816491E+03  0.7818608E-02  0.1094792E+00
          3   -1    0    0  501    0  0.00000000000E+00  0.00000000000E+00  0.17262729996E+02  0.17262729996E+02  0.00000000000E+00 0.  1.
         -3   -1    0    0    0  501 -0.00000000000E+00 -0.00000000000E+00 -0.11488071619E+04  0.11488071619E+04  0.00000000000E+00 0.  1.
         35    2    1    2    0    0  0.71054273576E-14  0.00000000000E+00 -0.11315444319E+04  0.11660698919E+04  0.28164905719E+03 0.  0.
         25    2    3    3    0    0  0.38106246884E+02 -0.49413002159E+02 -0.48021595364E+03  0.50011798397E+03  0.12496761549E+03 0.  0.
         25    2    3    3    0    0 -0.38106246884E+02  0.49413002159E+02 -0.65132847825E+03  0.66595190791E+03  0.12397349009E+03 0.  0.
          5    1    4    4  502    0 -0.63900433177E+01 -0.66027831318E+02 -0.40910113537E+03  0.41447115234E+03  0.47000000000E+01 0.  1.
         -5    1    4    4    0  502  0.44496290202E+02  0.16614829159E+02 -0.71114818270E+02  0.85646831624E+02  0.47000000000E+01 0.  1.
          5    1    5    5  503    0 -0.30302968569E+02  0.86192242623E+02 -0.33167996540E+03  0.34406549092E+03  0.47000000000E+01 0.  1.
         -5    1    5    5    0  503 -0.78032783154E+01 -0.36779240463E+02 -0.31964851285E+03  0.32188641700E+03  0.47000000000E+01 0.  1.
<mgrwt>
<rscale>  0 0.28164906E+03</rscale>
<asrwt>0</asrwt>
<pdfrwt beam="1">  1        3 0.26558051E-02 0.28164906E+03</pdfrwt>
<pdfrwt beam="2">  1       -3 0.17673953E+00 0.28164906E+03</pdfrwt>
<totfact> 0.34922328E+02</totfact>
</mgrwt>
</event>
<event>
 9    1  0.8175317E-001  0.2730645E+03  0.7818608E-02  0.1099538E+00
          2   -1    0    0  501    0  0.00000000000E+00  0.00000000000E+00  0.35590573247E+03  0.35590573247E+03  0.00000000000E+00 0.  1.
         -2   -1    0    0    0  501 -0.00000000000E+00 -0.00000000000E+00 -0.52376394364E+02  0.52376394364E+02  0.00000000000E+00 0.  1.
         35    2    1    2    0    0 -0.71054273576E-14 -0.71054273576E-14  0.30352933810E+03  0.40828212683E+03  0.27306452717E+03 0.  0.
         25    2    3    3    0    0 -0.34143275143E+02  0.47172079349E+02  0.15641595260E+03  0.20828147416E+03  0.12459636409E+03 0.  0.
         25    2    3    3    0    0  0.34143275143E+02 -0.47172079349E+02  0.14711338551E+03  0.20000065267E+03  0.12233946446E+03 0.  0.
          5    1    4    4  502    0  0.37238252568E+02  0.40834414044E+02  0.30427255648E+02  0.63261715997E+02  0.47000000000E+01 0.  1.
         -5    1    4    4    0  502 -0.71381527711E+02  0.63376653059E+01  0.12598869695E+03  0.14501975817E+03  0.47000000000E+01 0.  1.
          5    1    5    5  503    0  0.27340783667E+02  0.23648240941E+02 -0.72925321997E-01  0.36453437002E+02  0.47000000000E+01 0.  1.
         -5    1    5    5    0  503  0.68024914755E+01 -0.70820320291E+02  0.14718631083E+03  0.16354721567E+03  0.47000000000E+01 0.  1.
<mgrwt>
<rscale>  0 0.27306453E+03</rscale>
<asrwt>0</asrwt>
<pdfrwt beam="1">  1        2 0.54754727E-01 0.27306453E+03</pdfrwt>
<pdfrwt beam="2">  1       -2 0.80579070E-02 0.27306453E+03</pdfrwt>
<totfact> 0.84194798E+03</totfact>
</mgrwt>
</event>
<event>
 9    1  0.8175317E-001  0.2742379E+03  0.7818608E-02  0.1098878E+00
         -4   -1    0    0    0  501 -0.00000000000E+00  0.00000000000E+00  0.61568848280E+03  0.61568848280E+03  0.00000000000E+00 0. -1.
          4   -1    0    0  501    0  0.00000000000E+00 -0.00000000000E+00 -0.30537537109E+02  0.30537537109E+02  0.00000000000E+00 0. -1.
         35    2    1    2    0    0 -0.88817841970E-15 -0.88817841970E-15  0.58515094569E+03  0.64622601991E+03  0.27423792510E+03 0.  0.
         25    2    3    3    0    0 -0.40456057690E+01  0.45335034414E+01  0.42532789333E+03  0.44348607922E+03  0.12545583305E+03 0.  0.
         25    2    3    3    0    0  0.40456057690E+01 -0.45335034414E+01  0.15982305236E+03  0.20273994068E+03  0.12459195761E+03 0.  0.
          5    1    4    4  502    0 -0.11725609379E+02 -0.54977809543E+01 -0.36851366785E+01  0.14261337352E+02  0.47000000000E+01 0. -1.
         -5    1    4    4    0  502  0.76800036099E+01  0.10031284396E+02  0.42901303000E+03  0.42922474187E+03  0.47000000000E+01 0. -1.
          5    1    5    5  503    0 -0.47019788429E+02 -0.48599610335E+01  0.13986339563E+03  0.14771032179E+03  0.47000000000E+01 0. -1.
         -5    1    5    5    0  503  0.51065394198E+02  0.32645759212E+00  0.19959656736E+02  0.55029618899E+02  0.47000000000E+01 0. -1.
<mgrwt>
<rscale>  0 0.27423793E+03</rscale>
<asrwt>0</asrwt>
<pdfrwt beam="1">  1        4 0.46980831E-02 0.27423793E+03</pdfrwt>
<pdfrwt beam="2">  1       -4 0.94721296E-01 0.27423793E+03</pdfrwt>
<totfact> 0.47882490E+02</totfact>
</mgrwt>
</event>
<event>
 9    1  0.8175317E-001  0.2731337E+03  0.7818608E-02  0.1099499E+00
          4   -1    0    0  501    0  0.00000000000E+00  0.00000000000E+00  0.70885469574E+02  0.70885469574E+02  0.00000000000E+00 0. -1.
         -4   -1    0    0    0  501 -0.00000000000E+00 -0.00000000000E+00 -0.26310767302E+03  0.26310767302E+03  0.00000000000E+00 0. -1.
         35    2    1    2    0    0  0.00000000000E+00 -0.35527136788E-14 -0.19222220344E+03  0.33399314259E+03  0.27313374709E+03 0.  0.
         25    2    3    3    0    0 -0.35099539365E+02 -0.11652512996E+02 -0.15105568921E+03  0.19659091816E+03  0.12025975694E+03 0.  0.
         25    2    3    3    0    0  0.35099539365E+02  0.11652512996E+02 -0.41166514237E+02  0.13740222443E+03  0.12576537942E+03 0.  0.
          5    1    4    4  502    0  0.15416763311E+01  0.11521815875E+02 -0.15244530136E+03  0.15296008929E+03  0.47000000000E+01 0.  1.
         -5    1    4    4    0  502 -0.36641215696E+02 -0.23174328871E+02  0.13896121567E+01  0.43630828874E+02  0.47000000000E+01 0.  1.
          5    1    5    5  503    0  0.13806217848E+02  0.65081682289E+02 -0.43533527301E+02  0.79646060920E+02  0.47000000000E+01 0.  1.
         -5    1    5    5    0  503  0.21293321517E+02 -0.53429169293E+02  0.23670130632E+01  0.57756163510E+02  0.47000000000E+01 0.  1.
<mgrwt>
<rscale>  0 0.27313375E+03</rscale>
<asrwt>0</asrwt>
<pdfrwt beam="1">  1        4 0.10905457E-01 0.27313375E+03</pdfrwt>
<pdfrwt beam="2">  1       -4 0.40478104E-01 0.27313375E+03</pdfrwt>
<totfact> 0.72861134E+02</totfact>
</mgrwt>
</event>
<event>
 9    1  0.8175317E-001  0.2741929E+03  0.7818608E-02  0.1098904E+00
         -1   -1    0    0    0  501 -0.00000000000E+00  0.00000000000E+00  0.13702539952E+03  0.13702539952E+03  0.00000000000E+00 0. -1.
          1   -1    0    0  501    0  0.00000000000E+00 -0.00000000000E+00 -0.13716749884E+03  0.13716749884E+03  0.00000000000E+00 0. -1.
         35    2    1    2    0    0  0.00000000000E+00  0.00000000000E+00 -0.14209932166E+00  0.27419289836E+03  0.27419286154E+03 0.  0.
         25    2    3    3    0    0  0.19369332589E+02  0.49006165539E+02 -0.21866915401E+02  0.13716454048E+03  0.12473641758E+03 0.  0.
         25    2    3    3    0    0 -0.19369332589E+02 -0.49006165539E+02  0.21724816080E+02  0.13702835788E+03  0.12461150799E+03 0.  0.
          5    1    4    4  502    0  0.12186560223E+00 -0.41142845597E+02  0.31604308706E+01  0.41531035604E+02  0.47000000000E+01 0. -1.
         -5    1    4    4    0  502  0.19247466987E+02  0.90149011136E+02 -0.25027346272E+02  0.95633504880E+02  0.47000000000E+01 0. -1.
          5    1    5    5  503    0 -0.27472776434E+02 -0.55923393056E+02  0.66213329731E+02  0.91041058704E+02  0.47000000000E+01 0.  1.
         -5    1    5    5    0  503  0.81034438446E+01  0.69172275169E+01 -0.44488513651E+02  0.45987299176E+02  0.47000000000E+01 0.  1.
<mgrwt>
<rscale>  0 0.27419286E+03</rscale>
<asrwt>0</asrwt>
<pdfrwt beam="1">  1        1 0.21102692E-01 0.27419286E+03</pdfrwt>
<pdfrwt beam="2">  1       -1 0.21080831E-01 0.27419286E+03</pdfrwt>
<totfact> 0.43754018E+03</totfact>
</mgrwt>
</event>
<event>
 9    1  0.8175317E-001  0.2700683E+03  0.7818608E-02  0.1101241E+00
          1   -1    0    0  501    0  0.00000000000E+00  0.00000000000E+00  0.78778394427E+02  0.78778394427E+02  0.00000000000E+00 0.  1.
         -1   -1    0    0    0  501 -0.00000000000E+00 -0.00000000000E+00 -0.23146221703E+03  0.23146221703E+03  0.00000000000E+00 0.  1.
         35    2    1    2    0    0 -0.14210854715E-13 -0.35527136788E-14 -0.15268382261E+03  0.31024061146E+03  0.27006830120E+03 0.  0.
         25    2    3    3    0    0  0.45991186870E+02 -0.14910181786E+02 -0.61997043078E+02  0.14842561702E+03  0.12589292135E+03 0.  0.
         25    2    3    3    0    0 -0.45991186870E+02  0.14910181786E+02 -0.90686779529E+02  0.16181499444E+03  0.12498999022E+03 0.  0.
          5    1    4    4  502    0  0.71504886472E+02 -0.32734665364E+02  0.12761857444E+00  0.78782062630E+02  0.47000000000E+01 0.  1.
         -5    1    4    4    0  502 -0.25513699602E+02  0.17824483579E+02 -0.62124661652E+02  0.69643554387E+02  0.47000000000E+01 0.  1.
          5    1    5    5  503    0 -0.62855818724E+02  0.50866464063E+02 -0.24740973056E+02  0.84690358728E+02  0.47000000000E+01 0.  1.
         -5    1    5    5    0  503  0.16864631855E+02 -0.35956282277E+02 -0.65945806473E+02  0.77124635715E+02  0.47000000000E+01 0.  1.
<mgrwt>
<rscale>  0 0.27006830E+03</rscale>
<asrwt>0</asrwt>
<pdfrwt beam="1">  1        1 0.12119753E-01 0.27006830E+03</pdfrwt>
<pdfrwt beam="2">  1       -1 0.35609572E-01 0.27006830E+03</pdfrwt>
<totfact> 0.37344766E+03</totfact>
</mgrwt>
</event>
<event>
 9    1  0.8175317E-001  0.2732908E+03  0.7818608E-02  0.1099411E+00
          2   -1    0    0  501    0  0.00000000000E+00  0.00000000000E+00  0.12951762232E+04  0.12951762232E+04  0.00000000000E+00 0. -1.
         -2   -1    0    0    0  501 -0.00000000000E+00 -0.00000000000E+00 -0.14416546399E+02  0.14416546399E+02  0.00000000000E+00 0. -1.
         35    2    1    2    0    0  0.00000000000E+00 -0.35527136788E-14  0.12807596768E+04  0.13095927696E+04  0.27329082031E+03 0.  0.
         25    2    3    3    0    0 -0.34197363981E+02  0.10244240033E+02  0.89566839878E+03  0.90506133147E+03  0.12505890211E+03 0.  0.
         25    2    3    3    0    0  0.34197363981E+02 -0.10244240033E+02  0.38509127802E+03  0.40453143813E+03  0.11864226847E+03 0.  0.
          5    1    4    4  502    0 -0.47935881213E+02 -0.49080245694E+02  0.50007988260E+03  0.50478579438E+03  0.47000000000E+01 0.  1.
         -5    1    4    4    0  502  0.13738517232E+02  0.59324485726E+02  0.39558851617E+03  0.40027553709E+03  0.47000000000E+01 0.  1.
          5    1    5    5  503    0 -0.18177098976E+02 -0.22444044236E+02  0.19935203899E+02  0.35406841194E+02  0.47000000000E+01 0.  1.
         -5    1    5    5    0  503  0.52374462956E+02  0.12199804203E+02  0.36515607412E+03  0.36912459693E+03  0.47000000000E+01 0.  1.
<mgrwt>
<rscale>  0 0.27329082E+03</rscale>
<asrwt>0</asrwt>
<pdfrwt beam="1">  1        2 0.19925779E+00 0.27329082E+03</pdfrwt>
<pdfrwt beam="2">  1       -2 0.22179312E-02 0.27329082E+03</pdfrwt>
<totfact> 0.11703779E+04</totfact>
</mgrwt>
</event>
<event>
 9    1  0.8175317E-001  0.2748869E+03  0.7818608E-02  0.1098515E+00
          1   -1    0    0  501    0  0.00000000000E+00  0.00000000000E+00  0.26428034415E+03  0.26428034415E+03  0.00000000000E+00 0. -1.
         -1   -1    0    0    0  501 -0.00000000000E+00 -0.00000000000E+00 -0.71479764058E+02  0.71479764058E+02  0.00000000000E+00 0. -1.
         35    2    1    2    0    0 -0.14210854715E-13  0.71054273576E-14  0.19280058009E+03  0.33576010820E+03  0.27488686142E+03 0.  0.
         25    2    3    3    0    0 -0.49525951544E+02  0.22758344851E+02  0.83497434452E+02  0.15999749213E+03  0.12512639126E+03 0.  0.
         25    2    3    3    0    0  0.49525951544E+02 -0.22758344851E+02  0.10930314564E+03  0.17576261608E+03  0.12639049579E+03 0.  0.
          5    1    4    4  502    0 -0.57546591988E+02 -0.61099344987E+01 -0.12441827890E+02  0.59378705192E+02  0.47000000000E+01 0.  1.
         -5    1    4    4    0  502  0.80206404442E+01  0.28868279349E+02  0.95939262342E+02  0.10061878694E+03  0.47000000000E+01 0.  1.
          5    1    5    5  503    0  0.79038995461E+01  0.62327635921E+01  0.12261016158E+03  0.12311239049E+03  0.47000000000E+01 0. -1.
         -5    1    5    5    0  503  0.41622051998E+02 -0.28991108443E+02 -0.13307015939E+02  0.52650225588E+02  0.47000000000E+01 0. -1.
<mgrwt>
<rscale>  0 0.27488686E+03</rscale>
<asrwt>0</asrwt>
<pdfrwt beam="1">  1        1 0.40658514E-01 0.27488686E+03</pdfrwt>
<pdfrwt beam="2">  1       -1 0.10996887E-01 0.27488686E+03</pdfrwt>
<totfact> 0.53710579E+03</totfact>
</mgrwt>
</event>
<event>
 9    1  0.8175317E-001  0.2770561E+03  0.7818608E-02  0.1097308E+00
          2   -1    0    0  501    0  0.00000000000E+00  0.00000000000E+00  0.81903104295E+03  0.81903104295E+03  0.00000000000E+00 0. -1.
         -2   -1    0    0    0  501 -0.00000000000E+00 -0.00000000000E+00 -0.23430146068E+02  0.23430146068E+02  0.00000000000E+00 0. -1.
         35    2    1    2    0    0  0.00000000000E+00 -0.14210854715E-13  0.79560089688E+03  0.84246118902E+03  0.27705607353E+03 0.  0.
         25    2    3    3    0    0 -0.10274385129E+02  0.57815062478E+02  0.46409656645E+03  0.48331403248E+03  0.12148533476E+03 0.  0.
         25    2    3    3    0    0  0.10274385129E+02 -0.57815062478E+02  0.33150433043E+03  0.35914715654E+03  0.12507363637E+03 0.  0.
          5    1    4    4  502    0  0.34552393276E+02 -0.71549210817E+01  0.47935547452E+02  0.59707348679E+02  0.47000000000E+01 0.  1.
         -5    1    4    4    0  502 -0.44826778405E+02  0.64969983559E+02  0.41616101900E+03  0.42360668380E+03  0.47000000000E+01 0.  1.
          5    1    5    5  503    0 -0.41594671344E+02 -0.15221357517E+02  0.24771965630E+03  0.25169212250E+03  0.47000000000E+01 0. -1.
         -5    1    5    5    0  503  0.51869056474E+02 -0.42593704961E+02  0.83784674131E+02  0.10745503404E+03  0.47000000000E+01 0. -1.
<mgrwt>
<rscale>  0 0.27705607E+03</rscale>
<asrwt>0</asrwt>
<pdfrwt beam="1">  1        2 0.12600475E+00 0.27705607E+03</pdfrwt>
<pdfrwt beam="2">  1       -2 0.36046385E-02 0.27705607E+03</pdfrwt>
<totfact> 0.11034015E+04</totfact>
</mgrwt>
</event>
<event>
 9    1  0.8175317E-001  0.2737143E+03  0.7818608E-02  0.1099172E+00
         -2   -1    0    0    0  501 -0.00000000000E+00  0.00000000000E+00  0.63818673969E+01  0.63818673969E+01  0.00000000000E+00 0. -1.
          2   -1    0    0  501    0  0.00000000000E+00 -0.00000000000E+00 -0.29348580914E+04  0.29348580914E+04  0.00000000000E+00 0. -1.
         35    2    1    2    0    0  0.35527136788E-14 -0.71054273576E-14 -0.29284762240E+04  0.29412399588E+04  0.27371426830E+03 0.  0.
         25    2    3    3    0    0  0.15881777554E+02 -0.43717077897E+02 -0.11146346496E+04  0.11225260498E+04  0.12446251137E+03 0.  0.
         25    2    3    3    0    0 -0.15881777554E+02  0.43717077897E+02 -0.18138415745E+04  0.18187139090E+04  0.12464193443E+03 0.  0.
          5    1    4    4  502    0  0.55775182932E+02 -0.66264377975E+02 -0.71122269586E+03  0.71649260424E+03  0.47000000000E+01 0. -1.
         -5    1    4    4    0  502 -0.39893405378E+02  0.22547300079E+02 -0.40341195370E+03  0.40603344557E+03  0.47000000000E+01 0. -1.
          5    1    5    5  503    0 -0.59047361263E+01  0.66467238416E+02 -0.17262741674E+04  0.17275697817E+04  0.47000000000E+01 0. -1.
         -5    1    5    5    0  503 -0.99770414274E+01 -0.22750160519E+02 -0.87567407090E+02  0.91144127314E+02  0.47000000000E+01 0. -1.
<mgrwt>
<rscale>  0 0.27371427E+03</rscale>
<asrwt>0</asrwt>
<pdfrwt beam="1">  1        2 0.45151755E+00 0.27371427E+03</pdfrwt>
<pdfrwt beam="2">  1       -2 0.98182376E-03 0.27371427E+03</pdfrwt>
<totfact> 0.49845237E+03</totfact>
</mgrwt>
</event>
<event>
 9    1  0.8175317E-001  0.2767211E+03  0.7818608E-02  0.1097493E+00
         -1   -1    0    0    0  501 -0.00000000000E+00  0.00000000000E+00  0.25394513531E+03  0.25394513531E+03  0.00000000000E+00 0.  1.
          1   -1    0    0  501    0  0.00000000000E+00 -0.00000000000E+00 -0.75384941311E+02  0.75384941311E+02  0.00000000000E+00 0.  1.
         35    2    1    2    0    0  0.35527136788E-14  0.71054273576E-14  0.17856019400E+03  0.32933007662E+03  0.27672108067E+03 0.  0.
         25    2    3    3    0    0 -0.25744352178E+02 -0.47111229224E+02  0.99620262873E+02  0.17304858344E+03  0.13091743913E+03 0.  0.
         25    2    3    3    0    0  0.25744352178E+02  0.47111229224E+02  0.78939931129E+02  0.15628149318E+03  0.12373420221E+03 0.  0.
          5    1    4    4  502    0 -0.65631488517E+01 -0.29893373695E+02  0.12959174426E+03  0.13323962959E+03  0.47000000000E+01 0. -1.
         -5    1    4    4    0  502 -0.19181203327E+02 -0.17217855529E+02 -0.29971481386E+02  0.39808953849E+02  0.47000000000E+01 0. -1.
          5    1    5    5  503    0  0.14538310939E+02  0.89484746721E+02  0.54326380545E+02  0.10579379946E+03  0.47000000000E+01 0. -1.
         -5    1    5    5    0  503  0.11206041239E+02 -0.42373517497E+02  0.24613550585E+02  0.50487693726E+02  0.47000000000E+01 0. -1.
<mgrwt>
<rscale>  0 0.27672108E+03</rscale>
<asrwt>0</asrwt>
<pdfrwt beam="1">  1        1 0.11597683E-01 0.27672108E+03</pdfrwt>
<pdfrwt beam="2">  1       -1 0.39068482E-01 0.27672108E+03</pdfrwt>
<totfact> 0.33677998E+03</totfact>
</mgrwt>
</event>
<event>
 9    1  0.8175317E-001  0.2711740E+03  0.7818608E-02  0.1100610E+00
          3   -1    0    0  501    0  0.00000000000E+00  0.00000000000E+00  0.91679838238E+02  0.91679838238E+02  0.00000000000E+00 0.  1.
         -3   -1    0    0    0  501 -0.00000000000E+00 -0.00000000000E+00 -0.20052210408E+03  0.20052210408E+03  0.00000000000E+00 0.  1.
         35    2    1    2    0    0  0.71054273576E-14  0.00000000000E+00 -0.10884226584E+03  0.29220194232E+03  0.27117399628E+03 0.  0.
         25    2    3    3    0    0 -0.33620407301E+02  0.40941187618E+02 -0.68588314223E+02  0.15103813739E+03  0.12369983617E+03 0.  0.
         25    2    3    3    0    0  0.33620407301E+02 -0.40941187618E+02 -0.40253951618E+02  0.14116380493E+03  0.12450030751E+03 0.  0.
          5    1    4    4  502    0  0.10130837662E+01  0.40822222178E+02 -0.97415615629E+02  0.10573255095E+03  0.47000000000E+01 0.  1.
         -5    1    4    4    0  502 -0.34633491067E+02  0.11896544000E+00  0.28827301406E+02  0.45305586440E+02  0.47000000000E+01 0.  1.
          5    1    5    5  503    0 -0.23011217017E+02  0.53740844286E+01  0.30777526201E+02  0.39086353259E+02  0.47000000000E+01 0. -1.
         -5    1    5    5    0  503  0.56631624318E+02 -0.46315272046E+02 -0.71031477819E+02  0.10207745167E+03  0.47000000000E+01 0. -1.
<mgrwt>
<rscale>  0 0.27117400E+03</rscale>
<asrwt>0</asrwt>
<pdfrwt beam="1">  1        3 0.14104591E-01 0.27117400E+03</pdfrwt>
<pdfrwt beam="2">  1       -3 0.30849554E-01 0.27117400E+03</pdfrwt>
<totfact> 0.10677914E+03</totfact>
</mgrwt>
</event>
<event>
 9    1  0.8175317E-001  0.2668218E+03  0.7818608E-02  0.1103112E+00
          1   -1    0    0  501    0  0.00000000000E+00  0.00000000000E+00  0.46751642740E+02  0.46751642740E+02  0.00000000000E+00 0. -1.
         -1   -1    0    0    0  501 -0.00000000000E+00 -0.00000000000E+00 -0.38070246616E+03  0.38070246616E+03  0.00000000000E+00 0. -1.
         35    2    1    2    0    0 -0.88817841970E-15  0.00000000000E+00 -0.33395082342E+03  0.42745410890E+03  0.26682178088E+03 0.  0.
         25    2    3    3    0    0  0.74150915312E+01 -0.23734171892E+02 -0.10400353333E+03  0.16430793104E+03  0.12474801305E+03 0.  0.
         25    2    3    3    0    0 -0.74150915312E+01  0.23734171892E+02 -0.22994729009E+03  0.26314617786E+03  0.12550641500E+03 0.  0.
          5    1    4    4  502    0 -0.51067336399E+01  0.17329469344E+02 -0.11756807702E+03  0.11904088361E+03  0.47000000000E+01 0.  1.
         -5    1    4    4    0  502  0.12521825171E+02 -0.41063641236E+02  0.13564543693E+02  0.45267047427E+02  0.47000000000E+01 0.  1.
          5    1    5    5  503    0 -0.28967894062E+02  0.11684389956E+02  0.24241313699E+00  0.31588172140E+02  0.47000000000E+01 0. -1.
         -5    1    5    5    0  503  0.21552802531E+02  0.12049781936E+02 -0.23018970323E+03  0.23155800572E+03  0.47000000000E+01 0. -1.
<mgrwt>
<rscale>  0 0.26682178E+03</rscale>
<asrwt>0</asrwt>
<pdfrwt beam="1">  1        1 0.71925609E-02 0.26682178E+03</pdfrwt>
<pdfrwt beam="2">  1       -1 0.58569607E-01 0.26682178E+03</pdfrwt>
<totfact> 0.30499672E+03</totfact>
</mgrwt>
</event>
<event>
 9    1  0.8175317E-001  0.2680362E+03  0.7818608E-02  0.1102409E+00
          2   -1    0    0  501    0  0.00000000000E+00  0.00000000000E+00  0.12882984012E+02  0.12882984012E+02  0.00000000000E+00 0.  1.
         -2   -1    0    0    0  501 -0.00000000000E+00 -0.00000000000E+00 -0.13941529019E+04  0.13941529019E+04  0.00000000000E+00 0.  1.
         35    2    1    2    0    0  0.00000000000E+00  0.00000000000E+00 -0.13812699179E+04  0.14070358860E+04  0.26803618820E+03 0.  0.
         25    2    3    3    0    0 -0.42403721722E+02 -0.46119465105E+01 -0.80138076771E+03  0.81231127693E+03  0.12577412334E+03 0.  0.
         25    2    3    3    0    0  0.42403721722E+02  0.46119465105E+01 -0.57988915022E+03  0.59472460903E+03  0.12492633178E+03 0.  0.
          5    1    4    4  502    0 -0.92857463009E-01  0.55049875827E+02 -0.44918279416E+03  0.45256797282E+03  0.47000000000E+01 0.  1.
         -5    1    4    4    0  502 -0.42310864259E+02 -0.59661822337E+02 -0.35219797355E+03  0.35974330411E+03  0.47000000000E+01 0.  1.
          5    1    5    5  503    0 -0.23722409263E+02 -0.37428968959E+02 -0.32444047907E+03  0.32748648045E+03  0.47000000000E+01 0.  1.
         -5    1    5    5    0  503  0.66126130986E+02  0.42040915469E+02 -0.25544867115E+03  0.26723812857E+03  0.47000000000E+01 0.  1.
<mgrwt>
<rscale>  0 0.26803619E+03</rscale>
<asrwt>0</asrwt>
<pdfrwt beam="1">  1        2 0.19819970E-02 0.26803619E+03</pdfrwt>
<pdfrwt beam="2">  1       -2 0.21448512E+00 0.26803619E+03</pdfrwt>
<totfact> 0.64921584E+02</totfact>
</mgrwt>
</event>
<event>
 9    1  0.8175317E-001  0.2604671E+03  0.7818608E-02  0.1106863E+00
          1   -1    0    0  501    0  0.00000000000E+00  0.00000000000E+00  0.68224962322E+02  0.68224962322E+02  0.00000000000E+00 0. -1.
         -1   -1    0    0    0  501 -0.00000000000E+00 -0.00000000000E+00 -0.24860080948E+03  0.24860080948E+03  0.00000000000E+00 0. -1.
         35    2    1    2    0    0 -0.71054273576E-14 -0.71054273576E-14 -0.18037584716E+03  0.31682577180E+03  0.26046712545E+03 0.  0.
         25    2    3    3    0    0  0.16358847587E+02  0.31533614051E+02 -0.80086564090E+02  0.15253069721E+03  0.12485902103E+03 0.  0.
         25    2    3    3    0    0 -0.16358847587E+02 -0.31533614051E+02 -0.10028928307E+03  0.16429507459E+03  0.12519165519E+03 0.  0.
          5    1    4    4  502    0 -0.47102698711E+02 -0.53639691202E+01 -0.59350190778E+02  0.76105003357E+02  0.47000000000E+01 0. -1.
         -5    1    4    4    0  502  0.63461546298E+02  0.36897583171E+02 -0.20736373312E+02  0.76425693850E+02  0.47000000000E+01 0. -1.
          5    1    5    5  503    0  0.45664530032E+02  0.13561803207E+02 -0.16540038510E+02  0.50644196935E+02  0.47000000000E+01 0. -1.
         -5    1    5    5    0  503 -0.62023377619E+02 -0.45095417257E+02 -0.83749244556E+02  0.11365087766E+03  0.47000000000E+01 0. -1.
<mgrwt>
<rscale>  0 0.26046713E+03</rscale>
<asrwt>0</asrwt>
<pdfrwt beam="1">  1        1 0.10496148E-01 0.26046713E+03</pdfrwt>
<pdfrwt beam="2">  1       -1 0.38246278E-01 0.26046713E+03</pdfrwt>
<totfact> 0.39880184E+03</totfact>
</mgrwt>
</event>
<event>
 9    1  0.8175317E-001  0.2782605E+03  0.7818608E-02  0.1096643E+00
         -2   -1    0    0    0  501 -0.00000000000E+00  0.00000000000E+00  0.17625491048E+02  0.17625491048E+02  0.00000000000E+00 0. -1.
          2   -1    0    0  501    0  0.00000000000E+00 -0.00000000000E+00 -0.10982520292E+04  0.10982520292E+04  0.00000000000E+00 0. -1.
         35    2    1    2    0    0 -0.71054273576E-14 -0.71054273576E-14 -0.10806265382E+04  0.11158775203E+04  0.27826053482E+03 0.  0.
         25    2    3    3    0    0  0.47544155611E+02  0.35814182328E+02 -0.53432009616E+03  0.55246858262E+03  0.12720246553E+03 0.  0.
         25    2    3    3    0    0 -0.47544155611E+02 -0.35814182328E+02 -0.54630644201E+03  0.56340893764E+03  0.12424089522E+03 0.  0.
          5    1    4    4  502    0  0.44094451959E+02  0.73785881058E+02 -0.46777642915E+03  0.47563174264E+03  0.47000000000E+01 0.  1.
         -5    1    4    4    0  502  0.34497036520E+01 -0.37971698730E+02 -0.66543667011E+02  0.76836839986E+02  0.47000000000E+01 0.  1.
          5    1    5    5  503    0 -0.14427034499E+01 -0.75215886017E+02 -0.34371847364E+03  0.35188633112E+03  0.47000000000E+01 0.  1.
         -5    1    5    5    0  503 -0.46101452161E+02  0.39401703689E+02 -0.20258796836E+03  0.21152260652E+03  0.47000000000E+01 0.  1.
<mgrwt>
<rscale>  0 0.27826053E+03</rscale>
<asrwt>0</asrwt>
<pdfrwt beam="1">  1        2 0.16896190E+00 0.27826053E+03</pdfrwt>
<pdfrwt beam="2">  1       -2 0.27116131E-02 0.27826053E+03</pdfrwt>
<totfact> 0.11261716E+04</totfact>
</mgrwt>
</event>
<event>
 9    1  0.8175317E-001  0.2737397E+03  0.7818608E-02  0.1099158E+00
         -1   -1    0    0    0  501 -0.00000000000E+00  0.00000000000E+00  0.14425771737E+02  0.14425771737E+02  0.00000000000E+00 0.  1.
          1   -1    0    0  501    0  0.00000000000E+00 -0.00000000000E+00 -0.12986034632E+04  0.12986034632E+04  0.00000000000E+00 0.  1.
         35    2    1    2    0    0  0.00000000000E+00  0.35527136788E-14 -0.12841776915E+04  0.13130292350E+04  0.27373970948E+03 0.  0.
         25    2    3    3    0    0 -0.43724978633E+02  0.21361602525E+02 -0.78118232282E+03  0.79284316292E+03  0.12643681302E+03 0.  0.
         25    2    3    3    0    0  0.43724978633E+02 -0.21361602525E+02 -0.50299536867E+03  0.52018607205E+03  0.12337348509E+03 0.  0.
          5    1    4    4  502    0 -0.20639962966E+02  0.71984365396E+01 -0.75349926882E+03  0.75383092513E+03  0.47000000000E+01 0. -1.
         -5    1    4    4    0  502 -0.23085015667E+02  0.14163165985E+02 -0.27683053992E+02  0.39012237790E+02  0.47000000000E+01 0. -1.
          5    1    5    5  503    0 -0.76474287059E+01 -0.52351403635E+02 -0.10503548855E+03  0.11770172677E+03  0.47000000000E+01 0.  1.
         -5    1    5    5    0  503  0.51372407339E+02  0.30989801111E+02 -0.39795988012E+03  0.40248434528E+03  0.47000000000E+01 0.  1.
<mgrwt>
<rscale>  0 0.27373971E+03</rscale>
<asrwt>0</asrwt>
<pdfrwt beam="1">  1        1 0.19978528E+00 0.27373971E+03</pdfrwt>
<pdfrwt beam="2">  1       -1 0.22193480E-02 0.27373971E+03</pdfrwt>
<totfact> 0.57554126E+03</totfact>
</mgrwt>
</event>
<event>
 9    1  0.8175317E-001  0.2806208E+03  0.7818608E-02  0.1095350E+00
         -2   -1    0    0    0  501 -0.00000000000E+00  0.00000000000E+00  0.25223244516E+02  0.25223244516E+02  0.00000000000E+00 0.  1.
          2   -1    0    0  501    0  0.00000000000E+00 -0.00000000000E+00 -0.78051031223E+03  0.78051031223E+03  0.00000000000E+00 0.  1.
         35    2    1    2    0    0  0.00000000000E+00  0.71054273576E-14 -0.75528706771E+03  0.80573355675E+03  0.28062075798E+03 0.  0.
         25    2    3    3    0    0  0.33479552827E+02 -0.44422870339E+02 -0.26410855683E+03  0.29571996852E+03  0.12084162414E+03 0.  0.
         25    2    3    3    0    0 -0.33479552827E+02  0.44422870339E+02 -0.49117851089E+03  0.51001358823E+03  0.12555181700E+03 0.  0.
          5    1    4    4  502    0  0.60867819055E+01 -0.99625064196E+01 -0.24843838461E+03  0.24875695246E+03  0.47000000000E+01 0. -1.
         -5    1    4    4    0  502  0.27392770921E+02 -0.34460363919E+02 -0.15670172216E+02  0.46963016060E+02  0.47000000000E+01 0. -1.
          5    1    5    5  503    0  0.17745763926E+02 -0.30179881626E+02 -0.61858016588E+02  0.71233711180E+02  0.47000000000E+01 0. -1.
         -5    1    5    5    0  503 -0.51225316753E+02  0.74602751964E+02 -0.42932049430E+03  0.43877987705E+03  0.47000000000E+01 0. -1.
<mgrwt>
<rscale>  0 0.28062076E+03</rscale>
<asrwt>0</asrwt>
<pdfrwt beam="1">  1        2 0.12007850E+00 0.28062076E+03</pdfrwt>
<pdfrwt beam="2">  1       -2 0.38804995E-02 0.28062076E+03</pdfrwt>
<totfact> 0.10507639E+04</totfact>
</mgrwt>
</event>
<event>
 9    1  0.8175317E-001  0.2747007E+03  0.7818608E-02  0.1098619E+00
          2   -1    0    0  501    0  0.00000000000E+00  0.00000000000E+00  0.74748730949E+02  0.74748730949E+02  0.00000000000E+00 0.  1.
         -2   -1    0    0    0  501 -0.00000000000E+00 -0.00000000000E+00 -0.25238047753E+03  0.25238047753E+03  0.00000000000E+00 0.  1.
         35    2    1    2    0    0  0.88817841970E-15 -0.71054273576E-14 -0.17763174658E+03  0.32712920848E+03  0.27470071286E+03 0.  0.
         25    2    3    3    0    0 -0.76410388519E+01 -0.52992953378E+02 -0.10907357147E+03  0.17432438506E+03  0.12500123460E+03 0.  0.
         25    2    3    3    0    0  0.76410388519E+01  0.52992953378E+02 -0.68558175105E+02  0.15280482342E+03  0.12562822972E+03 0.  0.
          5    1    4    4  502    0  0.28010489804E+02 -0.68244678270E+02 -0.11303966319E+03  0.13506287094E+03  0.47000000000E+01 0. -1.
         -5    1    4    4    0  502 -0.35651528656E+02  0.15251724892E+02  0.39660917190E+01  0.39261514123E+02  0.47000000000E+01 0. -1.
          5    1    5    5  503    0  0.26538361915E+01  0.93754914602E+02 -0.37577970257E+02  0.10114949682E+03  0.47000000000E+01 0.  1.
         -5    1    5    5    0  503  0.49872026604E+01 -0.40761961224E+02 -0.30980204848E+02  0.51655326595E+02  0.47000000000E+01 0.  1.
<mgrwt>
<rscale>  0 0.27470071E+03</rscale>
<asrwt>0</asrwt>
<pdfrwt beam="1">  1        2 0.11499805E-01 0.27470071E+03</pdfrwt>
<pdfrwt beam="2">  1       -2 0.38827765E-01 0.27470071E+03</pdfrwt>
<totfact> 0.33811622E+03</totfact>
</mgrwt>
</event>
<event>
 9    1  0.8175317E-001  0.2770219E+03  0.7818608E-02  0.1097327E+00
          4   -1    0    0  501    0  0.00000000000E+00  0.00000000000E+00  0.70722113739E+02  0.70722113739E+02  0.00000000000E+00 0.  1.
         -4   -1    0    0    0  501 -0.00000000000E+00 -0.00000000000E+00 -0.27127699598E+03  0.27127699598E+03  0.00000000000E+00 0.  1.
         35    2    1    2    0    0  0.00000000000E+00 -0.71054273576E-14 -0.20055488225E+03  0.34199910972E+03  0.27702189491E+03 0.  0.
         25    2    3    3    0    0 -0.39006704584E+02 -0.94079514765E+01 -0.16142320242E+03  0.20713887168E+03  0.12344646342E+03 0.  0.
         25    2    3    3    0    0  0.39006704584E+02  0.94079514765E+01 -0.39131679829E+02  0.13486023804E+03  0.12266198631E+03 0.  0.
          5    1    4    4  502    0 -0.23514155313E+01 -0.53168896048E+02 -0.24617490530E+02  0.58826622391E+02  0.47000000000E+01 0.  1.
         -5    1    4    4    0  502 -0.36655289053E+02  0.43760944571E+02 -0.13680571189E+03  0.14831224929E+03  0.47000000000E+01 0.  1.
          5    1    5    5  503    0 -0.14825896553E+02  0.38031541891E+02  0.23493854569E+02  0.47331348911E+02  0.47000000000E+01 0.  1.
         -5    1    5    5    0  503  0.53832601138E+02 -0.28623590415E+02 -0.62625534399E+02  0.87528889129E+02  0.47000000000E+01 0.  1.
<mgrwt>
<rscale>  0 0.27702189E+03</rscale>
<asrwt>0</asrwt>
<pdfrwt beam="1">  1        4 0.10880325E-01 0.27702189E+03</pdfrwt>
<pdfrwt beam="2">  1       -4 0.41734923E-01 0.27702189E+03</pdfrwt>
<totfact> 0.68956168E+02</totfact>
</mgrwt>
</event>
<event>
 9    1  0.8175317E-001  0.2732699E+03  0.7818608E-02  0.1099423E+00
         -1   -1    0    0    0  501 -0.00000000000E+00  0.00000000000E+00  0.35583504768E+02  0.35583504768E+02  0.00000000000E+00 0.  1.
          1   -1    0    0  501    0  0.00000000000E+00 -0.00000000000E+00 -0.52465641151E+03  0.52465641151E+03  0.00000000000E+00 0.  1.
         35    2    1    2    0    0 -0.53290705182E-14  0.00000000000E+00 -0.48907290675E+03  0.56023991628E+03  0.27326993190E+03 0.  0.
         25    2    3    3    0    0  0.14741517394E+02  0.40420430288E+02 -0.17633548697E+03  0.22096169303E+03  0.12601088169E+03 0.  0.
         25    2    3    3    0    0 -0.14741517394E+02 -0.40420430288E+02 -0.31273741978E+03  0.33927822325E+03  0.12431369804E+03 0.  0.
          5    1    4    4  502    0 -0.12741188556E+02  0.24853758018E+02  0.11399622795E+02  0.30530125668E+02  0.47000000000E+01 0. -1.
         -5    1    4    4    0  502  0.27482705949E+02  0.15566672270E+02 -0.18773510976E+03  0.19043156737E+03  0.47000000000E+01 0. -1.
          5    1    5    5  503    0  0.38071610327E+02  0.21791168142E+02 -0.16087010318E+03  0.16681001954E+03  0.47000000000E+01 0.  1.
         -5    1    5    5    0  503 -0.52813127721E+02 -0.62211598430E+02 -0.15186731660E+03  0.17246820371E+03  0.47000000000E+01 0.  1.
<mgrwt>
<rscale>  0 0.27326993E+03</rscale>
<asrwt>0</asrwt>
<pdfrwt beam="1">  1        1 0.80716376E-01 0.27326993E+03</pdfrwt>
<pdfrwt beam="2">  1       -1 0.54743850E-02 0.27326993E+03</pdfrwt>
<totfact> 0.64648656E+03</totfact>
</mgrwt>
</event>
<event>
 9    1  0.8175317E-001  0.2797279E+03  0.7818608E-02  0.1095838E+00
         -1   -1    0    0    0  501 -0.00000000000E+00  0.00000000000E+00  0.73966965311E+02  0.73966965311E+02  0.00000000000E+00 0.  1.
          1   -1    0    0  501    0  0.00000000000E+00 -0.00000000000E+00 -0.26446833031E+03  0.26446833031E+03  0.00000000000E+00 0.  1.
         35    2    1    2    0    0  0.00000000000E+00  0.00000000000E+00 -0.19050136500E+03  0.33843529562E+03  0.27972786643E+03 0.  0.
         25    2    3    3    0    0  0.40302070942E+02 -0.47342851724E+02 -0.96565711064E+02  0.16979357805E+03  0.12505726713E+03 0.  0.
         25    2    3    3    0    0 -0.40302070942E+02  0.47342851724E+02 -0.93935653934E+02  0.16864171757E+03  0.12550107288E+03 0.  0.
          5    1    4    4  502    0  0.76437374710E+02 -0.40860141269E+02 -0.10024149800E+03  0.13259966561E+03  0.47000000000E+01 0. -1.
         -5    1    4    4    0  502 -0.36135303768E+02 -0.64827104554E+01  0.36757869401E+01  0.37193912444E+02  0.47000000000E+01 0. -1.
          5    1    5    5  503    0 -0.17202696039E+02  0.35540063438E+02  0.24900584784E+02  0.46916500112E+02  0.47000000000E+01 0.  1.
         -5    1    5    5    0  503 -0.23099374903E+02  0.11802788286E+02 -0.11883623872E+03  0.12172521746E+03  0.47000000000E+01 0.  1.
<mgrwt>
<rscale>  0 0.27972787E+03</rscale>
<asrwt>0</asrwt>
<pdfrwt beam="1">  1        1 0.40687436E-01 0.27972787E+03</pdfrwt>
<pdfrwt beam="2">  1       -1 0.11379533E-01 0.27972787E+03</pdfrwt>
<totfact> 0.50910257E+03</totfact>
</mgrwt>
</event>
<event>
 9    1  0.8175317E-001  0.2830536E+03  0.7818608E-02  0.1094033E+00
          2   -1    0    0  501    0  0.00000000000E+00  0.00000000000E+00  0.16838493177E+02  0.16838493177E+02  0.00000000000E+00 0.  1.
         -2   -1    0    0    0  501 -0.00000000000E+00 -0.00000000000E+00 -0.11895262273E+04  0.11895262273E+04  0.00000000000E+00 0.  1.
         35    2    1    2    0    0  0.71054273576E-14  0.35527136788E-14 -0.11726877341E+04  0.12063647205E+04  0.28305355862E+03 0.  0.
         25    2    3    3    0    0 -0.58534884715E+02 -0.30978345156E+02 -0.63253543921E+03  0.64782858507E+03  0.12326720235E+03 0.  0.
         25    2    3    3    0    0  0.58534884715E+02  0.30978345156E+02 -0.54015229490E+03  0.55853613539E+03  0.12574626143E+03 0.  0.
          5    1    4    4  502    0  0.30923384726E+02  0.19557960573E+02 -0.18219565001E+03  0.18589274980E+03  0.47000000000E+01 0.  1.
         -5    1    4    4    0  502 -0.89458269441E+02 -0.50536305728E+02 -0.45033978920E+03  0.46193583526E+03  0.47000000000E+01 0.  1.
          5    1    5    5  503    0  0.64883910967E+02 -0.12454508880E+02 -0.12890540832E+03  0.14492664002E+03  0.47000000000E+01 0.  1.
         -5    1    5    5    0  503 -0.63490262519E+01  0.43432854036E+02 -0.41124688658E+03  0.41360949538E+03  0.47000000000E+01 0.  1.
<mgrwt>
<rscale>  0 0.28305356E+03</rscale>
<asrwt>0</asrwt>
<pdfrwt beam="1">  1        2 0.25905367E-02 0.28305356E+03</pdfrwt>
<pdfrwt beam="2">  1       -2 0.18300408E+00 0.28305356E+03</pdfrwt>
<totfact> 0.71254324E+02</totfact>
</mgrwt>
</event>
<event>
 9    1  0.8175317E-001  0.2803210E+03  0.7818608E-02  0.1095514E+00
          2   -1    0    0  501    0  0.00000000000E+00  0.00000000000E+00  0.11833134531E+04  0.11833134531E+04  0.00000000000E+00 0.  1.
         -2   -1    0    0    0  501 -0.00000000000E+00 -0.00000000000E+00 -0.16601663298E+02  0.16601663298E+02  0.00000000000E+00 0.  1.
         35    2    1    2    0    0  0.00000000000E+00 -0.71054273576E-14  0.11667117898E+04  0.11999151164E+04  0.28032104112E+03 0.  0.
         25    2    3    3    0    0  0.12092786298E+02 -0.54908892605E+02  0.46364802507E+03  0.48326692069E+03  0.12416200509E+03 0.  0.
         25    2    3    3    0    0 -0.12092786298E+02  0.54908892605E+02  0.70306376470E+03  0.71664819569E+03  0.12698329486E+03 0.  0.
          5    1    4    4  502    0 -0.19467137236E+02  0.32624890503E+02  0.20026689796E+03  0.20389279863E+03  0.47000000000E+01 0. -1.
         -5    1    4    4    0  502  0.31559923533E+02 -0.87533783108E+02  0.26338112711E+03  0.27937412206E+03  0.47000000000E+01 0. -1.
          5    1    5    5  503    0  0.49132793852E+02  0.45497557489E+02  0.49430335966E+03  0.49884061637E+03  0.47000000000E+01 0. -1.
         -5    1    5    5    0  503 -0.61225580150E+02  0.94113351158E+01  0.20876040504E+03  0.21780757931E+03  0.47000000000E+01 0. -1.
<mgrwt>
<rscale>  0 0.28032104E+03</rscale>
<asrwt>0</asrwt>
<pdfrwt beam="1">  1        2 0.18204816E+00 0.28032104E+03</pdfrwt>
<pdfrwt beam="2">  1       -2 0.25541030E-02 0.28032104E+03</pdfrwt>
<totfact> 0.10988473E+04</totfact>
</mgrwt>
</event>
<event>
 9    1  0.8175317E-001  0.2752716E+03  0.7818608E-02  0.1098300E+00
         -1   -1    0    0    0  501 -0.00000000000E+00  0.00000000000E+00  0.14298162351E+02  0.14298162351E+02  0.00000000000E+00 0.  1.
          1   -1    0    0  501    0  0.00000000000E+00 -0.00000000000E+00 -0.13248988918E+04  0.13248988918E+04  0.00000000000E+00 0.  1.
         35    2    1    2    0    0  0.00000000000E+00  0.71054273576E-14 -0.13106007295E+04  0.13391970542E+04  0.27527164369E+03 0.  0.
         25    2    3    3    0    0 -0.45385117884E+02  0.32646928675E+02 -0.56161443157E+03  0.57807737973E+03  0.12504821601E+03 0.  0.
         25    2    3    3    0    0  0.45385117884E+02 -0.32646928675E+02 -0.74898629790E+03  0.76111967444E+03  0.12327632988E+03 0.  0.
          5    1    4    4  502    0 -0.32218265784E+02  0.32281949311E+02 -0.56221275948E+03  0.56407926555E+03  0.47000000000E+01 0. -1.
         -5    1    4    4    0  502 -0.13166852100E+02  0.36497936335E+00  0.59832791256E+00  0.13998114175E+02  0.47000000000E+01 0. -1.
          5    1    5    5  503    0 -0.18780394935E+02 -0.14123212003E+02 -0.56196628077E+03  0.56247698537E+03  0.47000000000E+01 0. -1.
         -5    1    5    5    0  503  0.64165512819E+02 -0.18523716671E+02 -0.18702001713E+03  0.19864268907E+03  0.47000000000E+01 0. -1.
<mgrwt>
<rscale>  0 0.27527164E+03</rscale>
<asrwt>0</asrwt>
<pdfrwt beam="1">  1        1 0.20383065E+00 0.27527164E+03</pdfrwt>
<pdfrwt beam="2">  1       -1 0.21997167E-02 0.27527164E+03</pdfrwt>
<totfact> 0.55953340E+03</totfact>
</mgrwt>
</event>
<event>
 9    1  0.8175317E-001  0.2752419E+03  0.7818608E-02  0.1098316E+00
         -1   -1    0    0    0  501 -0.00000000000E+00  0.00000000000E+00  0.67914720789E+02  0.67914720789E+02  0.00000000000E+00 0. -1.
          1   -1    0    0  501    0  0.00000000000E+00 -0.00000000000E+00 -0.27887218970E+03  0.27887218970E+03  0.00000000000E+00 0. -1.
         35    2    1    2    0    0 -0.71054273576E-14  0.10658141036E-13 -0.21095746891E+03  0.34678691049E+03  0.27524190741E+03 0.  0.
         25    2    3    3    0    0 -0.56915610255E+02 -0.62473949873E+01 -0.12820812516E+03  0.18793403993E+03  0.12491382377E+03 0.  0.
         25    2    3    3    0    0  0.56915610255E+02  0.62473949873E+01 -0.82749343743E+02  0.15885287056E+03  0.12291608503E+03 0.  0.
          5    1    4    4  502    0 -0.37013837352E+02  0.51211267951E+02 -0.10508382337E+03  0.12270826400E+03  0.47000000000E+01 0.  1.
         -5    1    4    4    0  502 -0.19901772902E+02 -0.57458662938E+02 -0.23124301796E+02  0.65225775924E+02  0.47000000000E+01 0.  1.
          5    1    5    5  503    0  0.24070155398E+02 -0.29142846006E+02  0.21593533170E+02  0.43784112746E+02  0.47000000000E+01 0.  1.
         -5    1    5    5    0  503  0.32845454857E+02  0.35390240993E+02 -0.10434287691E+03  0.11506875781E+03  0.47000000000E+01 0.  1.
<mgrwt>
<rscale>  0 0.27524191E+03</rscale>
<asrwt>0</asrwt>
<pdfrwt beam="1">  1        1 0.42903414E-01 0.27524191E+03</pdfrwt>
<pdfrwt beam="2">  1       -1 0.10448419E-01 0.27524191E+03</pdfrwt>
<totfact> 0.54358380E+03</totfact>
</mgrwt>
</event>
<event>
 9    1  0.8175317E-001  0.2735049E+03  0.7818608E-02  0.1099290E+00
         -2   -1    0    0    0  501 -0.00000000000E+00  0.00000000000E+00  0.26627945087E+02  0.26627945087E+02  0.00000000000E+00 0.  1.
          2   -1    0    0  501    0  0.00000000000E+00 -0.00000000000E+00 -0.70231580600E+03  0.70231580600E+03  0.00000000000E+00 0.  1.
         35    2    1    2    0    0  0.00000000000E+00  0.00000000000E+00 -0.67568786091E+03  0.72894375109E+03  0.27350485711E+03 0.  0.
         25    2    3    3    0    0 -0.97473451344E+01  0.43217768225E+02 -0.24755639013E+03  0.28088206408E+03  0.12509109242E+03 0.  0.
         25    2    3    3    0    0  0.97473451344E+01 -0.43217768225E+02 -0.42813147078E+03  0.44806168700E+03  0.12449872633E+03 0.  0.
          5    1    4    4  502    0 -0.25674340904E+02  0.42451552945E+01  0.31416809914E+01  0.26629932103E+02  0.47000000000E+01 0.  1.
         -5    1    4    4    0  502  0.15926995770E+02  0.38972612930E+02 -0.25069807112E+03  0.25425213198E+03  0.47000000000E+01 0.  1.
          5    1    5    5  503    0 -0.45662171490E+01  0.20946992169E+02 -0.89050038565E+01  0.23685774500E+02  0.47000000000E+01 0.  1.
         -5    1    5    5    0  503  0.14313562283E+02 -0.64164760394E+02 -0.41922646693E+03  0.42437591251E+03  0.47000000000E+01 0.  1.
<mgrwt>
<rscale>  0 0.27350486E+03</rscale>
<asrwt>0</asrwt>
<pdfrwt beam="1">  1        2 0.10804858E+00 0.27350486E+03</pdfrwt>
<pdfrwt beam="2">  1       -2 0.40966071E-02 0.27350486E+03</pdfrwt>
<totfact> 0.11026334E+04</totfact>
</mgrwt>
</event>
<event>
 9    1  0.8175317E-001  0.2693298E+03  0.7818608E-02  0.1101664E+00
          2   -1    0    0  501    0  0.00000000000E+00  0.00000000000E+00  0.27880996335E+04  0.27880996335E+04  0.00000000000E+00 0.  1.
         -2   -1    0    0    0  501 -0.00000000000E+00 -0.00000000000E+00 -0.65042991865E+01  0.65042991865E+01  0.00000000000E+00 0.  1.
         35    2    1    2    0    0  0.71054273576E-14  0.00000000000E+00  0.27815953343E+04  0.27946039327E+04  0.26932979173E+03 0.  0.
         25    2    3    3    0    0  0.15423570245E+02  0.20369381485E+02  0.18256147686E+04  0.18300428555E+04  0.12463856323E+03 0.  0.
         25    2    3    3    0    0 -0.15423570245E+02 -0.20369381485E+02  0.95598056567E+03  0.96456107714E+03  0.12580314528E+03 0.  0.
          5    1    4    4  502    0 -0.47575544653E+02 -0.20145154672E+02  0.68492642533E+03  0.68688831539E+03  0.47000000000E+01 0.  1.
         -5    1    4    4    0  502  0.62999114898E+02  0.40514536157E+02  0.11406883433E+04  0.11431545401E+04  0.47000000000E+01 0.  1.
          5    1    5    5  503    0 -0.59203043824E+02 -0.21742085856E+02  0.79951063621E+03  0.80200814591E+03  0.47000000000E+01 0.  1.
         -5    1    5    5    0  503  0.43779473579E+02  0.13727043712E+01  0.15646992946E+03  0.16255293123E+03  0.47000000000E+01 0.  1.
<mgrwt>
<rscale>  0 0.26932979E+03</rscale>
<asrwt>0</asrwt>
<pdfrwt beam="1">  1        2 0.42893745E+00 0.26932979E+03</pdfrwt>
<pdfrwt beam="2">  1       -2 0.10006636E-02 0.26932979E+03</pdfrwt>
<totfact> 0.58963010E+03</totfact>
</mgrwt>
</event>
<event>
 9    1  0.8175317E-001  0.2762796E+03  0.7818608E-02  0.1097738E+00
         -1   -1    0    0    0  501 -0.00000000000E+00  0.00000000000E+00  0.14627500593E+02  0.14627500593E+02  0.00000000000E+00 0. -1.
          1   -1    0    0  501    0  0.00000000000E+00 -0.00000000000E+00 -0.13045707768E+04  0.13045707768E+04  0.00000000000E+00 0. -1.
         35    2    1    2    0    0 -0.35527136788E-14  0.71054273576E-14 -0.12899432762E+04  0.13191982774E+04  0.27627963958E+03 0.  0.
         25    2    3    3    0    0 -0.86136587019E+01  0.55738347022E+02 -0.56370450464E+03  0.58050399605E+03  0.12665371069E+03 0.  0.
         25    2    3    3    0    0  0.86136587019E+01 -0.55738347022E+02 -0.72623877157E+03  0.73869428135E+03  0.12274171874E+03 0.  0.
          5    1    4    4  502    0  0.18814734545E+02  0.11035180343E+02 -0.10257456737E+02  0.24557582534E+02  0.47000000000E+01 0. -1.
         -5    1    4    4    0  502 -0.27428393247E+02  0.44703166679E+02 -0.55344704790E+03  0.55594641351E+03  0.47000000000E+01 0. -1.
          5    1    5    5  503    0 -0.68051909742E+00 -0.79727069968E+02 -0.26646151598E+03  0.27817386342E+03  0.47000000000E+01 0. -1.
         -5    1    5    5    0  503  0.92941777994E+01  0.23988722946E+02 -0.45977725560E+03  0.46052041793E+03  0.47000000000E+01 0. -1.
<mgrwt>
<rscale>  0 0.27627964E+03</rscale>
<asrwt>0</asrwt>
<pdfrwt beam="1">  1        1 0.20070317E+00 0.27627964E+03</pdfrwt>
<pdfrwt beam="2">  1       -1 0.22503850E-02 0.27627964E+03</pdfrwt>
<totfact> 0.55874318E+03</totfact>
</mgrwt>
</event>
<event>
 9    1  0.8175317E-001  0.2804538E+03  0.7818608E-02  0.1095441E+00
         -2   -1    0    0    0  501 -0.00000000000E+00  0.00000000000E+00  0.70059748247E+02  0.70059748247E+02  0.00000000000E+00 0.  1.
          2   -1    0    0  501    0  0.00000000000E+00 -0.00000000000E+00 -0.28066868876E+03  0.28066868876E+03  0.00000000000E+00 0.  1.
         35    2    1    2    0    0  0.00000000000E+00  0.35527136788E-14 -0.21060894052E+03  0.35072843701E+03  0.28045375858E+03 0.  0.
         25    2    3    3    0    0  0.54305229437E+02  0.25997927374E+02 -0.13464222415E+03  0.19290746165E+03  0.12433748455E+03 0.  0.
         25    2    3    3    0    0 -0.54305229437E+02 -0.25997927374E+02 -0.75966716368E+02  0.15782097536E+03  0.12454544591E+03 0.  0.
          5    1    4    4  502    0  0.42867676826E+02  0.15467041906E+02  0.10382461331E+02  0.46976085459E+02  0.47000000000E+01 0.  1.
         -5    1    4    4    0  502  0.11437552611E+02  0.10530885467E+02 -0.14502468548E+03  0.14593137619E+03  0.47000000000E+01 0.  1.
          5    1    5    5  503    0  0.43321323826E+01  0.15294112031E+02  0.27340213840E+02  0.31972715347E+02  0.47000000000E+01 0. -1.
         -5    1    5    5    0  503 -0.58637361819E+02 -0.41292039405E+02 -0.10330693021E+03  0.12584826001E+03  0.47000000000E+01 0. -1.
<mgrwt>
<rscale>  0 0.28045376E+03</rscale>
<asrwt>0</asrwt>
<pdfrwt beam="1">  1        2 0.43179798E-01 0.28045376E+03</pdfrwt>
<pdfrwt beam="2">  1       -2 0.10778423E-01 0.28045376E+03</pdfrwt>
<totfact> 0.68719086E+03</totfact>
</mgrwt>
</event>
<event>
 9    1  0.8175317E-001  0.2696461E+03  0.7818608E-02  0.1101482E+00
          2   -1    0    0  501    0  0.00000000000E+00  0.00000000000E+00  0.93327767685E+03  0.93327767685E+03  0.00000000000E+00 0. -1.
         -2   -1    0    0    0  501 -0.00000000000E+00 -0.00000000000E+00 -0.19476793996E+02  0.19476793996E+02  0.00000000000E+00 0. -1.
         35    2    1    2    0    0 -0.71054273576E-14  0.26645352591E-14  0.91380088285E+03  0.95275447085E+03  0.26964611663E+03 0.  0.
         25    2    3    3    0    0 -0.43466712517E+02  0.38224349801E+01  0.50900962660E+03  0.52667821615E+03  0.12804365384E+03 0.  0.
         25    2    3    3    0    0  0.43466712517E+02 -0.38224349801E+01  0.40479125625E+03  0.42607625469E+03  0.12562263956E+03 0.  0.
          5    1    4    4  502    0 -0.11782457411E+02  0.41399176932E+01  0.48841325240E+03  0.48859549767E+03  0.47000000000E+01 0. -1.
         -5    1    4    4    0  502 -0.31684255105E+02 -0.31748271307E+00  0.20596374201E+02  0.38082718483E+02  0.47000000000E+01 0. -1.
          5    1    5    5  503    0  0.50292369297E+02  0.22129647713E+02  0.39221059521E+03  0.39606853537E+03  0.47000000000E+01 0. -1.
         -5    1    5    5    0  503 -0.68256567806E+01 -0.25952082693E+02  0.12580661041E+02  0.30007719321E+02  0.47000000000E+01 0. -1.
<mgrwt>
<rscale>  0 0.26964612E+03</rscale>
<asrwt>0</asrwt>
<pdfrwt beam="1">  1        2 0.14358115E+00 0.26964612E+03</pdfrwt>
<pdfrwt beam="2">  1       -2 0.29964306E-02 0.26964612E+03</pdfrwt>
<totfact> 0.12223287E+04</totfact>
</mgrwt>
</event>
<event>
 9    1  0.8175317E-001  0.2701746E+03  0.7818608E-02  0.1101180E+00
         -1   -1    0    0    0  501 -0.00000000000E+00  0.00000000000E+00  0.63487843434E+01  0.63487843434E+01  0.00000000000E+00 0. -1.
          1   -1    0    0  501    0  0.00000000000E+00 -0.00000000000E+00 -0.28743429724E+04  0.28743429724E+04  0.00000000000E+00 0. -1.
         35    2    1    2    0    0  0.00000000000E+00  0.00000000000E+00 -0.28679941881E+04  0.28806917568E+04  0.27017463731E+03 0.  0.
         25    2    3    3    0    0  0.40255754990E+02 -0.82730642916E+00 -0.17749730586E+04  0.17798173609E+04  0.12489703421E+03 0.  0.
         25    2    3    3    0    0 -0.40255754990E+02  0.82730642916E+00 -0.10930211295E+04  0.11008743958E+04  0.12493212454E+03 0.  0.
          5    1    4    4  502    0 -0.37449423281E+01  0.49367315961E+02 -0.11883510828E+04  0.11893912487E+04  0.47000000000E+01 0.  1.
         -5    1    4    4    0  502  0.44000697318E+02 -0.50194622390E+02 -0.58662197581E+03  0.59042611221E+03  0.47000000000E+01 0.  1.
          5    1    5    5  503    0  0.24210301257E+02 -0.45469568602E+02 -0.44156818069E+03  0.44458763878E+03  0.47000000000E+01 0.  1.
         -5    1    5    5    0  503 -0.64466056247E+02  0.46296875031E+02 -0.65145294877E+03  0.65628675707E+03  0.47000000000E+01 0.  1.
<mgrwt>
<rscale>  0 0.27017464E+03</rscale>
<asrwt>0</asrwt>
<pdfrwt beam="1">  1        1 0.44220679E+00 0.27017464E+03</pdfrwt>
<pdfrwt beam="2">  1       -1 0.97673566E-03 0.27017464E+03</pdfrwt>
<totfact> 0.17230624E+03</totfact>
</mgrwt>
</event>
<event>
 9    1  0.8175317E-001  0.2739724E+03  0.7818608E-02  0.1099027E+00
          1   -1    0    0  501    0  0.00000000000E+00  0.00000000000E+00  0.26677489016E+03  0.26677489016E+03  0.00000000000E+00 0. -1.
         -1   -1    0    0    0  501 -0.00000000000E+00 -0.00000000000E+00 -0.70340999296E+02  0.70340999296E+02  0.00000000000E+00 0. -1.
         35    2    1    2    0    0  0.35527136788E-14 -0.71054273576E-14  0.19643389086E+03  0.33711588946E+03  0.27397235160E+03 0.  0.
         25    2    3    3    0    0 -0.91050919472E-02 -0.54032531437E+02  0.72801679983E+02  0.15431622669E+03  0.12487553273E+03 0.  0.
         25    2    3    3    0    0  0.91050919472E-02  0.54032531437E+02  0.12363221088E+03  0.18279966277E+03  0.12333401236E+03 0.  0.
          5    1    4    4  502    0 -0.16594491910E+02  0.38352932844E+02  0.20977781842E+02  0.46994488512E+02  0.47000000000E+01 0. -1.
         -5    1    4    4    0  502  0.16585386818E+02 -0.92385464281E+02  0.51823898141E+02  0.10732173817E+03  0.47000000000E+01 0. -1.
          5    1    5    5  503    0  0.49772732503E+02 -0.27460629885E+01  0.18709467618E+02  0.53450911510E+02  0.47000000000E+01 0. -1.
         -5    1    5    5    0  503 -0.49763627411E+02  0.56778594426E+02  0.10492274326E+03  0.12934875126E+03  0.47000000000E+01 0. -1.
<mgrwt>
<rscale>  0 0.27397235E+03</rscale>
<asrwt>0</asrwt>
<pdfrwt beam="1">  1        1 0.41042290E-01 0.27397235E+03</pdfrwt>
<pdfrwt beam="2">  1       -1 0.10821692E-01 0.27397235E+03</pdfrwt>
<totfact> 0.54415979E+03</totfact>
</mgrwt>
</event>
<event>
 9    1  0.8175317E-001  0.2763227E+03  0.7818608E-02  0.1097714E+00
          1   -1    0    0  501    0  0.00000000000E+00  0.00000000000E+00  0.21460657734E+04  0.21460657734E+04  0.00000000000E+00 0.  1.
         -1   -1    0    0    0  501 -0.00000000000E+00 -0.00000000000E+00 -0.88946782897E+01  0.88946782897E+01  0.00000000000E+00 0.  1.
         35    2    1    2    0    0 -0.35527136788E-14  0.00000000000E+00  0.21371710951E+04  0.21549604517E+04  0.27632274349E+03 0.  0.
         25    2    3    3    0    0  0.24132531551E+02  0.35891069227E+02  0.13824648771E+04  0.13888740583E+04  0.12606135621E+03 0.  0.
         25    2    3    3    0    0 -0.24132531551E+02 -0.35891069227E+02  0.75470621804E+03  0.76608639340E+03  0.12424306288E+03 0.  0.
          5    1    4    4  502    0  0.17621407437E+02  0.53298807731E+02  0.25087582021E+03  0.25712262458E+03  0.47000000000E+01 0. -1.
         -5    1    4    4    0  502  0.65111241140E+01 -0.17407738503E+02  0.11315890569E+04  0.11317514337E+04  0.47000000000E+01 0. -1.
          5    1    5    5  503    0 -0.44205508187E+02  0.22573732319E+02  0.14697112355E+03  0.15519762080E+03  0.47000000000E+01 0. -1.
         -5    1    5    5    0  503  0.20072976636E+02 -0.58464801547E+02  0.60773509449E+03  0.61088877259E+03  0.47000000000E+01 0. -1.
<mgrwt>
<rscale>  0 0.27632274E+03</rscale>
<asrwt>0</asrwt>
<pdfrwt beam="1">  1        1 0.33016355E+00 0.27632274E+03</pdfrwt>
<pdfrwt beam="2">  1       -1 0.13684138E-02 0.27632274E+03</pdfrwt>
<totfact> 0.32337802E+03</totfact>
</mgrwt>
</event>
<event>
 9    1  0.8175317E-001  0.2728579E+03  0.7818608E-02  0.1099655E+00
         -2   -1    0    0    0  501 -0.00000000000E+00  0.00000000000E+00  0.36244239679E+02  0.36244239679E+02  0.00000000000E+00 0.  1.
          2   -1    0    0  501    0  0.00000000000E+00 -0.00000000000E+00 -0.51353972552E+03  0.51353972552E+03  0.00000000000E+00 0.  1.
         35    2    1    2    0    0  0.00000000000E+00  0.00000000000E+00 -0.47729548584E+03  0.54978396520E+03  0.27285788899E+03 0.  0.
         25    2    3    3    0    0 -0.30648734500E+02  0.14174659978E+02 -0.30233857619E+03  0.32889980083E+03  0.12500479360E+03 0.  0.
         25    2    3    3    0    0  0.30648734500E+02 -0.14174659978E+02 -0.17495690965E+03  0.22088416437E+03  0.13053592579E+03 0.  0.
          5    1    4    4  502    0 -0.57189609614E+02 -0.36184836413E+02 -0.20620519682E+03  0.21707755994E+03  0.47000000000E+01 0.  1.
         -5    1    4    4    0  502  0.26540875114E+02  0.50359496391E+02 -0.96133379365E+02  0.11182224089E+03  0.47000000000E+01 0.  1.
          5    1    5    5  503    0 -0.30294808807E+02 -0.44144956067E+02 -0.32014119946E+02  0.62558344469E+02  0.47000000000E+01 0.  1.
         -5    1    5    5    0  503  0.60943543307E+02  0.29970296089E+02 -0.14294278971E+03  0.15832581990E+03  0.47000000000E+01 0.  1.
<mgrwt>
<rscale>  0 0.27285789E+03</rscale>
<asrwt>0</asrwt>
<pdfrwt beam="1">  1        2 0.79006108E-01 0.27285789E+03</pdfrwt>
<pdfrwt beam="2">  1       -2 0.55760371E-02 0.27285789E+03</pdfrwt>
<totfact> 0.99453481E+03</totfact>
</mgrwt>
</event>
<event>
 9    1  0.8175317E-001  0.2809717E+03  0.7818608E-02  0.1095159E+00
         -2   -1    0    0    0  501 -0.00000000000E+00  0.00000000000E+00  0.28869998392E+02  0.28869998392E+02  0.00000000000E+00 0. -1.
          2   -1    0    0  501    0  0.00000000000E+00 -0.00000000000E+00 -0.68362573871E+03  0.68362573871E+03  0.00000000000E+00 0. -1.
         35    2    1    2    0    0 -0.71054273576E-14  0.35527136788E-14 -0.65475574031E+03  0.71249573710E+03  0.28097169948E+03 0.  0.
         25    2    3    3    0    0 -0.29135811335E+02 -0.22532705436E+02 -0.20012115717E+03  0.23958010307E+03  0.12646552860E+03 0.  0.
         25    2    3    3    0    0  0.29135811335E+02  0.22532705436E+02 -0.45463458315E+03  0.47291563403E+03  0.12489985748E+03 0.  0.
          5    1    4    4  502    0 -0.72183548912E+02 -0.24323004620E+02 -0.74331164705E+02  0.10653302462E+03  0.47000000000E+01 0.  1.
         -5    1    4    4    0  502  0.43047737577E+02  0.17902991833E+01 -0.12578999246E+03  0.13304707846E+03  0.47000000000E+01 0.  1.
          5    1    5    5  503    0  0.17981205179E+02  0.21432085667E+02 -0.45909360724E+03  0.45996922533E+03  0.47000000000E+01 0.  1.
         -5    1    5    5    0  503  0.11154606156E+02  0.11006197689E+01  0.44590240971E+01  0.12946408701E+02  0.47000000000E+01 0.  1.
<mgrwt>
<rscale>  0 0.28097170E+03</rscale>
<asrwt>0</asrwt>
<pdfrwt beam="1">  1        2 0.10517318E+00 0.28097170E+03</pdfrwt>
<pdfrwt beam="2">  1       -2 0.44415387E-02 0.28097170E+03</pdfrwt>
<totfact> 0.10093821E+04</totfact>
</mgrwt>
</event>
<event>
 9    1  0.8175317E-001  0.2735699E+03  0.7818608E-02  0.1099254E+00
         -2   -1    0    0    0  501 -0.00000000000E+00  0.00000000000E+00  0.17606516745E+04  0.17606516745E+04  0.00000000000E+00 0. -1.
          2   -1    0    0  501    0  0.00000000000E+00 -0.00000000000E+00 -0.10626815584E+02  0.10626815584E+02  0.00000000000E+00 0. -1.
         35    2    1    2    0    0  0.00000000000E+00 -0.35527136788E-14  0.17500248590E+04  0.17712784901E+04  0.27356988616E+03 0.  0.
         25    2    3    3    0    0 -0.52432112844E+02  0.18929767755E+02  0.96319183898E+03  0.97282275167E+03  0.12465201532E+03 0.  0.
         25    2    3    3    0    0  0.52432112844E+02 -0.18929767755E+02  0.78683301998E+03  0.79845573846E+03  0.12376551370E+03 0.  0.
          5    1    4    4  502    0 -0.28023206572E+02 -0.52292412731E+01  0.90225010374E+03  0.90271257041E+03  0.47000000000E+01 0. -1.
         -5    1    4    4    0  502 -0.24408906273E+02  0.24159009028E+02  0.60941735234E+02  0.70110181258E+02  0.47000000000E+01 0. -1.
          5    1    5    5  503    0  0.48812880775E+02 -0.48465364899E+02  0.73704690013E+03  0.74026469045E+03  0.47000000000E+01 0. -1.
         -5    1    5    5    0  503  0.36192320694E+01  0.29535597144E+02  0.49786119849E+02  0.58191048015E+02  0.47000000000E+01 0. -1.
<mgrwt>
<rscale>  0 0.27356989E+03</rscale>
<asrwt>0</asrwt>
<pdfrwt beam="1">  1        2 0.16348961E-02 0.27356989E+03</pdfrwt>
<pdfrwt beam="2">  1       -2 0.27086926E+00 0.27356989E+03</pdfrwt>
<totfact> 0.39235000E+02</totfact>
</mgrwt>
</event>
<event>
 9    1  0.8175317E-001  0.2778764E+03  0.7818608E-02  0.1096854E+00
          2   -1    0    0  501    0  0.00000000000E+00  0.00000000000E+00  0.76540784335E+03  0.76540784335E+03  0.00000000000E+00 0. -1.
         -2   -1    0    0    0  501 -0.00000000000E+00 -0.00000000000E+00 -0.25220316866E+02  0.25220316866E+02  0.00000000000E+00 0. -1.
         35    2    1    2    0    0  0.71054273576E-14  0.00000000000E+00  0.74018752648E+03  0.79062816021E+03  0.27787643542E+03 0.  0.
         25    2    3    3    0    0  0.33445593012E+02 -0.28691582391E+02  0.48928452515E+03  0.50680111486E+03  0.12452392895E+03 0.  0.
         25    2    3    3    0    0 -0.33445593012E+02  0.28691582391E+02  0.25090300133E+03  0.28382704535E+03  0.12515454848E+03 0.  0.
          5    1    4    4  502    0 -0.42235028143E+02 -0.30943878254E+02  0.26103299851E+03  0.26627361401E+03  0.47000000000E+01 0.  1.
         -5    1    4    4    0  502  0.75680621155E+02  0.22522958635E+01  0.22825152663E+03  0.24052750085E+03  0.47000000000E+01 0.  1.
          5    1    5    5  503    0 -0.60782421010E+02  0.22213196002E+02  0.52706716668E+02  0.83594358436E+02  0.47000000000E+01 0.  1.
         -5    1    5    5    0  503  0.27336827998E+02  0.64783863888E+01  0.19819628467E+03  0.20023268692E+03  0.47000000000E+01 0.  1.
<mgrwt>
<rscale>  0 0.27787644E+03</rscale>
<asrwt>0</asrwt>
<pdfrwt beam="1">  1        2 0.11775504E+00 0.27787644E+03</pdfrwt>
<pdfrwt beam="2">  1       -2 0.38800493E-02 0.27787644E+03</pdfrwt>
<totfact> 0.10767133E+04</totfact>
</mgrwt>
</event>
<event>
 9    1  0.8175317E-001  0.2740086E+03  0.7818608E-02  0.1099007E+00
          1   -1    0    0  501    0  0.00000000000E+00  0.00000000000E+00  0.24908484725E+02  0.24908484725E+02  0.00000000000E+00 0.  1.
         -1   -1    0    0    0  501 -0.00000000000E+00 -0.00000000000E+00 -0.75356548928E+03  0.75356548928E+03  0.00000000000E+00 0.  1.
         35    2    1    2    0    0 -0.71054273576E-14  0.00000000000E+00 -0.72865700456E+03  0.77847397401E+03  0.27400857271E+03 0.  0.
         25    2    3    3    0    0  0.53854302590E+02  0.21241881292E+02 -0.40401363003E+03  0.42583696019E+03  0.12148497845E+03 0.  0.
         25    2    3    3    0    0 -0.53854302590E+02 -0.21241881292E+02 -0.32464337453E+03  0.35263701382E+03  0.12493213941E+03 0.  0.
          5    1    4    4  502    0 -0.36589553194E+02 -0.34544678577E+01 -0.16367022852E+03  0.16781168748E+03  0.47000000000E+01 0. -1.
         -5    1    4    4    0  502  0.90443855784E+02  0.24696349150E+02 -0.24034340151E+03  0.25802527271E+03  0.47000000000E+01 0. -1.
          5    1    5    5  503    0  0.38265578839E+02  0.20833250829E+01 -0.59394112665E+02  0.70840280819E+02  0.47000000000E+01 0.  1.
         -5    1    5    5    0  503 -0.92119881429E+02 -0.23325206375E+02 -0.26524926187E+03  0.28179673300E+03  0.47000000000E+01 0.  1.
<mgrwt>
<rscale>  0 0.27400857E+03</rscale>
<asrwt>0</asrwt>
<pdfrwt beam="1">  1        1 0.38320752E-02 0.27400857E+03</pdfrwt>
<pdfrwt beam="2">  1       -1 0.11593313E+00 0.27400857E+03</pdfrwt>
<totfact> 0.17318303E+03</totfact>
</mgrwt>
</event>
<event>
 9    1  0.8175317E-001  0.2696069E+03  0.7818608E-02  0.1101505E+00
         -1   -1    0    0    0  501 -0.00000000000E+00  0.00000000000E+00  0.30387763206E+02  0.30387763206E+02  0.00000000000E+00 0. -1.
          1   -1    0    0  501    0  0.00000000000E+00 -0.00000000000E+00 -0.59800300522E+03  0.59800300522E+03  0.00000000000E+00 0. -1.
         35    2    1    2    0    0  0.35527136788E-14  0.00000000000E+00 -0.56761524202E+03  0.62839076843E+03  0.26960692661E+03 0.  0.
         25    2    3    3    0    0 -0.54968529920E+01 -0.34163301463E+02 -0.38029957650E+03  0.40049688963E+03  0.12071720737E+03 0.  0.
         25    2    3    3    0    0  0.54968529920E+01  0.34163301463E+02 -0.18731566551E+03  0.22789387880E+03  0.12510441594E+03 0.  0.
          5    1    4    4  502    0 -0.33323315791E+02 -0.24044964721E+01 -0.23357384038E+02  0.41035135770E+02  0.47000000000E+01 0. -1.
         -5    1    4    4    0  502  0.27826462799E+02 -0.31758804991E+02 -0.35694219246E+03  0.35946175386E+03  0.47000000000E+01 0. -1.
          5    1    5    5  503    0  0.47579750200E+02 -0.98481093702E+01 -0.25793292859E+02  0.55210522944E+02  0.47000000000E+01 0.  1.
         -5    1    5    5    0  503 -0.42082897208E+02  0.44011410833E+02 -0.16152237266E+03  0.17268335585E+03  0.47000000000E+01 0.  1.
<mgrwt>
<rscale>  0 0.26960693E+03</rscale>
<asrwt>0</asrwt>
<pdfrwt beam="1">  1        1 0.92000467E-01 0.26960693E+03</pdfrwt>
<pdfrwt beam="2">  1       -1 0.46750402E-02 0.26960693E+03</pdfrwt>
<totfact> 0.68486977E+03</totfact>
</mgrwt>
</event>
<event>
 9    1  0.8175317E-001  0.2739056E+03  0.7818608E-02  0.1099065E+00
          1   -1    0    0  501    0  0.00000000000E+00  0.00000000000E+00  0.15437772427E+03  0.15437772427E+03  0.00000000000E+00 0.  1.
         -1   -1    0    0    0  501 -0.00000000000E+00 -0.00000000000E+00 -0.12149469019E+03  0.12149469019E+03  0.00000000000E+00 0.  1.
         35    2    1    2    0    0  0.00000000000E+00 -0.71054273576E-14  0.32883034083E+02  0.27587241446E+03  0.27390563179E+03 0.  0.
         25    2    3    3    0    0  0.23288945298E+02 -0.44901133563E+02  0.45667908232E+02  0.14367644555E+03  0.12648666489E+03 0.  0.
         25    2    3    3    0    0 -0.23288945298E+02  0.44901133563E+02 -0.12784874149E+02  0.13219596891E+03  0.12146536305E+03 0.  0.
          5    1    4    4  502    0 -0.25944764687E+01  0.43579867337E+02  0.15414018190E+02  0.46536202058E+02  0.47000000000E+01 0. -1.
         -5    1    4    4    0  502  0.25883421767E+02 -0.88481000900E+02  0.30253890041E+02  0.97140243490E+02  0.47000000000E+01 0. -1.
          5    1    5    5  503    0  0.35692819505E+02  0.84071612074E+01 -0.42729717981E+02  0.56502889506E+02  0.47000000000E+01 0.  1.
         -5    1    5    5    0  503 -0.58981764802E+02  0.36493972355E+02  0.29944843832E+02  0.75693079404E+02  0.47000000000E+01 0.  1.
<mgrwt>
<rscale>  0 0.27390563E+03</rscale>
<asrwt>0</asrwt>
<pdfrwt beam="1">  1        1 0.23750419E-01 0.27390563E+03</pdfrwt>
<pdfrwt beam="2">  1       -1 0.18691491E-01 0.27390563E+03</pdfrwt>
<totfact> 0.45726091E+03</totfact>
</mgrwt>
</event>
<event>
 9    1  0.8175317E-001  0.2686899E+03  0.7818608E-02  0.1102032E+00
          1   -1    0    0  501    0  0.00000000000E+00  0.00000000000E+00  0.15204883974E+04  0.15204883974E+04  0.00000000000E+00 0. -1.
         -1   -1    0    0    0  501 -0.00000000000E+00 -0.00000000000E+00 -0.11870238202E+02  0.11870238202E+02  0.00000000000E+00 0. -1.
         35    2    1    2    0    0  0.00000000000E+00  0.71054273576E-14  0.15086181592E+04  0.15323586356E+04  0.26868985437E+03 0.  0.
         25    2    3    3    0    0 -0.61811325519E+01  0.54018116209E+02  0.72044709326E+03  0.73245797490E+03  0.12039313736E+03 0.  0.
         25    2    3    3    0    0  0.61811325519E+01 -0.54018116209E+02  0.78817106591E+03  0.79990066068E+03  0.12518496131E+03 0.  0.
          5    1    4    4  502    0 -0.23220530397E+02 -0.34026378891E+02  0.26757248158E+03  0.27076578512E+03  0.47000000000E+01 0. -1.
         -5    1    4    4    0  502  0.17039397845E+02  0.88044495100E+02  0.45287461169E+03  0.46169218978E+03  0.47000000000E+01 0. -1.
          5    1    5    5  503    0  0.79827459913E+01  0.40253222017E+02  0.28074396479E+03  0.28376629447E+03  0.47000000000E+01 0.  1.
         -5    1    5    5    0  503 -0.18016134394E+01 -0.94271338226E+02  0.50742710112E+03  0.51613436620E+03  0.47000000000E+01 0.  1.
<mgrwt>
<rscale>  0 0.26868985E+03</rscale>
<asrwt>0</asrwt>
<pdfrwt beam="1">  1        1 0.23392114E+00 0.26868985E+03</pdfrwt>
<pdfrwt beam="2">  1       -1 0.18261917E-02 0.26868985E+03</pdfrwt>
<totfact> 0.54309367E+03</totfact>
</mgrwt>
</event>
<event>
 9    1  0.8175317E-001  0.2725774E+03  0.7818608E-02  0.1099814E+00
         -2   -1    0    0    0  501 -0.00000000000E+00  0.00000000000E+00  0.67160451574E+02  0.67160451574E+02  0.00000000000E+00 0. -1.
          2   -1    0    0  501    0  0.00000000000E+00 -0.00000000000E+00 -0.27657055186E+03  0.27657055186E+03  0.00000000000E+00 0. -1.
         35    2    1    2    0    0  0.00000000000E+00  0.00000000000E+00 -0.20941010028E+03  0.34373100343E+03  0.27257735163E+03 0.  0.
         25    2    3    3    0    0  0.68433568546E+02  0.67398383540E+00 -0.10331875202E+03  0.17589539968E+03  0.12482315310E+03 0.  0.
         25    2    3    3    0    0 -0.68433568546E+02 -0.67398383540E+00 -0.10609134826E+03  0.16783560375E+03  0.11058846302E+03 0.  0.
          5    1    4    4  502    0  0.69528151718E+02 -0.36991818651E+02 -0.11194547695E+03  0.13695414685E+03  0.47000000000E+01 0.  1.
         -5    1    4    4    0  502 -0.10945831723E+01  0.37665802486E+02  0.86267249273E+01  0.38941252833E+02  0.47000000000E+01 0.  1.
          5    1    5    5  503    0 -0.83946246430E+02  0.34492963984E+02 -0.67849990890E+02  0.11341273349E+03  0.47000000000E+01 0. -1.
         -5    1    5    5    0  503  0.15512677884E+02 -0.35166947819E+02 -0.38241357370E+02  0.54422870262E+02  0.47000000000E+01 0. -1.
<mgrwt>
<rscale>  0 0.27257735E+03</rscale>
<asrwt>0</asrwt>
<pdfrwt beam="1">  1        2 0.42549316E-01 0.27257735E+03</pdfrwt>
<pdfrwt beam="2">  1       -2 0.10332377E-01 0.27257735E+03</pdfrwt>
<totfact> 0.74609207E+03</totfact>
</mgrwt>
</event>
<event>
 9    1  0.8175317E-001  0.2822796E+03  0.7818608E-02  0.1094450E+00
         -4   -1    0    0    0  501 -0.00000000000E+00  0.00000000000E+00  0.24152411222E+03  0.24152411222E+03  0.00000000000E+00 0. -1.
          4   -1    0    0  501    0  0.00000000000E+00 -0.00000000000E+00 -0.82478051582E+02  0.82478051582E+02  0.00000000000E+00 0. -1.
         35    2    1    2    0    0  0.00000000000E+00 -0.71054273576E-14  0.15904606064E+03  0.32400216381E+03  0.28227956487E+03 0.  0.
         25    2    3    3    0    0 -0.36097058245E+02  0.29819318081E+02  0.22446742835E+02  0.13499931613E+03  0.12461448450E+03 0.  0.
         25    2    3    3    0    0  0.36097058245E+02 -0.29819318081E+02  0.13659931781E+03  0.18900284768E+03  0.12194471477E+03 0.  0.
          5    1    4    4  502    0 -0.55007748166E+02 -0.20750839903E+02  0.47083347303E+02  0.75467750120E+02  0.47000000000E+01 0.  1.
         -5    1    4    4    0  502  0.18910689920E+02  0.50570157984E+02 -0.24636604468E+02  0.59531566009E+02  0.47000000000E+01 0.  1.
          5    1    5    5  503    0  0.67398873002E+02 -0.56934042638E+02  0.84191834807E+02  0.12204281356E+03  0.47000000000E+01 0.  1.
         -5    1    5    5    0  503 -0.31301814757E+02  0.27114724557E+02  0.52407482999E+02  0.66960034119E+02  0.47000000000E+01 0.  1.
<mgrwt>
<rscale>  0 0.28227956E+03</rscale>
<asrwt>0</asrwt>
<pdfrwt beam="1">  1        4 0.12688931E-01 0.28227956E+03</pdfrwt>
<pdfrwt beam="2">  1       -4 0.37157555E-01 0.28227956E+03</pdfrwt>
<totfact> 0.66779008E+02</totfact>
</mgrwt>
</event>
<event>
 9    1  0.8175317E-001  0.2758627E+03  0.7818608E-02  0.1097970E+00
          1   -1    0    0  501    0  0.00000000000E+00  0.00000000000E+00  0.70605800655E+03  0.70605800655E+03  0.00000000000E+00 0.  1.
         -1   -1    0    0    0  501 -0.00000000000E+00 -0.00000000000E+00 -0.26945468775E+02  0.26945468775E+02  0.00000000000E+00 0.  1.
         35    2    1    2    0    0 -0.35527136788E-14  0.00000000000E+00  0.67911253777E+03  0.73300347533E+03  0.27586274826E+03 0.  0.
         25    2    3    3    0    0 -0.23172780627E+02  0.49040427705E+02  0.28684522258E+03  0.31721602158E+03  0.12411237377E+03 0.  0.
         25    2    3    3    0    0  0.23172780627E+02 -0.49040427705E+02  0.39226731520E+03  0.41578745374E+03  0.12674233234E+03 0.  0.
          5    1    4    4  502    0 -0.66459144902E-01  0.53045518581E+02  0.28837412932E+03  0.29324999560E+03  0.47000000000E+01 0. -1.
         -5    1    4    4    0  502 -0.23106321482E+02 -0.40050908764E+01 -0.15289067470E+01  0.23966025978E+02  0.47000000000E+01 0. -1.
          5    1    5    5  503    0  0.42922412896E+01  0.37915895446E+02  0.56091508538E+02  0.68002836653E+02  0.47000000000E+01 0. -1.
         -5    1    5    5    0  503  0.18880539337E+02 -0.86956323150E+02  0.33617580666E+03  0.34778461709E+03  0.47000000000E+01 0. -1.
<mgrwt>
<rscale>  0 0.27586275E+03</rscale>
<asrwt>0</asrwt>
<pdfrwt beam="1">  1        1 0.10862429E+00 0.27586275E+03</pdfrwt>
<pdfrwt beam="2">  1       -1 0.41454573E-02 0.27586275E+03</pdfrwt>
<totfact> 0.64726394E+03</totfact>
</mgrwt>
</event>
<event>
 9    1  0.8175317E-001  0.2984815E+03  0.7818608E-02  0.1086002E+00
          2   -1    0    0  501    0  0.00000000000E+00  0.00000000000E+00  0.52122732527E+03  0.52122732527E+03  0.00000000000E+00 0. -1.
         -2   -1    0    0    0  501 -0.00000000000E+00 -0.00000000000E+00 -0.42731441575E+02  0.42731441575E+02  0.00000000000E+00 0. -1.
         35    2    1    2    0    0  0.00000000000E+00 -0.14210854715E-13  0.47849588370E+03  0.56395876685E+03  0.29848145669E+03 0.  0.
         25    2    3    3    0    0  0.22232164596E+02  0.33571631480E+02  0.37264838795E+03  0.39493650580E+03  0.12444556639E+03 0.  0.
         25    2    3    3    0    0 -0.22232164596E+02 -0.33571631480E+02  0.10584749575E+03  0.16902226104E+03  0.12547313971E+03 0.  0.
          5    1    4    4  502    0  0.13871956188E+01  0.79666489594E+02  0.21767496838E+03  0.23184726812E+03  0.47000000000E+01 0.  1.
         -5    1    4    4    0  502  0.20844968977E+02 -0.46094858113E+02  0.15497341957E+03  0.16308923768E+03  0.47000000000E+01 0.  1.
          5    1    5    5  503    0 -0.69244746401E+02  0.39895285106E+01  0.70810199249E+02  0.99231676190E+02  0.47000000000E+01 0.  1.
         -5    1    5    5    0  503  0.47012581805E+02 -0.37561159991E+02  0.35037296503E+02  0.69790584852E+02  0.47000000000E+01 0.  1.
<mgrwt>
<rscale>  0 0.29848146E+03</rscale>
<asrwt>0</asrwt>
<pdfrwt beam="1">  1        2 0.80188815E-01 0.29848146E+03</pdfrwt>
<pdfrwt beam="2">  1       -2 0.65740683E-02 0.29848146E+03</pdfrwt>
<totfact> 0.76173963E+03</totfact>
</mgrwt>
</event>
<event>
 9    1  0.8175317E-001  0.2747777E+03  0.7818608E-02  0.1098576E+00
          1   -1    0    0  501    0  0.00000000000E+00  0.00000000000E+00  0.98797929242E+03  0.98797929242E+03  0.00000000000E+00 0.  1.
         -1   -1    0    0    0  501 -0.00000000000E+00 -0.00000000000E+00 -0.19105358001E+02  0.19105358001E+02  0.00000000000E+00 0.  1.
         35    2    1    2    0    0  0.00000000000E+00  0.00000000000E+00  0.96887393442E+03  0.10070846504E+04  0.27477771437E+03 0.  0.
         25    2    3    3    0    0 -0.24280562438E+02 -0.46557022971E+02  0.38223135657E+03  0.40499681194E+03  0.12314424726E+03 0.  0.
         25    2    3    3    0    0  0.24280562438E+02  0.46557022971E+02  0.58664257785E+03  0.60208783848E+03  0.12491256544E+03 0.  0.
          5    1    4    4  502    0  0.11152014913E+02 -0.30419543918E+02  0.15584476561E+02  0.36258543799E+02  0.47000000000E+01 0.  1.
         -5    1    4    4    0  502 -0.35432577350E+02 -0.16137479053E+02  0.36664688001E+03  0.36873826814E+03  0.47000000000E+01 0.  1.
          5    1    5    5  503    0 -0.50203019437E+02  0.25209174781E+02  0.20368165511E+03  0.21133895118E+03  0.47000000000E+01 0. -1.
         -5    1    5    5    0  503  0.74483581875E+02  0.21347848190E+02  0.38296092273E+03  0.39074888731E+03  0.47000000000E+01 0. -1.
<mgrwt>
<rscale>  0 0.27477771E+03</rscale>
<asrwt>0</asrwt>
<pdfrwt beam="1">  1        1 0.15199677E+00 0.27477771E+03</pdfrwt>
<pdfrwt beam="2">  1       -1 0.29392866E-02 0.27477771E+03</pdfrwt>
<totfact> 0.63436227E+03</totfact>
</mgrwt>
</event>
<event>
 9    1  0.8175317E-001  0.2757316E+03  0.7818608E-02  0.1098043E+00
          2   -1    0    0  501    0  0.00000000000E+00  0.00000000000E+00  0.22583044156E+03  0.22583044156E+03  0.00000000000E+00 0.  1.
         -2   -1    0    0    0  501 -0.00000000000E+00 -0.00000000000E+00 -0.84164819480E+02  0.84164819480E+02  0.00000000000E+00 0.  1.
         35    2    1    2    0    0  0.00000000000E+00  0.35527136788E-14  0.14166562208E+03  0.30999526104E+03  0.27573159664E+03 0.  0.
         25    2    3    3    0    0 -0.18257211933E+02  0.72439647896E+00  0.78490779885E+01  0.12650716663E+03  0.12493440137E+03 0.  0.
         25    2    3    3    0    0  0.18257211933E+02 -0.72439647896E+00  0.13381654409E+03  0.18348809441E+03  0.12420613020E+03 0.  0.
          5    1    4    4  502    0  0.97720971567E+01  0.49963643153E+02 -0.28978924433E+02  0.58768423335E+02  0.47000000000E+01 0.  1.
         -5    1    4    4    0  502 -0.28029309090E+02 -0.49239246674E+02  0.36828002422E+02  0.67738743297E+02  0.47000000000E+01 0.  1.
          5    1    5    5  503    0  0.36570220735E+01 -0.23220302955E+02 -0.17539126327E+02  0.29702983555E+02  0.47000000000E+01 0.  1.
         -5    1    5    5    0  503  0.14600189860E+02  0.22495906476E+02  0.15135567042E+03  0.15378511085E+03  0.47000000000E+01 0.  1.
<mgrwt>
<rscale>  0 0.27573160E+03</rscale>
<asrwt>0</asrwt>
<pdfrwt beam="1">  1        2 0.34743145E-01 0.27573160E+03</pdfrwt>
<pdfrwt beam="2">  1       -2 0.12948434E-01 0.27573160E+03</pdfrwt>
<totfact> 0.64615375E+03</totfact>
</mgrwt>
</event>
<event>
 9    1  0.8175317E-001  0.2757290E+03  0.7818608E-02  0.1098045E+00
          1   -1    0    0  501    0  0.00000000000E+00  0.00000000000E+00  0.26568625820E+04  0.26568625820E+04  0.00000000000E+00 0. -1.
         -1   -1    0    0    0  501 -0.00000000000E+00 -0.00000000000E+00 -0.71537825215E+01  0.71537825215E+01  0.00000000000E+00 0. -1.
         35    2    1    2    0    0  0.00000000000E+00  0.14210854715E-13  0.26497087994E+04  0.26640163645E+04  0.27572897636E+03 0.  0.
         25    2    3    3    0    0 -0.15368242542E+02  0.52056488795E+02  0.16082805759E+04  0.16140235680E+04  0.12473815128E+03 0.  0.
         25    2    3    3    0    0  0.15368242542E+02 -0.52056488795E+02  0.10414282236E+04  0.10499927965E+04  0.12233587759E+03 0.  0.
          5    1    4    4  502    0  0.30091895275E+02  0.34394983491E+02  0.13693776723E+04  0.13701481075E+04  0.47000000000E+01 0. -1.
         -5    1    4    4    0  502 -0.45460137817E+02  0.17661505304E+02  0.23890290359E+03  0.24387546052E+03  0.47000000000E+01 0. -1.
          5    1    5    5  503    0  0.27424788634E+02  0.19046199645E+02  0.94951420290E+02  0.10076080075E+03  0.47000000000E+01 0.  1.
         -5    1    5    5    0  503 -0.12056546091E+02 -0.71102688440E+02  0.94647680328E+03  0.94923199575E+03  0.47000000000E+01 0.  1.
<mgrwt>
<rscale>  0 0.27572898E+03</rscale>
<asrwt>0</asrwt>
<pdfrwt beam="1">  1        1 0.40874730E+00 0.27572898E+03</pdfrwt>
<pdfrwt beam="2">  1       -1 0.11005840E-02 0.27572898E+03</pdfrwt>
<totfact> 0.20381109E+03</totfact>
</mgrwt>
</event>
<event>
 9    1  0.8175317E-001  0.2752289E+03  0.7818608E-02  0.1098324E+00
         -1   -1    0    0    0  501 -0.00000000000E+00  0.00000000000E+00  0.11248651523E+03  0.11248651523E+03  0.00000000000E+00 0.  1.
          1   -1    0    0  501    0  0.00000000000E+00 -0.00000000000E+00 -0.16835560909E+03  0.16835560909E+03  0.00000000000E+00 0.  1.
         35    2    1    2    0    0  0.00000000000E+00 -0.17763568394E-14 -0.55869093856E+02  0.28084212432E+03  0.27522889228E+03 0.  0.
         25    2    3    3    0    0  0.43150106322E+02  0.88510199174E+00  0.30183622810E+01  0.13147159811E+03  0.12414892475E+03 0.  0.
         25    2    3    3    0    0 -0.43150106322E+02 -0.88510199174E+00 -0.58887456137E+02  0.14937052622E+03  0.13031157481E+03 0.  0.
          5    1    4    4  502    0  0.83376401297E+02  0.57061001593E+01 -0.17957294464E+02  0.85608050420E+02  0.47000000000E+01 0.  1.
         -5    1    4    4    0  502 -0.40226294975E+02 -0.48209981675E+01  0.20975656745E+02  0.45863547689E+02  0.47000000000E+01 0.  1.
          5    1    5    5  503    0  0.41378938074E+02  0.22667524181E+02 -0.32979496194E+02  0.57756128141E+02  0.47000000000E+01 0.  1.
         -5    1    5    5    0  503 -0.84529044396E+02 -0.23552626173E+02 -0.25907959943E+02  0.91614398075E+02  0.47000000000E+01 0.  1.
<mgrwt>
<rscale>  0 0.27522889E+03</rscale>
<asrwt>0</asrwt>
<pdfrwt beam="1">  1        1 0.25900863E-01 0.27522889E+03</pdfrwt>
<pdfrwt beam="2">  1       -1 0.17305618E-01 0.27522889E+03</pdfrwt>
<totfact> 0.46361856E+03</totfact>
</mgrwt>
</event>
<event>
 9    1  0.8175317E-001  0.2791717E+03  0.7818608E-02  0.1096142E+00
         -1   -1    0    0    0  501 -0.00000000000E+00  0.00000000000E+00  0.12931663859E+02  0.12931663859E+02  0.00000000000E+00 0.  1.
          1   -1    0    0  501    0  0.00000000000E+00 -0.00000000000E+00 -0.15067055285E+04  0.15067055285E+04  0.00000000000E+00 0.  1.
         35    2    1    2    0    0 -0.71054273576E-14 -0.71054273576E-14 -0.14937738646E+04  0.15196371924E+04  0.27917169935E+03 0.  0.
         25    2    3    3    0    0 -0.16488108637E+02  0.43604839870E+02 -0.53463793350E+03  0.55100922650E+03  0.12490079248E+03 0.  0.
         25    2    3    3    0    0  0.16488108637E+02 -0.43604839870E+02 -0.95913593114E+03  0.96862796586E+03  0.12698488908E+03 0.  0.
          5    1    4    4  502    0 -0.12740084188E+02 -0.35963794581E+02 -0.31477927957E+03  0.31711794196E+03  0.47000000000E+01 0.  1.
         -5    1    4    4    0  502 -0.37480244488E+01  0.79568634451E+02 -0.21985865393E+03  0.23389128454E+03  0.47000000000E+01 0.  1.
          5    1    5    5  503    0 -0.51420634104E+02 -0.25143224161E+02 -0.59195505449E+03  0.59473451209E+03  0.47000000000E+01 0. -1.
         -5    1    5    5    0  503  0.67908742741E+02 -0.18461615709E+02 -0.36718087665E+03  0.37389345377E+03  0.47000000000E+01 0. -1.
<mgrwt>
<rscale>  0 0.27917170E+03</rscale>
<asrwt>0</asrwt>
<pdfrwt beam="1">  1        1 0.23180078E+00 0.27917170E+03</pdfrwt>
<pdfrwt beam="2">  1       -1 0.19894874E-02 0.27917170E+03</pdfrwt>
<totfact> 0.48955516E+03</totfact>
</mgrwt>
</event>
<event>
 9    1  0.8175317E-001  0.2757337E+03  0.7818608E-02  0.1098042E+00
         -2   -1    0    0    0  501 -0.00000000000E+00  0.00000000000E+00  0.14458089037E+02  0.14458089037E+02  0.00000000000E+00 0.  1.
          2   -1    0    0  501    0  0.00000000000E+00 -0.00000000000E+00 -0.13146456571E+04  0.13146456571E+04  0.00000000000E+00 0.  1.
         35    2    1    2    0    0  0.35527136788E-14  0.00000000000E+00 -0.13001875680E+04  0.13291037461E+04  0.27573366832E+03 0.  0.
         25    2    3    3    0    0 -0.19600797827E+02  0.44950821047E+02 -0.80278096054E+03  0.81387251634E+03  0.12460511488E+03 0.  0.
         25    2    3    3    0    0  0.19600797827E+02 -0.44950821047E+02 -0.49740660749E+03  0.51523122977E+03  0.12508045157E+03 0.  0.
          5    1    4    4  502    0  0.93205617888E+01  0.63523624964E+02 -0.73419746141E+03  0.73701433239E+03  0.47000000000E+01 0. -1.
         -5    1    4    4    0  502 -0.28921359616E+02 -0.18572803917E+02 -0.68583499131E+02  0.76858183952E+02  0.47000000000E+01 0. -1.
          5    1    5    5  503    0 -0.42492728510E+02  0.16584908323E+02 -0.20110704554E+03  0.20626881714E+03  0.47000000000E+01 0.  1.
         -5    1    5    5    0  503  0.62093526336E+02 -0.61535729370E+02 -0.29629956196E+03  0.30896241263E+03  0.47000000000E+01 0.  1.
<mgrwt>
<rscale>  0 0.27573367E+03</rscale>
<asrwt>0</asrwt>
<pdfrwt beam="1">  1        2 0.20225326E+00 0.27573367E+03</pdfrwt>
<pdfrwt beam="2">  1       -2 0.22243205E-02 0.27573367E+03</pdfrwt>
<totfact> 0.11371321E+04</totfact>
</mgrwt>
</event>
<event>
 9    1  0.8175317E-001  0.2746789E+03  0.7818608E-02  0.1098631E+00
          2   -1    0    0  501    0  0.00000000000E+00  0.00000000000E+00  0.20618352344E+04  0.20618352344E+04  0.00000000000E+00 0.  1.
         -2   -1    0    0    0  501 -0.00000000000E+00 -0.00000000000E+00 -0.91482185702E+01  0.91482185702E+01  0.00000000000E+00 0.  1.
         35    2    1    2    0    0 -0.17763568394E-14 -0.71054273576E-14  0.20526870158E+04  0.20709834529E+04  0.27467886253E+03 0.  0.
         25    2    3    3    0    0  0.93582771908E+01 -0.50571043454E+02  0.66840923843E+03  0.68012571875E+03  0.11469557748E+03 0.  0.
         25    2    3    3    0    0 -0.93582771908E+01  0.50571043454E+02  0.13842777774E+04  0.13908577342E+04  0.12496105016E+03 0.  0.
          5    1    4    4  502    0 -0.10161192823E+02  0.25227734168E+02  0.38738402636E+03  0.38836601588E+03  0.47000000000E+01 0.  1.
         -5    1    4    4    0  502  0.19519470013E+02 -0.75798777622E+02  0.28102521207E+03  0.29175970287E+03  0.47000000000E+01 0.  1.
          5    1    5    5  503    0 -0.21017154252E+02 -0.37732094058E+02  0.58721719022E+03  0.58882217196E+03  0.47000000000E+01 0. -1.
         -5    1    5    5    0  503  0.11658877061E+02  0.88303137512E+02  0.79706058714E+03  0.80203556223E+03  0.47000000000E+01 0. -1.
<mgrwt>
<rscale>  0 0.27467886E+03</rscale>
<asrwt>0</asrwt>
<pdfrwt beam="1">  1        2 0.31720505E+00 0.27467886E+03</pdfrwt>
<pdfrwt beam="2">  1       -2 0.14074199E-02 0.27467886E+03</pdfrwt>
<totfact> 0.89260740E+03</totfact>
</mgrwt>
</event>
<event>
 9    1  0.8175317E-001  0.2734038E+03  0.7818608E-02  0.1099347E+00
          2   -1    0    0  501    0  0.00000000000E+00  0.00000000000E+00  0.42476504883E+04  0.42476504883E+04  0.00000000000E+00 0. -1.
         -2   -1    0    0    0  501 -0.00000000000E+00 -0.00000000000E+00 -0.43994688855E+01  0.43994688855E+01  0.00000000000E+00 0. -1.
         35    2    1    2    0    0  0.00000000000E+00  0.00000000000E+00  0.42432510195E+04  0.42520499572E+04  0.27340377583E+03 0.  0.
         25    2    3    3    0    0 -0.50690801698E+02  0.20105814789E+02  0.20204910485E+04  0.20250957139E+04  0.12511903182E+03 0.  0.
         25    2    3    3    0    0  0.50690801698E+02 -0.20105814789E+02  0.22227599709E+04  0.22269542433E+04  0.12525778352E+03 0.  0.
          5    1    4    4  502    0  0.32070156188E+02  0.14104344366E+02  0.23227731469E+03  0.23495162984E+03  0.47000000000E+01 0. -1.
         -5    1    4    4    0  502 -0.82760957886E+02  0.60014704230E+01  0.17882137338E+04  0.17901440841E+04  0.47000000000E+01 0. -1.
          5    1    5    5  503    0  0.27929778640E+02 -0.61612406487E+02  0.18400578160E+04  0.18413068776E+04  0.47000000000E+01 0.  1.
         -5    1    5    5    0  503  0.22761023058E+02  0.41506591699E+02  0.38270215491E+03  0.38564736574E+03  0.47000000000E+01 0.  1.
<mgrwt>
<rscale>  0 0.27340378E+03</rscale>
<asrwt>0</asrwt>
<pdfrwt beam="1">  1        2 0.65348141E+00 0.27340378E+03</pdfrwt>
<pdfrwt beam="2">  1       -2 0.67684477E-03 0.27340378E+03</pdfrwt>
<totfact> 0.10638361E+03</totfact>
</mgrwt>
</event>
<event>
 9    1  0.8175317E-001  0.2760334E+03  0.7818608E-02  0.1097875E+00
          2   -1    0    0  501    0  0.00000000000E+00  0.00000000000E+00  0.25629694376E+03  0.25629694376E+03  0.00000000000E+00 0.  1.
         -2   -1    0    0    0  501 -0.00000000000E+00 -0.00000000000E+00 -0.74322414912E+02  0.74322414912E+02  0.00000000000E+00 0.  1.
         35    2    1    2    0    0  0.35527136788E-14 -0.71054273576E-14  0.18197452885E+03  0.33061935867E+03  0.27603338780E+03 0.  0.
         25    2    3    3    0    0 -0.42147737384E+01  0.28828466991E+02  0.13745892615E+03  0.19237901345E+03  0.13139970932E+03 0.  0.
         25    2    3    3    0    0  0.42147737384E+01 -0.28828466991E+02  0.44515602696E+02  0.13824034522E+03  0.12759274798E+03 0.  0.
          5    1    4    4  502    0  0.22576797432E+02 -0.47861472281E+02  0.50827878538E+02  0.73525475503E+02  0.47000000000E+01 0. -1.
         -5    1    4    4    0  502 -0.26791571171E+02  0.76689939273E+02  0.86631047612E+02  0.11885353794E+03  0.47000000000E+01 0. -1.
          5    1    5    5  503    0  0.50515219714E+02 -0.11435935861E+02  0.66071056289E+02  0.84083544947E+02  0.47000000000E+01 0. -1.
         -5    1    5    5    0  503 -0.46300445976E+02 -0.17392531131E+02 -0.21555453593E+02  0.54156800277E+02  0.47000000000E+01 0. -1.
<mgrwt>
<rscale>  0 0.27603339E+03</rscale>
<asrwt>0</asrwt>
<pdfrwt beam="1">  1        2 0.39430299E-01 0.27603339E+03</pdfrwt>
<pdfrwt beam="2">  1       -2 0.11434218E-01 0.27603339E+03</pdfrwt>
<totfact> 0.68892470E+03</totfact>
</mgrwt>
</event>
<event>
 9    1  0.8175317E-001  0.2755426E+03  0.7818608E-02  0.1098149E+00
         -2   -1    0    0    0  501 -0.00000000000E+00  0.00000000000E+00  0.68819394895E+01  0.68819394895E+01  0.00000000000E+00 0.  1.
          2   -1    0    0  501    0  0.00000000000E+00 -0.00000000000E+00 -0.27580795921E+04  0.27580795921E+04  0.00000000000E+00 0.  1.
         35    2    1    2    0    0 -0.71054273576E-14  0.00000000000E+00 -0.27511976526E+04  0.27649615316E+04  0.27554264178E+03 0.  0.
         25    2    3    3    0    0  0.31683737183E+02  0.21571612392E+02 -0.93374882464E+03  0.94283355300E+03  0.12481605454E+03 0.  0.
         25    2    3    3    0    0 -0.31683737183E+02 -0.21571612392E+02 -0.18174488279E+04  0.18221279786E+04  0.12474347450E+03 0.  0.
          5    1    4    4  502    0  0.66751807713E+02  0.51074261976E+02 -0.63435275229E+03  0.63991396953E+03  0.47000000000E+01 0. -1.
         -5    1    4    4    0  502 -0.35068070530E+02 -0.29502649585E+02 -0.29939607236E+03  0.30291958346E+03  0.47000000000E+01 0. -1.
          5    1    5    5  503    0 -0.50145694627E+02 -0.20809935140E+02 -0.17720543932E+04  0.17728921305E+04  0.47000000000E+01 0.  1.
         -5    1    5    5    0  503  0.18461957444E+02 -0.76167725177E+00 -0.45394434731E+02  0.49235848012E+02  0.47000000000E+01 0.  1.
<mgrwt>
<rscale>  0 0.27554264E+03</rscale>
<asrwt>0</asrwt>
<pdfrwt beam="1">  1        2 0.42431956E+00 0.27554264E+03</pdfrwt>
<pdfrwt beam="2">  1       -2 0.10587609E-02 0.27554264E+03</pdfrwt>
<totfact> 0.56485058E+03</totfact>
</mgrwt>
</event>
<event>
 9    1  0.8175317E-001  0.2738640E+03  0.7818608E-02  0.1099088E+00
          2   -1    0    0  501    0  0.00000000000E+00  0.00000000000E+00  0.23926695553E+04  0.23926695553E+04  0.00000000000E+00 0. -1.
         -2   -1    0    0    0  501 -0.00000000000E+00 -0.00000000000E+00 -0.78365906070E+01  0.78365906070E+01  0.00000000000E+00 0. -1.
         35    2    1    2    0    0 -0.71054273576E-14  0.26645352591E-14  0.23848329647E+04  0.24005061459E+04  0.27386399371E+03 0.  0.
         25    2    3    3    0    0  0.54676507004E+02  0.26242110394E+01  0.13706350755E+04  0.13772209674E+04  0.12288480741E+03 0.  0.
         25    2    3    3    0    0 -0.54676507004E+02 -0.26242110394E+01  0.10141978892E+04  0.10232851785E+04  0.12457444061E+03 0.  0.
          5    1    4    4  502    0  0.87453992722E+02 -0.19952599491E+01  0.65850309936E+03  0.66430460165E+03  0.47000000000E+01 0.  1.
         -5    1    4    4    0  502 -0.32777485718E+02  0.46194709885E+01  0.71213197614E+03  0.71291636573E+03  0.47000000000E+01 0.  1.
          5    1    5    5  503    0 -0.12718949540E+02 -0.59081445720E+02  0.60807467719E+03  0.61108861219E+03  0.47000000000E+01 0.  1.
         -5    1    5    5    0  503 -0.41957557464E+02  0.56457234681E+02  0.40612321197E+03  0.41219656631E+03  0.47000000000E+01 0.  1.
<mgrwt>
<rscale>  0 0.27386399E+03</rscale>
<asrwt>0</asrwt>
<pdfrwt beam="1">  1        2 0.36810243E+00 0.27386399E+03</pdfrwt>
<pdfrwt beam="2">  1       -2 0.12056312E-02 0.27386399E+03</pdfrwt>
<totfact> 0.74511690E+03</totfact>
</mgrwt>
</event>
<event>
 9    1  0.8175317E-001  0.2744184E+03  0.7818608E-02  0.1098777E+00
          1   -1    0    0  501    0  0.00000000000E+00  0.00000000000E+00  0.15700889829E+04  0.15700889829E+04  0.00000000000E+00 0. -1.
         -1   -1    0    0    0  501 -0.00000000000E+00 -0.00000000000E+00 -0.11990633526E+02  0.11990633526E+02  0.00000000000E+00 0. -1.
         35    2    1    2    0    0 -0.14210854715E-13  0.00000000000E+00  0.15580983494E+04  0.15820796164E+04  0.27441837838E+03 0.  0.
         25    2    3    3    0    0 -0.46969932034E+02 -0.32205065142E+02  0.75752877770E+03  0.76980068958E+03  0.12449864214E+03 0.  0.
         25    2    3    3    0    0  0.46969932034E+02  0.32205065142E+02  0.80056957168E+03  0.81227892685E+03  0.12506828206E+03 0.  0.
          5    1    4    4  502    0 -0.60759475737E+02 -0.19972022743E+02  0.16586329714E+03  0.17782946585E+03  0.47000000000E+01 0.  1.
         -5    1    4    4    0  502  0.13789543703E+02 -0.12233042399E+02  0.59166548056E+03  0.59197122373E+03  0.47000000000E+01 0.  1.
          5    1    5    5  503    0 -0.52811136284E+00  0.65855724815E+02  0.59255323503E+03  0.59622032985E+03  0.47000000000E+01 0.  1.
         -5    1    5    5    0  503  0.47498043397E+02 -0.33650659673E+02  0.20801633665E+03  0.21605859700E+03  0.47000000000E+01 0.  1.
<mgrwt>
<rscale>  0 0.27441838E+03</rscale>
<asrwt>0</asrwt>
<pdfrwt beam="1">  1        1 0.24155199E+00 0.27441838E+03</pdfrwt>
<pdfrwt beam="2">  1       -1 0.18447141E-02 0.27441838E+03</pdfrwt>
<totfact> 0.49640752E+03</totfact>
</mgrwt>
</event>
<event>
 9    1  0.8175317E-001  0.2732641E+03  0.7818608E-02  0.1099426E+00
          2   -1    0    0  501    0  0.00000000000E+00  0.00000000000E+00  0.53995282865E+02  0.53995282865E+02  0.00000000000E+00 0. -1.
         -2   -1    0    0    0  501 -0.00000000000E+00 -0.00000000000E+00 -0.34573982784E+03  0.34573982784E+03  0.00000000000E+00 0. -1.
         35    2    1    2    0    0  0.00000000000E+00  0.71054273576E-14 -0.29174454497E+03  0.39973511070E+03  0.27326411987E+03 0.  0.
         25    2    3    3    0    0  0.24809463017E+02  0.39716046781E+02 -0.99292900559E+02  0.16477938167E+03  0.12288324009E+03 0.  0.
         25    2    3    3    0    0 -0.24809463017E+02 -0.39716046781E+02 -0.19245164441E+03  0.23495572903E+03  0.12638704577E+03 0.  0.
          5    1    4    4  502    0  0.37725532518E+02  0.80062117042E+02 -0.62219253155E+02  0.10828889071E+03  0.47000000000E+01 0.  1.
         -5    1    4    4    0  502 -0.12916069502E+02 -0.40346070261E+02 -0.37073647404E+02  0.56490490958E+02  0.47000000000E+01 0.  1.
          5    1    5    5  503    0  0.39150867430E+02  0.22481835874E+02 -0.61748753824E+02  0.76636949075E+02  0.47000000000E+01 0.  1.
         -5    1    5    5    0  503 -0.63960330447E+02 -0.62197882654E+02 -0.13070289059E+03  0.15831877995E+03  0.47000000000E+01 0.  1.
<mgrwt>
<rscale>  0 0.27326412E+03</rscale>
<asrwt>0</asrwt>
<pdfrwt beam="1">  1        2 0.83069663E-02 0.27326412E+03</pdfrwt>
<pdfrwt beam="2">  1       -2 0.53190745E-01 0.27326412E+03</pdfrwt>
<totfact> 0.27365731E+03</totfact>
</mgrwt>
</event>
<event>
 9    1  0.8175317E-001  0.2755193E+03  0.7818608E-02  0.1098162E+00
         -1   -1    0    0    0  501 -0.00000000000E+00  0.00000000000E+00  0.20058364627E+03  0.20058364627E+03  0.00000000000E+00 0.  1.
          1   -1    0    0  501    0  0.00000000000E+00 -0.00000000000E+00 -0.94612483108E+02  0.94612483108E+02  0.00000000000E+00 0.  1.
         35    2    1    2    0    0 -0.71054273576E-14  0.00000000000E+00  0.10597116317E+03  0.29519612938E+03  0.27551926862E+03 0.  0.
         25    2    3    3    0    0  0.23191251266E+02 -0.44695062276E+02  0.63615843924E+02  0.15432722971E+03  0.13127998898E+03 0.  0.
         25    2    3    3    0    0 -0.23191251266E+02  0.44695062276E+02  0.42355319242E+02  0.14086889967E+03  0.12455758146E+03 0.  0.
          5    1    4    4  502    0  0.43522387611E+02 -0.44283474204E+02 -0.22125497857E+02  0.66082160728E+02  0.47000000000E+01 0. -1.
         -5    1    4    4    0  502 -0.20331136345E+02 -0.41158807175E+00  0.85741341781E+02  0.88245068985E+02  0.47000000000E+01 0. -1.
          5    1    5    5  503    0 -0.21111517283E+02  0.66916249664E+02  0.73853655833E+02  0.10198006232E+03  0.47000000000E+01 0.  1.
         -5    1    5    5    0  503 -0.20797339830E+01 -0.22221187387E+02 -0.31498336591E+02  0.38888837349E+02  0.47000000000E+01 0.  1.
<mgrwt>
<rscale>  0 0.27551927E+03</rscale>
<asrwt>0</asrwt>
<pdfrwt beam="1">  1        1 0.14555767E-01 0.27551927E+03</pdfrwt>
<pdfrwt beam="2">  1       -1 0.30859022E-01 0.27551927E+03</pdfrwt>
<totfact> 0.37546435E+03</totfact>
</mgrwt>
</event>
<event>
 9    1  0.8175317E-001  0.2704147E+03  0.7818608E-02  0.1101042E+00
          2   -1    0    0  501    0  0.00000000000E+00  0.00000000000E+00  0.18374488152E+03  0.18374488152E+03  0.00000000000E+00 0. -1.
         -2   -1    0    0    0  501 -0.00000000000E+00 -0.00000000000E+00 -0.99491374056E+02  0.99491374056E+02  0.00000000000E+00 0. -1.
         35    2    1    2    0    0  0.35527136788E-14 -0.14210854715E-13  0.84253507466E+02  0.28323625558E+03  0.27041472400E+03 0.  0.
         25    2    3    3    0    0 -0.43626493290E+01  0.52765268917E+02  0.39293348330E+02  0.14042671092E+03  0.12398583631E+03 0.  0.
         25    2    3    3    0    0  0.43626493290E+01 -0.52765268917E+02  0.44960159136E+02  0.14280954466E+03  0.12477958095E+03 0.  0.
          5    1    4    4  502    0  0.26911770529E+02  0.11456829970E+02 -0.37425912634E+02  0.47731449617E+02  0.47000000000E+01 0. -1.
         -5    1    4    4    0  502 -0.31274419859E+02  0.41308438948E+02  0.76719260964E+02  0.92695261306E+02  0.47000000000E+01 0. -1.
          5    1    5    5  503    0 -0.38285052036E+02 -0.63350461618E+02  0.60758066565E+02  0.95878354436E+02  0.47000000000E+01 0. -1.
         -5    1    5    5    0  503  0.42647701365E+02  0.10585192701E+02 -0.15797907429E+02  0.46931190219E+02  0.47000000000E+01 0. -1.
<mgrwt>
<rscale>  0 0.27041472E+03</rscale>
<asrwt>0</asrwt>
<pdfrwt beam="1">  1        2 0.28268443E-01 0.27041472E+03</pdfrwt>
<pdfrwt beam="2">  1       -2 0.15306365E-01 0.27041472E+03</pdfrwt>
<totfact> 0.61485991E+03</totfact>
</mgrwt>
</event>
<event>
 9    1  0.8175317E-001  0.2727745E+03  0.7818608E-02  0.1099702E+00
         -2   -1    0    0    0  501 -0.00000000000E+00  0.00000000000E+00  0.19600001643E+03  0.19600001643E+03  0.00000000000E+00 0.  1.
          2   -1    0    0  501    0  0.00000000000E+00 -0.00000000000E+00 -0.94905538887E+02  0.94905538887E+02  0.00000000000E+00 0.  1.
         35    2    1    2    0    0  0.00000000000E+00  0.71054273576E-14  0.10109447754E+03  0.29090555531E+03  0.27277453826E+03 0.  0.
         25    2    3    3    0    0 -0.26816935888E+02  0.37360644730E+02  0.20358379147E+02  0.13514170775E+03  0.12543465130E+03 0.  0.
         25    2    3    3    0    0  0.26816935888E+02 -0.37360644730E+02  0.80736098393E+02  0.15576384757E+03  0.12501637013E+03 0.  0.
          5    1    4    4  502    0 -0.77053475705E+02  0.23757956547E+02  0.18445738479E+02  0.82849344509E+02  0.47000000000E+01 0.  1.
         -5    1    4    4    0  502  0.50236539818E+02  0.13602688182E+02  0.19126406679E+01  0.52292363238E+02  0.47000000000E+01 0.  1.
          5    1    5    5  503    0  0.19744437228E+02 -0.55729364261E+02 -0.12283196428E+02  0.60568735804E+02  0.47000000000E+01 0. -1.
         -5    1    5    5    0  503  0.70724986594E+01  0.18368719532E+02  0.93019294821E+02  0.95195111763E+02  0.47000000000E+01 0. -1.
<mgrwt>
<rscale>  0 0.27277454E+03</rscale>
<asrwt>0</asrwt>
<pdfrwt beam="1">  1        2 0.14600852E-01 0.27277454E+03</pdfrwt>
<pdfrwt beam="2">  1       -2 0.30153849E-01 0.27277454E+03</pdfrwt>
<totfact> 0.40534986E+03</totfact>
</mgrwt>
</event>
<event>
 9    1  0.8175317E-001  0.2750125E+03  0.7818608E-02  0.1098445E+00
          2   -1    0    0  501    0  0.00000000000E+00  0.00000000000E+00  0.18777965383E+04  0.18777965383E+04  0.00000000000E+00 0.  1.
         -2   -1    0    0    0  501 -0.00000000000E+00 -0.00000000000E+00 -0.10069232790E+02  0.10069232790E+02  0.00000000000E+00 0.  1.
         35    2    1    2    0    0 -0.71054273576E-14 -0.35527136788E-14  0.18677273055E+04  0.18878657711E+04  0.27501251227E+03 0.  0.
         25    2    3    3    0    0  0.91661361053E+01 -0.28707758911E+02  0.58327356313E+03  0.59699438827E+03  0.12363695524E+03 0.  0.
         25    2    3    3    0    0 -0.91661361053E+01  0.28707758911E+02  0.12844537424E+04  0.12908713828E+04  0.12497742679E+03 0.  0.
          5    1    4    4  502    0 -0.32963786399E+02  0.22375118174E+00  0.48486089549E+03  0.48600292103E+03  0.47000000000E+01 0. -1.
         -5    1    4    4    0  502  0.42129922504E+02 -0.28931510093E+02  0.98412667647E+02  0.11099146724E+03  0.47000000000E+01 0. -1.
          5    1    5    5  503    0  0.33782080326E+02 -0.12026787089E+02  0.13129826605E+03  0.13618809502E+03  0.47000000000E+01 0.  1.
         -5    1    5    5    0  503 -0.42948216431E+02  0.40734546000E+02  0.11531554763E+04  0.11546832878E+04  0.47000000000E+01 0.  1.
<mgrwt>
<rscale>  0 0.27501251E+03</rscale>
<asrwt>0</asrwt>
<pdfrwt beam="1">  1        2 0.28889150E+00 0.27501251E+03</pdfrwt>
<pdfrwt beam="2">  1       -2 0.15491142E-02 0.27501251E+03</pdfrwt>
<totfact> 0.96941713E+03</totfact>
</mgrwt>
</event>
<event>
 9    1  0.8175317E-001  0.2725955E+03  0.7818608E-02  0.1099803E+00
         -2   -1    0    0    0  501 -0.00000000000E+00  0.00000000000E+00  0.16724595097E+03  0.16724595097E+03  0.00000000000E+00 0. -1.
          2   -1    0    0  501    0  0.00000000000E+00 -0.00000000000E+00 -0.11107637740E+03  0.11107637740E+03  0.00000000000E+00 0. -1.
         35    2    1    2    0    0  0.00000000000E+00 -0.71054273576E-14  0.56169573569E+02  0.27832232837E+03  0.27259548323E+03 0.  0.
         25    2    3    3    0    0  0.15798198309E+02  0.51831783338E+02  0.24124073904E+02  0.13807432549E+03  0.12468533027E+03 0.  0.
         25    2    3    3    0    0 -0.15798198309E+02 -0.51831783338E+02  0.32045499665E+02  0.14024800288E+03  0.12532546201E+03 0.  0.
          5    1    4    4  502    0  0.51931653377E+02  0.57735254936E+01 -0.28073528956E+02  0.59501623903E+02  0.47000000000E+01 0.  1.
         -5    1    4    4    0  502 -0.36133455068E+02  0.46058257844E+02  0.52197602860E+02  0.78572701590E+02  0.47000000000E+01 0.  1.
          5    1    5    5  503    0  0.21600653360E+01 -0.37168764115E+02 -0.45613162020E+02  0.59066347928E+02  0.47000000000E+01 0. -1.
         -5    1    5    5    0  503 -0.17958263645E+02 -0.14663019223E+02  0.77658661685E+02  0.81181654951E+02  0.47000000000E+01 0. -1.
<mgrwt>
<rscale>  0 0.27259548E+03</rscale>
<asrwt>0</asrwt>
<pdfrwt beam="1">  1        2 0.17088673E-01 0.27259548E+03</pdfrwt>
<pdfrwt beam="2">  1       -2 0.25730146E-01 0.27259548E+03</pdfrwt>
<totfact> 0.44766936E+03</totfact>
</mgrwt>
</event>
<event>
 9    1  0.8175317E-001  0.2774637E+03  0.7818608E-02  0.1097082E+00
         -2   -1    0    0    0  501 -0.00000000000E+00  0.00000000000E+00  0.56912307818E+03  0.56912307818E+03  0.00000000000E+00 0.  1.
          2   -1    0    0  501    0  0.00000000000E+00 -0.00000000000E+00 -0.33817852367E+02  0.33817852367E+02  0.00000000000E+00 0.  1.
         35    2    1    2    0    0 -0.14210854715E-13  0.71054273576E-14  0.53530522582E+03  0.60294093055E+03  0.27746365698E+03 0.  0.
         25    2    3    3    0    0  0.36637911092E+02 -0.45470982206E+02  0.29484977389E+03  0.32549999910E+03  0.12491562552E+03 0.  0.
         25    2    3    3    0    0 -0.36637911092E+02  0.45470982206E+02  0.24045545192E+03  0.27744093145E+03  0.12547788383E+03 0.  0.
          5    1    4    4  502    0 -0.25901548229E+02 -0.63402915267E+02  0.11201981948E+03  0.13138245629E+03  0.47000000000E+01 0. -1.
         -5    1    4    4    0  502  0.62539459321E+02  0.17931933062E+02  0.18282995441E+03  0.19411754281E+03  0.47000000000E+01 0. -1.
          5    1    5    5  503    0  0.44733835548E+02  0.28021710340E+02  0.11746209776E+03  0.12886336447E+03  0.47000000000E+01 0.  1.
         -5    1    5    5    0  503 -0.81371746640E+02  0.17449271865E+02  0.12299335416E+03  0.14857756697E+03  0.47000000000E+01 0.  1.
<mgrwt>
<rscale>  0 0.27746366E+03</rscale>
<asrwt>0</asrwt>
<pdfrwt beam="1">  1        2 0.52027469E-02 0.27746366E+03</pdfrwt>
<pdfrwt beam="2">  1       -2 0.87557390E-01 0.27746366E+03</pdfrwt>
<totfact> 0.17334409E+03</totfact>
</mgrwt>
</event>
<event>
 9    1  0.8175317E-001  0.2762201E+03  0.7818608E-02  0.1097772E+00
         -2   -1    0    0    0  501 -0.00000000000E+00  0.00000000000E+00  0.31996713919E+02  0.31996713919E+02  0.00000000000E+00 0. -1.
          2   -1    0    0  501    0  0.00000000000E+00 -0.00000000000E+00 -0.59613561208E+03  0.59613561208E+03  0.00000000000E+00 0. -1.
         35    2    1    2    0    0  0.00000000000E+00 -0.35527136788E-14 -0.56413889816E+03  0.62813232600E+03  0.27622006181E+03 0.  0.
         25    2    3    3    0    0 -0.38882394361E+02 -0.12860121206E+02 -0.37570967174E+03  0.39869665892E+03  0.12698049095E+03 0.  0.
         25    2    3    3    0    0  0.38882394361E+02  0.12860121206E+02 -0.18842922642E+03  0.22943566708E+03  0.12432991857E+03 0.  0.
          5    1    4    4  502    0 -0.26761008557E+01  0.51065354915E+02 -0.89640279076E+02  0.10330683240E+03  0.47000000000E+01 0. -1.
         -5    1    4    4    0  502 -0.36206293505E+02 -0.63925476122E+02 -0.28606939267E+03  0.29538982651E+03  0.47000000000E+01 0. -1.
          5    1    5    5  503    0  0.59652988092E+02  0.35668075371E+02 -0.45651177560E+02  0.83287517682E+02  0.47000000000E+01 0. -1.
         -5    1    5    5    0  503 -0.20770593732E+02 -0.22807954165E+02 -0.14277804886E+03  0.14614814940E+03  0.47000000000E+01 0. -1.
<mgrwt>
<rscale>  0 0.27622006E+03</rscale>
<asrwt>0</asrwt>
<pdfrwt beam="1">  1        2 0.91713170E-01 0.27622006E+03</pdfrwt>
<pdfrwt beam="2">  1       -2 0.49225715E-02 0.27622006E+03</pdfrwt>
<totfact> 0.10148328E+04</totfact>
</mgrwt>
</event>
<event>
 9    1  0.8175317E-001  0.2838421E+03  0.7818608E-02  0.1093609E+00
          2   -1    0    0  501    0  0.00000000000E+00  0.00000000000E+00  0.11294308441E+03  0.11294308441E+03  0.00000000000E+00 0.  1.
         -2   -1    0    0    0  501 -0.00000000000E+00 -0.00000000000E+00 -0.17833398837E+03  0.17833398837E+03  0.00000000000E+00 0.  1.
         35    2    1    2    0    0  0.00000000000E+00 -0.35527136788E-14 -0.65390903965E+02  0.29127707278E+03  0.28384214417E+03 0.  0.
         25    2    3    3    0    0  0.40119034021E+02  0.20962933152E+02 -0.85518293488E+02  0.15784341009E+03  0.12470838838E+03 0.  0.
         25    2    3    3    0    0 -0.40119034021E+02 -0.20962933152E+02  0.20127389523E+02  0.13343366269E+03  0.12389692923E+03 0.  0.
          5    1    4    4  502    0  0.43451181730E+02  0.26864478020E+02  0.17720781657E+02  0.54275422389E+02  0.47000000000E+01 0. -1.
         -5    1    4    4    0  502 -0.33321477091E+01 -0.59015448678E+01 -0.10323907515E+03  0.10356798770E+03  0.47000000000E+01 0. -1.
          5    1    5    5  503    0 -0.74545412624E+02  0.20466623584E+02  0.16882095431E+02  0.79265354161E+02  0.47000000000E+01 0.  1.
         -5    1    5    5    0  503  0.34426378603E+02 -0.41429556736E+02  0.32452940920E+01  0.54168308528E+02  0.47000000000E+01 0.  1.
<mgrwt>
<rscale>  0 0.28384214E+03</rscale>
<asrwt>0</asrwt>
<pdfrwt beam="1">  1        2 0.17375859E-01 0.28384214E+03</pdfrwt>
<pdfrwt beam="2">  1       -2 0.27435998E-01 0.28384214E+03</pdfrwt>
<totfact> 0.39211769E+03</totfact>
</mgrwt>
</event>
<event>
 9    1  0.8175317E-001  0.2731754E+03  0.7818608E-02  0.1099476E+00
         -2   -1    0    0    0  501 -0.00000000000E+00  0.00000000000E+00  0.15330476194E+03  0.15330476194E+03  0.00000000000E+00 0.  1.
          2   -1    0    0  501    0  0.00000000000E+00 -0.00000000000E+00 -0.12169356277E+03  0.12169356277E+03  0.00000000000E+00 0.  1.
         35    2    1    2    0    0  0.17763568394E-14  0.71054273576E-14  0.31611199170E+02  0.27499832472E+03  0.27317542109E+03 0.  0.
         25    2    3    3    0    0  0.15428344833E+02  0.50334680031E+02  0.30052803034E+02  0.13920046871E+03  0.12530756434E+03 0.  0.
         25    2    3    3    0    0 -0.15428344833E+02 -0.50334680031E+02  0.15583961363E+01  0.13579785601E+03  0.12516794822E+03 0.  0.
          5    1    4    4  502    0  0.25498240767E+02 -0.35517101303E+02 -0.79005339476E+01  0.44678106538E+02  0.47000000000E+01 0. -1.
         -5    1    4    4    0  502 -0.10069895935E+02  0.85851781334E+02  0.37953336981E+02  0.94522362171E+02  0.47000000000E+01 0. -1.
          5    1    5    5  503    0 -0.47854817503E+02  0.34375330539E+01  0.39463740698E+02  0.62300698404E+02  0.47000000000E+01 0. -1.
         -5    1    5    5    0  503  0.32426472670E+02 -0.53772213085E+02 -0.37905344562E+02  0.73497157607E+02  0.47000000000E+01 0. -1.
<mgrwt>
<rscale>  0 0.27317542E+03</rscale>
<asrwt>0</asrwt>
<pdfrwt beam="1">  1        2 0.18722087E-01 0.27317542E+03</pdfrwt>
<pdfrwt beam="2">  1       -2 0.23585348E-01 0.27317542E+03</pdfrwt>
<totfact> 0.46936992E+03</totfact>
</mgrwt>
</event>
<event>
 9    1  0.8175317E-001  0.2733704E+03  0.7818608E-02  0.1099366E+00
         -1   -1    0    0    0  501 -0.00000000000E+00  0.00000000000E+00  0.38165154978E+03  0.38165154978E+03  0.00000000000E+00 0. -1.
          1   -1    0    0  501    0  0.00000000000E+00 -0.00000000000E+00 -0.48952608260E+02  0.48952608260E+02  0.00000000000E+00 0. -1.
         35    2    1    2    0    0 -0.17763568394E-14  0.71054273576E-14  0.33269894152E+03  0.43060415804E+03  0.27337036275E+03 0.  0.
         25    2    3    3    0    0 -0.53257342080E+01  0.26052982054E+01  0.79163005565E+02  0.14843547559E+03  0.12542391296E+03 0.  0.
         25    2    3    3    0    0  0.53257342080E+01 -0.26052982054E+01  0.25353593595E+03  0.28216868244E+03  0.12370749172E+03 0.  0.
          5    1    4    4  502    0 -0.29569810258E+02  0.57235731267E+02  0.31612169809E+02  0.71914684817E+02  0.47000000000E+01 0. -1.
         -5    1    4    4    0  502  0.24244076050E+02 -0.54630433062E+02  0.47550835756E+02  0.76520790777E+02  0.47000000000E+01 0. -1.
          5    1    5    5  503    0  0.88864874349E+01 -0.62665200778E+02  0.13328219622E+03  0.14762157999E+03  0.47000000000E+01 0.  1.
         -5    1    5    5    0  503 -0.35607532270E+01  0.60059902573E+02  0.12025373973E+03  0.13454710245E+03  0.47000000000E+01 0.  1.
<mgrwt>
<rscale>  0 0.27337036E+03</rscale>
<asrwt>0</asrwt>
<pdfrwt beam="1">  1        1 0.75311708E-02 0.27337036E+03</pdfrwt>
<pdfrwt beam="2">  1       -1 0.58715621E-01 0.27337036E+03</pdfrwt>
<totfact> 0.28526476E+03</totfact>
</mgrwt>
</event>
<event>
 9    1  0.8175317E-001  0.2738578E+03  0.7818608E-02  0.1099092E+00
          1   -1    0    0  501    0  0.00000000000E+00  0.00000000000E+00  0.81941065167E+03  0.81941065167E+03  0.00000000000E+00 0.  1.
         -1   -1    0    0    0  501 -0.00000000000E+00 -0.00000000000E+00 -0.22881725728E+02  0.22881725728E+02  0.00000000000E+00 0.  1.
         35    2    1    2    0    0  0.71054273576E-14  0.00000000000E+00  0.79652892594E+03  0.84229237740E+03  0.27385784481E+03 0.  0.
         25    2    3    3    0    0  0.33500057583E+02 -0.38851960528E+02  0.48635226416E+03  0.50455901629E+03  0.12413519792E+03 0.  0.
         25    2    3    3    0    0 -0.33500057583E+02  0.38851960528E+02  0.31017666178E+03  0.33773336111E+03  0.12337962961E+03 0.  0.
          5    1    4    4  502    0  0.19080958443E+02  0.22949647337E+02  0.26092199033E+02  0.39920698120E+02  0.47000000000E+01 0.  1.
         -5    1    4    4    0  502  0.14419099140E+02 -0.61801607864E+02  0.46026006513E+03  0.46463831817E+03  0.47000000000E+01 0.  1.
          5    1    5    5  503    0  0.27926417585E+02 -0.22758166221E+02  0.16036017950E+03  0.16442413478E+03  0.47000000000E+01 0. -1.
         -5    1    5    5    0  503 -0.61426475168E+02  0.61610126749E+02  0.14981648228E+03  0.17330922633E+03  0.47000000000E+01 0. -1.
<mgrwt>
<rscale>  0 0.27385784E+03</rscale>
<asrwt>0</asrwt>
<pdfrwt beam="1">  1        1 0.12606315E+00 0.27385784E+03</pdfrwt>
<pdfrwt beam="2">  1       -1 0.35202661E-02 0.27385784E+03</pdfrwt>
<totfact> 0.65907380E+03</totfact>
</mgrwt>
</event>
<event>
 9    1  0.8175317E-001  0.2761853E+03  0.7818608E-02  0.1097791E+00
         -2   -1    0    0    0  501 -0.00000000000E+00  0.00000000000E+00  0.35129517744E+02  0.35129517744E+02  0.00000000000E+00 0.  1.
          2   -1    0    0  501    0  0.00000000000E+00 -0.00000000000E+00 -0.54283618453E+03  0.54283618453E+03  0.00000000000E+00 0.  1.
         35    2    1    2    0    0 -0.71054273576E-14  0.35527136788E-14 -0.50770666679E+03  0.57796570228E+03  0.27618525215E+03 0.  0.
         25    2    3    3    0    0 -0.20223849293E+02 -0.18819319395E+02 -0.14898901787E+03  0.19700638147E+03  0.12589922967E+03 0.  0.
         25    2    3    3    0    0  0.20223849293E+02  0.18819319395E+02 -0.35871764891E+03  0.38095932080E+03  0.12525366901E+03 0.  0.
          5    1    4    4  502    0 -0.41146614073E+02  0.43716607117E+02 -0.90691613586E+02  0.10886342068E+03  0.47000000000E+01 0. -1.
         -5    1    4    4    0  502  0.20922764779E+02 -0.62535926512E+02 -0.58297404288E+02  0.88142960793E+02  0.47000000000E+01 0. -1.
          5    1    5    5  503    0 -0.48207310363E+02 -0.16421590810E+02 -0.14151127497E+03  0.15046974567E+03  0.47000000000E+01 0.  1.
         -5    1    5    5    0  503  0.68431159657E+02  0.35240910205E+02 -0.21720637395E+03  0.23048957514E+03  0.47000000000E+01 0.  1.
<mgrwt>
<rscale>  0 0.27618525E+03</rscale>
<asrwt>0</asrwt>
<pdfrwt beam="1">  1        2 0.83513261E-01 0.27618525E+03</pdfrwt>
<pdfrwt beam="2">  1       -2 0.54045411E-02 0.27618525E+03</pdfrwt>
<totfact> 0.98019628E+03</totfact>
</mgrwt>
</event>
<event>
 9    1  0.8175317E-001  0.2750110E+03  0.7818608E-02  0.1098445E+00
         -1   -1    0    0    0  501 -0.00000000000E+00  0.00000000000E+00  0.17871567607E+02  0.17871567607E+02  0.00000000000E+00 0.  1.
          1   -1    0    0  501    0  0.00000000000E+00 -0.00000000000E+00 -0.10579800945E+04  0.10579800945E+04  0.00000000000E+00 0.  1.
         35    2    1    2    0    0  0.14210854715E-13  0.35527136788E-14 -0.10401085269E+04  0.10758516621E+04  0.27501100186E+03 0.  0.
         25    2    3    3    0    0  0.50226572785E+02 -0.20375129888E+02 -0.59371733424E+03  0.60911100103E+03  0.12481219518E+03 0.  0.
         25    2    3    3    0    0 -0.50226572785E+02  0.20375129888E+02 -0.44639119265E+03  0.46674066107E+03  0.12507555034E+03 0.  0.
          5    1    4    4  502    0  0.38147755274E+02  0.26700606556E+02 -0.77107496937E+02  0.90198834287E+02  0.47000000000E+01 0.  1.
         -5    1    4    4    0  502  0.12078817511E+02 -0.47075736443E+02 -0.51660983730E+03  0.51891216674E+03  0.47000000000E+01 0.  1.
          5    1    5    5  503    0  0.21466752745E+02  0.36890555982E+02 -0.29766174002E+03  0.30074297343E+03  0.47000000000E+01 0.  1.
         -5    1    5    5    0  503 -0.71693325530E+02 -0.16515426095E+02 -0.14872945262E+03  0.16599768764E+03  0.47000000000E+01 0.  1.
<mgrwt>
<rscale>  0 0.27501100E+03</rscale>
<asrwt>0</asrwt>
<pdfrwt beam="1">  1        1 0.16276616E+00 0.27501100E+03</pdfrwt>
<pdfrwt beam="2">  1       -1 0.27494720E-02 0.27501100E+03</pdfrwt>
<totfact> 0.62107599E+03</totfact>
</mgrwt>
</event>
<event>
 9    1  0.8175317E-001  0.2733095E+03  0.7818608E-02  0.1099400E+00
         -2   -1    0    0    0  501 -0.00000000000E+00  0.00000000000E+00  0.24761005934E+02  0.24761005934E+02  0.00000000000E+00 0.  1.
          2   -1    0    0  501    0  0.00000000000E+00 -0.00000000000E+00 -0.75419083874E+03  0.75419083874E+03  0.00000000000E+00 0.  1.
         35    2    1    2    0    0  0.71054273576E-14 -0.71054273576E-14 -0.72942983280E+03  0.77895184467E+03  0.27330952295E+03 0.  0.
         25    2    3    3    0    0 -0.21663063695E+02  0.43592054536E+02 -0.45308422448E+03  0.47198174421E+03  0.12293045533E+03 0.  0.
         25    2    3    3    0    0  0.21663063695E+02 -0.43592054536E+02 -0.27634560833E+03  0.30697010046E+03  0.12447566746E+03 0.  0.
          5    1    4    4  502    0  0.34448229240E+02  0.46128564503E+02 -0.10946897462E+03  0.12377427587E+03  0.47000000000E+01 0. -1.
         -5    1    4    4    0  502 -0.56111292935E+02 -0.25365099673E+01 -0.34361524985E+03  0.34820746834E+03  0.47000000000E+01 0. -1.
          5    1    5    5  503    0 -0.46240417975E+02 -0.45278564844E+02 -0.11941506567E+03  0.13590574895E+03  0.47000000000E+01 0.  1.
         -5    1    5    5    0  503  0.67903481670E+02  0.16865103076E+01 -0.15693054266E+03  0.17106435151E+03  0.47000000000E+01 0.  1.
<mgrwt>
<rscale>  0 0.27330952E+03</rscale>
<asrwt>0</asrwt>
<pdfrwt beam="1">  1        2 0.11602935E+00 0.27330952E+03</pdfrwt>
<pdfrwt beam="2">  1       -2 0.38093857E-02 0.27330952E+03</pdfrwt>
<totfact> 0.11267692E+04</totfact>
</mgrwt>
</event>
<event>
 9    1  0.8175317E-001  0.2728670E+03  0.7818608E-02  0.1099650E+00
          2   -1    0    0  501    0  0.00000000000E+00  0.00000000000E+00  0.58218336738E+02  0.58218336738E+02  0.00000000000E+00 0.  1.
         -2   -1    0    0    0  501 -0.00000000000E+00 -0.00000000000E+00 -0.31972918922E+03  0.31972918922E+03  0.00000000000E+00 0.  1.
         35    2    1    2    0    0  0.00000000000E+00 -0.71054273576E-14 -0.26151085248E+03  0.37794752595E+03  0.27286701232E+03 0.  0.
         25    2    3    3    0    0 -0.69926026644E+01  0.42929215636E+02 -0.17488902853E+03  0.21949948961E+03  0.12530777946E+03 0.  0.
         25    2    3    3    0    0  0.69926026644E+01 -0.42929215636E+02 -0.86621823946E+02  0.15844803634E+03  0.12534203521E+03 0.  0.
          5    1    4    4  502    0  0.57614414921E+02  0.27317584744E+02 -0.66367278195E+02  0.92154093008E+02  0.47000000000E+01 0.  1.
         -5    1    4    4    0  502 -0.64607017586E+02  0.15611630892E+02 -0.10852175034E+03  0.12734539660E+03  0.47000000000E+01 0.  1.
          5    1    5    5  503    0  0.39445158931E+02 -0.76204682595E+02 -0.54804160549E+02  0.10192477729E+03  0.47000000000E+01 0.  1.
         -5    1    5    5    0  503 -0.32452556267E+02  0.33275466959E+02 -0.31817663398E+02  0.56523259050E+02  0.47000000000E+01 0.  1.
<mgrwt>
<rscale>  0 0.27286701E+03</rscale>
<asrwt>0</asrwt>
<pdfrwt beam="1">  1        2 0.89566671E-02 0.27286701E+03</pdfrwt>
<pdfrwt beam="2">  1       -2 0.49189107E-01 0.27286701E+03</pdfrwt>
<totfact> 0.29107412E+03</totfact>
</mgrwt>
</event>
<event>
 9    1  0.8175317E-001  0.2776208E+03  0.7818608E-02  0.1096996E+00
         -2   -1    0    0    0  501 -0.00000000000E+00  0.00000000000E+00  0.11027516855E+02  0.11027516855E+02  0.00000000000E+00 0. -1.
          2   -1    0    0  501    0  0.00000000000E+00 -0.00000000000E+00 -0.17472951762E+04  0.17472951762E+04  0.00000000000E+00 0. -1.
         35    2    1    2    0    0 -0.35527136788E-14 -0.14210854715E-13 -0.17362676593E+04  0.17583226930E+04  0.27762079898E+03 0.  0.
         25    2    3    3    0    0 -0.27935364070E+02 -0.38131448749E+02 -0.69663722818E+03  0.70931974835E+03  0.12488669174E+03 0.  0.
         25    2    3    3    0    0  0.27935364070E+02  0.38131448749E+02 -0.10396304311E+04  0.10490029447E+04  0.13168656967E+03 0.  0.
          5    1    4    4  502    0 -0.13562074972E+02 -0.73956760668E+02 -0.60638096380E+03  0.61104295723E+03  0.47000000000E+01 0. -1.
         -5    1    4    4    0  502 -0.14373289098E+02  0.35825311919E+02 -0.90256264380E+02  0.98276791123E+02  0.47000000000E+01 0. -1.
          5    1    5    5  503    0 -0.16133020870E+02 -0.19077788452E+02 -0.75128560593E+03  0.75171562978E+03  0.47000000000E+01 0. -1.
         -5    1    5    5    0  503  0.44068384940E+02  0.57209237201E+02 -0.28834482521E+03  0.29728731489E+03  0.47000000000E+01 0. -1.
<mgrwt>
<rscale>  0 0.27762080E+03</rscale>
<asrwt>0</asrwt>
<pdfrwt beam="1">  1        2 0.26881468E+00 0.27762080E+03</pdfrwt>
<pdfrwt beam="2">  1       -2 0.16965408E-02 0.27762080E+03</pdfrwt>
<totfact> 0.99370018E+03</totfact>
</mgrwt>
</event>
<event>
 9    1  0.8175317E-001  0.2765596E+03  0.7818608E-02  0.1097583E+00
         -2   -1    0    0    0  501 -0.00000000000E+00  0.00000000000E+00  0.64839117432E+01  0.64839117432E+01  0.00000000000E+00 0. -1.
          2   -1    0    0  501    0  0.00000000000E+00 -0.00000000000E+00 -0.29490384415E+04  0.29490384415E+04  0.00000000000E+00 0. -1.
         35    2    1    2    0    0  0.00000000000E+00  0.71054273576E-14 -0.29425545297E+04  0.29555223532E+04  0.27655961370E+03 0.  0.
         25    2    3    3    0    0 -0.18096781065E+02 -0.34879970684E+02 -0.98255786673E+03  0.99131924377E+03  0.12549811057E+03 0.  0.
         25    2    3    3    0    0  0.18096781065E+02  0.34879970684E+02 -0.19599966630E+04  0.19642031095E+04  0.12232264855E+03 0.  0.
          5    1    4    4  502    0  0.25474730082E+02 -0.57453785094E+02 -0.27869525378E+03  0.28573245138E+03  0.47000000000E+01 0. -1.
         -5    1    4    4    0  502 -0.43571511147E+02  0.22573814411E+02 -0.70386261295E+03  0.70558679239E+03  0.47000000000E+01 0. -1.
          5    1    5    5  503    0 -0.29025939126E+02  0.44765432397E+02 -0.16086695548E+04  0.16095608953E+04  0.47000000000E+01 0.  1.
         -5    1    5    5    0  503  0.47122720191E+02 -0.98854617135E+01 -0.35132710821E+03  0.35464221417E+03  0.47000000000E+01 0.  1.
<mgrwt>
<rscale>  0 0.27655961E+03</rscale>
<asrwt>0</asrwt>
<pdfrwt beam="1">  1        2 0.45369700E+00 0.27655961E+03</pdfrwt>
<pdfrwt beam="2">  1       -2 0.99752758E-03 0.27655961E+03</pdfrwt>
<totfact> 0.47776846E+03</totfact>
</mgrwt>
</event>
<event>
 9    1  0.8175317E-001  0.2754690E+03  0.7818608E-02  0.1098190E+00
          1   -1    0    0  501    0  0.00000000000E+00  0.00000000000E+00  0.99314276674E+02  0.99314276674E+02  0.00000000000E+00 0.  1.
         -1   -1    0    0    0  501 -0.00000000000E+00 -0.00000000000E+00 -0.19101777757E+03  0.19101777757E+03  0.00000000000E+00 0.  1.
         35    2    1    2    0    0  0.00000000000E+00  0.71054273576E-14 -0.91703500899E+02  0.29033205425E+03  0.27546899943E+03 0.  0.
         25    2    3    3    0    0 -0.21202245632E+02 -0.50000496881E+02 -0.67028790440E+02  0.15132828463E+03  0.12432942562E+03 0.  0.
         25    2    3    3    0    0  0.21202245632E+02  0.50000496881E+02 -0.24674710459E+02  0.13900376961E+03  0.12555326249E+03 0.  0.
          5    1    4    4  502    0  0.14505026851E+02  0.33154748489E+02  0.32688748373E+01  0.36638895916E+02  0.47000000000E+01 0.  1.
         -5    1    4    4    0  502 -0.35707272483E+02 -0.83155245369E+02 -0.70297665277E+02  0.11468938872E+03  0.47000000000E+01 0.  1.
          5    1    5    5  503    0  0.10236122406E+02 -0.42276308412E+02 -0.80193820851E+01  0.44479938668E+02  0.47000000000E+01 0.  1.
         -5    1    5    5    0  503  0.10966123226E+02  0.92276805293E+02 -0.16655328374E+02  0.94523830947E+02  0.47000000000E+01 0.  1.
<mgrwt>
<rscale>  0 0.27546900E+03</rscale>
<asrwt>0</asrwt>
<pdfrwt beam="1">  1        1 0.15279120E-01 0.27546900E+03</pdfrwt>
<pdfrwt beam="2">  1       -1 0.29387350E-01 0.27546900E+03</pdfrwt>
<totfact> 0.38285892E+03</totfact>
</mgrwt>
</event>
<event>
 9    1  0.8175317E-001  0.2713194E+03  0.7818608E-02  0.1100527E+00
         -1   -1    0    0    0  501 -0.00000000000E+00  0.00000000000E+00  0.76255038482E+02  0.76255038482E+02  0.00000000000E+00 0. -1.
          1   -1    0    0  501    0  0.00000000000E+00 -0.00000000000E+00 -0.24134219997E+03  0.24134219997E+03  0.00000000000E+00 0. -1.
         35    2    1    2    0    0  0.00000000000E+00  0.35527136788E-14 -0.16508716148E+03  0.31759723845E+03  0.27131943348E+03 0.  0.
         25    2    3    3    0    0  0.30095337074E+02 -0.41069321296E+01 -0.11807380428E+03  0.17457842133E+03  0.12495441462E+03 0.  0.
         25    2    3    3    0    0 -0.30095337074E+02  0.41069321296E+01 -0.47013357201E+02  0.14301881712E+03  0.13161128405E+03 0.  0.
          5    1    4    4  502    0  0.64660972276E+02  0.22951544819E+02 -0.27977714336E+02  0.74247270958E+02  0.47000000000E+01 0.  1.
         -5    1    4    4    0  502 -0.34565635201E+02 -0.27058476949E+02 -0.90096089948E+02  0.10033115037E+03  0.47000000000E+01 0.  1.
          5    1    5    5  503    0 -0.37811831578E+02  0.61096476732E+02 -0.60547687419E+01  0.72258316482E+02  0.47000000000E+01 0. -1.
         -5    1    5    5    0  503  0.77164945035E+01 -0.56989544602E+02 -0.40958588459E+02  0.70760500634E+02  0.47000000000E+01 0. -1.
<mgrwt>
<rscale>  0 0.27131943E+03</rscale>
<asrwt>0</asrwt>
<pdfrwt beam="1">  1        1 0.37129568E-01 0.27131943E+03</pdfrwt>
<pdfrwt beam="2">  1       -1 0.11731545E-01 0.27131943E+03</pdfrwt>
<totfact> 0.54404906E+03</totfact>
</mgrwt>
</event>
<event>
 9    1  0.8175317E-001  0.2732327E+03  0.7818608E-02  0.1099444E+00
          1   -1    0    0  501    0  0.00000000000E+00  0.00000000000E+00  0.22902513239E+04  0.22902513239E+04  0.00000000000E+00 0. -1.
         -1   -1    0    0    0  501 -0.00000000000E+00 -0.00000000000E+00 -0.81493334275E+01  0.81493334275E+01  0.00000000000E+00 0. -1.
         35    2    1    2    0    0 -0.71054273576E-14 -0.35527136788E-14  0.22821019905E+04  0.22984006573E+04  0.27323266035E+03 0.  0.
         25    2    3    3    0    0  0.48481862172E+02  0.18333698197E+02  0.10200531282E+04  0.10291165649E+04  0.12603929729E+03 0.  0.
         25    2    3    3    0    0 -0.48481862172E+02 -0.18333698197E+02  0.12620488623E+04  0.12692840924E+04  0.12501264313E+03 0.  0.
          5    1    4    4  502    0  0.76214794230E+02 -0.16316921631E+02  0.40579232138E+03  0.41323653624E+03  0.47000000000E+01 0.  1.
         -5    1    4    4    0  502 -0.27732932058E+02  0.34650619828E+02  0.61426080678E+03  0.61588002867E+03  0.47000000000E+01 0.  1.
          5    1    5    5  503    0 -0.44677525778E+02 -0.25026186168E+02  0.18010605290E+03  0.18730368816E+03  0.47000000000E+01 0.  1.
         -5    1    5    5    0  503 -0.38043363947E+01  0.66924879707E+01  0.10819428094E+04  0.10819804042E+04  0.47000000000E+01 0.  1.
<mgrwt>
<rscale>  0 0.27323266E+03</rscale>
<asrwt>0</asrwt>
<pdfrwt beam="1">  1        1 0.35234585E+00 0.27323266E+03</pdfrwt>
<pdfrwt beam="2">  1       -1 0.12537454E-02 0.27323266E+03</pdfrwt>
<totfact> 0.29560966E+03</totfact>
</mgrwt>
</event>
<event>
 9    1  0.8175317E-001  0.2748489E+03  0.7818608E-02  0.1098536E+00
          1   -1    0    0  501    0  0.00000000000E+00  0.00000000000E+00  0.22073945654E+02  0.22073945654E+02  0.00000000000E+00 0. -1.
         -1   -1    0    0    0  501 -0.00000000000E+00 -0.00000000000E+00 -0.85555525272E+03  0.85555525272E+03  0.00000000000E+00 0. -1.
         35    2    1    2    0    0 -0.71054273576E-14 -0.35527136788E-14 -0.83348130706E+03  0.87762919837E+03  0.27484890506E+03 0.  0.
         25    2    3    3    0    0  0.38609021271E+02 -0.10539786833E+02 -0.30601102313E+03  0.33387131646E+03  0.12737961395E+03 0.  0.
         25    2    3    3    0    0 -0.38609021271E+02  0.10539786833E+02 -0.52747028393E+03  0.54375788191E+03  0.12588085667E+03 0.  0.
          5    1    4    4  502    0  0.75723252548E+02 -0.26607945806E+02 -0.12716586626E+03  0.15045012894E+03  0.47000000000E+01 0.  1.
         -5    1    4    4    0  502 -0.37114231277E+02  0.16068158973E+02 -0.17884515687E+03  0.18342118752E+03  0.47000000000E+01 0.  1.
          5    1    5    5  503    0 -0.54684994290E+01  0.11310624876E+02 -0.50072849344E+03  0.50090812417E+03  0.47000000000E+01 0.  1.
         -5    1    5    5    0  503 -0.33140521842E+02 -0.77083804272E+00 -0.26741790493E+02  0.42849757735E+02  0.47000000000E+01 0.  1.
<mgrwt>
<rscale>  0 0.27484891E+03</rscale>
<asrwt>0</asrwt>
<pdfrwt beam="1">  1        1 0.33959923E-02 0.27484891E+03</pdfrwt>
<pdfrwt beam="2">  1       -1 0.13162386E+00 0.27484891E+03</pdfrwt>
<totfact> 0.15101709E+03</totfact>
</mgrwt>
</event>
<event>
 9    1  0.8175317E-001  0.2967605E+03  0.7818608E-02  0.1086871E+00
         -2   -1    0    0    0  501 -0.00000000000E+00  0.00000000000E+00  0.24349333412E+02  0.24349333412E+02  0.00000000000E+00 0. -1.
          2   -1    0    0  501    0  0.00000000000E+00 -0.00000000000E+00 -0.90420149961E+03  0.90420149961E+03  0.00000000000E+00 0. -1.
         35    2    1    2    0    0  0.00000000000E+00  0.00000000000E+00 -0.87985216620E+03  0.92855083302E+03  0.29676053501E+03 0.  0.
         25    2    3    3    0    0  0.75321324308E+02 -0.91298128863E+01 -0.49728930347E+03  0.51877839313E+03  0.12679792764E+03 0.  0.
         25    2    3    3    0    0 -0.75321324308E+02  0.91298128863E+01 -0.38256286273E+03  0.40977243990E+03  0.12570780874E+03 0.  0.
          5    1    4    4  502    0  0.63646377202E+02  0.49181273204E+02 -0.36302026439E+03  0.37185408606E+03  0.47000000000E+01 0. -1.
         -5    1    4    4    0  502  0.11674947106E+02 -0.58311086090E+02 -0.13426903908E+03  0.14692430706E+03  0.47000000000E+01 0. -1.
          5    1    5    5  503    0 -0.75298395740E+02  0.16311936743E+02 -0.96463829528E+02  0.12354468054E+03  0.47000000000E+01 0.  1.
         -5    1    5    5    0  503 -0.22928567518E-01 -0.71821238563E+01 -0.28609903320E+03  0.28622775936E+03  0.47000000000E+01 0.  1.
<mgrwt>
<rscale>  0 0.29676054E+03</rscale>
<asrwt>0</asrwt>
<pdfrwt beam="1">  1        2 0.13910793E+00 0.29676054E+03</pdfrwt>
<pdfrwt beam="2">  1       -2 0.37460510E-02 0.29676054E+03</pdfrwt>
<totfact> 0.91633507E+03</totfact>
</mgrwt>
</event>
<event>
 9    1  0.8175317E-001  0.2738598E+03  0.7818608E-02  0.1099091E+00
         -1   -1    0    0    0  501 -0.00000000000E+00  0.00000000000E+00  0.10846945536E+02  0.10846945536E+02  0.00000000000E+00 0. -1.
          1   -1    0    0  501    0  0.00000000000E+00 -0.00000000000E+00 -0.17285783254E+04  0.17285783254E+04  0.00000000000E+00 0. -1.
         35    2    1    2    0    0 -0.71054273576E-14  0.71054273576E-14 -0.17177313799E+04  0.17394252710E+04  0.27385978128E+03 0.  0.
         25    2    3    3    0    0  0.82901344895E+01 -0.23634183684E+02 -0.11908724663E+04  0.11976772361E+04  0.12500491989E+03 0.  0.
         25    2    3    3    0    0 -0.82901344895E+01  0.23634183684E+02 -0.52685891363E+03  0.54174803487E+03  0.12362571514E+03 0.  0.
          5    1    4    4  502    0 -0.55047583273E+02  0.65218000262E+01 -0.43523713806E+03  0.43877810639E+03  0.47000000000E+01 0. -1.
         -5    1    4    4    0  502  0.63337717762E+02 -0.30155983710E+02 -0.75563532822E+03  0.75889912972E+03  0.47000000000E+01 0. -1.
          5    1    5    5  503    0 -0.46594035952E+02 -0.31941875716E+02 -0.28613383418E+03  0.29169495825E+03  0.47000000000E+01 0. -1.
         -5    1    5    5    0  503  0.38303901462E+02  0.55576059400E+02 -0.24072507945E+03  0.25005307661E+03  0.47000000000E+01 0. -1.
<mgrwt>
<rscale>  0 0.27385978E+03</rscale>
<asrwt>0</asrwt>
<pdfrwt beam="1">  1        1 0.26593518E+00 0.27385978E+03</pdfrwt>
<pdfrwt beam="2">  1       -1 0.16687605E-02 0.27385978E+03</pdfrwt>
<totfact> 0.45248586E+03</totfact>
</mgrwt>
</event>
<event>
 9    1  0.8175317E-001  0.2716139E+03  0.7818608E-02  0.1100359E+00
          2   -1    0    0  501    0  0.00000000000E+00  0.00000000000E+00  0.11577941360E+04  0.11577941360E+04  0.00000000000E+00 0. -1.
         -2   -1    0    0    0  501 -0.00000000000E+00 -0.00000000000E+00 -0.15929891003E+02  0.15929891003E+02  0.00000000000E+00 0. -1.
         35    2    1    2    0    0  0.00000000000E+00  0.71054273576E-14  0.11418642450E+04  0.11737240270E+04  0.27161394950E+03 0.  0.
         25    2    3    3    0    0 -0.17971895468E+02  0.20552255606E+02  0.76204617006E+03  0.77274871679E+03  0.12522311991E+03 0.  0.
         25    2    3    3    0    0  0.17971895468E+02 -0.20552255606E+02  0.37981807495E+03  0.40097531023E+03  0.12559476547E+03 0.  0.
          5    1    4    4  502    0  0.22618561166E+02  0.51822218608E+02  0.18733146524E+03  0.19573530473E+03  0.47000000000E+01 0. -1.
         -5    1    4    4    0  502 -0.40590456634E+02 -0.31269963002E+02  0.57471470482E+03  0.57701341206E+03  0.47000000000E+01 0. -1.
          5    1    5    5  503    0  0.60042158316E+02  0.49431117389E+01  0.30752923204E+03  0.31340997701E+03  0.47000000000E+01 0. -1.
         -5    1    5    5    0  503 -0.42070262848E+02 -0.25495367345E+02  0.72288842913E+02  0.87565333219E+02  0.47000000000E+01 0. -1.
<mgrwt>
<rscale>  0 0.27161395E+03</rscale>
<asrwt>0</asrwt>
<pdfrwt beam="1">  1        2 0.17812211E+00 0.27161395E+03</pdfrwt>
<pdfrwt beam="2">  1       -2 0.24507534E-02 0.27161395E+03</pdfrwt>
<totfact> 0.12070869E+04</totfact>
</mgrwt>
</event>
<event>
 9    1  0.8175317E-001  0.2768800E+03  0.7818608E-02  0.1097405E+00
         -3   -1    0    0    0  501 -0.00000000000E+00  0.00000000000E+00  0.23058743096E+03  0.23058743096E+03  0.00000000000E+00 0. -1.
          3   -1    0    0  501    0  0.00000000000E+00 -0.00000000000E+00 -0.83116546910E+02  0.83116546910E+02  0.00000000000E+00 0. -1.
         35    2    1    2    0    0  0.00000000000E+00  0.00000000000E+00  0.14747088405E+03  0.31370397787E+03  0.27687998138E+03 0.  0.
         25    2    3    3    0    0 -0.27578519462E+02  0.36924692449E+02  0.32204619380E+02  0.13648291022E+03  0.12436414123E+03 0.  0.
         25    2    3    3    0    0  0.27578519462E+02 -0.36924692449E+02  0.11526626467E+03  0.17722106765E+03  0.12647919750E+03 0.  0.
          5    1    4    4  502    0 -0.71850752171E+02  0.21314285127E+02  0.45072486811E+02  0.87581096164E+02  0.47000000000E+01 0.  1.
         -5    1    4    4    0  502  0.44272232709E+02  0.15610407321E+02 -0.12867867432E+02  0.48901814057E+02  0.47000000000E+01 0.  1.
          5    1    5    5  503    0  0.28053012361E+02 -0.34404612192E+02  0.14257107369E+03  0.14939628475E+03  0.47000000000E+01 0. -1.
         -5    1    5    5    0  503 -0.47449289957E+00 -0.25200802568E+01 -0.27304809020E+02  0.27824782903E+02  0.47000000000E+01 0. -1.
<mgrwt>
<rscale>  0 0.27687998E+03</rscale>
<asrwt>0</asrwt>
<pdfrwt beam="1">  1        3 0.12787161E-01 0.27687998E+03</pdfrwt>
<pdfrwt beam="2">  1       -3 0.35474989E-01 0.27687998E+03</pdfrwt>
<totfact> 0.97143077E+02</totfact>
</mgrwt>
</event>
<event>
 9    1  0.8175317E-001  0.2748598E+03  0.7818608E-02  0.1098530E+00
          1   -1    0    0  501    0  0.00000000000E+00  0.00000000000E+00  0.81436014928E+02  0.81436014928E+02  0.00000000000E+00 0. -1.
         -1   -1    0    0    0  501 -0.00000000000E+00 -0.00000000000E+00 -0.23192410398E+03  0.23192410398E+03  0.00000000000E+00 0. -1.
         35    2    1    2    0    0  0.00000000000E+00 -0.71054273576E-14 -0.15048808905E+03  0.31336011891E+03  0.27485978093E+03 0.  0.
         25    2    3    3    0    0  0.44358060777E+02 -0.34035235354E+02 -0.90525318936E+02  0.16354695766E+03  0.12420442501E+03 0.  0.
         25    2    3    3    0    0 -0.44358060777E+02  0.34035235354E+02 -0.59962770116E+02  0.14981316124E+03  0.12538905327E+03 0.  0.
          5    1    4    4  502    0 -0.89842130262E+01  0.31136574418E+01 -0.97433198951E+02  0.98008822074E+02  0.47000000000E+01 0. -1.
         -5    1    4    4    0  502  0.53342273804E+02 -0.37148892795E+02  0.69078800157E+01  0.65538135591E+02  0.47000000000E+01 0. -1.
          5    1    5    5  503    0  0.30816354589E+02  0.11985166588E+02 -0.62964372389E+02  0.71273375946E+02  0.47000000000E+01 0.  1.
         -5    1    5    5    0  503 -0.75174415367E+02  0.22050068766E+02  0.30016022731E+01  0.78539785297E+02  0.47000000000E+01 0.  1.
<mgrwt>
<rscale>  0 0.27485978E+03</rscale>
<asrwt>0</asrwt>
<pdfrwt beam="1">  1        1 0.12528618E-01 0.27485978E+03</pdfrwt>
<pdfrwt beam="2">  1       -1 0.35680631E-01 0.27485978E+03</pdfrwt>
<totfact> 0.35629556E+03</totfact>
</mgrwt>
</event>
<event>
 9    1  0.8175317E-001  0.2781727E+03  0.7818608E-02  0.1096691E+00
         -1   -1    0    0    0  501 -0.00000000000E+00  0.00000000000E+00  0.12570515828E+02  0.12570515828E+02  0.00000000000E+00 0.  1.
          1   -1    0    0  501    0  0.00000000000E+00 -0.00000000000E+00 -0.15389196381E+04  0.15389196381E+04  0.00000000000E+00 0.  1.
         35    2    1    2    0    0  0.26645352591E-14 -0.17763568394E-14 -0.15263491223E+04  0.15514901540E+04  0.27817270656E+03 0.  0.
         25    2    3    3    0    0 -0.76649758997E+01 -0.13503054708E+02 -0.39717249911E+03  0.41524982010E+03  0.12018874613E+03 0.  0.
         25    2    3    3    0    0  0.76649758997E+01  0.13503054708E+02 -0.11291766232E+04  0.11362403339E+04  0.12554348089E+03 0.  0.
          5    1    4    4  502    0 -0.44307817107E+02 -0.12879491821E+01 -0.54645848117E+02  0.70520211190E+02  0.47000000000E+01 0. -1.
         -5    1    4    4    0  502  0.36642841207E+02 -0.12215105526E+02 -0.34252665100E+03  0.34472960891E+03  0.47000000000E+01 0. -1.
          5    1    5    5  503    0 -0.56633341985E+01  0.46680412628E+02 -0.10233026724E+04  0.10243932759E+04  0.47000000000E+01 0. -1.
         -5    1    5    5    0  503  0.13328310098E+02 -0.33177357920E+02 -0.10587395079E+03  0.11184705800E+03  0.47000000000E+01 0. -1.
<mgrwt>
<rscale>  0 0.27817271E+03</rscale>
<asrwt>0</asrwt>
<pdfrwt beam="1">  1        1 0.23675692E+00 0.27817271E+03</pdfrwt>
<pdfrwt beam="2">  1       -1 0.19339251E-02 0.27817271E+03</pdfrwt>
<totfact> 0.48580815E+03</totfact>
</mgrwt>
</event>
<event>
 9    1  0.8175317E-001  0.2740142E+03  0.7818608E-02  0.1099004E+00
          2   -1    0    0  501    0  0.00000000000E+00  0.00000000000E+00  0.29745506034E+03  0.29745506034E+03  0.00000000000E+00 0. -1.
         -2   -1    0    0    0  501 -0.00000000000E+00 -0.00000000000E+00 -0.63105141697E+02  0.63105141697E+02  0.00000000000E+00 0. -1.
         35    2    1    2    0    0 -0.71054273576E-14 -0.71054273576E-14  0.23434991864E+03  0.36056020204E+03  0.27401418745E+03 0.  0.
         25    2    3    3    0    0  0.69750536077E+01  0.45756127955E+02  0.14293101164E+03  0.19851847023E+03  0.12976145159E+03 0.  0.
         25    2    3    3    0    0 -0.69750536077E+01 -0.45756127955E+02  0.91418907004E+02  0.16204173180E+03  0.12553020222E+03 0.  0.
          5    1    4    4  502    0 -0.58088921835E+02  0.15533766702E+02  0.37882445872E+02  0.71223524577E+02  0.47000000000E+01 0. -1.
         -5    1    4    4    0  502  0.65063975443E+02  0.30222361253E+02  0.10504856577E+03  0.12729494566E+03  0.47000000000E+01 0. -1.
          5    1    5    5  503    0  0.41824471132E+02 -0.63754295748E+02  0.75591879549E+02  0.10747147931E+03  0.47000000000E+01 0.  1.
         -5    1    5    5    0  503 -0.48799524740E+02  0.17998167793E+02  0.15827027455E+02  0.54570252490E+02  0.47000000000E+01 0.  1.
<mgrwt>
<rscale>  0 0.27401419E+03</rscale>
<asrwt>0</asrwt>
<pdfrwt beam="1">  1        2 0.45762316E-01 0.27401419E+03</pdfrwt>
<pdfrwt beam="2">  1       -2 0.97084835E-02 0.27401419E+03</pdfrwt>
<totfact> 0.76185987E+03</totfact>
</mgrwt>
</event>
<event>
 9    1  0.8175317E-001  0.2713608E+03  0.7818608E-02  0.1100503E+00
         -1   -1    0    0    0  501 -0.00000000000E+00  0.00000000000E+00  0.15217708337E+02  0.15217708337E+02  0.00000000000E+00 0. -1.
          1   -1    0    0  501    0  0.00000000000E+00 -0.00000000000E+00 -0.12097205615E+04  0.12097205615E+04  0.00000000000E+00 0. -1.
         35    2    1    2    0    0  0.00000000000E+00  0.00000000000E+00 -0.11945028531E+04  0.12249382698E+04  0.27136082749E+03 0.  0.
         25    2    3    3    0    0  0.39457678207E+02 -0.69487309699E+01 -0.75788235538E+03  0.76908660036E+03  0.12451241318E+03 0.  0.
         25    2    3    3    0    0 -0.39457678207E+02  0.69487309699E+01 -0.43662049774E+03  0.45585166943E+03  0.12473208185E+03 0.  0.
          5    1    4    4  502    0 -0.27769020834E+02  0.39250773693E+02 -0.24213140335E+03  0.24690372261E+03  0.47000000000E+01 0.  1.
         -5    1    4    4    0  502  0.67226699041E+02 -0.46199504663E+02 -0.51575095203E+03  0.52218287775E+03  0.47000000000E+01 0.  1.
          5    1    5    5  503    0 -0.52002380718E+02 -0.50121893956E+02 -0.24390991011E+03  0.25442206293E+03  0.47000000000E+01 0. -1.
         -5    1    5    5    0  503  0.12544702511E+02  0.57070624926E+02 -0.19271058763E+03  0.20142960650E+03  0.47000000000E+01 0. -1.
<mgrwt>
<rscale>  0 0.27136083E+03</rscale>
<asrwt>0</asrwt>
<pdfrwt beam="1">  1        1 0.18611090E+00 0.27136083E+03</pdfrwt>
<pdfrwt beam="2">  1       -1 0.23411853E-02 0.27136083E+03</pdfrwt>
<totfact> 0.61286379E+03</totfact>
</mgrwt>
</event>
<event>
 9    1  0.8175317E-001  0.2776944E+03  0.7818608E-02  0.1096955E+00
         -2   -1    0    0    0  501 -0.00000000000E+00  0.00000000000E+00  0.21023066802E+02  0.21023066802E+02  0.00000000000E+00 0. -1.
          2   -1    0    0  501    0  0.00000000000E+00 -0.00000000000E+00 -0.91701868361E+03  0.91701868361E+03  0.00000000000E+00 0. -1.
         35    2    1    2    0    0  0.00000000000E+00  0.00000000000E+00 -0.89599561681E+03  0.93804175041E+03  0.27769440069E+03 0.  0.
         25    2    3    3    0    0  0.49130862984E+02 -0.33535293646E+02 -0.43291643457E+03  0.45471585247E+03  0.12574342745E+03 0.  0.
         25    2    3    3    0    0 -0.49130862984E+02  0.33535293646E+02 -0.46307918224E+03  0.48332589794E+03  0.12499254771E+03 0.  0.
          5    1    4    4  502    0 -0.35475296355E+02 -0.20010682556E+02 -0.64421808014E+02  0.76362185770E+02  0.47000000000E+01 0.  1.
         -5    1    4    4    0  502  0.84606159339E+02 -0.13524611090E+02 -0.36849462655E+03  0.37835366670E+03  0.47000000000E+01 0.  1.
          5    1    5    5  503    0 -0.51633567845E+02  0.50242664294E+01 -0.61052715002E+02  0.80254548723E+02  0.47000000000E+01 0. -1.
         -5    1    5    5    0  503  0.25027048617E+01  0.28511027216E+02 -0.40202646724E+03  0.40307134922E+03  0.47000000000E+01 0. -1.
<mgrwt>
<rscale>  0 0.27769440E+03</rscale>
<asrwt>0</asrwt>
<pdfrwt beam="1">  1        2 0.14107980E+00 0.27769440E+03</pdfrwt>
<pdfrwt beam="2">  1       -2 0.32343179E-02 0.27769440E+03</pdfrwt>
<totfact> 0.11182176E+04</totfact>
</mgrwt>
</event>
<event>
 9    1  0.8175317E-001  0.2701307E+03  0.7818608E-02  0.1101205E+00
          1   -1    0    0  501    0  0.00000000000E+00  0.00000000000E+00  0.11187493779E+04  0.11187493779E+04  0.00000000000E+00 0. -1.
         -1   -1    0    0    0  501 -0.00000000000E+00 -0.00000000000E+00 -0.16306284606E+02  0.16306284606E+02  0.00000000000E+00 0. -1.
         35    2    1    2    0    0  0.00000000000E+00 -0.35527136788E-14  0.11024430933E+04  0.11350556625E+04  0.27013067770E+03 0.  0.
         25    2    3    3    0    0 -0.22138703911E+02  0.59184097462E+01  0.35631547704E+03  0.37818203872E+03  0.12464263093E+03 0.  0.
         25    2    3    3    0    0  0.22138703911E+02 -0.59184097462E+01  0.74612761626E+03  0.75687362380E+03  0.12500445138E+03 0.  0.
          5    1    4    4  502    0 -0.48235918569E+02 -0.46680950361E+02  0.17254967873E+03  0.18520609223E+03  0.47000000000E+01 0.  1.
         -5    1    4    4    0  502  0.26097214658E+02  0.52599360107E+02  0.18376579831E+03  0.19297594649E+03  0.47000000000E+01 0.  1.
          5    1    5    5  503    0 -0.29309369979E+02 -0.22762330540E+02  0.77642011124E+02  0.86183146563E+02  0.47000000000E+01 0.  1.
         -5    1    5    5    0  503  0.51448073891E+02  0.16843920794E+02  0.66848560514E+03  0.67069047723E+03  0.47000000000E+01 0.  1.
<mgrwt>
<rscale>  0 0.27013068E+03</rscale>
<asrwt>0</asrwt>
<pdfrwt beam="1">  1        1 0.17211523E+00 0.27013068E+03</pdfrwt>
<pdfrwt beam="2">  1       -1 0.25086600E-02 0.27013068E+03</pdfrwt>
<totfact> 0.64203259E+03</totfact>
</mgrwt>
</event>
<event>
 9    1  0.8175317E-001  0.2747483E+03  0.7818608E-02  0.1098592E+00
         -2   -1    0    0    0  501 -0.00000000000E+00  0.00000000000E+00  0.16296222601E+02  0.16296222601E+02  0.00000000000E+00 0.  1.
          2   -1    0    0  501    0  0.00000000000E+00 -0.00000000000E+00 -0.11580386775E+04  0.11580386775E+04  0.00000000000E+00 0.  1.
         35    2    1    2    0    0  0.10658141036E-13  0.71054273576E-14 -0.11417424549E+04  0.11743349001E+04  0.27474829257E+03 0.  0.
         25    2    3    3    0    0 -0.96963788499E+01 -0.49497892413E+02 -0.68291186035E+03  0.69606645338E+03  0.12488329510E+03 0.  0.
         25    2    3    3    0    0  0.96963788499E+01  0.49497892413E+02 -0.45883059452E+03  0.47826844669E+03  0.12518439007E+03 0.  0.
          5    1    4    4  502    0 -0.66823493850E+02 -0.34879335088E+02 -0.38577618410E+03  0.39309960769E+03  0.47000000000E+01 0. -1.
         -5    1    4    4    0  502  0.57127115000E+02 -0.14618557325E+02 -0.29713567625E+03  0.30296684569E+03  0.47000000000E+01 0. -1.
          5    1    5    5  503    0 -0.19717996060E+02  0.80179671809E+02 -0.37670482187E+03  0.38567627871E+03  0.47000000000E+01 0.  1.
         -5    1    5    5    0  503  0.29414374910E+02 -0.30681779396E+02 -0.82125772649E+02  0.92592167981E+02  0.47000000000E+01 0.  1.
<mgrwt>
<rscale>  0 0.27474829E+03</rscale>
<asrwt>0</asrwt>
<pdfrwt beam="1">  1        2 0.17815978E+00 0.27474829E+03</pdfrwt>
<pdfrwt beam="2">  1       -2 0.25071114E-02 0.27474829E+03</pdfrwt>
<totfact> 0.11671740E+04</totfact>
</mgrwt>
</event>
<event>
 9    1  0.8175317E-001  0.2788987E+03  0.7818608E-02  0.1096292E+00
          2   -1    0    0  501    0  0.00000000000E+00  0.00000000000E+00  0.13498679211E+03  0.13498679211E+03  0.00000000000E+00 0. -1.
         -2   -1    0    0    0  501 -0.00000000000E+00 -0.00000000000E+00 -0.14405944676E+03  0.14405944676E+03  0.00000000000E+00 0. -1.
         35    2    1    2    0    0  0.00000000000E+00  0.62172489379E-14 -0.90726546534E+01  0.27904623888E+03  0.27889870987E+03 0.  0.
         25    2    3    3    0    0  0.16570481072E+02 -0.43375475526E+01  0.55214744677E+02  0.13718008964E+03  0.12440383356E+03 0.  0.
         25    2    3    3    0    0 -0.16570481072E+02  0.43375475526E+01 -0.64287399330E+02  0.14186614923E+03  0.12529860104E+03 0.  0.
          5    1    4    4  502    0  0.18506825794E+02  0.48296764505E+02 -0.10342827482E+02  0.52954170213E+02  0.47000000000E+01 0.  1.
         -5    1    4    4    0  502 -0.19363447221E+01 -0.52634312057E+02  0.65557572159E+02  0.84225919431E+02  0.47000000000E+01 0.  1.
          5    1    5    5  503    0  0.46475025114E+02  0.53896750365E+00  0.61770337946E+01  0.47121801662E+02  0.47000000000E+01 0.  1.
         -5    1    5    5    0  503 -0.63045506187E+02  0.37985800490E+01 -0.70464433125E+02  0.94744347569E+02  0.47000000000E+01 0.  1.
<mgrwt>
<rscale>  0 0.27889871E+03</rscale>
<asrwt>0</asrwt>
<pdfrwt beam="1">  1        2 0.20767199E-01 0.27889871E+03</pdfrwt>
<pdfrwt beam="2">  1       -2 0.22162992E-01 0.27889871E+03</pdfrwt>
<totfact> 0.46476687E+03</totfact>
</mgrwt>
</event>
<event>
 9    1  0.8175317E-001  0.2729769E+03  0.7818608E-02  0.1099588E+00
         -1   -1    0    0    0  501 -0.00000000000E+00  0.00000000000E+00  0.95061742122E+02  0.95061742122E+02  0.00000000000E+00 0.  1.
          1   -1    0    0  501    0  0.00000000000E+00 -0.00000000000E+00 -0.19596841915E+03  0.19596841915E+03  0.00000000000E+00 0.  1.
         35    2    1    2    0    0 -0.71054273576E-14  0.00000000000E+00 -0.10090667703E+03  0.29103016127E+03  0.27297691716E+03 0.  0.
         25    2    3    3    0    0  0.54879764539E+02 -0.12374023981E+01 -0.49620716264E+02  0.14604999845E+03  0.12591690453E+03 0.  0.
         25    2    3    3    0    0 -0.54879764539E+02  0.12374023981E+01 -0.51285960762E+02  0.14498016282E+03  0.12399870208E+03 0.  0.
          5    1    4    4  502    0  0.22128617897E+02 -0.58701077350E+02 -0.48996682189E+02  0.79738679934E+02  0.47000000000E+01 0.  1.
         -5    1    4    4    0  502  0.32751146642E+02  0.57463674952E+02 -0.62403407497E+00  0.66311318520E+02  0.47000000000E+01 0.  1.
          5    1    5    5  503    0  0.11223587344E+02 -0.50026004395E+02 -0.14583134825E+02  0.53510072415E+02  0.47000000000E+01 0.  1.
         -5    1    5    5    0  503 -0.66103351883E+02  0.51263406793E+02 -0.36702825937E+02  0.91470090401E+02  0.47000000000E+01 0.  1.
<mgrwt>
<rscale>  0 0.27297692E+03</rscale>
<asrwt>0</asrwt>
<pdfrwt beam="1">  1        1 0.30148987E-01 0.27297692E+03</pdfrwt>
<pdfrwt beam="2">  1       -1 0.14624884E-01 0.27297692E+03</pdfrwt>
<totfact> 0.50011575E+03</totfact>
</mgrwt>
</event>
<event>
 9    1  0.8175317E-001  0.2740549E+03  0.7818608E-02  0.1098981E+00
          1   -1    0    0  501    0  0.00000000000E+00  0.00000000000E+00  0.27111288608E+03  0.27111288608E+03  0.00000000000E+00 0. -1.
         -1   -1    0    0    0  501 -0.00000000000E+00 -0.00000000000E+00 -0.69257227258E+02  0.69257227258E+02  0.00000000000E+00 0. -1.
         35    2    1    2    0    0 -0.71054273576E-14  0.00000000000E+00  0.20185565882E+03  0.34037011334E+03  0.27405493438E+03 0.  0.
         25    2    3    3    0    0  0.67484090548E+01 -0.20972582023E+02  0.16680287120E+03  0.20929717309E+03  0.12448581687E+03 0.  0.
         25    2    3    3    0    0 -0.67484090548E+01  0.20972582023E+02  0.35052787619E+02  0.13107294024E+03  0.12436248439E+03 0.  0.
          5    1    4    4  502    0  0.25567481889E+02 -0.63020974257E+02  0.14019275866E+03  0.15588918791E+03  0.47000000000E+01 0. -1.
         -5    1    4    4    0  502 -0.18819072834E+02  0.42048392234E+02  0.26610112541E+02  0.53407985183E+02  0.47000000000E+01 0. -1.
          5    1    5    5  503    0  0.43536619950E+02 -0.26936113198E+02 -0.34414243445E+01  0.51525963090E+02  0.47000000000E+01 0.  1.
         -5    1    5    5    0  503 -0.50285029004E+02  0.47908695221E+02  0.38494211963E+02  0.79546977154E+02  0.47000000000E+01 0.  1.
<mgrwt>
<rscale>  0 0.27405493E+03</rscale>
<asrwt>0</asrwt>
<pdfrwt beam="1">  1        1 0.41709674E-01 0.27405493E+03</pdfrwt>
<pdfrwt beam="2">  1       -1 0.10654958E-01 0.27405493E+03</pdfrwt>
<totfact> 0.54626842E+03</totfact>
</mgrwt>
</event>
<event>
 9    1  0.8175317E-001  0.2719948E+03  0.7818608E-02  0.1100143E+00
          2   -1    0    0  501    0  0.00000000000E+00  0.00000000000E+00  0.47886423672E+03  0.47886423672E+03  0.00000000000E+00 0.  1.
         -2   -1    0    0    0  501 -0.00000000000E+00 -0.00000000000E+00 -0.38623259587E+02  0.38623259587E+02  0.00000000000E+00 0.  1.
         35    2    1    2    0    0  0.00000000000E+00  0.71054273576E-14  0.44024097714E+03  0.51748749631E+03  0.27199483614E+03 0.  0.
         25    2    3    3    0    0  0.16826599204E+02  0.18000569038E+02  0.13101766671E+03  0.18296555456E+03  0.12531404646E+03 0.  0.
         25    2    3    3    0    0 -0.16826599204E+02 -0.18000569038E+02  0.30922331043E+03  0.33452194175E+03  0.12521469112E+03 0.  0.
          5    1    4    4  502    0 -0.35704161003E+02  0.53153311209E+02  0.61842375543E+02  0.89143878187E+02  0.47000000000E+01 0. -1.
         -5    1    4    4    0  502  0.52530760207E+02 -0.35152742171E+02  0.69175291168E+02  0.93821676377E+02  0.47000000000E+01 0. -1.
          5    1    5    5  503    0 -0.47386593533E+02  0.39175048064E+02  0.13019981361E+03  0.14406337183E+03  0.47000000000E+01 0. -1.
         -5    1    5    5    0  503  0.30559994329E+02 -0.57175617102E+02  0.17902349681E+03  0.19045856992E+03  0.47000000000E+01 0. -1.
<mgrwt>
<rscale>  0 0.27199484E+03</rscale>
<asrwt>0</asrwt>
<pdfrwt beam="1">  1        2 0.73671417E-01 0.27199484E+03</pdfrwt>
<pdfrwt beam="2">  1       -2 0.59420403E-02 0.27199484E+03</pdfrwt>
<totfact> 0.97550184E+03</totfact>
</mgrwt>
</event>
<event>
 9    1  0.8175317E-001  0.2696949E+03  0.7818608E-02  0.1101454E+00
         -3   -1    0    0    0  501 -0.00000000000E+00  0.00000000000E+00  0.16009680409E+03  0.16009680409E+03  0.00000000000E+00 0. -1.
          3   -1    0    0  501    0  0.00000000000E+00 -0.00000000000E+00 -0.11358024337E+03  0.11358024337E+03  0.00000000000E+00 0. -1.
         35    2    1    2    0    0 -0.17763568394E-14  0.00000000000E+00  0.46516560717E+02  0.27367704746E+03  0.26969489407E+03 0.  0.
         25    2    3    3    0    0  0.12919500850E+02  0.47207994961E+02  0.35504598470E+02  0.13874728223E+03  0.12487883537E+03 0.  0.
         25    2    3    3    0    0 -0.12919500850E+02 -0.47207994961E+02  0.11011962247E+02  0.13492976523E+03  0.12525681595E+03 0.  0.
          5    1    4    4  502    0 -0.53327668223E+01 -0.35566527266E+02  0.39670666735E+02  0.53751912180E+02  0.47000000000E+01 0.  1.
         -5    1    4    4    0  502  0.18252267673E+02  0.82774522227E+02 -0.41660682657E+01  0.84995370050E+02  0.47000000000E+01 0.  1.
          5    1    5    5  503    0 -0.14564354565E+01 -0.70420876962E+02 -0.37356594534E+02  0.79867554561E+02  0.47000000000E+01 0.  1.
         -5    1    5    5    0  503 -0.11463065394E+02  0.23212882000E+02  0.48368556782E+02  0.55062210672E+02  0.47000000000E+01 0.  1.
<mgrwt>
<rscale>  0 0.26969489E+03</rscale>
<asrwt>0</asrwt>
<pdfrwt beam="1">  1        3 0.17473884E-01 0.26969489E+03</pdfrwt>
<pdfrwt beam="2">  1       -3 0.24630277E-01 0.26969489E+03</pdfrwt>
<totfact> 0.11155860E+03</totfact>
</mgrwt>
</event>
<event>
 9    1  0.8175317E-001  0.2773526E+03  0.7818608E-02  0.1097144E+00
          1   -1    0    0  501    0  0.00000000000E+00  0.00000000000E+00  0.15609553121E+04  0.15609553121E+04  0.00000000000E+00 0. -1.
         -1   -1    0    0    0  501 -0.00000000000E+00 -0.00000000000E+00 -0.12320097617E+02  0.12320097617E+02  0.00000000000E+00 0. -1.
         35    2    1    2    0    0  0.00000000000E+00  0.00000000000E+00  0.15486352145E+04  0.15732754097E+04  0.27735264066E+03 0.  0.
         25    2    3    3    0    0 -0.43896594135E+02 -0.41790507436E+02  0.76497125227E+03  0.77748029612E+03  0.12498494540E+03 0.  0.
         25    2    3    3    0    0  0.43896594135E+02  0.41790507436E+02  0.78366396222E+03  0.79579511360E+03  0.12444797972E+03 0.  0.
          5    1    4    4  502    0  0.91972317563E+01  0.36097868291E+02  0.12283660849E+03  0.12844674987E+03  0.47000000000E+01 0.  1.
         -5    1    4    4    0  502 -0.53093825891E+02 -0.77888375727E+02  0.64213464378E+03  0.64903354625E+03  0.47000000000E+01 0.  1.
          5    1    5    5  503    0  0.78591851312E+02  0.50653059062E+02  0.67058823663E+03  0.67709163677E+03  0.47000000000E+01 0.  1.
         -5    1    5    5    0  503 -0.34695257178E+02 -0.88625516268E+01  0.11307572559E+03  0.11870347682E+03  0.47000000000E+01 0.  1.
<mgrwt>
<rscale>  0 0.27735264E+03</rscale>
<asrwt>0</asrwt>
<pdfrwt beam="1">  1        1 0.24014681E+00 0.27735264E+03</pdfrwt>
<pdfrwt beam="2">  1       -1 0.18954009E-02 0.27735264E+03</pdfrwt>
<totfact> 0.48382707E+03</totfact>
</mgrwt>
</event>
<event>
 9    1  0.8175317E-001  0.2772970E+03  0.7818608E-02  0.1097174E+00
         -1   -1    0    0    0  501 -0.00000000000E+00  0.00000000000E+00  0.13434217434E+02  0.13434217434E+02  0.00000000000E+00 0. -1.
          1   -1    0    0  501    0  0.00000000000E+00 -0.00000000000E+00 -0.14309284317E+04  0.14309284317E+04  0.00000000000E+00 0. -1.
         35    2    1    2    0    0  0.00000000000E+00 -0.71054273576E-14 -0.14174942143E+04  0.14443626492E+04  0.27729697932E+03 0.  0.
         25    2    3    3    0    0  0.49232066526E+02  0.34585843117E+02 -0.77018421194E+03  0.78223180209E+03  0.12281243814E+03 0.  0.
         25    2    3    3    0    0 -0.49232066526E+02 -0.34585843117E+02 -0.64731000235E+03  0.66213084706E+03  0.12564649847E+03 0.  0.
          5    1    4    4  502    0 -0.10784968538E+02  0.47397185480E+02 -0.12630174901E+03  0.13541429223E+03  0.47000000000E+01 0. -1.
         -5    1    4    4    0  502  0.60017035063E+02 -0.12811342362E+02 -0.64388246293E+03  0.64681750986E+03  0.47000000000E+01 0. -1.
          5    1    5    5  503    0 -0.59264093859E+02  0.10287353885E+02 -0.13656683730E+03  0.14930054762E+03  0.47000000000E+01 0.  1.
         -5    1    5    5    0  503  0.10032027333E+02 -0.44873197003E+02 -0.51074316505E+03  0.51283029944E+03  0.47000000000E+01 0.  1.
<mgrwt>
<rscale>  0 0.27729698E+03</rscale>
<asrwt>0</asrwt>
<pdfrwt beam="1">  1        1 0.22014288E+00 0.27729698E+03</pdfrwt>
<pdfrwt beam="2">  1       -1 0.20668023E-02 0.27729698E+03</pdfrwt>
<totfact> 0.51999207E+03</totfact>
</mgrwt>
</event>
<event>
 9    1  0.8175317E-001  0.2756654E+03  0.7818608E-02  0.1098080E+00
          1   -1    0    0  501    0  0.00000000000E+00  0.00000000000E+00  0.22344645418E+04  0.22344645418E+04  0.00000000000E+00 0.  1.
         -1   -1    0    0    0  501 -0.00000000000E+00 -0.00000000000E+00 -0.85021950548E+01  0.85021950548E+01  0.00000000000E+00 0.  1.
         35    2    1    2    0    0  0.00000000000E+00 -0.35527136788E-14  0.22259623468E+04  0.22429667369E+04  0.27566540137E+03 0.  0.
         25    2    3    3    0    0 -0.57814424570E+02  0.11154082999E+02  0.10742245885E+04  0.10830468994E+04  0.12476056539E+03 0.  0.
         25    2    3    3    0    0  0.57814424570E+02 -0.11154082999E+02  0.11517377583E+04  0.11599198375E+04  0.12428694266E+03 0.  0.
          5    1    4    4  502    0 -0.66090959704E+01 -0.52411177556E+02  0.31508285792E+03  0.31951511550E+03  0.47000000000E+01 0.  1.
         -5    1    4    4    0  502 -0.51205328600E+02  0.63565260555E+02  0.75914173055E+03  0.76353178394E+03  0.47000000000E+01 0.  1.
          5    1    5    5  503    0 -0.37676481867E+02  0.57018275938E+01  0.42410161569E+03  0.42583599960E+03  0.47000000000E+01 0. -1.
         -5    1    5    5    0  503  0.95490906437E+02 -0.16855910593E+02  0.72763614263E+03  0.73408383785E+03  0.47000000000E+01 0. -1.
<mgrwt>
<rscale>  0 0.27566540E+03</rscale>
<asrwt>0</asrwt>
<pdfrwt beam="1">  1        1 0.34376331E+00 0.27566540E+03</pdfrwt>
<pdfrwt beam="2">  1       -1 0.13080318E-02 0.27566540E+03</pdfrwt>
<totfact> 0.30233247E+03</totfact>
</mgrwt>
</event>
<event>
 9    1  0.8175317E-001  0.2746238E+03  0.7818608E-02  0.1098662E+00
          2   -1    0    0  501    0  0.00000000000E+00  0.00000000000E+00  0.98657398880E+02  0.98657398880E+02  0.00000000000E+00 0.  1.
         -2   -1    0    0    0  501 -0.00000000000E+00 -0.00000000000E+00 -0.19111145419E+03  0.19111145419E+03  0.00000000000E+00 0.  1.
         35    2    1    2    0    0 -0.17763568394E-14 -0.71054273576E-14 -0.92454055311E+02  0.28976885307E+03  0.27462380790E+03 0.  0.
         25    2    3    3    0    0 -0.26972373752E+01 -0.12534474054E+02 -0.98898636828E+02  0.16392166731E+03  0.13009605881E+03 0.  0.
         25    2    3    3    0    0  0.26972373752E+01  0.12534474054E+02  0.64445815169E+01  0.12584718577E+03  0.12502637084E+03 0.  0.
          5    1    4    4  502    0 -0.56761089087E+02 -0.15315255456E+02 -0.10130363405E+02  0.59842230463E+02  0.47000000000E+01 0. -1.
         -5    1    4    4    0  502  0.54063851712E+02  0.27807814023E+01 -0.88768273423E+02  0.10407943684E+03  0.47000000000E+01 0. -1.
          5    1    5    5  503    0 -0.68804742276E+01 -0.55421575026E+02 -0.43668471367E+01  0.56214333206E+02  0.47000000000E+01 0.  1.
         -5    1    5    5    0  503  0.95777116027E+01  0.67956049080E+02  0.10811428654E+02  0.69632852560E+02  0.47000000000E+01 0.  1.
<mgrwt>
<rscale>  0 0.27462381E+03</rscale>
<asrwt>0</asrwt>
<pdfrwt beam="1">  1        2 0.15178062E-01 0.27462381E+03</pdfrwt>
<pdfrwt beam="2">  1       -2 0.29401762E-01 0.27462381E+03</pdfrwt>
<totfact> 0.40536479E+03</totfact>
</mgrwt>
</event>
<event>
 9    1  0.8175317E-001  0.2710082E+03  0.7818608E-02  0.1100704E+00
         -4   -1    0    0    0  501 -0.00000000000E+00  0.00000000000E+00  0.18116774649E+03  0.18116774649E+03  0.00000000000E+00 0. -1.
          4   -1    0    0  501    0  0.00000000000E+00 -0.00000000000E+00 -0.10135003018E+03  0.10135003018E+03  0.00000000000E+00 0. -1.
         35    2    1    2    0    0  0.71054273576E-14 -0.71054273576E-14  0.79817716315E+02  0.28251777667E+03  0.27100816648E+03 0.  0.
         25    2    3    3    0    0 -0.39285699867E+02  0.25013183539E+02  0.83201338201E+02  0.15813592794E+03  0.12615658311E+03 0.  0.
         25    2    3    3    0    0  0.39285699867E+02 -0.25013183539E+02 -0.33836218857E+01  0.12438184873E+03  0.11528386631E+03 0.  0.
          5    1    4    4  502    0  0.33010713578E+02  0.47516402939E+02  0.43301646040E+02  0.72419875096E+02  0.47000000000E+01 0.  1.
         -5    1    4    4    0  502 -0.72296413445E+02 -0.22503219400E+02  0.39899692161E+02  0.85716052842E+02  0.47000000000E+01 0.  1.
          5    1    5    5  503    0 -0.23087233449E+02 -0.41570394690E+02 -0.27733004092E+02  0.55247873977E+02  0.47000000000E+01 0. -1.
         -5    1    5    5    0  503  0.62372933316E+02  0.16557211151E+02  0.24349382206E+02  0.69133974755E+02  0.47000000000E+01 0. -1.
<mgrwt>
<rscale>  0 0.27100817E+03</rscale>
<asrwt>0</asrwt>
<pdfrwt beam="1">  1        4 0.15592312E-01 0.27100817E+03</pdfrwt>
<pdfrwt beam="2">  1       -4 0.27871961E-01 0.27100817E+03</pdfrwt>
<totfact> 0.80542837E+02</totfact>
</mgrwt>
</event>
<event>
 9    1  0.8175317E-001  0.2710077E+03  0.7818608E-02  0.1100704E+00
          2   -1    0    0  501    0  0.00000000000E+00  0.00000000000E+00  0.15469001738E+03  0.15469001738E+03  0.00000000000E+00 0.  1.
         -2   -1    0    0    0  501 -0.00000000000E+00 -0.00000000000E+00 -0.11869735589E+03  0.11869735589E+03  0.00000000000E+00 0.  1.
         35    2    1    2    0    0  0.00000000000E+00  0.00000000000E+00  0.35992661490E+02  0.27338737328E+03  0.27100771979E+03 0.  0.
         25    2    3    3    0    0 -0.70751491039E+01  0.41330579688E+02  0.20734514875E+02  0.14248402542E+03  0.13458641403E+03 0.  0.
         25    2    3    3    0    0  0.70751491039E+01 -0.41330579688E+02  0.15258146615E+02  0.13090334786E+03  0.12306340191E+03 0.  0.
          5    1    4    4  502    0  0.20089985430E+02  0.44144868584E+02 -0.47984075536E+02  0.68388145478E+02  0.47000000000E+01 0. -1.
         -5    1    4    4    0  502 -0.27165134534E+02 -0.28142888959E+01  0.68718590412E+02  0.74095879942E+02  0.47000000000E+01 0. -1.
          5    1    5    5  503    0  0.24850954015E+02 -0.81650488173E+02  0.13641142465E+02  0.86559476096E+02  0.47000000000E+01 0.  1.
         -5    1    5    5    0  503 -0.17775804911E+02  0.40319908485E+02  0.16170041494E+01  0.44343871762E+02  0.47000000000E+01 0.  1.
<mgrwt>
<rscale>  0 0.27100772E+03</rscale>
<asrwt>0</asrwt>
<pdfrwt beam="1">  1        2 0.23798464E-01 0.27100772E+03</pdfrwt>
<pdfrwt beam="2">  1       -2 0.18261132E-01 0.27100772E+03</pdfrwt>
<totfact> 0.55440726E+03</totfact>
</mgrwt>
</event>
<event>
 9    1  0.8175317E-001  0.2797986E+03  0.7818608E-02  0.1095799E+00
         -1   -1    0    0    0  501 -0.00000000000E+00  0.00000000000E+00  0.50955246162E+03  0.50955246162E+03  0.00000000000E+00 0. -1.
          1   -1    0    0  501    0  0.00000000000E+00 -0.00000000000E+00 -0.38409804955E+02  0.38409804955E+02  0.00000000000E+00 0. -1.
         35    2    1    2    0    0  0.00000000000E+00  0.10658141036E-13  0.47114265666E+03  0.54796226657E+03  0.27979857516E+03 0.  0.
         25    2    3    3    0    0 -0.44596659491E+02  0.18127909640E+02  0.15843532178E+03  0.20785340624E+03  0.12563361075E+03 0.  0.
         25    2    3    3    0    0  0.44596659491E+02 -0.18127909640E+02  0.31270733488E+03  0.34010886033E+03  0.12478251658E+03 0.  0.
          5    1    4    4  502    0 -0.53566697583E+02  0.41307025761E+02  0.16772029034E+03  0.18090839466E+03  0.47000000000E+01 0. -1.
         -5    1    4    4    0  502  0.89700380914E+01 -0.23179116121E+02 -0.92849685609E+01  0.26945011573E+02  0.47000000000E+01 0. -1.
          5    1    5    5  503    0  0.57368782761E+02 -0.59866516908E+02  0.14862184184E+03  0.17025192790E+03  0.47000000000E+01 0. -1.
         -5    1    5    5    0  503 -0.12772123270E+02  0.41738607267E+02  0.16408549304E+03  0.16985693243E+03  0.47000000000E+01 0. -1.
<mgrwt>
<rscale>  0 0.27979858E+03</rscale>
<asrwt>0</asrwt>
<pdfrwt beam="1">  1        1 0.59092011E-02 0.27979858E+03</pdfrwt>
<pdfrwt beam="2">  1       -1 0.78392681E-01 0.27979858E+03</pdfrwt>
<totfact> 0.22427124E+03</totfact>
</mgrwt>
</event>
<event>
 9    1  0.8175317E-001  0.2770563E+03  0.7818608E-02  0.1097308E+00
         -2   -1    0    0    0  501 -0.00000000000E+00  0.00000000000E+00  0.89869552448E+02  0.89869552448E+02  0.00000000000E+00 0. -1.
          2   -1    0    0  501    0  0.00000000000E+00 -0.00000000000E+00 -0.21353226014E+03  0.21353226014E+03  0.00000000000E+00 0. -1.
         35    2    1    2    0    0  0.00000000000E+00 -0.71054273576E-14 -0.12366270769E+03  0.30340181259E+03  0.27705630223E+03 0.  0.
         25    2    3    3    0    0 -0.16931361668E+02 -0.56130942824E+02 -0.51640784843E+02  0.14753530315E+03  0.12515007498E+03 0.  0.
         25    2    3    3    0    0  0.16931361668E+02  0.56130942824E+02 -0.72021922850E+02  0.15586650943E+03  0.12517930197E+03 0.  0.
          5    1    4    4  502    0 -0.47334259895E+02  0.16253232845E+02 -0.46889187567E+02  0.68741440547E+02  0.47000000000E+01 0.  1.
         -5    1    4    4    0  502  0.30402898226E+02 -0.72384175669E+02 -0.47515972752E+01  0.78793862607E+02  0.47000000000E+01 0.  1.
          5    1    5    5  503    0 -0.46466258556E+02 -0.90682066072E+00 -0.48369718037E+02  0.67243253423E+02  0.47000000000E+01 0.  1.
         -5    1    5    5    0  503  0.63397620225E+02  0.57037763485E+02 -0.23652204813E+02  0.88623256011E+02  0.47000000000E+01 0.  1.
<mgrwt>
<rscale>  0 0.27705630E+03</rscale>
<asrwt>0</asrwt>
<pdfrwt beam="1">  1        2 0.32851117E-01 0.27705630E+03</pdfrwt>
<pdfrwt beam="2">  1       -2 0.13826085E-01 0.27705630E+03</pdfrwt>
<totfact> 0.61712923E+03</totfact>
</mgrwt>
</event>
<event>
 9    1  0.8175317E-001  0.2777937E+03  0.7818608E-02  0.1096900E+00
          1   -1    0    0  501    0  0.00000000000E+00  0.00000000000E+00  0.16230984543E+04  0.16230984543E+04  0.00000000000E+00 0.  1.
         -1   -1    0    0    0  501 -0.00000000000E+00 -0.00000000000E+00 -0.11886115642E+02  0.11886115642E+02  0.00000000000E+00 0.  1.
         35    2    1    2    0    0  0.00000000000E+00 -0.14210854715E-13  0.16112123386E+04  0.16349845699E+04  0.27779370709E+03 0.  0.
         25    2    3    3    0    0  0.64559509637E+01  0.58326939430E+02  0.82823971191E+03  0.83962197981E+03  0.12466088973E+03 0.  0.
         25    2    3    3    0    0 -0.64559509637E+01 -0.58326939430E+02  0.78297262669E+03  0.79536259008E+03  0.12693228265E+03 0.  0.
          5    1    4    4  502    0 -0.22562467173E+02  0.69190637753E+02  0.24708300787E+03  0.25762086883E+03  0.47000000000E+01 0. -1.
         -5    1    4    4    0  502  0.29018418137E+02 -0.10863698322E+02  0.58115670405E+03  0.58200111099E+03  0.47000000000E+01 0. -1.
          5    1    5    5  503    0  0.83748972305E+01 -0.73477805558E+02  0.22341421507E+03  0.23538293972E+03  0.47000000000E+01 0. -1.
         -5    1    5    5    0  503 -0.14830848194E+02  0.15150866127E+02  0.55955841162E+03  0.55997965036E+03  0.47000000000E+01 0. -1.
<mgrwt>
<rscale>  0 0.27779371E+03</rscale>
<asrwt>0</asrwt>
<pdfrwt beam="1">  1        1 0.24970728E+00 0.27779371E+03</pdfrwt>
<pdfrwt beam="2">  1       -1 0.18286345E-02 0.27779371E+03</pdfrwt>
<totfact> 0.46408020E+03</totfact>
</mgrwt>
</event>
<event>
 9    1  0.8175317E-001  0.2750215E+03  0.7818608E-02  0.1098440E+00
         -3   -1    0    0    0  501 -0.00000000000E+00  0.00000000000E+00  0.20496236547E+03  0.20496236547E+03  0.00000000000E+00 0. -1.
          3   -1    0    0  501    0  0.00000000000E+00 -0.00000000000E+00 -0.92256999169E+02  0.92256999169E+02  0.00000000000E+00 0. -1.
         35    2    1    2    0    0  0.00000000000E+00  0.00000000000E+00  0.11270536631E+03  0.29721936464E+03  0.27502154666E+03 0.  0.
         25    2    3    3    0    0 -0.12715380118E+02 -0.42628038181E+02  0.17656285053E+02  0.13381046226E+03  0.12495865267E+03 0.  0.
         25    2    3    3    0    0  0.12715380118E+02  0.42628038181E+02  0.95049081253E+02  0.16340890238E+03  0.12525697985E+03 0.  0.
          5    1    4    4  502    0 -0.63473387164E+02 -0.48587069704E+02  0.17946021188E+01  0.80092976079E+02  0.47000000000E+01 0. -1.
         -5    1    4    4    0  502  0.50758007046E+02  0.59590315236E+01  0.15861682934E+02  0.53717486180E+02  0.47000000000E+01 0. -1.
          5    1    5    5  503    0  0.32984165614E+02  0.60293980553E+02  0.11184737852E+03  0.13135922257E+03  0.47000000000E+01 0.  1.
         -5    1    5    5    0  503 -0.20268785496E+02 -0.17665942372E+02 -0.16798297265E+02  0.32049679817E+02  0.47000000000E+01 0.  1.
<mgrwt>
<rscale>  0 0.27502155E+03</rscale>
<asrwt>0</asrwt>
<pdfrwt beam="1">  1        3 0.14193385E-01 0.27502155E+03</pdfrwt>
<pdfrwt beam="2">  1       -3 0.31532672E-01 0.27502155E+03</pdfrwt>
<totfact> 0.10153172E+03</totfact>
</mgrwt>
</event>
<event>
 9    1  0.8175317E-001  0.2751230E+03  0.7818608E-02  0.1098383E+00
         -1   -1    0    0    0  501 -0.00000000000E+00  0.00000000000E+00  0.11429498418E+03  0.11429498418E+03  0.00000000000E+00 0.  1.
          1   -1    0    0  501    0  0.00000000000E+00 -0.00000000000E+00 -0.16556424334E+03  0.16556424334E+03  0.00000000000E+00 0.  1.
         35    2    1    2    0    0  0.00000000000E+00  0.00000000000E+00 -0.51269259155E+02  0.27985922752E+03  0.27512297304E+03 0.  0.
         25    2    3    3    0    0  0.51615958265E+02 -0.17614947744E+02 -0.42227262094E+02  0.14327136589E+03  0.12557487443E+03 0.  0.
         25    2    3    3    0    0 -0.51615958265E+02  0.17614947744E+02 -0.90419970606E+01  0.13658786163E+03  0.12489993076E+03 0.  0.
          5    1    4    4  502    0  0.73385896958E+02 -0.13263440655E+02 -0.73380686742E+02  0.10472928873E+03  0.47000000000E+01 0.  1.
         -5    1    4    4    0  502 -0.21769938692E+02 -0.43515070887E+01  0.31153424648E+02  0.38542077161E+02  0.47000000000E+01 0.  1.
          5    1    5    5  503    0 -0.55278742523E+02 -0.25930522602E+02  0.38109503090E+02  0.72128743252E+02  0.47000000000E+01 0. -1.
         -5    1    5    5    0  503  0.36627842574E+01  0.43545470346E+02 -0.47151500151E+02  0.64459118383E+02  0.47000000000E+01 0. -1.
<mgrwt>
<rscale>  0 0.27512297E+03</rscale>
<asrwt>0</asrwt>
<pdfrwt beam="1">  1        1 0.25471422E-01 0.27512297E+03</pdfrwt>
<pdfrwt beam="2">  1       -1 0.17583844E-01 0.27512297E+03</pdfrwt>
<totfact> 0.46159677E+03</totfact>
</mgrwt>
</event>
<event>
 9    1  0.8175317E-001  0.2745845E+03  0.7818608E-02  0.1098684E+00
          3   -1    0    0  501    0  0.00000000000E+00  0.00000000000E+00  0.11142881641E+03  0.11142881641E+03  0.00000000000E+00 0.  1.
         -3   -1    0    0    0  501 -0.00000000000E+00 -0.00000000000E+00 -0.16915879538E+03  0.16915879538E+03  0.00000000000E+00 0.  1.
         35    2    1    2    0    0  0.00000000000E+00  0.35527136788E-14 -0.57729978969E+02  0.28058761179E+03  0.27458451780E+03 0.  0.
         25    2    3    3    0    0 -0.34633403362E+02  0.17082298389E+02 -0.58349557126E+02  0.14946824972E+03  0.13207879963E+03 0.  0.
         25    2    3    3    0    0  0.34633403362E+02 -0.17082298389E+02  0.61957815728E+00  0.13111936207E+03  0.12530213759E+03 0.  0.
          5    1    4    4  502    0 -0.30434095854E+02 -0.16593927648E+02  0.35331265268E+02  0.49719019808E+02  0.47000000000E+01 0. -1.
         -5    1    4    4    0  502 -0.41993075078E+01  0.33676226037E+02 -0.93680822395E+02  0.99749229913E+02  0.47000000000E+01 0. -1.
          5    1    5    5  503    0 -0.34100516408E+02 -0.44076147857E+02 -0.84923855826E+01  0.56566444489E+02  0.47000000000E+01 0. -1.
         -5    1    5    5    0  503  0.68733919770E+02  0.26993849469E+02  0.91119637399E+01  0.74552917577E+02  0.47000000000E+01 0. -1.
<mgrwt>
<rscale>  0 0.27458452E+03</rscale>
<asrwt>0</asrwt>
<pdfrwt beam="1">  1        3 0.17142895E-01 0.27458452E+03</pdfrwt>
<pdfrwt beam="2">  1       -3 0.26024430E-01 0.27458452E+03</pdfrwt>
<totfact> 0.10451924E+03</totfact>
</mgrwt>
</event>
<event>
 9    1  0.8175317E-001  0.2769281E+03  0.7818608E-02  0.1097379E+00
         -2   -1    0    0    0  501 -0.00000000000E+00  0.00000000000E+00  0.71157772531E+01  0.71157772531E+01  0.00000000000E+00 0.  1.
          2   -1    0    0  501    0  0.00000000000E+00 -0.00000000000E+00 -0.26943348075E+04  0.26943348075E+04  0.00000000000E+00 0.  1.
         35    2    1    2    0    0  0.00000000000E+00  0.00000000000E+00 -0.26872190302E+04  0.27014505847E+04  0.27692805084E+03 0.  0.
         25    2    3    3    0    0 -0.27742625855E+01 -0.12212675252E+02 -0.18892961732E+04  0.18934776765E+04  0.12514325963E+03 0.  0.
         25    2    3    3    0    0  0.27742625855E+01  0.12212675252E+02 -0.79792285700E+03  0.80797290819E+03  0.12642186786E+03 0.  0.
          5    1    4    4  502    0  0.31795862011E+02 -0.18916521922E+01 -0.13434037111E+03  0.13814478093E+03  0.47000000000E+01 0.  1.
         -5    1    4    4    0  502 -0.34570124596E+02 -0.10321023060E+02 -0.17549558021E+04  0.17553328956E+04  0.47000000000E+01 0.  1.
          5    1    5    5  503    0  0.56546316401E+02 -0.28137682452E+01 -0.58673287645E+03  0.58947685408E+03  0.47000000000E+01 0.  1.
         -5    1    5    5    0  503 -0.53772053816E+02  0.15026443497E+02 -0.21118998054E+03  0.21849605410E+03  0.47000000000E+01 0.  1.
<mgrwt>
<rscale>  0 0.27692805E+03</rscale>
<asrwt>0</asrwt>
<pdfrwt beam="1">  1        2 0.41451265E+00 0.27692805E+03</pdfrwt>
<pdfrwt beam="2">  1       -2 0.10947360E-02 0.27692805E+03</pdfrwt>
<totfact> 0.58459406E+03</totfact>
</mgrwt>
</event>
<event>
 9    1  0.8175317E-001  0.2823708E+03  0.7818608E-02  0.1094401E+00
          1   -1    0    0  501    0  0.00000000000E+00  0.00000000000E+00  0.98379239293E+02  0.98379239293E+02  0.00000000000E+00 0. -1.
         -1   -1    0    0    0  501 -0.00000000000E+00 -0.00000000000E+00 -0.20261716359E+03  0.20261716359E+03  0.00000000000E+00 0. -1.
         35    2    1    2    0    0 -0.71054273576E-14  0.00000000000E+00 -0.10423792430E+03  0.30099640288E+03  0.28237083717E+03 0.  0.
         25    2    3    3    0    0 -0.57026132387E+02  0.25836952640E+02 -0.63215172282E+02  0.15624309344E+03  0.12843760487E+03 0.  0.
         25    2    3    3    0    0  0.57026132387E+02 -0.25836952640E+02 -0.41022752014E+02  0.14475330944E+03  0.12389966309E+03 0.  0.
          5    1    4    4  502    0 -0.83927621475E+02 -0.14819842744E+02 -0.64916092395E+02  0.10723647904E+03  0.47000000000E+01 0.  1.
         -5    1    4    4    0  502  0.26901489088E+02  0.40656795384E+02  0.17009201123E+01  0.49006614403E+02  0.47000000000E+01 0.  1.
          5    1    5    5  503    0  0.10071256284E+02  0.40041792082E+02 -0.47914667992E+02  0.63424606622E+02  0.47000000000E+01 0. -1.
         -5    1    5    5    0  503  0.46954876103E+02 -0.65878744722E+02  0.68919159782E+01  0.81328702817E+02  0.47000000000E+01 0. -1.
<mgrwt>
<rscale>  0 0.28237084E+03</rscale>
<asrwt>0</asrwt>
<pdfrwt beam="1">  1        1 0.15135268E-01 0.28237084E+03</pdfrwt>
<pdfrwt beam="2">  1       -1 0.31171871E-01 0.28237084E+03</pdfrwt>
<totfact> 0.35083760E+03</totfact>
</mgrwt>
</event>
<event>
 9    1  0.8175317E-001  0.2849882E+03  0.7818608E-02  0.1092995E+00
          2   -1    0    0  501    0  0.00000000000E+00  0.00000000000E+00  0.16140699758E+03  0.16140699758E+03  0.00000000000E+00 0. -1.
         -2   -1    0    0    0  501 -0.00000000000E+00 -0.00000000000E+00 -0.12579729097E+03  0.12579729097E+03  0.00000000000E+00 0. -1.
         35    2    1    2    0    0  0.71054273576E-14  0.00000000000E+00  0.35609706609E+02  0.28720428856E+03  0.28498816144E+03 0.  0.
         25    2    3    3    0    0  0.44335096555E+02 -0.30149458228E+01  0.70622523513E+02  0.14986997661E+03  0.12449408973E+03 0.  0.
         25    2    3    3    0    0 -0.44335096555E+02  0.30149458228E+01 -0.35012816904E+02  0.13733431194E+03  0.12514042194E+03 0.  0.
          5    1    4    4  502    0 -0.60719533052E+00 -0.57861442545E+02  0.47891043604E+02  0.75259267051E+02  0.47000000000E+01 0.  1.
         -5    1    4    4    0  502  0.44942291886E+02  0.54846496722E+02  0.22731479909E+02  0.74610709563E+02  0.47000000000E+01 0.  1.
          5    1    5    5  503    0  0.25219532545E+02 -0.18987337345E+02 -0.53166943117E+02  0.62010947756E+02  0.47000000000E+01 0.  1.
         -5    1    5    5    0  503 -0.69554629100E+02  0.22002283167E+02  0.18154126213E+02  0.75323364187E+02  0.47000000000E+01 0.  1.
<mgrwt>
<rscale>  0 0.28498816E+03</rscale>
<asrwt>0</asrwt>
<pdfrwt beam="1">  1        2 0.24831846E-01 0.28498816E+03</pdfrwt>
<pdfrwt beam="2">  1       -2 0.19353429E-01 0.28498816E+03</pdfrwt>
<totfact> 0.47979591E+03</totfact>
</mgrwt>
</event>
<event>
 9    1  0.8175317E-001  0.2788042E+03  0.7818608E-02  0.1096344E+00
         -4   -1    0    0    0  501 -0.00000000000E+00  0.00000000000E+00  0.20256799933E+02  0.20256799933E+02  0.00000000000E+00 0. -1.
          4   -1    0    0  501    0  0.00000000000E+00 -0.00000000000E+00 -0.95932942955E+03  0.95932942955E+03  0.00000000000E+00 0. -1.
         35    2    1    2    0    0 -0.71054273576E-14 -0.35527136788E-14 -0.93907262961E+03  0.97958622948E+03  0.27880419167E+03 0.  0.
         25    2    3    3    0    0  0.40866913492E+02 -0.11318372867E+02 -0.62481609991E+03  0.63864217863E+03  0.12518172164E+03 0.  0.
         25    2    3    3    0    0 -0.40866913492E+02  0.11318372867E+02 -0.31425652971E+03  0.34094405085E+03  0.12524962741E+03 0.  0.
          5    1    4    4  502    0  0.79591848830E+02 -0.10165920953E+02 -0.53075391809E+03  0.53680538365E+03  0.47000000000E+01 0.  1.
         -5    1    4    4    0  502 -0.38724935338E+02 -0.11524519137E+01 -0.94062181816E+02  0.10183679497E+03  0.47000000000E+01 0.  1.
          5    1    5    5  503    0 -0.53892270991E+02 -0.45453352679E+02 -0.20807593778E+03  0.21974546645E+03  0.47000000000E+01 0.  1.
         -5    1    5    5    0  503  0.13025357499E+02  0.56771725546E+02 -0.10618059192E+03  0.12119858440E+03  0.47000000000E+01 0.  1.
<mgrwt>
<rscale>  0 0.27880419E+03</rscale>
<asrwt>0</asrwt>
<pdfrwt beam="1">  1        4 0.14758914E+00 0.27880419E+03</pdfrwt>
<pdfrwt beam="2">  1       -4 0.31164309E-02 0.27880419E+03</pdfrwt>
<totfact> 0.31399970E+02</totfact>
</mgrwt>
</event>
<event>
 9    1  0.8175317E-001  0.2522378E+03  0.7818608E-02  0.1111899E+00
         -2   -1    0    0    0  501 -0.00000000000E+00  0.00000000000E+00  0.68498562441E+02  0.68498562441E+02  0.00000000000E+00 0. -1.
          2   -1    0    0  501    0  0.00000000000E+00 -0.00000000000E+00 -0.23220894726E+03  0.23220894726E+03  0.00000000000E+00 0. -1.
         35    2    1    2    0    0  0.00000000000E+00 -0.35527136788E-14 -0.16371038482E+03  0.30070750970E+03  0.25223781693E+03 0.  0.
         25    2    3    3    0    0 -0.45970604031E+01  0.24049127888E+02 -0.79102068079E+02  0.14797057367E+03  0.12263221428E+03 0.  0.
         25    2    3    3    0    0  0.45970604031E+01 -0.24049127888E+02 -0.84608316737E+02  0.15273693603E+03  0.12478185305E+03 0.  0.
          5    1    4    4  502    0  0.33307823385E+02 -0.17936953615E+01 -0.93722325260E+02  0.99592131686E+02  0.47000000000E+01 0. -1.
         -5    1    4    4    0  502 -0.37904883788E+02  0.25842823250E+02  0.14620257180E+02  0.48378441981E+02  0.47000000000E+01 0. -1.
          5    1    5    5  503    0  0.37749688580E+02  0.39599134399E+02 -0.31198034711E+02  0.63154871569E+02  0.47000000000E+01 0.  1.
         -5    1    5    5    0  503 -0.33152628177E+02 -0.63648262287E+02 -0.53410282026E+02  0.89582064462E+02  0.47000000000E+01 0.  1.
<mgrwt>
<rscale>  0 0.25223782E+03</rscale>
<asrwt>0</asrwt>
<pdfrwt beam="1">  1        2 0.35724453E-01 0.25223782E+03</pdfrwt>
<pdfrwt beam="2">  1       -2 0.10538241E-01 0.25223782E+03</pdfrwt>
<totfact> 0.87023904E+03</totfact>
</mgrwt>
</event>
<event>
 9    1  0.8175317E-001  0.2757354E+03  0.7818608E-02  0.1098041E+00
         -2   -1    0    0    0  501 -0.00000000000E+00  0.00000000000E+00  0.43514106660E+03  0.43514106660E+03  0.00000000000E+00 0.  1.
          2   -1    0    0  501    0  0.00000000000E+00 -0.00000000000E+00 -0.43681252083E+02  0.43681252083E+02  0.00000000000E+00 0.  1.
         35    2    1    2    0    0 -0.71054273576E-14  0.00000000000E+00  0.39145981452E+03  0.47882231869E+03  0.27573542842E+03 0.  0.
         25    2    3    3    0    0 -0.42083598539E+02  0.25801150467E+02  0.14145447457E+03  0.19512712257E+03  0.12501398703E+03 0.  0.
         25    2    3    3    0    0  0.42083598539E+02 -0.25801150467E+02  0.25000533995E+03  0.28369519612E+03  0.12467383714E+03 0.  0.
          5    1    4    4  502    0 -0.82329887694E+02  0.76331137466E+01  0.12001635801E+03  0.14581663493E+03  0.47000000000E+01 0.  1.
         -5    1    4    4    0  502  0.40246289156E+02  0.18168036720E+02  0.21438116568E+02  0.49310487638E+02  0.47000000000E+01 0.  1.
          5    1    5    5  503    0  0.68336291708E+02  0.27563342341E+02  0.15145882339E+03  0.16849763141E+03  0.47000000000E+01 0. -1.
         -5    1    5    5    0  503 -0.26252693169E+02 -0.53364492808E+02  0.98546516554E+02  0.11519756471E+03  0.47000000000E+01 0. -1.
<mgrwt>
<rscale>  0 0.27573543E+03</rscale>
<asrwt>0</asrwt>
<pdfrwt beam="1">  1        2 0.67201929E-02 0.27573543E+03</pdfrwt>
<pdfrwt beam="2">  1       -2 0.66944777E-01 0.27573543E+03</pdfrwt>
<totfact> 0.22305364E+03</totfact>
</mgrwt>
</event>
<event>
 9    1  0.8175317E-001  0.2756749E+03  0.7818608E-02  0.1098075E+00
          1   -1    0    0  501    0  0.00000000000E+00  0.00000000000E+00  0.55691786662E+03  0.55691786662E+03  0.00000000000E+00 0.  1.
         -1   -1    0    0    0  501 -0.00000000000E+00 -0.00000000000E+00 -0.34114831085E+02  0.34114831085E+02  0.00000000000E+00 0.  1.
         35    2    1    2    0    0  0.14210854715E-13 -0.71054273576E-14  0.52280303554E+03  0.59103269771E+03  0.27567487334E+03 0.  0.
         25    2    3    3    0    0  0.50272581944E+02 -0.30853586841E+02  0.25717521798E+03  0.29175781195E+03  0.12451607033E+03 0.  0.
         25    2    3    3    0    0 -0.50272581944E+02  0.30853586841E+02  0.26562781755E+03  0.29927488576E+03  0.12461157038E+03 0.  0.
          5    1    4    4  502    0 -0.15168218024E+02 -0.21448712410E+02  0.20677956053E+03  0.20849460126E+03  0.47000000000E+01 0. -1.
         -5    1    4    4    0  502  0.65440799968E+02 -0.94048744311E+01  0.50395657454E+02  0.83263210686E+02  0.47000000000E+01 0. -1.
          5    1    5    5  503    0 -0.82231068829E+02  0.52993244611E+02  0.17488096574E+03  0.20043870593E+03  0.47000000000E+01 0.  1.
         -5    1    5    5    0  503  0.31958486885E+02 -0.22139657771E+02  0.90746851812E+02  0.98836179833E+02  0.47000000000E+01 0.  1.
<mgrwt>
<rscale>  0 0.27567487E+03</rscale>
<asrwt>0</asrwt>
<pdfrwt beam="1">  1        1 0.85679665E-01 0.27567487E+03</pdfrwt>
<pdfrwt beam="2">  1       -1 0.52484359E-02 0.27567487E+03</pdfrwt>
<totfact> 0.63552631E+03</totfact>
</mgrwt>
</event>
<event>
 9    1  0.8175317E-001  0.2760013E+03  0.7818608E-02  0.1097893E+00
         -1   -1    0    0    0  501 -0.00000000000E+00  0.00000000000E+00  0.53879792175E+03  0.53879792175E+03  0.00000000000E+00 0. -1.
          1   -1    0    0  501    0  0.00000000000E+00 -0.00000000000E+00 -0.35345668789E+02  0.35345668789E+02  0.00000000000E+00 0. -1.
         35    2    1    2    0    0  0.00000000000E+00  0.00000000000E+00  0.50345225296E+03  0.57414359054E+03  0.27600125280E+03 0.  0.
         25    2    3    3    0    0  0.46338975458E+02 -0.26635688600E+01  0.32202348965E+03  0.34848588745E+03  0.12485547893E+03 0.  0.
         25    2    3    3    0    0 -0.46338975458E+02  0.26635688600E+01  0.18142876332E+03  0.22565770309E+03  0.12589919603E+03 0.  0.
          5    1    4    4  502    0  0.12825629885E+02 -0.72128258345E+01  0.31271204286E+03  0.31309333015E+03  0.47000000000E+01 0.  1.
         -5    1    4    4    0  502  0.33513345573E+02  0.45492569746E+01  0.93114467927E+01  0.35392557295E+02  0.47000000000E+01 0.  1.
          5    1    5    5  503    0 -0.10253788502E+02 -0.56979653899E+02  0.11696590493E+03  0.13059454067E+03  0.47000000000E+01 0.  1.
         -5    1    5    5    0  503 -0.36085186955E+02  0.59643222759E+02  0.64462858389E+02  0.95063162426E+02  0.47000000000E+01 0.  1.
<mgrwt>
<rscale>  0 0.27600125E+03</rscale>
<asrwt>0</asrwt>
<pdfrwt beam="1">  1        1 0.54377956E-02 0.27600125E+03</pdfrwt>
<pdfrwt beam="2">  1       -1 0.82891982E-01 0.27600125E+03</pdfrwt>
<totfact> 0.22392294E+03</totfact>
</mgrwt>
</event>
<event>
 9    1  0.8175317E-001  0.2602025E+03  0.7818608E-02  0.1107022E+00
          1   -1    0    0  501    0  0.00000000000E+00  0.00000000000E+00  0.10085360166E+03  0.10085360166E+03  0.00000000000E+00 0.  1.
         -1   -1    0    0    0  501 -0.00000000000E+00 -0.00000000000E+00 -0.16783071052E+03  0.16783071052E+03  0.00000000000E+00 0.  1.
         35    2    1    2    0    0  0.00000000000E+00  0.14210854715E-13 -0.66977108866E+02  0.26868431218E+03  0.26020247212E+03 0.  0.
         25    2    3    3    0    0 -0.72682968242E+01 -0.35997562681E+02 -0.23608733072E+02  0.13171892747E+03  0.12427329125E+03 0.  0.
         25    2    3    3    0    0  0.72682968242E+01  0.35997562681E+02 -0.43368375794E+02  0.13696538471E+03  0.12461961295E+03 0.  0.
          5    1    4    4  502    0 -0.51122018962E+02 -0.34638490896E+02 -0.50616662485E+02  0.79983888349E+02  0.47000000000E+01 0. -1.
         -5    1    4    4    0  502  0.43853722137E+02 -0.13590717855E+01  0.27007929413E+02  0.51735039119E+02  0.47000000000E+01 0. -1.
          5    1    5    5  503    0 -0.26530608242E+02 -0.38951620954E+02 -0.12160660021E+02  0.48898605305E+02  0.47000000000E+01 0. -1.
         -5    1    5    5    0  503  0.33798905066E+02  0.74949183636E+02 -0.31207715772E+02  0.88066779406E+02  0.47000000000E+01 0. -1.
<mgrwt>
<rscale>  0 0.26020247E+03</rscale>
<asrwt>0</asrwt>
<pdfrwt beam="1">  1        1 0.15515939E-01 0.26020247E+03</pdfrwt>
<pdfrwt beam="2">  1       -1 0.25820109E-01 0.26020247E+03</pdfrwt>
<totfact> 0.46562595E+03</totfact>
</mgrwt>
</event>
<event>
 9    1  0.8175317E-001  0.2708138E+03  0.7818608E-02  0.1100815E+00
         -3   -1    0    0    0  501 -0.00000000000E+00  0.00000000000E+00  0.12669153360E+02  0.12669153360E+02  0.00000000000E+00 0. -1.
          3   -1    0    0  501    0  0.00000000000E+00 -0.00000000000E+00 -0.14472180089E+04  0.14472180089E+04  0.00000000000E+00 0. -1.
         35    2    1    2    0    0  0.21316282073E-13 -0.35527136788E-14 -0.14345488555E+04  0.14598871623E+04  0.27081378769E+03 0.  0.
         25    2    3    3    0    0 -0.41204655528E+02  0.30105632751E+02 -0.67422505276E+03  0.68768519861E+03  0.12540868338E+03 0.  0.
         25    2    3    3    0    0  0.41204655528E+02 -0.30105632751E+02 -0.76032380279E+03  0.77220196365E+03  0.12489761736E+03 0.  0.
          5    1    4    4  502    0 -0.71449509711E+02  0.46821747741E+02 -0.59506022738E+03  0.60117890241E+03  0.47000000000E+01 0.  1.
         -5    1    4    4    0  502  0.30244854183E+02 -0.16716114990E+02 -0.79164825379E+02  0.86506296200E+02  0.47000000000E+01 0.  1.
          5    1    5    5  503    0 -0.20881857924E+02 -0.23601310995E+02 -0.58793938800E+03  0.58880207866E+03  0.47000000000E+01 0. -1.
         -5    1    5    5    0  503  0.62086513452E+02 -0.65043217559E+01 -0.17238441479E+03  0.18339988500E+03  0.47000000000E+01 0. -1.
<mgrwt>
<rscale>  0 0.27081379E+03</rscale>
<asrwt>0</asrwt>
<pdfrwt beam="1">  1        3 0.22264874E+00 0.27081379E+03</pdfrwt>
<pdfrwt beam="2">  1       -3 0.19491021E-02 0.27081379E+03</pdfrwt>
<totfact> 0.29571802E+02</totfact>
</mgrwt>
</event>
<event>
 9    1  0.8175317E-001  0.2747574E+03  0.7818608E-02  0.1098587E+00
         -2   -1    0    0    0  501 -0.00000000000E+00  0.00000000000E+00  0.66665356345E+01  0.66665356345E+01  0.00000000000E+00 0. -1.
          2   -1    0    0  501    0  0.00000000000E+00 -0.00000000000E+00 -0.28309910765E+04  0.28309910765E+04  0.00000000000E+00 0. -1.
         35    2    1    2    0    0  0.00000000000E+00 -0.71054273576E-14 -0.28243245409E+04  0.28376576122E+04  0.27475736855E+03 0.  0.
         25    2    3    3    0    0 -0.79756343740E+01 -0.51884994827E+01 -0.85090533146E+03  0.86018795958E+03  0.12566985093E+03 0.  0.
         25    2    3    3    0    0  0.79756343740E+01  0.51884994827E+01 -0.19734192094E+04  0.19774696526E+04  0.12614404245E+03 0.  0.
          5    1    4    4  502    0 -0.21845292588E+02 -0.55578743569E+02 -0.25345616578E+03  0.26043872891E+03  0.47000000000E+01 0. -1.
         -5    1    4    4    0  502  0.13869658214E+02  0.50390244087E+02 -0.59744916568E+03  0.59974923067E+03  0.47000000000E+01 0. -1.
          5    1    5    5  503    0 -0.13956151447E+02  0.61611852275E+02 -0.11999179386E+04  0.12015889247E+04  0.47000000000E+01 0. -1.
         -5    1    5    5    0  503  0.21931785821E+02 -0.56423352792E+02 -0.77350127085E+03  0.77588072793E+03  0.47000000000E+01 0. -1.
<mgrwt>
<rscale>  0 0.27475737E+03</rscale>
<asrwt>0</asrwt>
<pdfrwt beam="1">  1        2 0.43553774E+00 0.27475737E+03</pdfrwt>
<pdfrwt beam="2">  1       -2 0.10256193E-02 0.27475737E+03</pdfrwt>
<totfact> 0.53745080E+03</totfact>
</mgrwt>
</event>
<event>
 9    1  0.8175317E-001  0.2759206E+03  0.7818608E-02  0.1097938E+00
          4   -1    0    0  501    0  0.00000000000E+00  0.00000000000E+00  0.11084823521E+03  0.11084823521E+03  0.00000000000E+00 0.  1.
         -4   -1    0    0    0  501 -0.00000000000E+00 -0.00000000000E+00 -0.17170360360E+03  0.17170360360E+03  0.00000000000E+00 0.  1.
         35    2    1    2    0    0  0.00000000000E+00 -0.71054273576E-14 -0.60855368391E+02  0.28255183881E+03  0.27592057871E+03 0.  0.
         25    2    3    3    0    0 -0.10883313521E+02 -0.21536735846E+02  0.24471007008E+02  0.12895885668E+03  0.12429512874E+03 0.  0.
         25    2    3    3    0    0  0.10883313521E+02  0.21536735846E+02 -0.85326375398E+02  0.15359298213E+03  0.12541106935E+03 0.  0.
          5    1    4    4  502    0 -0.15181958537E+02  0.42386242285E+02 -0.21352105779E+02  0.50050852353E+02  0.47000000000E+01 0.  1.
         -5    1    4    4    0  502  0.42986450164E+01 -0.63922978131E+02  0.45823112787E+02  0.78908004332E+02  0.47000000000E+01 0.  1.
          5    1    5    5  503    0  0.38248842031E+02 -0.39865716090E+02 -0.17900201784E+02  0.58264538615E+02  0.47000000000E+01 0. -1.
         -5    1    5    5    0  503 -0.27365528510E+02  0.61402451936E+02 -0.67426173614E+02  0.95328443513E+02  0.47000000000E+01 0. -1.
<mgrwt>
<rscale>  0 0.27592058E+03</rscale>
<asrwt>0</asrwt>
<pdfrwt beam="1">  1        4 0.17053575E-01 0.27592058E+03</pdfrwt>
<pdfrwt beam="2">  1       -4 0.26415939E-01 0.27592058E+03</pdfrwt>
<totfact> 0.76188494E+02</totfact>
</mgrwt>
</event>
<event>
 9    1  0.8175317E-001  0.2735157E+03  0.7818608E-02  0.1099284E+00
          2   -1    0    0  501    0  0.00000000000E+00  0.00000000000E+00  0.43849278693E+02  0.43849278693E+02  0.00000000000E+00 0. -1.
         -2   -1    0    0    0  501 -0.00000000000E+00 -0.00000000000E+00 -0.42652276806E+03  0.42652276806E+03  0.00000000000E+00 0. -1.
         35    2    1    2    0    0  0.00000000000E+00 -0.71054273576E-14 -0.38267348937E+03  0.47037204676E+03  0.27351574526E+03 0.  0.
         25    2    3    3    0    0 -0.32812055358E+02  0.17836310047E+02 -0.23975091496E+03  0.27322947121E+03  0.12561479921E+03 0.  0.
         25    2    3    3    0    0  0.32812055358E+02 -0.17836310047E+02 -0.14292257441E+03  0.19714257555E+03  0.13055101641E+03 0.  0.
          5    1    4    4  502    0 -0.42056809467E+02  0.65619122108E+02 -0.11280107219E+03  0.13718898023E+03  0.47000000000E+01 0. -1.
         -5    1    4    4    0  502  0.92447541092E+01 -0.47782812061E+02 -0.12694984277E+03  0.13604049098E+03  0.47000000000E+01 0. -1.
          5    1    5    5  503    0  0.50671269311E+02  0.45792525895E+02 -0.60238922397E+02  0.91188544966E+02  0.47000000000E+01 0. -1.
         -5    1    5    5    0  503 -0.17859213954E+02 -0.63628835942E+02 -0.82683652016E+02  0.10595403058E+03  0.47000000000E+01 0. -1.
<mgrwt>
<rscale>  0 0.27351575E+03</rscale>
<asrwt>0</asrwt>
<pdfrwt beam="1">  1        2 0.67460431E-02 0.27351575E+03</pdfrwt>
<pdfrwt beam="2">  1       -2 0.65618885E-01 0.27351575E+03</pdfrwt>
<totfact> 0.23149290E+03</totfact>
</mgrwt>
</event>
<event>
 9    1  0.8175317E-001  0.2767355E+03  0.7818608E-02  0.1097485E+00
          3   -1    0    0  501    0  0.00000000000E+00  0.00000000000E+00  0.44741129275E+03  0.44741129275E+03  0.00000000000E+00 0.  1.
         -3   -1    0    0    0  501 -0.00000000000E+00 -0.00000000000E+00 -0.42792021519E+02  0.42792021519E+02  0.00000000000E+00 0.  1.
         35    2    1    2    0    0 -0.35527136788E-14 -0.71054273576E-14  0.40461927123E+03  0.49020331427E+03  0.27673549586E+03 0.  0.
         25    2    3    3    0    0  0.22656354211E+00 -0.58640536499E+02  0.21552863158E+03  0.25576375874E+03  0.12459432331E+03 0.  0.
         25    2    3    3    0    0 -0.22656354211E+00  0.58640536499E+02  0.18909063965E+03  0.23443955553E+03  0.12557018493E+03 0.  0.
          5    1    4    4  502    0 -0.48965996280E+02 -0.70415355594E+02  0.14996770855E+03  0.17282475142E+03  0.47000000000E+01 0. -1.
         -5    1    4    4    0  502  0.49192559822E+02  0.11774819096E+02  0.65560923037E+02  0.82939007325E+02  0.47000000000E+01 0. -1.
          5    1    5    5  503    0  0.12877422834E+02 -0.34288069460E+02  0.22689793998E+02  0.43340702322E+02  0.47000000000E+01 0.  1.
         -5    1    5    5    0  503 -0.13103986376E+02  0.92928605958E+02  0.16640084565E+03  0.19109885321E+03  0.47000000000E+01 0.  1.
<mgrwt>
<rscale>  0 0.27673550E+03</rscale>
<asrwt>0</asrwt>
<pdfrwt beam="1">  1        3 0.68832504E-01 0.27673550E+03</pdfrwt>
<pdfrwt beam="2">  1       -3 0.65833882E-02 0.27673550E+03</pdfrwt>
<totfact> 0.76913931E+02</totfact>
</mgrwt>
</event>
<event>
 9    1  0.8175317E-001  0.2742110E+03  0.7818608E-02  0.1098893E+00
         -2   -1    0    0    0  501 -0.00000000000E+00  0.00000000000E+00  0.12798002828E+02  0.12798002828E+02  0.00000000000E+00 0. -1.
          2   -1    0    0  501    0  0.00000000000E+00 -0.00000000000E+00 -0.14688160062E+04  0.14688160062E+04  0.00000000000E+00 0. -1.
         35    2    1    2    0    0  0.00000000000E+00  0.00000000000E+00 -0.14560180033E+04  0.14816140090E+04  0.27421095092E+03 0.  0.
         25    2    3    3    0    0 -0.11045884079E+02 -0.52892538752E+02 -0.65950518373E+03  0.67343675754E+03  0.12510134623E+03 0.  0.
         25    2    3    3    0    0  0.11045884079E+02  0.52892538752E+02 -0.79651281961E+03  0.80817725146E+03  0.12569075447E+03 0.  0.
          5    1    4    4  502    0 -0.61130881893E+02 -0.51300960057E+02 -0.49469788137E+03  0.50111561247E+03  0.47000000000E+01 0. -1.
         -5    1    4    4    0  502  0.50084997814E+02 -0.15915786952E+01 -0.16480730236E+03  0.17232114507E+03  0.47000000000E+01 0. -1.
          5    1    5    5  503    0  0.46774664304E+02  0.14245885221E+02 -0.12085442530E+03  0.13045572652E+03  0.47000000000E+01 0. -1.
         -5    1    5    5    0  503 -0.35728780225E+02  0.38646653531E+02 -0.67565839431E+03  0.67772152494E+03  0.47000000000E+01 0. -1.
<mgrwt>
<rscale>  0 0.27421095E+03</rscale>
<asrwt>0</asrwt>
<pdfrwt beam="1">  1        2 0.22597169E+00 0.27421095E+03</pdfrwt>
<pdfrwt beam="2">  1       -2 0.19689235E-02 0.27421095E+03</pdfrwt>
<totfact> 0.11217278E+04</totfact>
</mgrwt>
</event>
<event>
 9    1  0.8175317E-001  0.2792640E+03  0.7818608E-02  0.1096092E+00
          1   -1    0    0  501    0  0.00000000000E+00  0.00000000000E+00  0.27419689511E+04  0.27419689511E+04  0.00000000000E+00 0. -1.
         -1   -1    0    0    0  501 -0.00000000000E+00 -0.00000000000E+00 -0.71106187210E+01  0.71106187210E+01  0.00000000000E+00 0. -1.
         35    2    1    2    0    0  0.14210854715E-13  0.17763568394E-14  0.27348583324E+04  0.27490795698E+04  0.27926400238E+03 0.  0.
         25    2    3    3    0    0  0.60084566689E+02 -0.21771304383E+00  0.11858814693E+04  0.11940385375E+04  0.12570985311E+03 0.  0.
         25    2    3    3    0    0 -0.60084566689E+02  0.21771304383E+00  0.15489768631E+04  0.15550410323E+04  0.12334134507E+03 0.  0.
          5    1    4    4  502    0  0.18865138487E+02 -0.88548463125E+01  0.27219546079E+02  0.34601957201E+02  0.47000000000E+01 0. -1.
         -5    1    4    4    0  502  0.41219428202E+02  0.86371332687E+01  0.11586619232E+04  0.11594365803E+04  0.47000000000E+01 0. -1.
          5    1    5    5  503    0 -0.83697679616E+02 -0.19408308227E+02  0.14105419007E+04  0.14131640130E+04  0.47000000000E+01 0.  1.
         -5    1    5    5    0  503  0.23613112926E+02  0.19626021271E+02  0.13843496235E+03  0.14187701933E+03  0.47000000000E+01 0.  1.
<mgrwt>
<rscale>  0 0.27926400E+03</rscale>
<asrwt>0</asrwt>
<pdfrwt beam="1">  1        1 0.42184053E+00 0.27926400E+03</pdfrwt>
<pdfrwt beam="2">  1       -1 0.10939435E-02 0.27926400E+03</pdfrwt>
<totfact> 0.18000345E+03</totfact>
</mgrwt>
</event>
<event>
 9    1  0.8175317E-001  0.2769639E+03  0.7818608E-02  0.1097359E+00
          2   -1    0    0  501    0  0.00000000000E+00  0.00000000000E+00  0.65797306276E+03  0.65797306276E+03  0.00000000000E+00 0.  1.
         -2   -1    0    0    0  501 -0.00000000000E+00 -0.00000000000E+00 -0.29145952789E+02  0.29145952789E+02  0.00000000000E+00 0.  1.
         35    2    1    2    0    0 -0.71054273576E-14  0.00000000000E+00  0.62882710997E+03  0.68711901555E+03  0.27696390973E+03 0.  0.
         25    2    3    3    0    0  0.34428426726E+02  0.42561957977E+02  0.25970145955E+03  0.29358673773E+03  0.12550493075E+03 0.  0.
         25    2    3    3    0    0 -0.34428426726E+02 -0.42561957977E+02  0.36912565041E+03  0.39353227781E+03  0.12496828020E+03 0.  0.
          5    1    4    4  502    0  0.78243577218E+02  0.40455950567E+02  0.20597549693E+03  0.22406859809E+03  0.47000000000E+01 0. -1.
         -5    1    4    4    0  502 -0.43815150492E+02  0.21060074106E+01  0.53725962622E+02  0.69518139644E+02  0.47000000000E+01 0. -1.
          5    1    5    5  503    0  0.44478064640E+02 -0.34829019376E+02  0.16719608999E+03  0.17654455906E+03  0.47000000000E+01 0. -1.
         -5    1    5    5    0  503 -0.78906491366E+02 -0.77329386011E+01  0.20192956042E+03  0.21698771876E+03  0.47000000000E+01 0. -1.
<mgrwt>
<rscale>  0 0.27696391E+03</rscale>
<asrwt>0</asrwt>
<pdfrwt beam="1">  1        2 0.10122661E+00 0.27696391E+03</pdfrwt>
<pdfrwt beam="2">  1       -2 0.44839932E-02 0.27696391E+03</pdfrwt>
<totfact> 0.10410886E+04</totfact>
</mgrwt>
</event>
<event>
 9    1  0.8175317E-001  0.2757751E+03  0.7818608E-02  0.1098019E+00
          2   -1    0    0  501    0  0.00000000000E+00  0.00000000000E+00  0.74243635080E+02  0.74243635080E+02  0.00000000000E+00 0.  1.
         -2   -1    0    0    0  501 -0.00000000000E+00 -0.00000000000E+00 -0.25608906239E+03  0.25608906239E+03  0.00000000000E+00 0.  1.
         35    2    1    2    0    0  0.35527136788E-14  0.71054273576E-14 -0.18184542731E+03  0.33033269747E+03  0.27577514679E+03 0.  0.
         25    2    3    3    0    0 -0.56741212810E+01 -0.59043311412E+02 -0.10146559311E+03  0.17078762000E+03  0.12391463305E+03 0.  0.
         25    2    3    3    0    0  0.56741212810E+01  0.59043311412E+02 -0.80379834198E+02  0.15954507747E+03  0.12440018378E+03 0.  0.
          5    1    4    4  502    0 -0.26179877944E+02  0.26876283268E+02 -0.22717841705E+01  0.37881019189E+02  0.47000000000E+01 0.  1.
         -5    1    4    4    0  502  0.20505756663E+02 -0.85919594680E+02 -0.99193808944E+02  0.13290660081E+03  0.47000000000E+01 0.  1.
          5    1    5    5  503    0 -0.43048964750E+02 -0.13416396401E+02 -0.48709654001E+02  0.66542718995E+02  0.47000000000E+01 0.  1.
         -5    1    5    5    0  503  0.48723086031E+02  0.72459707813E+02 -0.31670180198E+02  0.93002358478E+02  0.47000000000E+01 0.  1.
<mgrwt>
<rscale>  0 0.27577515E+03</rscale>
<asrwt>0</asrwt>
<pdfrwt beam="1">  1        2 0.11422098E-01 0.27577515E+03</pdfrwt>
<pdfrwt beam="2">  1       -2 0.39398317E-01 0.27577515E+03</pdfrwt>
<totfact> 0.33164434E+03</totfact>
</mgrwt>
</event>
<event>
 9    1  0.8175317E-001  0.2799834E+03  0.7818608E-02  0.1095698E+00
          2   -1    0    0  501    0  0.00000000000E+00  0.00000000000E+00  0.68172380270E+03  0.68172380270E+03  0.00000000000E+00 0. -1.
         -2   -1    0    0    0  501 -0.00000000000E+00 -0.00000000000E+00 -0.28747235584E+02  0.28747235584E+02  0.00000000000E+00 0. -1.
         35    2    1    2    0    0 -0.71054273576E-14  0.00000000000E+00  0.65297656712E+03  0.71047103829E+03  0.27998339065E+03 0.  0.
         25    2    3    3    0    0  0.32357301412E+02  0.53174415650E+02  0.30035924243E+03  0.33107907694E+03  0.12459200313E+03 0.  0.
         25    2    3    3    0    0 -0.32357301412E+02 -0.53174415650E+02  0.35261732469E+03  0.37939196134E+03  0.12539844188E+03 0.  0.
          5    1    4    4  502    0  0.54153732698E+02 -0.16171514149E+02  0.73647964354E+02  0.92952984291E+02  0.47000000000E+01 0.  1.
         -5    1    4    4    0  502 -0.21796431287E+02  0.69345929800E+02  0.22671127807E+03  0.23812609265E+03  0.47000000000E+01 0.  1.
          5    1    5    5  503    0  0.45863783966E+02 -0.18510826641E+01  0.12564316708E+03  0.13384770682E+03  0.47000000000E+01 0.  1.
         -5    1    5    5    0  503 -0.78221085378E+02 -0.51323332986E+02  0.22697415761E+03  0.24554425452E+03  0.47000000000E+01 0.  1.
<mgrwt>
<rscale>  0 0.27998339E+03</rscale>
<asrwt>0</asrwt>
<pdfrwt beam="1">  1        2 0.10488057E+00 0.27998339E+03</pdfrwt>
<pdfrwt beam="2">  1       -2 0.44226522E-02 0.27998339E+03</pdfrwt>
<totfact> 0.10191951E+04</totfact>
</mgrwt>
</event>
<event>
 9    1  0.8175317E-001  0.2714793E+03  0.7818608E-02  0.1100436E+00
         -1   -1    0    0    0  501 -0.00000000000E+00  0.00000000000E+00  0.14855579129E+04  0.14855579129E+04  0.00000000000E+00 0.  1.
          1   -1    0    0  501    0  0.00000000000E+00 -0.00000000000E+00 -0.12402914720E+02  0.12402914720E+02  0.00000000000E+00 0.  1.
         35    2    1    2    0    0  0.00000000000E+00  0.00000000000E+00  0.14731549982E+04  0.14979608276E+04  0.27147926702E+03 0.  0.
         25    2    3    3    0    0  0.60325884920E+01 -0.29040280868E+02  0.95242994121E+03  0.96238830390E+03  0.13486557952E+03 0.  0.
         25    2    3    3    0    0 -0.60325884920E+01  0.29040280868E+02  0.52072505698E+03  0.53557252373E+03  0.12167009973E+03 0.  0.
          5    1    4    4  502    0 -0.14520729371E+01  0.50163563852E+02  0.53867184864E+03  0.54102489977E+03  0.47000000000E+01 0.  1.
         -5    1    4    4    0  502  0.74846614291E+01 -0.79203844719E+02  0.41375809257E+03  0.42136340413E+03  0.47000000000E+01 0.  1.
          5    1    5    5  503    0 -0.43728516158E+02  0.47597750806E+02  0.16382927325E+03  0.17618129805E+03  0.47000000000E+01 0. -1.
         -5    1    5    5    0  503  0.37695927666E+02 -0.18557469938E+02  0.35689578373E+03  0.35939122568E+03  0.47000000000E+01 0. -1.
<mgrwt>
<rscale>  0 0.27147927E+03</rscale>
<asrwt>0</asrwt>
<pdfrwt beam="1">  1        1 0.19081419E-02 0.27147927E+03</pdfrwt>
<pdfrwt beam="2">  1       -1 0.22854723E+00 0.27147927E+03</pdfrwt>
<totfact> 0.70227602E+02</totfact>
</mgrwt>
</event>
<event>
 9    1  0.8175317E-001  0.2782607E+03  0.7818608E-02  0.1096643E+00
          2   -1    0    0  501    0  0.00000000000E+00  0.00000000000E+00  0.79633391181E+03  0.79633391181E+03  0.00000000000E+00 0.  1.
         -2   -1    0    0    0  501 -0.00000000000E+00 -0.00000000000E+00 -0.24307966603E+02  0.24307966603E+02  0.00000000000E+00 0.  1.
         35    2    1    2    0    0 -0.35527136788E-14  0.00000000000E+00  0.77202594521E+03  0.82064187841E+03  0.27826072761E+03 0.  0.
         25    2    3    3    0    0  0.18324418474E+02 -0.59597472288E+02  0.39143435459E+03  0.41545721494E+03  0.12448373579E+03 0.  0.
         25    2    3    3    0    0 -0.18324418474E+02  0.59597472288E+02  0.38059159062E+03  0.40518466348E+03  0.12424576311E+03 0.  0.
          5    1    4    4  502    0  0.49277344792E+01 -0.94549685163E+02  0.33017289435E+03  0.34351150737E+03  0.47000000000E+01 0. -1.
         -5    1    4    4    0  502  0.13396683995E+02  0.34952212875E+02  0.61261460236E+02  0.71945707566E+02  0.47000000000E+01 0. -1.
          5    1    5    5  503    0  0.35876964622E+02  0.45135479661E+02  0.30767434851E+03  0.31306542902E+03  0.47000000000E+01 0.  1.
         -5    1    5    5    0  503 -0.54201383097E+02  0.14461992627E+02  0.72917242105E+02  0.92119234455E+02  0.47000000000E+01 0.  1.
<mgrwt>
<rscale>  0 0.27826073E+03</rscale>
<asrwt>0</asrwt>
<pdfrwt beam="1">  1        2 0.12251289E+00 0.27826073E+03</pdfrwt>
<pdfrwt beam="2">  1       -2 0.37396878E-02 0.27826073E+03</pdfrwt>
<totfact> 0.10825500E+04</totfact>
</mgrwt>
</event>
<event>
 9    1  0.8175317E-001  0.2740368E+03  0.7818608E-02  0.1098991E+00
          1   -1    0    0  501    0  0.00000000000E+00  0.00000000000E+00  0.20795789159E+03  0.20795789159E+03  0.00000000000E+00 0.  1.
         -1   -1    0    0    0  501 -0.00000000000E+00 -0.00000000000E+00 -0.90278061079E+02  0.90278061079E+02  0.00000000000E+00 0.  1.
         35    2    1    2    0    0  0.00000000000E+00 -0.71054273576E-14  0.11767983051E+03  0.29823595267E+03  0.27403675111E+03 0.  0.
         25    2    3    3    0    0  0.26831323131E+02 -0.48666872117E+02  0.73250421415E+02  0.15512925774E+03  0.12494429969E+03 0.  0.
         25    2    3    3    0    0 -0.26831323131E+02  0.48666872117E+02  0.44429409099E+02  0.14310669494E+03  0.12416589467E+03 0.  0.
          5    1    4    4  502    0 -0.14768619758E+02  0.36655274550E+02  0.33851443432E+02  0.52246832481E+02  0.47000000000E+01 0.  1.
         -5    1    4    4    0  502  0.41599942889E+02 -0.85322146667E+02  0.39398977983E+02  0.10288242526E+03  0.47000000000E+01 0.  1.
          5    1    5    5  503    0  0.31627113009E+02  0.46387193857E+02 -0.16301136636E+02  0.58650346008E+02  0.47000000000E+01 0.  1.
         -5    1    5    5    0  503 -0.58458436141E+02  0.22796782593E+01  0.60730545735E+02  0.84456348928E+02  0.47000000000E+01 0.  1.
<mgrwt>
<rscale>  0 0.27403675E+03</rscale>
<asrwt>0</asrwt>
<pdfrwt beam="1">  1        1 0.31993522E-01 0.27403675E+03</pdfrwt>
<pdfrwt beam="2">  1       -1 0.13888933E-01 0.27403675E+03</pdfrwt>
<totfact> 0.50358011E+03</totfact>
</mgrwt>
</event>
<event>
 9    1  0.8175317E-001  0.2762658E+03  0.7818608E-02  0.1097746E+00
         -1   -1    0    0    0  501 -0.00000000000E+00  0.00000000000E+00  0.45744585242E+03  0.45744585242E+03  0.00000000000E+00 0.  1.
          1   -1    0    0  501    0  0.00000000000E+00 -0.00000000000E+00 -0.41711390957E+02  0.41711390957E+02  0.00000000000E+00 0.  1.
         35    2    1    2    0    0  0.71054273576E-14  0.00000000000E+00  0.41573446146E+03  0.49915724338E+03  0.27626583424E+03 0.  0.
         25    2    3    3    0    0 -0.99263666940E+01  0.36813861096E+02  0.18120816040E+03  0.23063521578E+03  0.13748604380E+03 0.  0.
         25    2    3    3    0    0  0.99263666940E+01 -0.36813861096E+02  0.23452630106E+03  0.26852202760E+03  0.12509076820E+03 0.  0.
          5    1    4    4  502    0 -0.66155312534E+02  0.23953550333E+02  0.47726866875E+02  0.85148351550E+02  0.47000000000E+01 0.  1.
         -5    1    4    4    0  502  0.56228945840E+02  0.12860310763E+02  0.13348129352E+03  0.14548686423E+03  0.47000000000E+01 0.  1.
          5    1    5    5  503    0 -0.66253307076E+01 -0.14017809434E+02 -0.12116565715E+02  0.20231044289E+02  0.47000000000E+01 0.  1.
         -5    1    5    5    0  503  0.16551697402E+02 -0.22796051661E+02  0.24664286678E+03  0.24829098331E+03  0.47000000000E+01 0.  1.
<mgrwt>
<rscale>  0 0.27626583E+03</rscale>
<asrwt>0</asrwt>
<pdfrwt beam="1">  1        1 0.64171374E-02 0.27626583E+03</pdfrwt>
<pdfrwt beam="2">  1       -1 0.70376282E-01 0.27626583E+03</pdfrwt>
<totfact> 0.24919713E+03</totfact>
</mgrwt>
</event>
<event>
 9    1  0.8175317E-001  0.2715585E+03  0.7818608E-02  0.1100391E+00
          3   -1    0    0  501    0  0.00000000000E+00  0.00000000000E+00  0.37033625861E+02  0.37033625861E+02  0.00000000000E+00 0.  1.
         -3   -1    0    0    0  501 -0.00000000000E+00 -0.00000000000E+00 -0.49781803324E+03  0.49781803324E+03  0.00000000000E+00 0.  1.
         35    2    1    2    0    0 -0.71054273576E-14  0.00000000000E+00 -0.46078440738E+03  0.53485165910E+03  0.27155851517E+03 0.  0.
         25    2    3    3    0    0 -0.52991201735E+02  0.85712661807E+01 -0.23461498478E+03  0.27094380252E+03  0.12443801258E+03 0.  0.
         25    2    3    3    0    0  0.52991201735E+02 -0.85712661807E+01 -0.22616942260E+03  0.26390785658E+03  0.12495285103E+03 0.  0.
          5    1    4    4  502    0 -0.41891760135E+02  0.63863880856E+02 -0.15940792179E+03  0.17682333096E+03  0.47000000000E+01 0. -1.
         -5    1    4    4    0  502 -0.11099441600E+02 -0.55292614675E+02 -0.75207062993E+02  0.94120471554E+02  0.47000000000E+01 0. -1.
          5    1    5    5  503    0  0.60451563689E+02  0.11621568786E+02 -0.23284029628E+03  0.24088616811E+03  0.47000000000E+01 0. -1.
         -5    1    5    5    0  503 -0.74603619546E+01 -0.20192834966E+02  0.66708736821E+01  0.23021688473E+02  0.47000000000E+01 0. -1.
<mgrwt>
<rscale>  0 0.27155852E+03</rscale>
<asrwt>0</asrwt>
<pdfrwt beam="1">  1        3 0.56974815E-02 0.27155852E+03</pdfrwt>
<pdfrwt beam="2">  1       -3 0.76587381E-01 0.27155852E+03</pdfrwt>
<totfact> 0.76945254E+02</totfact>
</mgrwt>
</event>
<event>
 9    1  0.8175317E-001  0.2768450E+03  0.7818608E-02  0.1097425E+00
         -2   -1    0    0    0  501 -0.00000000000E+00  0.00000000000E+00  0.56872641587E+01  0.56872641587E+01  0.00000000000E+00 0. -1.
          2   -1    0    0  501    0  0.00000000000E+00 -0.00000000000E+00 -0.33690687908E+04  0.33690687908E+04  0.00000000000E+00 0. -1.
         35    2    1    2    0    0 -0.14210854715E-13 -0.71054273576E-14 -0.33633815266E+04  0.33747560549E+04  0.27684496876E+03 0.  0.
         25    2    3    3    0    0 -0.39559611391E+02 -0.18399808983E+02 -0.11733845448E+04  0.11807204031E+04  0.12395912387E+03 0.  0.
         25    2    3    3    0    0  0.39559611391E+02  0.18399808983E+02 -0.21899969818E+04  0.21940356519E+04  0.12570658506E+03 0.  0.
          5    1    4    4  502    0 -0.69679379129E+02  0.27961275356E+02 -0.61418548911E+03  0.61877536621E+03  0.47000000000E+01 0.  1.
         -5    1    4    4    0  502  0.30119767738E+02 -0.46361084339E+02 -0.55919905569E+03  0.56194503685E+03  0.47000000000E+01 0.  1.
          5    1    5    5  503    0  0.29122737513E+02  0.68859835913E+02 -0.16076865324E+04  0.16094309203E+04  0.47000000000E+01 0.  1.
         -5    1    5    5    0  503  0.10436873878E+02 -0.50460026931E+02 -0.58231044941E+03  0.58460473155E+03  0.47000000000E+01 0.  1.
<mgrwt>
<rscale>  0 0.27684497E+03</rscale>
<asrwt>0</asrwt>
<pdfrwt beam="1">  1        2 0.51831813E+00 0.27684497E+03</pdfrwt>
<pdfrwt beam="2">  1       -2 0.87496397E-03 0.27684497E+03</pdfrwt>
<totfact> 0.31944432E+03</totfact>
</mgrwt>
</event>
<event>
 9    1  0.8175317E-001  0.2747512E+03  0.7818608E-02  0.1098591E+00
         -2   -1    0    0    0  501 -0.00000000000E+00  0.00000000000E+00  0.11228484744E+03  0.11228484744E+03  0.00000000000E+00 0.  1.
          2   -1    0    0  501    0  0.00000000000E+00 -0.00000000000E+00 -0.16807308045E+03  0.16807308045E+03  0.00000000000E+00 0.  1.
         35    2    1    2    0    0  0.35527136788E-14  0.00000000000E+00 -0.55788233004E+02  0.28035792789E+03  0.27475123437E+03 0.  0.
         25    2    3    3    0    0 -0.86373630399E+01  0.44210242363E+01 -0.69834230679E+02  0.15460298226E+03  0.13759038067E+03 0.  0.
         25    2    3    3    0    0  0.86373630399E+01 -0.44210242363E+01  0.14045997675E+02  0.12575494563E+03  0.12459079743E+03 0.  0.
          5    1    4    4  502    0 -0.54622850700E+02  0.43093004733E+02 -0.62947854126E+02  0.93942456933E+02  0.47000000000E+01 0.  1.
         -5    1    4    4    0  502  0.45985487661E+02 -0.38671980497E+02 -0.68863765530E+01  0.60660525327E+02  0.47000000000E+01 0.  1.
          5    1    5    5  503    0 -0.23978286956E+01  0.46024395895E+02 -0.32085664642E+02  0.56352235763E+02  0.47000000000E+01 0. -1.
         -5    1    5    5    0  503  0.11035191736E+02 -0.50445420131E+02  0.46131662316E+02  0.69402709867E+02  0.47000000000E+01 0. -1.
<mgrwt>
<rscale>  0 0.27475123E+03</rscale>
<asrwt>0</asrwt>
<pdfrwt beam="1">  1        2 0.25857397E-01 0.27475123E+03</pdfrwt>
<pdfrwt beam="2">  1       -2 0.17274592E-01 0.27475123E+03</pdfrwt>
<totfact> 0.55509682E+03</totfact>
</mgrwt>
</event>
<event>
 9    1  0.8175317E-001  0.2741100E+03  0.7818608E-02  0.1098950E+00
         -2   -1    0    0    0  501 -0.00000000000E+00  0.00000000000E+00  0.15967204548E+02  0.15967204548E+02  0.00000000000E+00 0.  1.
          2   -1    0    0  501    0  0.00000000000E+00 -0.00000000000E+00 -0.11764154708E+04  0.11764154708E+04  0.00000000000E+00 0.  1.
         35    2    1    2    0    0  0.00000000000E+00  0.10658141036E-13 -0.11604482663E+04  0.11923826754E+04  0.27410995207E+03 0.  0.
         25    2    3    3    0    0 -0.43811165822E+02  0.23653142710E+02 -0.69889174389E+03  0.71175067011E+03  0.12514174890E+03 0.  0.
         25    2    3    3    0    0  0.43811165822E+02 -0.23653142710E+02 -0.46155652240E+03  0.48063200527E+03  0.12447414074E+03 0.  0.
          5    1    4    4  502    0 -0.22794424431E+02  0.73826956641E+02 -0.33791458708E+03  0.34666751142E+03  0.47000000000E+01 0. -1.
         -5    1    4    4    0  502 -0.21016741391E+02 -0.50173813930E+02 -0.36097715681E+03  0.36508315869E+03  0.47000000000E+01 0. -1.
          5    1    5    5  503    0 -0.17033710825E+02 -0.32769546524E+02 -0.35913790733E+03  0.36106248347E+03  0.47000000000E+01 0.  1.
         -5    1    5    5    0  503  0.60844876647E+02  0.91164038134E+01 -0.10241861507E+03  0.11956952181E+03  0.47000000000E+01 0.  1.
<mgrwt>
<rscale>  0 0.27410995E+03</rscale>
<asrwt>0</asrwt>
<pdfrwt beam="1">  1        2 0.18098704E+00 0.27410995E+03</pdfrwt>
<pdfrwt beam="2">  1       -2 0.24564924E-02 0.27410995E+03</pdfrwt>
<totfact> 0.11739943E+04</totfact>
</mgrwt>
</event>
<event>
 9    1  0.8175317E-001  0.2758545E+03  0.7818608E-02  0.1097975E+00
          2   -1    0    0  501    0  0.00000000000E+00  0.00000000000E+00  0.19778382407E+04  0.19778382407E+04  0.00000000000E+00 0.  1.
         -2   -1    0    0    0  501 -0.00000000000E+00 -0.00000000000E+00 -0.96185441160E+01  0.96185441160E+01  0.00000000000E+00 0.  1.
         35    2    1    2    0    0  0.00000000000E+00 -0.17763568394E-14  0.19682196966E+04  0.19874567848E+04  0.27585448608E+03 0.  0.
         25    2    3    3    0    0 -0.15023124309E+02 -0.15809812860E+02  0.13737815421E+04  0.13796149005E+04  0.12484351722E+03 0.  0.
         25    2    3    3    0    0  0.15023124309E+02  0.15809812860E+02  0.59443815452E+03  0.60784188436E+03  0.12505755631E+03 0.  0.
          5    1    4    4  502    0 -0.40135941132E+02  0.44595564341E+01  0.15037971676E+03  0.15577846651E+03  0.47000000000E+01 0.  1.
         -5    1    4    4    0  502  0.25112816823E+02 -0.20269369295E+02  0.12234018253E+04  0.12238364340E+04  0.47000000000E+01 0.  1.
          5    1    5    5  503    0  0.52842340361E+02  0.25214042708E+02  0.52335328783E+03  0.52663916942E+03  0.47000000000E+01 0. -1.
         -5    1    5    5    0  503 -0.37819216051E+02 -0.94042298477E+01  0.71084866690E+02  0.81202714943E+02  0.47000000000E+01 0. -1.
<mgrwt>
<rscale>  0 0.27585449E+03</rscale>
<asrwt>0</asrwt>
<pdfrwt beam="1">  1        2 0.30428248E+00 0.27585449E+03</pdfrwt>
<pdfrwt beam="2">  1       -2 0.14797776E-02 0.27585449E+03</pdfrwt>
<totfact> 0.91849633E+03</totfact>
</mgrwt>
</event>
<event>
 9    1  0.8175317E-001  0.2766855E+03  0.7818608E-02  0.1097513E+00
          1   -1    0    0  501    0  0.00000000000E+00  0.00000000000E+00  0.79464321828E+02  0.79464321828E+02  0.00000000000E+00 0.  1.
         -1   -1    0    0    0  501 -0.00000000000E+00 -0.00000000000E+00 -0.24084661225E+03  0.24084661225E+03  0.00000000000E+00 0.  1.
         35    2    1    2    0    0  0.00000000000E+00  0.71054273576E-14 -0.16138229042E+03  0.32031093407E+03  0.27668547274E+03 0.  0.
         25    2    3    3    0    0 -0.13945023922E+02  0.39005155258E+02 -0.31593525732E+02  0.13549093436E+03  0.12507508384E+03 0.  0.
         25    2    3    3    0    0  0.13945023922E+02 -0.39005155258E+02 -0.12978876469E+03  0.18481999971E+03  0.12488972346E+03 0.  0.
          5    1    4    4  502    0 -0.13766177405E+02  0.12887977262E+02  0.47895988617E+02  0.51688715633E+02  0.47000000000E+01 0. -1.
         -5    1    4    4    0  502 -0.17884651754E+00  0.26117177996E+02 -0.79489514348E+02  0.83802218729E+02  0.47000000000E+01 0. -1.
          5    1    5    5  503    0 -0.40707321761E+02 -0.14724553087E+02 -0.19269301965E+01  0.43585566058E+02  0.47000000000E+01 0. -1.
         -5    1    5    5    0  503  0.54652345684E+02 -0.24280602171E+02 -0.12786183449E+03  0.14123443365E+03  0.47000000000E+01 0. -1.
<mgrwt>
<rscale>  0 0.27668547E+03</rscale>
<asrwt>0</asrwt>
<pdfrwt beam="1">  1        1 0.12225280E-01 0.27668547E+03</pdfrwt>
<pdfrwt beam="2">  1       -1 0.37053325E-01 0.27668547E+03</pdfrwt>
<totfact> 0.34464272E+03</totfact>
</mgrwt>
</event>
<event>
 9    1  0.8175317E-001  0.2760143E+03  0.7818608E-02  0.1097886E+00
         -2   -1    0    0    0  501 -0.00000000000E+00  0.00000000000E+00  0.17663773904E+02  0.17663773904E+02  0.00000000000E+00 0.  1.
          2   -1    0    0  501    0  0.00000000000E+00 -0.00000000000E+00 -0.10782506937E+04  0.10782506937E+04  0.00000000000E+00 0.  1.
         35    2    1    2    0    0 -0.35527136788E-14 -0.17763568394E-14 -0.10605869198E+04  0.10959144677E+04  0.27601432185E+03 0.  0.
         25    2    3    3    0    0 -0.17139923713E+02 -0.10689957233E+02 -0.31503578251E+03  0.33964215661E+03  0.12530442178E+03 0.  0.
         25    2    3    3    0    0  0.17139923713E+02  0.10689957233E+02 -0.74555113734E+03  0.75627231104E+03  0.12527273404E+03 0.  0.
          5    1    4    4  502    0 -0.34426396523E+02 -0.58226543184E+02 -0.11732363921E+03  0.13550805669E+03  0.47000000000E+01 0. -1.
         -5    1    4    4    0  502  0.17286472810E+02  0.47536585952E+02 -0.19771214329E+03  0.20413409992E+03  0.47000000000E+01 0. -1.
          5    1    5    5  503    0 -0.12600614954E+02  0.70663613387E+01 -0.70727468241E+03  0.70743782437E+03  0.47000000000E+01 0.  1.
         -5    1    5    5    0  503  0.29740538667E+02  0.36235958941E+01 -0.38276454922E+02  0.48834486675E+02  0.47000000000E+01 0.  1.
<mgrwt>
<rscale>  0 0.27601432E+03</rscale>
<asrwt>0</asrwt>
<pdfrwt beam="1">  1        2 0.16588469E+00 0.27601432E+03</pdfrwt>
<pdfrwt beam="2">  1       -2 0.27175043E-02 0.27601432E+03</pdfrwt>
<totfact> 0.11532088E+04</totfact>
</mgrwt>
</event>
<event>
 9    1  0.8175317E-001  0.2724835E+03  0.7818608E-02  0.1099867E+00
         -2   -1    0    0    0  501 -0.00000000000E+00  0.00000000000E+00  0.29526250987E+02  0.29526250987E+02  0.00000000000E+00 0. -1.
          2   -1    0    0  501    0  0.00000000000E+00 -0.00000000000E+00 -0.62865460324E+03  0.62865460324E+03  0.00000000000E+00 0. -1.
         35    2    1    2    0    0  0.00000000000E+00  0.17763568394E-14 -0.59912835225E+03  0.65818085423E+03  0.27248349381E+03 0.  0.
         25    2    3    3    0    0 -0.19532393774E+02  0.65135357686E+01 -0.41454872466E+03  0.43386491474E+03  0.12634943044E+03 0.  0.
         25    2    3    3    0    0  0.19532393774E+02 -0.65135357686E+01 -0.18457962759E+03  0.22431593949E+03  0.12579372492E+03 0.  0.
          5    1    4    4  502    0  0.44043239090E+02 -0.18452458191E+02 -0.26607020127E+03  0.27036224242E+03  0.47000000000E+01 0. -1.
         -5    1    4    4    0  502 -0.63575632864E+02  0.24965993960E+02 -0.14847852339E+03  0.16350267233E+03  0.47000000000E+01 0. -1.
          5    1    5    5  503    0 -0.53105598284E+01 -0.19883750482E+02 -0.19327323531E+03  0.19442273289E+03  0.47000000000E+01 0.  1.
         -5    1    5    5    0  503  0.24842953602E+02  0.13370214713E+02  0.86936077164E+01  0.29893206591E+02  0.47000000000E+01 0.  1.
<mgrwt>
<rscale>  0 0.27248349E+03</rscale>
<asrwt>0</asrwt>
<pdfrwt beam="1">  1        2 0.96716091E-01 0.27248349E+03</pdfrwt>
<pdfrwt beam="2">  1       -2 0.45425002E-02 0.27248349E+03</pdfrwt>
<totfact> 0.10767860E+04</totfact>
</mgrwt>
</event>
<event>
 9    1  0.8175317E-001  0.2712417E+03  0.7818608E-02  0.1100571E+00
         -2   -1    0    0    0  501 -0.00000000000E+00  0.00000000000E+00  0.31401260390E+02  0.31401260390E+02  0.00000000000E+00 0.  1.
          2   -1    0    0  501    0  0.00000000000E+00 -0.00000000000E+00 -0.58574130962E+03  0.58574130962E+03  0.00000000000E+00 0.  1.
         35    2    1    2    0    0  0.00000000000E+00 -0.35527136788E-14 -0.55434004923E+03  0.61714257001E+03  0.27124170317E+03 0.  0.
         25    2    3    3    0    0  0.47792896924E+02  0.22760533299E+02 -0.28767237204E+03  0.31775701570E+03  0.12414477242E+03 0.  0.
         25    2    3    3    0    0 -0.47792896924E+02 -0.22760533299E+02 -0.26666767719E+03  0.29938555431E+03  0.12537087859E+03 0.  0.
          5    1    4    4  502    0 -0.37821219658E+02  0.89931468319E+00 -0.42436189056E+02  0.57045364097E+02  0.47000000000E+01 0.  1.
         -5    1    4    4    0  502  0.85614116583E+02  0.21861218616E+02 -0.24523618298E+03  0.26071165160E+03  0.47000000000E+01 0.  1.
          5    1    5    5  503    0 -0.18143908324E+02 -0.46808535872E+02 -0.25389996633E+03  0.25885811430E+03  0.47000000000E+01 0.  1.
         -5    1    5    5    0  503 -0.29648988600E+02  0.24048002573E+02 -0.12767710864E+02  0.40527440007E+02  0.47000000000E+01 0.  1.
<mgrwt>
<rscale>  0 0.27124170E+03</rscale>
<asrwt>0</asrwt>
<pdfrwt beam="1">  1        2 0.90114036E-01 0.27124170E+03</pdfrwt>
<pdfrwt beam="2">  1       -2 0.48309637E-02 0.27124170E+03</pdfrwt>
<totfact> 0.10649094E+04</totfact>
</mgrwt>
</event>
<event>
 9    1  0.8175317E-001  0.2767699E+03  0.7818608E-02  0.1097466E+00
          2   -1    0    0  501    0  0.00000000000E+00  0.00000000000E+00  0.17709324421E+02  0.17709324421E+02  0.00000000000E+00 0. -1.
         -2   -1    0    0    0  501 -0.00000000000E+00 -0.00000000000E+00 -0.10813733315E+04  0.10813733315E+04  0.00000000000E+00 0. -1.
         35    2    1    2    0    0  0.00000000000E+00  0.17763568394E-14 -0.10636640070E+04  0.10990826559E+04  0.27676987659E+03 0.  0.
         25    2    3    3    0    0 -0.52051938789E+02  0.15520960821E+02 -0.62275168223E+03  0.63750337875E+03  0.12506236703E+03 0.  0.
         25    2    3    3    0    0  0.52051938789E+02 -0.15520960821E+02 -0.44091232481E+03  0.46157927712E+03  0.12530541227E+03 0.  0.
          5    1    4    4  502    0 -0.83825592463E+01  0.22230802792E+02 -0.15776993418E+02  0.28904660759E+02  0.47000000000E+01 0. -1.
         -5    1    4    4    0  502 -0.43669379543E+02 -0.67098419706E+01 -0.60697468881E+03  0.60859871799E+03  0.47000000000E+01 0. -1.
          5    1    5    5  503    0  0.10641579916E+01 -0.45916346437E+01  0.75533159674E+01  0.10067677142E+02  0.47000000000E+01 0. -1.
         -5    1    5    5    0  503  0.50987780798E+02 -0.10929326178E+02 -0.44846564077E+03  0.45151159998E+03  0.47000000000E+01 0. -1.
<mgrwt>
<rscale>  0 0.27676988E+03</rscale>
<asrwt>0</asrwt>
<pdfrwt beam="1">  1        2 0.27245108E-02 0.27676988E+03</pdfrwt>
<pdfrwt beam="2">  1       -2 0.16636517E+00 0.27676988E+03</pdfrwt>
<totfact> 0.86288862E+02</totfact>
</mgrwt>
</event>
<event>
 9    1  0.8175317E-001  0.2731570E+03  0.7818608E-02  0.1099486E+00
          2   -1    0    0  501    0  0.00000000000E+00  0.00000000000E+00  0.19452990055E+03  0.19452990055E+03  0.00000000000E+00 0. -1.
         -2   -1    0    0    0  501 -0.00000000000E+00 -0.00000000000E+00 -0.95891125170E+02  0.95891125170E+02  0.00000000000E+00 0. -1.
         35    2    1    2    0    0  0.00000000000E+00  0.00000000000E+00  0.98638775378E+02  0.29042102572E+03  0.27315703207E+03 0.  0.
         25    2    3    3    0    0 -0.54869514719E+02 -0.46090545588E+01  0.53409479448E+02  0.14612149481E+03  0.12436644129E+03 0.  0.
         25    2    3    3    0    0  0.54869514719E+02  0.46090545588E+01  0.45229295930E+02  0.14429953091E+03  0.12547811914E+03 0.  0.
          5    1    4    4  502    0 -0.81510438782E+02  0.28591637868E+02  0.13447885010E+02  0.87546381979E+02  0.47000000000E+01 0.  1.
         -5    1    4    4    0  502  0.26640924064E+02 -0.33200692426E+02  0.39961594439E+02  0.58575112827E+02  0.47000000000E+01 0.  1.
          5    1    5    5  503    0  0.86040946818E+02  0.26871007513E+02  0.78986478236E+01  0.90606700699E+02  0.47000000000E+01 0.  1.
         -5    1    5    5    0  503 -0.31171432099E+02 -0.22261952954E+02  0.37330648106E+02  0.53692830215E+02  0.47000000000E+01 0.  1.
<mgrwt>
<rscale>  0 0.27315703E+03</rscale>
<asrwt>0</asrwt>
<pdfrwt beam="1">  1        2 0.29927677E-01 0.27315703E+03</pdfrwt>
<pdfrwt beam="2">  1       -2 0.14752481E-01 0.27315703E+03</pdfrwt>
<totfact> 0.61395136E+03</totfact>
</mgrwt>
</event>
<event>
 9    1  0.8175317E-001  0.2749778E+03  0.7818608E-02  0.1098464E+00
         -2   -1    0    0    0  501 -0.00000000000E+00  0.00000000000E+00  0.10243748109E+02  0.10243748109E+02  0.00000000000E+00 0. -1.
          2   -1    0    0  501    0  0.00000000000E+00 -0.00000000000E+00 -0.18453402183E+04  0.18453402183E+04  0.00000000000E+00 0. -1.
         35    2    1    2    0    0 -0.22204460493E-14  0.00000000000E+00 -0.18350964702E+04  0.18555839664E+04  0.27497781999E+03 0.  0.
         25    2    3    3    0    0 -0.16949875520E+01 -0.48533205312E+02 -0.69069926678E+03  0.70365545535E+03  0.12532827978E+03 0.  0.
         25    2    3    3    0    0  0.16949875520E+01  0.48533205312E+02 -0.11443972034E+04  0.11519285111E+04  0.12221288973E+03 0.  0.
          5    1    4    4  502    0  0.35990171103E+02  0.14061424175E+02 -0.45938184826E+03  0.46102796940E+03  0.47000000000E+01 0.  1.
         -5    1    4    4    0  502 -0.37685158655E+02 -0.62594629487E+02 -0.23131741853E+03  0.24262748595E+03  0.47000000000E+01 0.  1.
          5    1    5    5  503    0  0.38053538005E+01 -0.38860744054E+02 -0.51078671189E+03  0.51229853912E+03  0.47000000000E+01 0. -1.
         -5    1    5    5    0  503 -0.21103662486E+01  0.87393949366E+02 -0.63361049155E+03  0.63962997196E+03  0.47000000000E+01 0. -1.
<mgrwt>
<rscale>  0 0.27497782E+03</rscale>
<asrwt>0</asrwt>
<pdfrwt beam="1">  1        2 0.28389855E+00 0.27497782E+03</pdfrwt>
<pdfrwt beam="2">  1       -2 0.15759610E-02 0.27497782E+03</pdfrwt>
<totfact> 0.98314698E+03</totfact>
</mgrwt>
</event>
<event>
 9    1  0.8175317E-001  0.2832696E+03  0.7818608E-02  0.1093916E+00
         -3   -1    0    0    0  501 -0.00000000000E+00  0.00000000000E+00  0.27471083888E+03  0.27471083888E+03  0.00000000000E+00 0. -1.
          3   -1    0    0  501    0  0.00000000000E+00 -0.00000000000E+00 -0.73023752395E+02  0.73023752395E+02  0.00000000000E+00 0. -1.
         35    2    1    2    0    0 -0.14210854715E-13  0.35527136788E-14  0.20168708648E+03  0.34773459128E+03  0.28326959794E+03 0.  0.
         25    2    3    3    0    0 -0.64704605568E+02 -0.24621688668E+00  0.11421913477E+03  0.18134671095E+03  0.12511543558E+03 0.  0.
         25    2    3    3    0    0  0.64704605568E+02  0.24621688668E+00  0.87467951718E+02  0.16638788033E+03  0.12588700305E+03 0.  0.
          5    1    4    4  502    0 -0.58228149450E+02  0.13871092367E+02  0.13917770320E+03  0.15157654060E+03  0.47000000000E+01 0. -1.
         -5    1    4    4    0  502 -0.64764561184E+01 -0.14117309254E+02 -0.24958568432E+02  0.29770170349E+02  0.47000000000E+01 0. -1.
          5    1    5    5  503    0  0.32506757345E+02 -0.57422917711E+02  0.14251672971E+02  0.67670384468E+02  0.47000000000E+01 0. -1.
         -5    1    5    5    0  503  0.32197848223E+02  0.57669134598E+02  0.73216278747E+02  0.98717495861E+02  0.47000000000E+01 0. -1.
<mgrwt>
<rscale>  0 0.28326960E+03</rscale>
<asrwt>0</asrwt>
<pdfrwt beam="1">  1        3 0.11234424E-01 0.28326960E+03</pdfrwt>
<pdfrwt beam="2">  1       -3 0.42263205E-01 0.28326960E+03</pdfrwt>
<totfact> 0.86361967E+02</totfact>
</mgrwt>
</event>
<event>
 9    1  0.8175317E-001  0.2752992E+03  0.7818608E-02  0.1098284E+00
          1   -1    0    0  501    0  0.00000000000E+00  0.00000000000E+00  0.35836093548E+03  0.35836093548E+03  0.00000000000E+00 0. -1.
         -1   -1    0    0    0  501 -0.00000000000E+00 -0.00000000000E+00 -0.52872421461E+02  0.52872421461E+02  0.00000000000E+00 0. -1.
         35    2    1    2    0    0 -0.35527136788E-14 -0.71054273576E-14  0.30548851402E+03  0.41123335694E+03  0.27529918573E+03 0.  0.
         25    2    3    3    0    0  0.25797215507E+02  0.60147335307E+01  0.23176477046E+03  0.26468280975E+03  0.12506161523E+03 0.  0.
         25    2    3    3    0    0 -0.25797215507E+02 -0.60147335307E+01  0.73723743557E+02  0.14655054719E+03  0.12385555769E+03 0.  0.
          5    1    4    4  502    0  0.40880935270E+01 -0.28444314278E+02 -0.20387070663E+00  0.29119118920E+02  0.47000000000E+01 0.  1.
         -5    1    4    4    0  502  0.21709121980E+02  0.34459047808E+02  0.23196864117E+03  0.23556369083E+03  0.47000000000E+01 0.  1.
          5    1    5    5  503    0  0.26560939992E+02 -0.39219927360E+02  0.69489115371E+02  0.84228934402E+02  0.47000000000E+01 0.  1.
         -5    1    5    5    0  503 -0.52358155499E+02  0.33205193829E+02  0.42346281859E+01  0.62321612787E+02  0.47000000000E+01 0.  1.
<mgrwt>
<rscale>  0 0.27529919E+03</rscale>
<asrwt>0</asrwt>
<pdfrwt beam="1">  1        1 0.55132450E-01 0.27529919E+03</pdfrwt>
<pdfrwt beam="2">  1       -1 0.81342189E-02 0.27529919E+03</pdfrwt>
<totfact> 0.58239111E+03</totfact>
</mgrwt>
</event>
<event>
 9    1  0.8175317E-001  0.2749855E+03  0.7818608E-02  0.1098460E+00
          1   -1    0    0  501    0  0.00000000000E+00  0.00000000000E+00  0.88767990143E+02  0.88767990143E+02  0.00000000000E+00 0.  1.
         -1   -1    0    0    0  501 -0.00000000000E+00 -0.00000000000E+00 -0.21296260200E+03  0.21296260200E+03  0.00000000000E+00 0.  1.
         35    2    1    2    0    0  0.00000000000E+00  0.00000000000E+00 -0.12419461186E+03  0.30173059215E+03  0.27498554257E+03 0.  0.
         25    2    3    3    0    0  0.27268962574E+02  0.46858686208E+02 -0.85853438649E+02  0.16085434367E+03  0.12475565781E+03 0.  0.
         25    2    3    3    0    0 -0.27268962574E+02 -0.46858686208E+02 -0.38341173210E+02  0.14087624848E+03  0.12424467405E+03 0.  0.
          5    1    4    4  502    0 -0.43807350412E+02 -0.96426188559E+01 -0.27762745280E+02  0.52961533909E+02  0.47000000000E+01 0. -1.
         -5    1    4    4    0  502  0.71076312986E+02  0.56501305064E+02 -0.58090693370E+02  0.10789280976E+03  0.47000000000E+01 0. -1.
          5    1    5    5  503    0 -0.10340980114E+02  0.42754646786E+02 -0.12806226070E+02  0.46054154185E+02  0.47000000000E+01 0. -1.
         -5    1    5    5    0  503 -0.16927982460E+02 -0.89613332994E+02 -0.25534947139E+02  0.94822094292E+02  0.47000000000E+01 0. -1.
<mgrwt>
<rscale>  0 0.27498554E+03</rscale>
<asrwt>0</asrwt>
<pdfrwt beam="1">  1        1 0.13656614E-01 0.27498554E+03</pdfrwt>
<pdfrwt beam="2">  1       -1 0.32763477E-01 0.27498554E+03</pdfrwt>
<totfact> 0.36849441E+03</totfact>
</mgrwt>
</event>
<event>
 9    1  0.8175317E-001  0.2746856E+03  0.7818608E-02  0.1098627E+00
         -2   -1    0    0    0  501 -0.00000000000E+00  0.00000000000E+00  0.21878019533E+02  0.21878019533E+02  0.00000000000E+00 0. -1.
          2   -1    0    0  501    0  0.00000000000E+00 -0.00000000000E+00 -0.86219155789E+03  0.86219155789E+03  0.00000000000E+00 0. -1.
         35    2    1    2    0    0 -0.14210854715E-13  0.71054273576E-14 -0.84031353836E+03  0.88406957743E+03  0.27468559296E+03 0.  0.
         25    2    3    3    0    0 -0.35919443982E+02  0.37227125690E+02 -0.49973744408E+03  0.51776526318E+03  0.12516904329E+03 0.  0.
         25    2    3    3    0    0  0.35919443982E+02 -0.37227125690E+02 -0.34057609428E+03  0.36630431425E+03  0.12454199812E+03 0.  0.
          5    1    4    4  502    0  0.46375667844E+02  0.19132793939E+02 -0.21212396319E+03  0.21802621891E+03  0.47000000000E+01 0.  1.
         -5    1    4    4    0  502 -0.82295111826E+02  0.18094331751E+02 -0.28761348089E+03  0.29973904427E+03  0.47000000000E+01 0.  1.
          5    1    5    5  503    0 -0.25205292465E+02  0.13119071371E+02 -0.17654438207E+02  0.33781444468E+02  0.47000000000E+01 0.  1.
         -5    1    5    5    0  503  0.61124736447E+02 -0.50346197062E+02 -0.32292165608E+03  0.33252286978E+03  0.47000000000E+01 0.  1.
<mgrwt>
<rscale>  0 0.27468559E+03</rscale>
<asrwt>0</asrwt>
<pdfrwt beam="1">  1        2 0.13264486E+00 0.27468559E+03</pdfrwt>
<pdfrwt beam="2">  1       -2 0.33658490E-02 0.27468559E+03</pdfrwt>
<totfact> 0.11433323E+04</totfact>
</mgrwt>
</event>
<event>
 9    1  0.8175317E-001  0.2781160E+03  0.7818608E-02  0.1096722E+00
          4   -1    0    0  501    0  0.00000000000E+00  0.00000000000E+00  0.15774144159E+02  0.15774144159E+02  0.00000000000E+00 0. -1.
         -4   -1    0    0    0  501 -0.00000000000E+00 -0.00000000000E+00 -0.12258751376E+04  0.12258751376E+04  0.00000000000E+00 0. -1.
         35    2    1    2    0    0  0.00000000000E+00  0.35527136788E-14 -0.12101009934E+04  0.12416492817E+04  0.27811602716E+03 0.  0.
         25    2    3    3    0    0 -0.49632989846E+02 -0.29901165105E+02 -0.69618331177E+03  0.70967590325E+03  0.12494467060E+03 0.  0.
         25    2    3    3    0    0  0.49632989846E+02  0.29901165105E+02 -0.51391768165E+03  0.53197337849E+03  0.12460649482E+03 0.  0.
          5    1    4    4  502    0 -0.42224861333E+02 -0.21346314981E+02 -0.69579323503E+03  0.69741588740E+03  0.47000000000E+01 0. -1.
         -5    1    4    4    0  502 -0.74081285130E+01 -0.85548501244E+01 -0.39007673292E+00  0.12260015847E+02  0.47000000000E+01 0. -1.
          5    1    5    5  503    0  0.69359602146E+02  0.48917125013E+02 -0.48288472453E+03  0.49030948055E+03  0.47000000000E+01 0.  1.
         -5    1    5    5    0  503 -0.19726612301E+02 -0.19015959908E+02 -0.31032957118E+02  0.41663897940E+02  0.47000000000E+01 0.  1.
<mgrwt>
<rscale>  0 0.27811603E+03</rscale>
<asrwt>0</asrwt>
<pdfrwt beam="1">  1        4 0.24267918E-02 0.27811603E+03</pdfrwt>
<pdfrwt beam="2">  1       -4 0.18859615E+00 0.27811603E+03</pdfrwt>
<totfact> 0.24004996E+02</totfact>
</mgrwt>
</event>
<event>
 9    1  0.8175317E-001  0.2728005E+03  0.7818608E-02  0.1099687E+00
          1   -1    0    0  501    0  0.00000000000E+00  0.00000000000E+00  0.75755955135E+03  0.75755955135E+03  0.00000000000E+00 0.  1.
         -1   -1    0    0    0  501 -0.00000000000E+00 -0.00000000000E+00 -0.24559155355E+02  0.24559155355E+02  0.00000000000E+00 0.  1.
         35    2    1    2    0    0 -0.35527136788E-14  0.71054273576E-14  0.73300039599E+03  0.78211870670E+03  0.27280045977E+03 0.  0.
         25    2    3    3    0    0  0.26245138198E+01  0.53116544736E+02  0.34971261291E+03  0.37512485857E+03  0.12486589802E+03 0.  0.
         25    2    3    3    0    0 -0.26245138198E+01 -0.53116544736E+02  0.38328778308E+03  0.40699384814E+03  0.12611983335E+03 0.  0.
          5    1    4    4  502    0 -0.25246263774E+02  0.13958051924E+02  0.83983016823E+01  0.30410894746E+02  0.47000000000E+01 0.  1.
         -5    1    4    4    0  502  0.27870777594E+02  0.39158492812E+02  0.34131431123E+03  0.34471396382E+03  0.47000000000E+01 0.  1.
          5    1    5    5  503    0 -0.44100217387E+02 -0.20736161958E+02  0.51617213345E+02  0.71142422645E+02  0.47000000000E+01 0. -1.
         -5    1    5    5    0  503  0.41475703567E+02 -0.32380382778E+02  0.33167056974E+03  0.33585142549E+03  0.47000000000E+01 0. -1.
<mgrwt>
<rscale>  0 0.27280046E+03</rscale>
<asrwt>0</asrwt>
<pdfrwt beam="1">  1        1 0.11654761E+00 0.27280046E+03</pdfrwt>
<pdfrwt beam="2">  1       -1 0.37783322E-02 0.27280046E+03</pdfrwt>
<totfact> 0.66905915E+03</totfact>
</mgrwt>
</event>
<event>
 9    1  0.8175317E-001  0.2751285E+03  0.7818608E-02  0.1098380E+00
          1   -1    0    0  501    0  0.00000000000E+00  0.00000000000E+00  0.30070189573E+03  0.30070189573E+03  0.00000000000E+00 0.  1.
         -1   -1    0    0    0  501 -0.00000000000E+00 -0.00000000000E+00 -0.62932482079E+02  0.62932482079E+02  0.00000000000E+00 0.  1.
         35    2    1    2    0    0  0.00000000000E+00  0.14210854715E-13  0.23776941365E+03  0.36363437781E+03  0.27512845483E+03 0.  0.
         25    2    3    3    0    0  0.60797809336E+00  0.46144365825E+02  0.16975837551E+03  0.21604822762E+03  0.12541634051E+03 0.  0.
         25    2    3    3    0    0 -0.60797809336E+00 -0.46144365825E+02  0.68011038141E+02  0.14758615019E+03  0.12258261820E+03 0.  0.
          5    1    4    4  502    0 -0.12323966667E+02  0.88276905407E+02  0.11640541543E+03  0.14668675101E+03  0.47000000000E+01 0.  1.
         -5    1    4    4    0  502  0.12931944760E+02 -0.42132539582E+02  0.53352960085E+02  0.69361476604E+02  0.47000000000E+01 0.  1.
          5    1    5    5  503    0  0.17722529938E+02 -0.32386916615E+01  0.92727065696E+02  0.94577882740E+02  0.47000000000E+01 0.  1.
         -5    1    5    5    0  503 -0.18330508031E+02 -0.42905674163E+02 -0.24716027555E+02  0.53008267451E+02  0.47000000000E+01 0.  1.
<mgrwt>
<rscale>  0 0.27512845E+03</rscale>
<asrwt>0</asrwt>
<pdfrwt beam="1">  1        1 0.46261829E-01 0.27512845E+03</pdfrwt>
<pdfrwt beam="2">  1       -1 0.96819205E-02 0.27512845E+03</pdfrwt>
<totfact> 0.55627934E+03</totfact>
</mgrwt>
</event>
<event>
 9    1  0.8175317E-001  0.2709497E+03  0.7818608E-02  0.1100737E+00
         -2   -1    0    0    0  501 -0.00000000000E+00  0.00000000000E+00  0.48379115804E+01  0.48379115804E+01  0.00000000000E+00 0. -1.
          2   -1    0    0  501    0  0.00000000000E+00 -0.00000000000E+00 -0.37936698196E+04  0.37936698196E+04  0.00000000000E+00 0. -1.
         35    2    1    2    0    0  0.71054273576E-14  0.00000000000E+00 -0.37888319081E+04  0.37985077312E+04  0.27094973078E+03 0.  0.
         25    2    3    3    0    0  0.21229780637E+02 -0.26086886804E+02 -0.24296036558E+04  0.24330491179E+04  0.12499142758E+03 0.  0.
         25    2    3    3    0    0 -0.21229780637E+02  0.26086886804E+02 -0.13592282523E+04  0.13654586133E+04  0.12587515040E+03 0.  0.
          5    1    4    4  502    0 -0.45385508251E+02  0.17625294980E+02 -0.10498084775E+04  0.10509473940E+04  0.47000000000E+01 0. -1.
         -5    1    4    4    0  502  0.66615288888E+02 -0.43712181785E+02 -0.13797951782E+04  0.13821017240E+04  0.47000000000E+01 0. -1.
          5    1    5    5  503    0  0.25969218976E+01 -0.44991153651E+02 -0.28220651158E+03  0.28582084089E+03  0.47000000000E+01 0.  1.
         -5    1    5    5    0  503 -0.23826702535E+02  0.71078040455E+02 -0.10770217407E+04  0.10796377724E+04  0.47000000000E+01 0.  1.
<mgrwt>
<rscale>  0 0.27094973E+03</rscale>
<asrwt>0</asrwt>
<pdfrwt beam="1">  1        2 0.58363869E+00 0.27094973E+03</pdfrwt>
<pdfrwt beam="2">  1       -2 0.74429769E-03 0.27094973E+03</pdfrwt>
<totfact> 0.20833834E+03</totfact>
</mgrwt>
</event>
<event>
 9    1  0.8175317E-001  0.2739249E+03  0.7818608E-02  0.1099054E+00
          2   -1    0    0  501    0  0.00000000000E+00  0.00000000000E+00  0.32478860079E+03  0.32478860079E+03  0.00000000000E+00 0.  1.
         -2   -1    0    0    0  501 -0.00000000000E+00 -0.00000000000E+00 -0.57756697698E+02  0.57756697698E+02  0.00000000000E+00 0.  1.
         35    2    1    2    0    0  0.71054273576E-14  0.71054273576E-14  0.26703190309E+03  0.38254529848E+03  0.27392493155E+03 0.  0.
         25    2    3    3    0    0  0.31761651837E+02 -0.47099256134E+02  0.13484468797E+03  0.19252571058E+03  0.12512360651E+03 0.  0.
         25    2    3    3    0    0 -0.31761651837E+02  0.47099256134E+02  0.13218721512E+03  0.19001958790E+03  0.12412429855E+03 0.  0.
          5    1    4    4  502    0  0.72546681432E+01 -0.50181874751E+02 -0.43237993782E+01  0.51104168171E+02  0.47000000000E+01 0.  1.
         -5    1    4    4    0  502  0.24506983694E+02  0.30826186177E+01  0.13916848734E+03  0.14142154241E+03  0.47000000000E+01 0.  1.
          5    1    5    5  503    0 -0.69997289822E+01  0.86522705321E+02  0.10337363400E+03  0.13506803082E+03  0.47000000000E+01 0.  1.
         -5    1    5    5    0  503 -0.24761922855E+02 -0.39423449188E+02  0.28813581118E+02  0.54951557086E+02  0.47000000000E+01 0.  1.
<mgrwt>
<rscale>  0 0.27392493E+03</rscale>
<asrwt>0</asrwt>
<pdfrwt beam="1">  1        2 0.49967476E-01 0.27392493E+03</pdfrwt>
<pdfrwt beam="2">  1       -2 0.88856460E-02 0.27392493E+03</pdfrwt>
<totfact> 0.79720625E+03</totfact>
</mgrwt>
</event>
<event>
 9    1  0.8175317E-001  0.2761665E+03  0.7818608E-02  0.1097801E+00
         -2   -1    0    0    0  501 -0.00000000000E+00  0.00000000000E+00  0.14006560496E+02  0.14006560496E+02  0.00000000000E+00 0.  1.
          2   -1    0    0  501    0  0.00000000000E+00 -0.00000000000E+00 -0.13612897779E+04  0.13612897779E+04  0.00000000000E+00 0.  1.
         35    2    1    2    0    0  0.00000000000E+00  0.00000000000E+00 -0.13472832174E+04  0.13752963384E+04  0.27616652677E+03 0.  0.
         25    2    3    3    0    0 -0.19009598824E+02 -0.37513210740E+02 -0.87497605487E+03  0.88473329249E+03  0.12410195977E+03 0.  0.
         25    2    3    3    0    0  0.19009598824E+02  0.37513210740E+02 -0.47230716256E+03  0.49056304593E+03  0.12573559718E+03 0.  0.
          5    1    4    4  502    0  0.20289775123E+02 -0.53782167152E+02 -0.75773544121E+03  0.75992715792E+03  0.47000000000E+01 0. -1.
         -5    1    4    4    0  502 -0.39299373947E+02  0.16268956412E+02 -0.11724061365E+03  0.12480613457E+03  0.47000000000E+01 0. -1.
          5    1    5    5  503    0  0.98265794574E+01  0.45411071513E+02 -0.47500397103E+03  0.47729402843E+03  0.47000000000E+01 0.  1.
         -5    1    5    5    0  503  0.91830193667E+01 -0.78978607728E+01  0.26968084708E+01  0.13269017500E+02  0.47000000000E+01 0.  1.
<mgrwt>
<rscale>  0 0.27616653E+03</rscale>
<asrwt>0</asrwt>
<pdfrwt beam="1">  1        2 0.20942922E+00 0.27616653E+03</pdfrwt>
<pdfrwt beam="2">  1       -2 0.21548553E-02 0.27616653E+03</pdfrwt>
<totfact> 0.11233620E+04</totfact>
</mgrwt>
</event>
<event>
 9    1  0.8175317E-001  0.2702895E+03  0.7818608E-02  0.1101114E+00
          2   -1    0    0  501    0  0.00000000000E+00  0.00000000000E+00  0.16612291746E+04  0.16612291746E+04  0.00000000000E+00 0. -1.
         -2   -1    0    0    0  501 -0.00000000000E+00 -0.00000000000E+00 -0.10994332562E+02  0.10994332562E+02  0.00000000000E+00 0. -1.
         35    2    1    2    0    0  0.00000000000E+00  0.00000000000E+00  0.16502348420E+04  0.16722235071E+04  0.27028951890E+03 0.  0.
         25    2    3    3    0    0 -0.84955651651E+00  0.48972410727E+02  0.93212993397E+03  0.94175878300E+03  0.12507746721E+03 0.  0.
         25    2    3    3    0    0  0.84955651651E+00 -0.48972410727E+02  0.71810490806E+03  0.73046472414E+03  0.12451921735E+03 0.  0.
          5    1    4    4  502    0 -0.14091843193E+02  0.69804042737E+02  0.27376143526E+03  0.28291093627E+03  0.47000000000E+01 0. -1.
         -5    1    4    4    0  502  0.13242286676E+02 -0.20831632011E+02  0.65836849870E+03  0.65884784673E+03  0.47000000000E+01 0. -1.
          5    1    5    5  503    0  0.47227380559E+02 -0.65256390429E+02  0.52407476005E+03  0.53025019197E+03  0.47000000000E+01 0.  1.
         -5    1    5    5    0  503 -0.46377824042E+02  0.16283979702E+02  0.19403014801E+03  0.20021453217E+03  0.47000000000E+01 0.  1.
<mgrwt>
<rscale>  0 0.27028952E+03</rscale>
<asrwt>0</asrwt>
<pdfrwt beam="1">  1        2 0.25557352E+00 0.27028952E+03</pdfrwt>
<pdfrwt beam="2">  1       -2 0.16914371E-02 0.27028952E+03</pdfrwt>
<totfact> 0.11073770E+04</totfact>
</mgrwt>
</event>
<event>
 9    1  0.8175317E-001  0.3025770E+03  0.7818608E-02  0.1083959E+00
         -2   -1    0    0    0  501 -0.00000000000E+00  0.00000000000E+00  0.14846852499E+03  0.14846852499E+03  0.00000000000E+00 0.  1.
          2   -1    0    0  501    0  0.00000000000E+00 -0.00000000000E+00 -0.15416206565E+03  0.15416206565E+03  0.00000000000E+00 0.  1.
         35    2    1    2    0    0  0.00000000000E+00  0.00000000000E+00 -0.56935406565E+01  0.30263059064E+03  0.30257702819E+03 0.  0.
         25    2    3    3    0    0  0.36248543065E+02 -0.10624363651E+02 -0.79125524656E+02  0.15227892829E+03  0.12450377252E+03 0.  0.
         25    2    3    3    0    0 -0.36248543065E+02  0.10624363651E+02  0.73431983999E+02  0.15035166235E+03  0.12564446713E+03 0.  0.
          5    1    4    4  502    0  0.71626676100E+02 -0.40206089221E+02 -0.61363077999E+02  0.10263736006E+03  0.47000000000E+01 0.  1.
         -5    1    4    4    0  502 -0.35378133035E+02  0.29581725570E+02 -0.17762446657E+02  0.49641568226E+02  0.47000000000E+01 0.  1.
          5    1    5    5  503    0 -0.80113231112E+02  0.36954927093E+01  0.24240250453E+02  0.83913444737E+02  0.47000000000E+01 0. -1.
         -5    1    5    5    0  503  0.43864688048E+02  0.69288709420E+01  0.49191733546E+02  0.66438217611E+02  0.47000000000E+01 0. -1.
<mgrwt>
<rscale>  0 0.30257703E+03</rscale>
<asrwt>0</asrwt>
<pdfrwt beam="1">  1        2 0.23717241E-01 0.30257703E+03</pdfrwt>
<pdfrwt beam="2">  1       -2 0.22841312E-01 0.30257703E+03</pdfrwt>
<totfact> 0.38025963E+03</totfact>
</mgrwt>
</event>
<event>
 9    1  0.8175317E-001  0.2731354E+03  0.7818608E-02  0.1099498E+00
         -1   -1    0    0    0  501 -0.00000000000E+00  0.00000000000E+00  0.11738148705E+02  0.11738148705E+02  0.00000000000E+00 0. -1.
          1   -1    0    0  501    0  0.00000000000E+00 -0.00000000000E+00 -0.15888996833E+04  0.15888996833E+04  0.00000000000E+00 0. -1.
         35    2    1    2    0    0 -0.14210854715E-13  0.00000000000E+00 -0.15771615346E+04  0.16006378320E+04  0.27313542984E+03 0.  0.
         25    2    3    3    0    0  0.50396607265E+02  0.41377251966E+01 -0.73105624507E+03  0.74376776914E+03  0.12724119679E+03 0.  0.
         25    2    3    3    0    0 -0.50396607265E+02 -0.41377251966E+01 -0.84610528948E+03  0.85687006282E+03  0.12559938248E+03 0.  0.
          5    1    4    4  502    0  0.49698679898E+02  0.27135626127E+01 -0.92115854012E+02  0.10480812357E+03  0.47000000000E+01 0.  1.
         -5    1    4    4    0  502  0.69792736702E+00  0.14241625839E+01 -0.63894039105E+03  0.63895964557E+03  0.47000000000E+01 0.  1.
          5    1    5    5  503    0 -0.74897321933E+02 -0.10534329805E+02 -0.27689811211E+03  0.28708053822E+03  0.47000000000E+01 0.  1.
         -5    1    5    5    0  503  0.24500714668E+02  0.63966046081E+01 -0.56920717738E+03  0.56978952460E+03  0.47000000000E+01 0.  1.
<mgrwt>
<rscale>  0 0.27313543E+03</rscale>
<asrwt>0</asrwt>
<pdfrwt beam="1">  1        1 0.24444626E+00 0.27313543E+03</pdfrwt>
<pdfrwt beam="2">  1       -1 0.18058679E-02 0.27313543E+03</pdfrwt>
<totfact> 0.49767182E+03</totfact>
</mgrwt>
</event>
<event>
 9    1  0.8175317E-001  0.2751195E+03  0.7818608E-02  0.1098385E+00
          2   -1    0    0  501    0  0.00000000000E+00  0.00000000000E+00  0.87386002860E+03  0.87386002860E+03  0.00000000000E+00 0. -1.
         -2   -1    0    0    0  501 -0.00000000000E+00 -0.00000000000E+00 -0.21654143367E+02  0.21654143367E+02  0.00000000000E+00 0. -1.
         35    2    1    2    0    0  0.00000000000E+00  0.71054273576E-14  0.85220588523E+03  0.89551417196E+03  0.27511954014E+03 0.  0.
         25    2    3    3    0    0  0.81124783940E+01 -0.57262290689E+02  0.42187215054E+03  0.44357901647E+03  0.12426363189E+03 0.  0.
         25    2    3    3    0    0 -0.81124783940E+01  0.57262290689E+02  0.43033373469E+03  0.45193515549E+03  0.12535341766E+03 0.  0.
          5    1    4    4  502    0 -0.40438169710E+02 -0.36168353130E+02  0.34990303571E+03  0.35411526335E+03  0.47000000000E+01 0.  1.
         -5    1    4    4    0  502  0.48550648104E+02 -0.21093937559E+02  0.71969114831E+02  0.89463753122E+02  0.47000000000E+01 0.  1.
          5    1    5    5  503    0  0.55694202917E+02  0.47208337930E+02  0.23786746411E+03  0.24886440463E+03  0.47000000000E+01 0.  1.
         -5    1    5    5    0  503 -0.63806681311E+02  0.10053952759E+02  0.19246627057E+03  0.20307075086E+03  0.47000000000E+01 0.  1.
<mgrwt>
<rscale>  0 0.27511954E+03</rscale>
<asrwt>0</asrwt>
<pdfrwt beam="1">  1        2 0.13443998E+00 0.27511954E+03</pdfrwt>
<pdfrwt beam="2">  1       -2 0.33314073E-02 0.27511954E+03</pdfrwt>
<totfact> 0.11407239E+04</totfact>
</mgrwt>
</event>
<event>
 9    1  0.8175317E-001  0.2739311E+03  0.7818608E-02  0.1099051E+00
          2   -1    0    0  501    0  0.00000000000E+00  0.00000000000E+00  0.12134325790E+04  0.12134325790E+04  0.00000000000E+00 0.  1.
         -2   -1    0    0    0  501 -0.00000000000E+00 -0.00000000000E+00 -0.15459909476E+02  0.15459909476E+02  0.00000000000E+00 0.  1.
         35    2    1    2    0    0  0.00000000000E+00  0.71054273576E-14  0.11979726695E+04  0.12288924885E+04  0.27393107036E+03 0.  0.
         25    2    3    3    0    0  0.88067111483E+01 -0.25277696176E+02  0.39145740716E+03  0.41232169871E+03  0.12670343929E+03 0.  0.
         25    2    3    3    0    0 -0.88067111483E+01  0.25277696176E+02  0.80651526238E+03  0.81657078977E+03  0.12491783769E+03 0.  0.
          5    1    4    4  502    0  0.14869885179E+02  0.34405304355E+02  0.30295091189E+03  0.30529687760E+03  0.47000000000E+01 0.  1.
         -5    1    4    4    0  502 -0.60631740303E+01 -0.59683000531E+02  0.88506495263E+02  0.10702482112E+03  0.47000000000E+01 0.  1.
          5    1    5    5  503    0  0.19299846356E+02  0.18138682371E+02  0.76628009018E+03  0.76675208671E+03  0.47000000000E+01 0.  1.
         -5    1    5    5    0  503 -0.28106557504E+02  0.71390138051E+01  0.40235172195E+02  0.49818703059E+02  0.47000000000E+01 0.  1.
<mgrwt>
<rscale>  0 0.27393107E+03</rscale>
<asrwt>0</asrwt>
<pdfrwt beam="1">  1        2 0.18668186E+00 0.27393107E+03</pdfrwt>
<pdfrwt beam="2">  1       -2 0.23784486E-02 0.27393107E+03</pdfrwt>
<totfact> 0.11730672E+04</totfact>
</mgrwt>
</event>
<event>
 9    1  0.8175317E-001  0.2802425E+03  0.7818608E-02  0.1095557E+00
         -1   -1    0    0    0  501 -0.00000000000E+00  0.00000000000E+00  0.81477590000E+02  0.81477590000E+02  0.00000000000E+00 0.  1.
          1   -1    0    0  501    0  0.00000000000E+00 -0.00000000000E+00 -0.24097384817E+03  0.24097384817E+03  0.00000000000E+00 0.  1.
         35    2    1    2    0    0  0.00000000000E+00  0.00000000000E+00 -0.15949625817E+03  0.32245143817E+03  0.28024252641E+03 0.  0.
         25    2    3    3    0    0 -0.23567994230E+02  0.50525692879E+02 -0.11593948224E+03  0.17964616560E+03  0.12538933479E+03 0.  0.
         25    2    3    3    0    0  0.23567994230E+02 -0.50525692879E+02 -0.43556775929E+02  0.14280527257E+03  0.12404780188E+03 0.  0.
          5    1    4    4  502    0  0.29011990665E+02 -0.13903999572E+01 -0.99558146082E+02  0.10381494722E+03  0.47000000000E+01 0. -1.
         -5    1    4    4    0  502 -0.52579984894E+02  0.51916092836E+02 -0.16381336158E+02  0.75831218382E+02  0.47000000000E+01 0. -1.
          5    1    5    5  503    0  0.67808427898E+02 -0.45136129578E+02 -0.52612810595E+02  0.97084761554E+02  0.47000000000E+01 0.  1.
         -5    1    5    5    0  503 -0.44240433668E+02 -0.53895633012E+01  0.90560346661E+01  0.45720511017E+02  0.47000000000E+01 0.  1.
<mgrwt>
<rscale>  0 0.28024253E+03</rscale>
<asrwt>0</asrwt>
<pdfrwt beam="1">  1        1 0.37072899E-01 0.28024253E+03</pdfrwt>
<pdfrwt beam="2">  1       -1 0.12535014E-01 0.28024253E+03</pdfrwt>
<totfact> 0.49198245E+03</totfact>
</mgrwt>
</event>
<event>
 9    1  0.8175317E-001  0.2756579E+03  0.7818608E-02  0.1098084E+00
         -2   -1    0    0    0  501 -0.00000000000E+00  0.00000000000E+00  0.11668279715E+02  0.11668279715E+02  0.00000000000E+00 0.  1.
          2   -1    0    0  501    0  0.00000000000E+00 -0.00000000000E+00 -0.16280731658E+04  0.16280731658E+04  0.00000000000E+00 0.  1.
         35    2    1    2    0    0  0.00000000000E+00  0.00000000000E+00 -0.16164048861E+04  0.16397414455E+04  0.27565785384E+03 0.  0.
         25    2    3    3    0    0 -0.42337371399E+02 -0.34176988717E+02 -0.69395628919E+03  0.70720333752E+03  0.12490280105E+03 0.  0.
         25    2    3    3    0    0  0.42337371399E+02  0.34176988717E+02 -0.92244859687E+03  0.93253810797E+03  0.12552047397E+03 0.  0.
          5    1    4    4  502    0 -0.81721977506E+02 -0.38202291378E+02 -0.37310006963E+03  0.38387973199E+03  0.47000000000E+01 0.  1.
         -5    1    4    4    0  502  0.39384606107E+02  0.40253026605E+01 -0.32085621957E+03  0.32332360553E+03  0.47000000000E+01 0.  1.
          5    1    5    5  503    0  0.70717194870E+02  0.32567538284E+01 -0.28522330506E+03  0.29391487177E+03  0.47000000000E+01 0. -1.
         -5    1    5    5    0  503 -0.28379823470E+02  0.30920234889E+02 -0.63722529180E+03  0.63862323620E+03  0.47000000000E+01 0. -1.
<mgrwt>
<rscale>  0 0.27565785E+03</rscale>
<asrwt>0</asrwt>
<pdfrwt beam="1">  1        2 0.25047270E+00 0.27565785E+03</pdfrwt>
<pdfrwt beam="2">  1       -2 0.17951206E-02 0.27565785E+03</pdfrwt>
<totfact> 0.10569842E+04</totfact>
</mgrwt>
</event>
<event>
 9    1  0.8175317E-001  0.2748827E+03  0.7818608E-02  0.1098517E+00
          2   -1    0    0  501    0  0.00000000000E+00  0.00000000000E+00  0.57701895884E+03  0.57701895884E+03  0.00000000000E+00 0.  1.
         -2   -1    0    0    0  501 -0.00000000000E+00 -0.00000000000E+00 -0.32737430459E+02  0.32737430459E+02  0.00000000000E+00 0.  1.
         35    2    1    2    0    0  0.00000000000E+00  0.00000000000E+00  0.54428152838E+03  0.60975638930E+03  0.27488265161E+03 0.  0.
         25    2    3    3    0    0  0.77515089551E-01 -0.52004525073E+02  0.22465386250E+03  0.26230479459E+03  0.12501988119E+03 0.  0.
         25    2    3    3    0    0 -0.77515089551E-01  0.52004525073E+02  0.31962766588E+03  0.34745159470E+03  0.12592175837E+03 0.  0.
          5    1    4    4  502    0  0.19615472442E+02  0.27752217323E+02  0.15668491494E+02  0.37716626985E+02  0.47000000000E+01 0.  1.
         -5    1    4    4    0  502 -0.19537957352E+02 -0.79756742395E+02  0.20898537101E+03  0.22458816761E+03  0.47000000000E+01 0.  1.
          5    1    5    5  503    0  0.26354694802E+02  0.58594509628E+02  0.31226968354E+03  0.31884531008E+03  0.47000000000E+01 0. -1.
         -5    1    5    5    0  503 -0.26432209892E+02 -0.65899845558E+01  0.73579823341E+01  0.28606284628E+02  0.47000000000E+01 0. -1.
<mgrwt>
<rscale>  0 0.27488265E+03</rscale>
<asrwt>0</asrwt>
<pdfrwt beam="1">  1        2 0.88772140E-01 0.27488265E+03</pdfrwt>
<pdfrwt beam="2">  1       -2 0.50365282E-02 0.27488265E+03</pdfrwt>
<totfact> 0.10175721E+04</totfact>
</mgrwt>
</event>
<event>
 9    1  0.8175317E-001  0.2738675E+03  0.7818608E-02  0.1099086E+00
         -2   -1    0    0    0  501 -0.00000000000E+00  0.00000000000E+00  0.20569377656E+02  0.20569377656E+02  0.00000000000E+00 0.  1.
          2   -1    0    0  501    0  0.00000000000E+00 -0.00000000000E+00 -0.91159072459E+03  0.91159072459E+03  0.00000000000E+00 0.  1.
         35    2    1    2    0    0 -0.71054273576E-14 -0.71054273576E-14 -0.89102134693E+03  0.93216010224E+03  0.27386751455E+03 0.  0.
         25    2    3    3    0    0 -0.42033743742E+02 -0.11734753039E+02 -0.32247133686E+03  0.34853736968E+03  0.12484388222E+03 0.  0.
         25    2    3    3    0    0  0.42033743742E+02  0.11734753039E+02 -0.56855001008E+03  0.58362273256E+03  0.12434564716E+03 0.  0.
          5    1    4    4  502    0 -0.70673281732E+02  0.13093911308E+02 -0.28871411183E+03  0.29756359259E+03  0.47000000000E+01 0. -1.
         -5    1    4    4    0  502  0.28639537990E+02 -0.24828664346E+02 -0.33757225023E+02  0.50973777090E+02  0.47000000000E+01 0. -1.
          5    1    5    5  503    0  0.36047383150E+02 -0.40489562057E+02 -0.45688722138E+03  0.46011611743E+03  0.47000000000E+01 0.  1.
         -5    1    5    5    0  503  0.59863605924E+01  0.52224315096E+02 -0.11166278870E+03  0.12350661513E+03  0.47000000000E+01 0.  1.
<mgrwt>
<rscale>  0 0.27386751E+03</rscale>
<asrwt>0</asrwt>
<pdfrwt beam="1">  1        2 0.14024473E+00 0.27386751E+03</pdfrwt>
<pdfrwt beam="2">  1       -2 0.31645196E-02 0.27386751E+03</pdfrwt>
<totfact> 0.11639635E+04</totfact>
</mgrwt>
</event>
<event>
 9    1  0.8175317E-001  0.2763026E+03  0.7818608E-02  0.1097726E+00
          2   -1    0    0  501    0  0.00000000000E+00  0.00000000000E+00  0.34191438119E+03  0.34191438119E+03  0.00000000000E+00 0. -1.
         -2   -1    0    0    0  501 -0.00000000000E+00 -0.00000000000E+00 -0.55820339116E+02  0.55820339116E+02  0.00000000000E+00 0. -1.
         35    2    1    2    0    0  0.00000000000E+00  0.00000000000E+00  0.28609404208E+03  0.39773472031E+03  0.27630256392E+03 0.  0.
         25    2    3    3    0    0 -0.23671303009E+02 -0.25229753158E+02  0.72452565180E+02  0.14751581284E+03  0.12375245374E+03 0.  0.
         25    2    3    3    0    0  0.23671303009E+02  0.25229753158E+02  0.21364147690E+03  0.25021890747E+03  0.12557846142E+03 0.  0.
          5    1    4    4  502    0 -0.25803415294E+02  0.33940637721E+02  0.76795065276E+02  0.87962237241E+02  0.47000000000E+01 0.  1.
         -5    1    4    4    0  502  0.21321122846E+01 -0.59170390879E+02 -0.43425000957E+01  0.59553575600E+02  0.47000000000E+01 0.  1.
          5    1    5    5  503    0  0.20886083881E+02 -0.54500726879E+01  0.21767800193E+03  0.21879610215E+03  0.47000000000E+01 0.  1.
         -5    1    5    5    0  503  0.27852191287E+01  0.30679825846E+02 -0.40365250345E+01  0.31422805316E+02  0.47000000000E+01 0.  1.
<mgrwt>
<rscale>  0 0.27630256E+03</rscale>
<asrwt>0</asrwt>
<pdfrwt beam="1">  1        2 0.52602211E-01 0.27630256E+03</pdfrwt>
<pdfrwt beam="2">  1       -2 0.85877447E-02 0.27630256E+03</pdfrwt>
<totfact> 0.79607668E+03</totfact>
</mgrwt>
</event>
<event>
 9    1  0.8175317E-001  0.2757498E+03  0.7818608E-02  0.1098033E+00
         -1   -1    0    0    0  501 -0.00000000000E+00  0.00000000000E+00  0.18005531889E+02  0.18005531889E+02  0.00000000000E+00 0.  1.
          1   -1    0    0  501    0  0.00000000000E+00 -0.00000000000E+00 -0.10557581120E+04  0.10557581120E+04  0.00000000000E+00 0.  1.
         35    2    1    2    0    0  0.00000000000E+00  0.00000000000E+00 -0.10377525801E+04  0.10737636439E+04  0.27574978769E+03 0.  0.
         25    2    3    3    0    0  0.45958925085E+02  0.29039125733E+02 -0.64812289284E+03  0.66168507405E+03  0.12168960262E+03 0.  0.
         25    2    3    3    0    0 -0.45958925085E+02 -0.29039125733E+02 -0.38962968726E+03  0.41207856982E+03  0.12264567214E+03 0.  0.
          5    1    4    4  502    0  0.74393605416E+01 -0.40463834283E+02 -0.10690945929E+03  0.11464897930E+03  0.47000000000E+01 0. -1.
         -5    1    4    4    0  502  0.38519564543E+02  0.69502960016E+02 -0.54121343355E+03  0.54703609475E+03  0.47000000000E+01 0. -1.
          5    1    5    5  503    0 -0.38475608825E+02  0.29866586084E+02 -0.61528818784E+02  0.78614699514E+02  0.47000000000E+01 0.  1.
         -5    1    5    5    0  503 -0.74833162600E+01 -0.58905711818E+02 -0.32810086847E+03  0.33346387031E+03  0.47000000000E+01 0.  1.
<mgrwt>
<rscale>  0 0.27574979E+03</rscale>
<asrwt>0</asrwt>
<pdfrwt beam="1">  1        1 0.16242427E+00 0.27574979E+03</pdfrwt>
<pdfrwt beam="2">  1       -1 0.27700827E-02 0.27574979E+03</pdfrwt>
<totfact> 0.61662084E+03</totfact>
</mgrwt>
</event>
<event>
 9    1  0.8175317E-001  0.2727043E+03  0.7818608E-02  0.1099742E+00
          2   -1    0    0  501    0  0.00000000000E+00  0.00000000000E+00  0.12043358642E+04  0.12043358642E+04  0.00000000000E+00 0. -1.
         -2   -1    0    0    0  501 -0.00000000000E+00 -0.00000000000E+00 -0.15437477020E+02  0.15437477020E+02  0.00000000000E+00 0. -1.
         35    2    1    2    0    0  0.00000000000E+00  0.00000000000E+00  0.11888983872E+04  0.12197733412E+04  0.27270428840E+03 0.  0.
         25    2    3    3    0    0 -0.36110961827E+01  0.51356609460E+02  0.54387808108E+03  0.56076277940E+03  0.12649500516E+03 0.  0.
         25    2    3    3    0    0  0.36110961827E+01 -0.51356609460E+02  0.64502030608E+03  0.65901056180E+03  0.12487267098E+03 0.  0.
          5    1    4    4  502    0  0.60211213424E+02  0.13306206790E+02  0.26458989884E+03  0.27172108848E+03  0.47000000000E+01 0. -1.
         -5    1    4    4    0  502 -0.63822309606E+02  0.38050402670E+02  0.27928818224E+03  0.28904169092E+03  0.47000000000E+01 0. -1.
          5    1    5    5  503    0 -0.16691716213E+02 -0.64967269084E+02  0.16268818699E+03  0.17603663149E+03  0.47000000000E+01 0. -1.
         -5    1    5    5    0  503  0.20302812396E+02  0.13610659624E+02  0.48233211909E+03  0.48297393030E+03  0.47000000000E+01 0. -1.
<mgrwt>
<rscale>  0 0.27270429E+03</rscale>
<asrwt>0</asrwt>
<pdfrwt beam="1">  1        2 0.18528237E+00 0.27270429E+03</pdfrwt>
<pdfrwt beam="2">  1       -2 0.23749974E-02 0.27270429E+03</pdfrwt>
<totfact> 0.11894749E+04</totfact>
</mgrwt>
</event>
<event>
 9    1  0.8175317E-001  0.2766327E+03  0.7818608E-02  0.1097542E+00
          1   -1    0    0  501    0  0.00000000000E+00  0.00000000000E+00  0.18072003427E+03  0.18072003427E+03  0.00000000000E+00 0.  1.
         -1   -1    0    0    0  501 -0.00000000000E+00 -0.00000000000E+00 -0.10586214430E+03  0.10586214430E+03  0.00000000000E+00 0.  1.
         35    2    1    2    0    0  0.00000000000E+00  0.00000000000E+00  0.74857889963E+02  0.28658217857E+03  0.27663268315E+03 0.  0.
         25    2    3    3    0    0 -0.10507833105E+02 -0.35441895163E+02  0.62949485364E+02  0.14459163381E+03  0.12481009723E+03 0.  0.
         25    2    3    3    0    0  0.10507833105E+02  0.35441895163E+02  0.11908404599E+02  0.14199054476E+03  0.13657584784E+03 0.  0.
          5    1    4    4  502    0 -0.43152011613E+02 -0.42783389973E+02  0.84743749154E+02  0.10438442214E+03  0.47000000000E+01 0. -1.
         -5    1    4    4    0  502  0.32644178508E+02  0.73414948102E+01 -0.21794263790E+02  0.40207211675E+02  0.47000000000E+01 0. -1.
          5    1    5    5  503    0  0.46792334571E+02 -0.36918195875E+02  0.11617257029E+02  0.60905881671E+02  0.47000000000E+01 0.  1.
         -5    1    5    5    0  503 -0.36284501465E+02  0.72360091038E+02  0.29114757035E+00  0.81084663091E+02  0.47000000000E+01 0.  1.
<mgrwt>
<rscale>  0 0.27663268E+03</rscale>
<asrwt>0</asrwt>
<pdfrwt beam="1">  1        1 0.27803082E-01 0.27663268E+03</pdfrwt>
<pdfrwt beam="2">  1       -1 0.16286484E-01 0.27663268E+03</pdfrwt>
<totfact> 0.46707801E+03</totfact>
</mgrwt>
</event>
<event>
 9    1  0.8175317E-001  0.2778471E+03  0.7818608E-02  0.1096871E+00
         -2   -1    0    0    0  501 -0.00000000000E+00  0.00000000000E+00  0.14459033911E+02  0.14459033911E+02  0.00000000000E+00 0. -1.
          2   -1    0    0  501    0  0.00000000000E+00 -0.00000000000E+00 -0.13347888308E+04  0.13347888308E+04  0.00000000000E+00 0. -1.
         35    2    1    2    0    0  0.00000000000E+00  0.14210854715E-13 -0.13203297969E+04  0.13492478647E+04  0.27784713040E+03 0.  0.
         25    2    3    3    0    0  0.32000216747E+00  0.66369993335E+02 -0.62660916810E+03  0.64252084370E+03  0.12565391610E+03 0.  0.
         25    2    3    3    0    0 -0.32000216747E+00 -0.66369993335E+02 -0.69372062875E+03  0.70672702097E+03  0.11751465013E+03 0.  0.
          5    1    4    4  502    0  0.59138852747E+01  0.97042891127E+01 -0.53098931381E+03  0.53113170555E+03  0.47000000000E+01 0. -1.
         -5    1    4    4    0  502 -0.55938831072E+01  0.56665704223E+02 -0.95619854288E+02  0.11138913815E+03  0.47000000000E+01 0. -1.
          5    1    5    5  503    0  0.66212989091E+01  0.15478202625E+02 -0.43255391707E+03  0.43290691555E+03  0.47000000000E+01 0. -1.
         -5    1    5    5    0  503 -0.69413010766E+01 -0.81848195960E+02 -0.26116671169E+03  0.27382010543E+03  0.47000000000E+01 0. -1.
<mgrwt>
<rscale>  0 0.27784713E+03</rscale>
<asrwt>0</asrwt>
<pdfrwt beam="1">  1        2 0.20535218E+00 0.27784713E+03</pdfrwt>
<pdfrwt beam="2">  1       -2 0.22244662E-02 0.27784713E+03</pdfrwt>
<totfact> 0.11085381E+04</totfact>
</mgrwt>
</event>
<event>
 9    1  0.8175317E-001  0.2903899E+03  0.7818608E-02  0.1090146E+00
         -3   -1    0    0    0  501 -0.00000000000E+00  0.00000000000E+00  0.14169650151E+03  0.14169650151E+03  0.00000000000E+00 0. -1.
          3   -1    0    0  501    0  0.00000000000E+00 -0.00000000000E+00 -0.14877981225E+03  0.14877981225E+03  0.00000000000E+00 0. -1.
         35    2    1    2    0    0  0.00000000000E+00  0.71054273576E-14 -0.70833107358E+01  0.29047631376E+03  0.29038993709E+03 0.  0.
         25    2    3    3    0    0 -0.26513837809E+02  0.41725312500E+02 -0.58819905947E+02  0.14664750908E+03  0.12490686645E+03 0.  0.
         25    2    3    3    0    0  0.26513837809E+02 -0.41725312500E+02  0.51736595211E+02  0.14382880468E+03  0.12476403517E+03 0.  0.
          5    1    4    4  502    0  0.15487302912E+02  0.56723421202E+01  0.34224569854E+02  0.38281107590E+02  0.47000000000E+01 0. -1.
         -5    1    4    4    0  502 -0.42001140721E+02  0.36052970380E+02 -0.93044475801E+02  0.10836640149E+03  0.47000000000E+01 0. -1.
          5    1    5    5  503    0  0.41998814259E+02 -0.64892313703E+02  0.74563206092E+02  0.10750197431E+03  0.47000000000E+01 0. -1.
         -5    1    5    5    0  503 -0.15484976450E+02  0.23167001203E+02 -0.22826610881E+02  0.36326830370E+02  0.47000000000E+01 0. -1.
<mgrwt>
<rscale>  0 0.29038994E+03</rscale>
<asrwt>0</asrwt>
<pdfrwt beam="1">  1        3 0.22889202E-01 0.29038994E+03</pdfrwt>
<pdfrwt beam="2">  1       -3 0.21799462E-01 0.29038994E+03</pdfrwt>
<totfact> 0.86722140E+02</totfact>
</mgrwt>
</event>
<event>
 9    1  0.8175317E-001  0.2758715E+03  0.7818608E-02  0.1097965E+00
         -2   -1    0    0    0  501 -0.00000000000E+00  0.00000000000E+00  0.57716680706E+03  0.57716680706E+03  0.00000000000E+00 0.  1.
          2   -1    0    0  501    0  0.00000000000E+00 -0.00000000000E+00 -0.32964932788E+02  0.32964932788E+02  0.00000000000E+00 0.  1.
         35    2    1    2    0    0  0.14210854715E-13  0.00000000000E+00  0.54420187427E+03  0.61013173985E+03  0.27587145559E+03 0.  0.
         25    2    3    3    0    0  0.59048167738E+02  0.14956809405E+02  0.25417210799E+03  0.28911372696E+03  0.12358355220E+03 0.  0.
         25    2    3    3    0    0 -0.59048167738E+02 -0.14956809405E+02  0.29002976628E+03  0.32101801289E+03  0.12338924998E+03 0.  0.
          5    1    4    4  502    0  0.82438238070E+02  0.25772102140E+02  0.24735934064E+03  0.26204770128E+03  0.47000000000E+01 0. -1.
         -5    1    4    4    0  502 -0.23390070332E+02 -0.10815292735E+02  0.68127673529E+01  0.27066025680E+02  0.47000000000E+01 0. -1.
          5    1    5    5  503    0 -0.61857759195E+02 -0.33903371554E+02  0.67925034746E+02  0.98039386578E+02  0.47000000000E+01 0.  1.
         -5    1    5    5    0  503  0.28095914576E+01  0.18946562150E+02  0.22210473154E+03  0.22297862631E+03  0.47000000000E+01 0.  1.
<mgrwt>
<rscale>  0 0.27587146E+03</rscale>
<asrwt>0</asrwt>
<pdfrwt beam="1">  1        2 0.50715285E-02 0.27587146E+03</pdfrwt>
<pdfrwt beam="2">  1       -2 0.88794886E-01 0.27587146E+03</pdfrwt>
<totfact> 0.17368048E+03</totfact>
</mgrwt>
</event>
<event>
 9    1  0.8175317E-001  0.2778792E+03  0.7818608E-02  0.1096853E+00
          2   -1    0    0  501    0  0.00000000000E+00  0.00000000000E+00  0.45202555049E+03  0.45202555049E+03  0.00000000000E+00 0.  1.
         -2   -1    0    0    0  501 -0.00000000000E+00 -0.00000000000E+00 -0.42706013557E+02  0.42706013557E+02  0.00000000000E+00 0.  1.
         35    2    1    2    0    0  0.00000000000E+00 -0.71054273576E-14  0.40931953693E+03  0.49473156404E+03  0.27787917725E+03 0.  0.
         25    2    3    3    0    0  0.37024597560E+02 -0.11465916925E+02  0.12151756458E+03  0.17866830291E+03  0.12511417141E+03 0.  0.
         25    2    3    3    0    0 -0.37024597560E+02  0.11465916925E+02  0.28780197235E+03  0.31606326114E+03  0.12475464591E+03 0.  0.
          5    1    4    4  502    0  0.38864630961E+02  0.31184341135E+02  0.28260164904E+00  0.50050899447E+02  0.47000000000E+01 0. -1.
         -5    1    4    4    0  502 -0.18400334011E+01 -0.42650258061E+02  0.12123496293E+03  0.12861740346E+03  0.47000000000E+01 0. -1.
          5    1    5    5  503    0  0.25087474666E+02 -0.41516348932E+02  0.10079241323E+03  0.11195619312E+03  0.47000000000E+01 0.  1.
         -5    1    5    5    0  503 -0.62112072226E+02  0.52982265858E+02  0.18700955912E+03  0.20410706802E+03  0.47000000000E+01 0.  1.
<mgrwt>
<rscale>  0 0.27787918E+03</rscale>
<asrwt>0</asrwt>
<pdfrwt beam="1">  1        2 0.69542389E-01 0.27787918E+03</pdfrwt>
<pdfrwt beam="2">  1       -2 0.65701562E-02 0.27787918E+03</pdfrwt>
<totfact> 0.89162575E+03</totfact>
</mgrwt>
</event>
<event>
 9    1  0.8175317E-001  0.2749537E+03  0.7818608E-02  0.1098478E+00
         -2   -1    0    0    0  501 -0.00000000000E+00  0.00000000000E+00  0.55401940697E+02  0.55401940697E+02  0.00000000000E+00 0.  1.
          2   -1    0    0  501    0  0.00000000000E+00 -0.00000000000E+00 -0.34114109558E+03  0.34114109558E+03  0.00000000000E+00 0.  1.
         35    2    1    2    0    0  0.17763568394E-14  0.71054273576E-14 -0.28573915488E+03  0.39654303628E+03  0.27495365971E+03 0.  0.
         25    2    3    3    0    0 -0.13680227552E+02 -0.47936294218E+02 -0.15212047233E+03  0.20578187570E+03  0.12930779302E+03 0.  0.
         25    2    3    3    0    0  0.13680227552E+02  0.47936294218E+02 -0.13361868256E+03  0.19076116058E+03  0.12669187475E+03 0.  0.
          5    1    4    4  502    0 -0.31456871735E+02 -0.79343366172E+02 -0.14555680698E+03  0.16880100294E+03  0.47000000000E+01 0. -1.
         -5    1    4    4    0  502  0.17776644183E+02  0.31407071953E+02 -0.65636653415E+01  0.36980872756E+02  0.47000000000E+01 0. -1.
          5    1    5    5  503    0  0.21342427051E+02 -0.69639049593E+01  0.18065801218E+02  0.29196889190E+02  0.47000000000E+01 0.  1.
         -5    1    5    5    0  503 -0.76621994994E+01  0.54900199177E+02 -0.15168448378E+03  0.16156427139E+03  0.47000000000E+01 0.  1.
<mgrwt>
<rscale>  0 0.27495366E+03</rscale>
<asrwt>0</asrwt>
<pdfrwt beam="1">  1        2 0.52483245E-01 0.27495366E+03</pdfrwt>
<pdfrwt beam="2">  1       -2 0.85233755E-02 0.27495366E+03</pdfrwt>
<totfact> 0.80735237E+03</totfact>
</mgrwt>
</event>
<event>
 9    1  0.8175317E-001  0.2728436E+03  0.7818608E-02  0.1099663E+00
          2   -1    0    0  501    0  0.00000000000E+00  0.00000000000E+00  0.83570348355E+03  0.83570348355E+03  0.00000000000E+00 0. -1.
         -2   -1    0    0    0  501 -0.00000000000E+00 -0.00000000000E+00 -0.22269748607E+02  0.22269748607E+02  0.00000000000E+00 0. -1.
         35    2    1    2    0    0 -0.71054273576E-14  0.10658141036E-13  0.81343373494E+03  0.85797323216E+03  0.27284359247E+03 0.  0.
         25    2    3    3    0    0 -0.46450611159E+02  0.19822197623E+02  0.36285371519E+03  0.38688774717E+03  0.12437335523E+03 0.  0.
         25    2    3    3    0    0  0.46450611159E+02 -0.19822197623E+02  0.45058001975E+03  0.47108548498E+03  0.12786164852E+03 0.  0.
          5    1    4    4  502    0 -0.28151321382E+02 -0.48714792244E+02  0.22254952965E+03  0.22959967558E+03  0.47000000000E+01 0. -1.
         -5    1    4    4    0  502 -0.18299289777E+02  0.68536989868E+02  0.14030418554E+03  0.15728807160E+03  0.47000000000E+01 0. -1.
          5    1    5    5  503    0 -0.39354263127E+02  0.66873607583E+01  0.77300811873E+02  0.87126255150E+02  0.47000000000E+01 0.  1.
         -5    1    5    5    0  503  0.85804874286E+02 -0.26509558382E+02  0.37327920788E+03  0.38395922983E+03  0.47000000000E+01 0.  1.
<mgrwt>
<rscale>  0 0.27284359E+03</rscale>
<asrwt>0</asrwt>
<pdfrwt beam="1">  1        2 0.12856974E+00 0.27284359E+03</pdfrwt>
<pdfrwt beam="2">  1       -2 0.34261158E-02 0.27284359E+03</pdfrwt>
<totfact> 0.11593779E+04</totfact>
</mgrwt>
</event>
<event>
 9    1  0.8175317E-001  0.2764694E+03  0.7818608E-02  0.1097633E+00
          1   -1    0    0  501    0  0.00000000000E+00  0.00000000000E+00  0.26939578548E+03  0.26939578548E+03  0.00000000000E+00 0.  1.
         -1   -1    0    0    0  501 -0.00000000000E+00 -0.00000000000E+00 -0.70932163034E+02  0.70932163034E+02  0.00000000000E+00 0.  1.
         35    2    1    2    0    0  0.00000000000E+00  0.14210854715E-13  0.19846362244E+03  0.34032794851E+03  0.27646935292E+03 0.  0.
         25    2    3    3    0    0  0.10314120097E+02  0.50516748444E+02  0.62464236293E+02  0.14930162402E+03  0.12542276975E+03 0.  0.
         25    2    3    3    0    0 -0.10314120097E+02 -0.50516748444E+02  0.13599938615E+03  0.19102632449E+03  0.12384224106E+03 0.  0.
          5    1    4    4  502    0  0.48465274640E+02  0.67431049003E+02  0.12623492913E+02  0.84126522505E+02  0.47000000000E+01 0. -1.
         -5    1    4    4    0  502 -0.38151154543E+02 -0.16914300559E+02  0.49840743380E+02  0.65175101511E+02  0.47000000000E+01 0. -1.
          5    1    5    5  503    0  0.41125510731E+02 -0.19847925106E+02  0.40965169242E+01  0.46088167840E+02  0.47000000000E+01 0. -1.
         -5    1    5    5    0  503 -0.51439630828E+02 -0.30668823338E+02  0.13190286922E+03  0.14493815665E+03  0.47000000000E+01 0. -1.
<mgrwt>
<rscale>  0 0.27646935E+03</rscale>
<asrwt>0</asrwt>
<pdfrwt beam="1">  1        1 0.41445505E-01 0.27646935E+03</pdfrwt>
<pdfrwt beam="2">  1       -1 0.10912641E-01 0.27646935E+03</pdfrwt>
<totfact> 0.53074318E+03</totfact>
</mgrwt>
</event>
<event>
 9    1  0.8175317E-001  0.2958033E+03  0.7818608E-02  0.1087358E+00
          2   -1    0    0  501    0  0.00000000000E+00  0.00000000000E+00  0.85474076284E+03  0.85474076284E+03  0.00000000000E+00 0. -1.
         -2   -1    0    0    0  501 -0.00000000000E+00 -0.00000000000E+00 -0.25592439410E+02  0.25592439410E+02  0.00000000000E+00 0. -1.
         35    2    1    2    0    0  0.71054273576E-14  0.71054273576E-14  0.82914832343E+03  0.88033320225E+03  0.29580332104E+03 0.  0.
         25    2    3    3    0    0  0.51456989790E+02  0.61068687370E+02  0.41822803756E+03  0.44370119777E+03  0.12481528402E+03 0.  0.
         25    2    3    3    0    0 -0.51456989790E+02 -0.61068687370E+02  0.41092028587E+03  0.43663200448E+03  0.12415643206E+03 0.  0.
          5    1    4    4  502    0  0.30273185311E+01  0.35642973038E+02  0.36649686351E+03  0.36826841726E+03  0.47000000000E+01 0. -1.
         -5    1    4    4    0  502  0.48429671259E+02  0.25425714333E+02  0.51731174046E+02  0.75432780512E+02  0.47000000000E+01 0. -1.
          5    1    5    5  503    0  0.38142634464E+02 -0.92359405730E+01  0.70892198880E+02  0.81166230811E+02  0.47000000000E+01 0. -1.
         -5    1    5    5    0  503 -0.89599624254E+02 -0.51832746797E+02  0.34002808699E+03  0.35546577367E+03  0.47000000000E+01 0. -1.
<mgrwt>
<rscale>  0 0.29580332E+03</rscale>
<asrwt>0</asrwt>
<pdfrwt beam="1">  1        2 0.13149856E+00 0.29580332E+03</pdfrwt>
<pdfrwt beam="2">  1       -2 0.39372990E-02 0.29580332E+03</pdfrwt>
<totfact> 0.91609249E+03</totfact>
</mgrwt>
</event>
<event>
 9    1  0.8175317E-001  0.2742813E+03  0.7818608E-02  0.1098854E+00
         -1   -1    0    0    0  501 -0.00000000000E+00  0.00000000000E+00  0.75087725155E+01  0.75087725155E+01  0.00000000000E+00 0.  1.
          1   -1    0    0  501    0  0.00000000000E+00 -0.00000000000E+00 -0.25047445023E+04  0.25047445023E+04  0.00000000000E+00 0.  1.
         35    2    1    2    0    0  0.00000000000E+00  0.14210854715E-13 -0.24972357298E+04  0.25122532748E+04  0.27428129121E+03 0.  0.
         25    2    3    3    0    0 -0.52768467043E+01  0.50937754568E+02 -0.15514874105E+04  0.15573692251E+04  0.12515278009E+03 0.  0.
         25    2    3    3    0    0  0.52768467043E+01 -0.50937754568E+02 -0.94574831924E+03  0.95488404968E+03  0.12141319961E+03 0.  0.
          5    1    4    4  502    0 -0.26638922399E+02  0.24825210326E+02 -0.12033422009E+03  0.12581072203E+03  0.47000000000E+01 0.  1.
         -5    1    4    4    0  502  0.21362075695E+02  0.26112544242E+02 -0.14311531904E+04  0.14315585031E+04  0.47000000000E+01 0.  1.
          5    1    5    5  503    0 -0.33141890941E+02  0.27498915825E+02 -0.26075643708E+03  0.26433044620E+03  0.47000000000E+01 0.  1.
         -5    1    5    5    0  503  0.38418737645E+02 -0.78436670393E+02 -0.68499188215E+03  0.69055360348E+03  0.47000000000E+01 0.  1.
<mgrwt>
<rscale>  0 0.27428129E+03</rscale>
<asrwt>0</asrwt>
<pdfrwt beam="1">  1        1 0.38534547E+00 0.27428129E+03</pdfrwt>
<pdfrwt beam="2">  1       -1 0.11551953E-02 0.27428129E+03</pdfrwt>
<totfact> 0.24023845E+03</totfact>
</mgrwt>
</event>
<event>
 9    1  0.8175317E-001  0.2628553E+03  0.7818608E-02  0.1105440E+00
          2   -1    0    0  501    0  0.00000000000E+00  0.00000000000E+00  0.86225896118E+02  0.86225896118E+02  0.00000000000E+00 0.  1.
         -2   -1    0    0    0  501 -0.00000000000E+00 -0.00000000000E+00 -0.20032526419E+03  0.20032526419E+03  0.00000000000E+00 0.  1.
         35    2    1    2    0    0  0.00000000000E+00  0.53290705182E-14 -0.11409936807E+03  0.28655116031E+03  0.26285528658E+03 0.  0.
         25    2    3    3    0    0 -0.35832116639E+00  0.68548743965E+01 -0.98620499333E+02  0.16035659294E+03  0.12625813365E+03 0.  0.
         25    2    3    3    0    0  0.35832116639E+00 -0.68548743965E+01 -0.15478868741E+02  0.12619456737E+03  0.12505341163E+03 0.  0.
          5    1    4    4  502    0  0.60098388770E+02  0.87876277870E+01 -0.71409301302E+02  0.93863821824E+02  0.47000000000E+01 0. -1.
         -5    1    4    4    0  502 -0.60456709937E+02 -0.19327533904E+01 -0.27211198031E+02  0.66492771113E+02  0.47000000000E+01 0. -1.
          5    1    5    5  503    0 -0.41043732185E+02  0.43091916667E+02 -0.17802512124E+01  0.59722362044E+02  0.47000000000E+01 0. -1.
         -5    1    5    5    0  503  0.41402053351E+02 -0.49946791064E+02 -0.13698617529E+02  0.66472205330E+02  0.47000000000E+01 0. -1.
<mgrwt>
<rscale>  0 0.26285529E+03</rscale>
<asrwt>0</asrwt>
<pdfrwt beam="1">  1        2 0.13265522E-01 0.26285529E+03</pdfrwt>
<pdfrwt beam="2">  1       -2 0.30819271E-01 0.26285529E+03</pdfrwt>
<totfact> 0.43633284E+03</totfact>
</mgrwt>
</event>
<event>
 9    1  0.8175317E-001  0.2793838E+03  0.7818608E-02  0.1096026E+00
          2   -1    0    0  501    0  0.00000000000E+00  0.00000000000E+00  0.13798392349E+04  0.13798392349E+04  0.00000000000E+00 0. -1.
         -2   -1    0    0    0  501 -0.00000000000E+00 -0.00000000000E+00 -0.14142105636E+02  0.14142105636E+02  0.00000000000E+00 0. -1.
         35    2    1    2    0    0  0.35527136788E-14  0.00000000000E+00  0.13656971292E+04  0.13939813405E+04  0.27938383791E+03 0.  0.
         25    2    3    3    0    0 -0.13398006788E+00  0.12079991572E+02  0.40857778757E+03  0.42866061469E+03  0.12910526691E+03 0.  0.
         25    2    3    3    0    0  0.13398006788E+00 -0.12079991572E+02  0.95711934166E+03  0.96532072582E+03  0.12498290027E+03 0.  0.
          5    1    4    4  502    0  0.13410258891E+02  0.63029083049E+02  0.13082768875E+03  0.14591255771E+03  0.47000000000E+01 0. -1.
         -5    1    4    4    0  502 -0.13544238959E+02 -0.50949091477E+02  0.27775009882E+03  0.28274805698E+03  0.47000000000E+01 0. -1.
          5    1    5    5  503    0 -0.37713358604E+02 -0.51732735817E+02  0.66297313853E+03  0.66607360388E+03  0.47000000000E+01 0. -1.
         -5    1    5    5    0  503  0.37847338672E+02  0.39652744245E+02  0.29414620313E+03  0.29924712194E+03  0.47000000000E+01 0. -1.
<mgrwt>
<rscale>  0 0.27938384E+03</rscale>
<asrwt>0</asrwt>
<pdfrwt beam="1">  1        2 0.21228285E+00 0.27938384E+03</pdfrwt>
<pdfrwt beam="2">  1       -2 0.21757097E-02 0.27938384E+03</pdfrwt>
<totfact> 0.10822751E+04</totfact>
</mgrwt>
</event>
<event>
 9    1  0.8175317E-001  0.2746439E+03  0.7818608E-02  0.1098651E+00
          1   -1    0    0  501    0  0.00000000000E+00  0.00000000000E+00  0.88294873166E+02  0.88294873166E+02  0.00000000000E+00 0.  1.
         -1   -1    0    0    0  501 -0.00000000000E+00 -0.00000000000E+00 -0.21357206574E+03  0.21357206574E+03  0.00000000000E+00 0.  1.
         35    2    1    2    0    0  0.00000000000E+00  0.00000000000E+00 -0.12527719258E+03  0.30186693891E+03  0.27464390367E+03 0.  0.
         25    2    3    3    0    0 -0.49143883648E+02 -0.11335804740E+02 -0.35368460102E+02  0.13951185503E+03  0.12517590805E+03 0.  0.
         25    2    3    3    0    0  0.49143883648E+02  0.11335804740E+02 -0.89908732474E+02  0.16235508387E+03  0.12542715542E+03 0.  0.
          5    1    4    4  502    0 -0.50711995188E+02 -0.42110743866E+02  0.25733841909E+02  0.70917852649E+02  0.47000000000E+01 0.  1.
         -5    1    4    4    0  502  0.15681115402E+01  0.30774939126E+02 -0.61102302011E+02  0.68594002384E+02  0.47000000000E+01 0.  1.
          5    1    5    5  503    0  0.45936385123E+02 -0.37646648510E+02 -0.95673640243E+02  0.11270739576E+03  0.47000000000E+01 0. -1.
         -5    1    5    5    0  503  0.32074985249E+01  0.48982453251E+02  0.57649077694E+01  0.49647688112E+02  0.47000000000E+01 0. -1.
<mgrwt>
<rscale>  0 0.27464390E+03</rscale>
<asrwt>0</asrwt>
<pdfrwt beam="1">  1        1 0.13583827E-01 0.27464390E+03</pdfrwt>
<pdfrwt beam="2">  1       -1 0.32857241E-01 0.27464390E+03</pdfrwt>
<totfact> 0.36926812E+03</totfact>
</mgrwt>
</event>
<event>
 9    1  0.8175317E-001  0.2753591E+03  0.7818608E-02  0.1098251E+00
         -3   -1    0    0    0  501 -0.00000000000E+00  0.00000000000E+00  0.70075609350E+03  0.70075609350E+03  0.00000000000E+00 0. -1.
          3   -1    0    0  501    0  0.00000000000E+00 -0.00000000000E+00 -0.27050296106E+02  0.27050296106E+02  0.00000000000E+00 0. -1.
         35    2    1    2    0    0  0.00000000000E+00  0.00000000000E+00  0.67370579739E+03  0.72780638961E+03  0.27535910973E+03 0.  0.
         25    2    3    3    0    0  0.49528118130E+02 -0.49947119768E+02  0.32719229023E+03  0.35723209199E+03  0.12494888355E+03 0.  0.
         25    2    3    3    0    0 -0.49528118130E+02  0.49947119768E+02  0.34651350716E+03  0.37057429762E+03  0.11093218717E+03 0.  0.
          5    1    4    4  502    0 -0.36873483610E+02 -0.14120685632E+02  0.45741580701E+02  0.60608825771E+02  0.47000000000E+01 0.  1.
         -5    1    4    4    0  502  0.86401601740E+02 -0.35826434136E+02  0.28145070953E+03  0.29662326622E+03  0.47000000000E+01 0.  1.
          5    1    5    5  503    0 -0.33210417828E+02 -0.22458297368E+02  0.46948415519E+02  0.61915674047E+02  0.47000000000E+01 0.  1.
         -5    1    5    5    0  503 -0.16317700301E+02  0.72405417136E+02  0.29956509164E+03  0.30865862357E+03  0.47000000000E+01 0.  1.
<mgrwt>
<rscale>  0 0.27535911E+03</rscale>
<asrwt>0</asrwt>
<pdfrwt beam="1">  1        3 0.41615845E-02 0.27535911E+03</pdfrwt>
<pdfrwt beam="2">  1       -3 0.10780862E+00 0.27535911E+03</pdfrwt>
<totfact> 0.58860026E+02</totfact>
</mgrwt>
</event>
<event>
 9    1  0.8175317E-001  0.2792646E+03  0.7818608E-02  0.1096091E+00
          2   -1    0    0  501    0  0.00000000000E+00  0.00000000000E+00  0.56858724755E+03  0.56858724755E+03  0.00000000000E+00 0.  1.
         -2   -1    0    0    0  501 -0.00000000000E+00 -0.00000000000E+00 -0.34290577087E+02  0.34290577087E+02  0.00000000000E+00 0.  1.
         35    2    1    2    0    0  0.00000000000E+00  0.14210854715E-13  0.53429667047E+03  0.60287782464E+03  0.27926464039E+03 0.  0.
         25    2    3    3    0    0 -0.15713153310E+01  0.47954747871E+02  0.36200595979E+03  0.38581373119E+03  0.12450619815E+03 0.  0.
         25    2    3    3    0    0  0.15713153310E+01 -0.47954747871E+02  0.17229071068E+03  0.21706409345E+03  0.12300652342E+03 0.  0.
          5    1    4    4  502    0 -0.22800158606E+02 -0.38099791854E+02  0.12459256633E+03  0.13235119553E+03  0.47000000000E+01 0.  1.
         -5    1    4    4    0  502  0.21228843275E+02  0.86054539725E+02  0.23741339346E+03  0.25346253567E+03  0.47000000000E+01 0.  1.
          5    1    5    5  503    0  0.32773483806E+02  0.20995378710E+01  0.15033486198E+03  0.15395184320E+03  0.47000000000E+01 0.  1.
         -5    1    5    5    0  503 -0.31202168475E+02 -0.50054285742E+02  0.21955848699E+02  0.63112250243E+02  0.47000000000E+01 0.  1.
<mgrwt>
<rscale>  0 0.27926464E+03</rscale>
<asrwt>0</asrwt>
<pdfrwt beam="1">  1        2 0.87474954E-01 0.27926464E+03</pdfrwt>
<pdfrwt beam="2">  1       -2 0.52754738E-02 0.27926464E+03</pdfrwt>
<totfact> 0.96499858E+03</totfact>
</mgrwt>
</event>
<event>
 9    1  0.8175317E-001  0.2609311E+03  0.7818608E-02  0.1106585E+00
          2   -1    0    0  501    0  0.00000000000E+00  0.00000000000E+00  0.28887199169E+02  0.28887199169E+02  0.00000000000E+00 0. -1.
         -2   -1    0    0    0  501 -0.00000000000E+00 -0.00000000000E+00 -0.58923173593E+03  0.58923173593E+03  0.00000000000E+00 0. -1.
         35    2    1    2    0    0  0.35527136788E-14 -0.71054273576E-14 -0.56034453676E+03  0.61811893510E+03  0.26093105996E+03 0.  0.
         25    2    3    3    0    0 -0.87706107827E+01  0.35713819247E+02 -0.27426922192E+03  0.30358390852E+03  0.12484864005E+03 0.  0.
         25    2    3    3    0    0  0.87706107827E+01 -0.35713819247E+02 -0.28607531485E+03  0.31453502658E+03  0.12546233173E+03 0.  0.
          5    1    4    4  502    0  0.38863557215E+02  0.54148578108E+02 -0.21529173380E+03  0.22542197149E+03  0.47000000000E+01 0.  1.
         -5    1    4    4    0  502 -0.47634167998E+02 -0.18434758861E+02 -0.58977488121E+02  0.78161937029E+02  0.47000000000E+01 0.  1.
          5    1    5    5  503    0 -0.21025196615E+02 -0.40534933884E+02 -0.26169127980E+02  0.52839880932E+02  0.47000000000E+01 0. -1.
         -5    1    5    5    0  503  0.29795807397E+02  0.48211146367E+01 -0.25990618687E+03  0.26169514565E+03  0.47000000000E+01 0. -1.
<mgrwt>
<rscale>  0 0.26093106E+03</rscale>
<asrwt>0</asrwt>
<pdfrwt beam="1">  1        2 0.44441848E-02 0.26093106E+03</pdfrwt>
<pdfrwt beam="2">  1       -2 0.90651030E-01 0.26093106E+03</pdfrwt>
<totfact> 0.19714004E+03</totfact>
</mgrwt>
</event>
<event>
 9    1  0.8175317E-001  0.2755628E+03  0.7818608E-02  0.1098137E+00
         -1   -1    0    0    0  501 -0.00000000000E+00  0.00000000000E+00  0.11545892388E+03  0.11545892388E+03  0.00000000000E+00 0.  1.
          1   -1    0    0  501    0  0.00000000000E+00 -0.00000000000E+00 -0.16441968832E+03  0.16441968832E+03  0.00000000000E+00 0.  1.
         35    2    1    2    0    0 -0.35527136788E-14  0.00000000000E+00 -0.48960764446E+02  0.27987861220E+03  0.27556284422E+03 0.  0.
         25    2    3    3    0    0  0.23614103629E+01 -0.41059980072E+02 -0.66241643746E+02  0.14713690974E+03  0.12477907124E+03 0.  0.
         25    2    3    3    0    0 -0.23614103629E+01  0.41059980072E+02  0.17280879300E+02  0.13274170246E+03  0.12502092849E+03 0.  0.
          5    1    4    4  502    0  0.22563747775E+02  0.40590800367E+02 -0.29579691323E+02  0.55261052531E+02  0.47000000000E+01 0. -1.
         -5    1    4    4    0  502 -0.20202337412E+02 -0.81650780439E+02 -0.36661952423E+02  0.91875857213E+02  0.47000000000E+01 0. -1.
          5    1    5    5  503    0 -0.26316090845E+02 -0.10661098368E+02 -0.41646548925E+02  0.50623321633E+02  0.47000000000E+01 0. -1.
         -5    1    5    5    0  503  0.23954680482E+02  0.51721078440E+02  0.58927428225E+02  0.82118380824E+02  0.47000000000E+01 0. -1.
<mgrwt>
<rscale>  0 0.27556284E+03</rscale>
<asrwt>0</asrwt>
<pdfrwt beam="1">  1        1 0.25295337E-01 0.27556284E+03</pdfrwt>
<pdfrwt beam="2">  1       -1 0.17762911E-01 0.27556284E+03</pdfrwt>
<totfact> 0.45818694E+03</totfact>
</mgrwt>
</event>
<event>
 9    1  0.8175317E-001  0.2717924E+03  0.7818608E-02  0.1100258E+00
         -1   -1    0    0    0  501 -0.00000000000E+00  0.00000000000E+00  0.60725963483E+02  0.60725963483E+02  0.00000000000E+00 0.  1.
          1   -1    0    0  501    0  0.00000000000E+00 -0.00000000000E+00 -0.30411655983E+03  0.30411655983E+03  0.00000000000E+00 0.  1.
         35    2    1    2    0    0  0.00000000000E+00  0.00000000000E+00 -0.24339059635E+03  0.36484252332E+03  0.27179235535E+03 0.  0.
         25    2    3    3    0    0 -0.39110020377E+02  0.13953908852E+01 -0.16884816444E+03  0.21357136413E+03  0.12478575292E+03 0.  0.
         25    2    3    3    0    0  0.39110020377E+02 -0.13953908852E+01 -0.74542431909E+02  0.15127115918E+03  0.12567755821E+03 0.  0.
          5    1    4    4  502    0 -0.74998223045E+02 -0.26460058331E+02 -0.13488329623E+03  0.15665395542E+03  0.47000000000E+01 0.  1.
         -5    1    4    4    0  502  0.35888202668E+02  0.27855449216E+02 -0.33964868206E+02  0.56917408708E+02  0.47000000000E+01 0.  1.
          5    1    5    5  503    0  0.40032390513E+02  0.58359840378E+02 -0.48431209067E+02  0.85884429734E+02  0.47000000000E+01 0.  1.
         -5    1    5    5    0  503 -0.92237013600E+00 -0.59755231263E+02 -0.26111222842E+02  0.65386729451E+02  0.47000000000E+01 0.  1.
<mgrwt>
<rscale>  0 0.27179236E+03</rscale>
<asrwt>0</asrwt>
<pdfrwt beam="1">  1        1 0.46787163E-01 0.27179236E+03</pdfrwt>
<pdfrwt beam="2">  1       -1 0.93424560E-02 0.27179236E+03</pdfrwt>
<totfact> 0.57920976E+03</totfact>
</mgrwt>
</event>
<event>
 9    1  0.8175317E-001  0.2560012E+03  0.7818608E-02  0.1109570E+00
          1   -1    0    0  501    0  0.00000000000E+00  0.00000000000E+00  0.69639526571E+01  0.69639526571E+01  0.00000000000E+00 0.  1.
         -1   -1    0    0    0  501 -0.00000000000E+00 -0.00000000000E+00 -0.23527085293E+04  0.23527085293E+04  0.00000000000E+00 0.  1.
         35    2    1    2    0    0  0.35527136788E-14  0.00000000000E+00 -0.23457445767E+04  0.23596724820E+04  0.25600117823E+03 0.  0.
         25    2    3    3    0    0 -0.13988263886E+02  0.25657017624E+02 -0.11181746391E+04  0.11254116617E+04  0.12402794290E+03 0.  0.
         25    2    3    3    0    0  0.13988263886E+02 -0.25657017624E+02 -0.12275699375E+04  0.12342608203E+04  0.12497146415E+03 0.  0.
          5    1    4    4  502    0  0.21398635856E+02  0.31324612414E+02 -0.10755661874E+03  0.11414748878E+03  0.47000000000E+01 0.  1.
         -5    1    4    4    0  502 -0.35386899742E+02 -0.56675947899E+01 -0.10106180204E+04  0.10112641729E+04  0.47000000000E+01 0.  1.
          5    1    5    5  503    0  0.21341115215E+02 -0.61996873293E+02 -0.10811480026E+04  0.10831445651E+04  0.47000000000E+01 0. -1.
         -5    1    5    5    0  503 -0.73528513282E+01  0.36339855669E+02 -0.14642193497E+03  0.15111625515E+03  0.47000000000E+01 0. -1.
<mgrwt>
<rscale>  0 0.25600118E+03</rscale>
<asrwt>0</asrwt>
<pdfrwt beam="1">  1        1 0.10713768E-02 0.25600118E+03</pdfrwt>
<pdfrwt beam="2">  1       -1 0.36195533E+00 0.25600118E+03</pdfrwt>
<totfact> 0.22977901E+02</totfact>
</mgrwt>
</event>
<event>
 9    1  0.8175317E-001  0.2730674E+03  0.7818608E-02  0.1099537E+00
         -2   -1    0    0    0  501 -0.00000000000E+00  0.00000000000E+00  0.13420334682E+02  0.13420334682E+02  0.00000000000E+00 0.  1.
          2   -1    0    0  501    0  0.00000000000E+00 -0.00000000000E+00 -0.13890454018E+04  0.13890454018E+04  0.00000000000E+00 0.  1.
         35    2    1    2    0    0 -0.35527136788E-14  0.71054273576E-14 -0.13756250671E+04  0.14024657365E+04  0.27306742157E+03 0.  0.
         25    2    3    3    0    0  0.30821262182E+02  0.29953044344E+02 -0.85603406089E+03  0.86613474653E+03  0.12469142184E+03 0.  0.
         25    2    3    3    0    0 -0.30821262182E+02 -0.29953044344E+02 -0.51959100622E+03  0.53633098994E+03  0.12581328212E+03 0.  0.
          5    1    4    4  502    0  0.48969531334E+02  0.69423686320E+02 -0.64790276316E+03  0.65346594688E+03  0.47000000000E+01 0. -1.
         -5    1    4    4    0  502 -0.18148269152E+02 -0.39470641977E+02 -0.20813129772E+03  0.21266879965E+03  0.47000000000E+01 0. -1.
          5    1    5    5  503    0 -0.64014235932E+02  0.33645385199E+01 -0.43242176515E+03  0.43717252373E+03  0.47000000000E+01 0. -1.
         -5    1    5    5    0  503  0.33192973749E+02 -0.33317582864E+02 -0.87169241067E+02  0.99158466217E+02  0.47000000000E+01 0. -1.
<mgrwt>
<rscale>  0 0.27306742E+03</rscale>
<asrwt>0</asrwt>
<pdfrwt beam="1">  1        2 0.21369921E+00 0.27306742E+03</pdfrwt>
<pdfrwt beam="2">  1       -2 0.20646677E-02 0.27306742E+03</pdfrwt>
<totfact> 0.11551019E+04</totfact>
</mgrwt>
</event>
<event>
 9    1  0.8175317E-001  0.2766068E+03  0.7818608E-02  0.1097557E+00
          2   -1    0    0  501    0  0.00000000000E+00  0.00000000000E+00  0.88431182937E+03  0.88431182937E+03  0.00000000000E+00 0.  1.
         -2   -1    0    0    0  501 -0.00000000000E+00 -0.00000000000E+00 -0.21630188787E+02  0.21630188787E+02  0.00000000000E+00 0.  1.
         35    2    1    2    0    0 -0.71054273576E-14 -0.35527136788E-14  0.86268164059E+03  0.90594201816E+03  0.27660680987E+03 0.  0.
         25    2    3    3    0    0  0.57033787551E+02  0.10214875113E+02  0.44929658630E+03  0.47020306313E+03  0.12596150812E+03 0.  0.
         25    2    3    3    0    0 -0.57033787551E+02 -0.10214875113E+02  0.41338505429E+03  0.43573895503E+03  0.12499614883E+03 0.  0.
          5    1    4    4  502    0  0.27403636045E+02 -0.57101384610E+02  0.17461651556E+03  0.18580781711E+03  0.47000000000E+01 0. -1.
         -5    1    4    4    0  502  0.29630151506E+02  0.67316259722E+02  0.27468007073E+03  0.28439524602E+03  0.47000000000E+01 0. -1.
          5    1    5    5  503    0 -0.90232389956E+02  0.17839173907E+02  0.24399814882E+03  0.26080127866E+03  0.47000000000E+01 0.  1.
         -5    1    5    5    0  503  0.33198602405E+02 -0.28054049020E+02  0.16938690547E+03  0.17493767637E+03  0.47000000000E+01 0.  1.
<mgrwt>
<rscale>  0 0.27660681E+03</rscale>
<asrwt>0</asrwt>
<pdfrwt beam="1">  1        2 0.13604795E+00 0.27660681E+03</pdfrwt>
<pdfrwt beam="2">  1       -2 0.33277221E-02 0.27660681E+03</pdfrwt>
<totfact> 0.11249607E+04</totfact>
</mgrwt>
</event>
<event>
 9    1  0.8175317E-001  0.2764668E+03  0.7818608E-02  0.1097634E+00
          2   -1    0    0  501    0  0.00000000000E+00  0.00000000000E+00  0.68503804629E+02  0.68503804629E+02  0.00000000000E+00 0. -1.
         -2   -1    0    0    0  501 -0.00000000000E+00 -0.00000000000E+00 -0.27894032673E+03  0.27894032673E+03  0.00000000000E+00 0. -1.
         35    2    1    2    0    0  0.35527136788E-14  0.00000000000E+00 -0.21043652210E+03  0.34744413136E+03  0.27646680557E+03 0.  0.
         25    2    3    3    0    0  0.20948782012E+02 -0.46918708890E+02 -0.13906162696E+03  0.19441615906E+03  0.12577475938E+03 0.  0.
         25    2    3    3    0    0 -0.20948782012E+02  0.46918708890E+02 -0.71374895135E+02  0.15302797230E+03  0.12523165710E+03 0.  0.
          5    1    4    4  502    0  0.87215805048E+01 -0.86313533677E+02 -0.12143418522E+03  0.14931323920E+03  0.47000000000E+01 0.  1.
         -5    1    4    4    0  502  0.12227201507E+02  0.39394824787E+02 -0.17627441746E+02  0.45102919853E+02  0.47000000000E+01 0.  1.
          5    1    5    5  503    0 -0.46903096773E+02 -0.18947635167E+02  0.21534056685E+01  0.50849193910E+02  0.47000000000E+01 0. -1.
         -5    1    5    5    0  503  0.25954314761E+02  0.65866344058E+02 -0.73528300803E+02  0.10217877839E+03  0.47000000000E+01 0. -1.
<mgrwt>
<rscale>  0 0.27646681E+03</rscale>
<asrwt>0</asrwt>
<pdfrwt beam="1">  1        2 0.10539047E-01 0.27646681E+03</pdfrwt>
<pdfrwt beam="2">  1       -2 0.42913896E-01 0.27646681E+03</pdfrwt>
<totfact> 0.31074459E+03</totfact>
</mgrwt>
</event>
<event>
 9    1  0.8175317E-001  0.2741273E+03  0.7818608E-02  0.1098940E+00
         -2   -1    0    0    0  501 -0.00000000000E+00  0.00000000000E+00  0.28889135413E+03  0.28889135413E+03  0.00000000000E+00 0.  1.
          2   -1    0    0  501    0  0.00000000000E+00 -0.00000000000E+00 -0.65029455911E+02  0.65029455911E+02  0.00000000000E+00 0.  1.
         35    2    1    2    0    0  0.71054273576E-14  0.71054273576E-14  0.22386189822E+03  0.35392081004E+03  0.27412732499E+03 0.  0.
         25    2    3    3    0    0 -0.17294934893E+02 -0.91542576092E+01  0.18069160551E+03  0.21979905906E+03  0.12360928304E+03 0.  0.
         25    2    3    3    0    0  0.17294934893E+02  0.91542576092E+01  0.43170292704E+02  0.13412175098E+03  0.12546734519E+03 0.  0.
          5    1    4    4  502    0  0.20864477961E+01 -0.64865085017E+02  0.81377387597E+02  0.10419309829E+03  0.47000000000E+01 0. -1.
         -5    1    4    4    0  502 -0.19381382689E+02  0.55710827407E+02  0.99314217915E+02  0.11560596077E+03  0.47000000000E+01 0. -1.
          5    1    5    5  503    0  0.48943753841E+02  0.41691167063E+02  0.57405360947E+02  0.86319811843E+02  0.47000000000E+01 0.  1.
         -5    1    5    5    0  503 -0.31648818948E+02 -0.32536909454E+02 -0.14235068243E+02  0.47801939139E+02  0.47000000000E+01 0.  1.
<mgrwt>
<rscale>  0 0.27412732E+03</rscale>
<asrwt>0</asrwt>
<pdfrwt beam="1">  1        2 0.10004532E-01 0.27412732E+03</pdfrwt>
<pdfrwt beam="2">  1       -2 0.44444823E-01 0.27412732E+03</pdfrwt>
<totfact> 0.30954684E+03</totfact>
</mgrwt>
</event>
<event>
 9    1  0.8175317E-001  0.3018426E+03  0.7818608E-02  0.1084323E+00
         -3   -1    0    0    0  501 -0.00000000000E+00  0.00000000000E+00  0.21623471319E+03  0.21623471319E+03  0.00000000000E+00 0.  1.
          3   -1    0    0  501    0  0.00000000000E+00 -0.00000000000E+00 -0.10533571844E+03  0.10533571844E+03  0.00000000000E+00 0.  1.
         35    2    1    2    0    0 -0.14210854715E-13 -0.71054273576E-14  0.11089899475E+03  0.32157043163E+03  0.30184260048E+03 0.  0.
         25    2    3    3    0    0 -0.65607472243E+02 -0.52997871051E+02  0.64104219039E+02  0.16396222288E+03  0.12514449601E+03 0.  0.
         25    2    3    3    0    0  0.65607472243E+02  0.52997871051E+02  0.46794775707E+02  0.15760820875E+03  0.12464943515E+03 0.  0.
          5    1    4    4  502    0  0.18002757600E+02  0.10899862211E+02 -0.19814284559E+02  0.29284845057E+02  0.47000000000E+01 0.  1.
         -5    1    4    4    0  502 -0.83610229842E+02 -0.63897733262E+02  0.83918503598E+02  0.13467737782E+03  0.47000000000E+01 0.  1.
          5    1    5    5  503    0  0.17196724735E+01  0.23500093280E+02 -0.39454916213E+02  0.46195152029E+02  0.47000000000E+01 0. -1.
         -5    1    5    5    0  503  0.63887799769E+02  0.29497777770E+02  0.86249691920E+02  0.11141305673E+03  0.47000000000E+01 0. -1.
<mgrwt>
<rscale>  0 0.30184260E+03</rscale>
<asrwt>0</asrwt>
<pdfrwt beam="1">  1        3 0.16205495E-01 0.30184260E+03</pdfrwt>
<pdfrwt beam="2">  1       -3 0.33266879E-01 0.30184260E+03</pdfrwt>
<totfact> 0.73621201E+02</totfact>
</mgrwt>
</event>
<event>
 9    1  0.8175317E-001  0.2768847E+03  0.7818608E-02  0.1097403E+00
          1   -1    0    0  501    0  0.00000000000E+00  0.00000000000E+00  0.10083662326E+03  0.10083662326E+03  0.00000000000E+00 0.  1.
         -1   -1    0    0    0  501 -0.00000000000E+00 -0.00000000000E+00 -0.19007265167E+03  0.19007265167E+03  0.00000000000E+00 0.  1.
         35    2    1    2    0    0  0.00000000000E+00  0.00000000000E+00 -0.89236028409E+02  0.29090927493E+03  0.27688470069E+03 0.  0.
         25    2    3    3    0    0  0.25229845608E+02  0.53698500810E+02 -0.28662117416E+02  0.13951580619E+03  0.12297588830E+03 0.  0.
         25    2    3    3    0    0 -0.25229845608E+02 -0.53698500810E+02 -0.60573910993E+02  0.15139346874E+03  0.12542212559E+03 0.  0.
          5    1    4    4  502    0  0.54785648423E+02  0.78313512639E+02 -0.91375580113E+01  0.96125223024E+02  0.47000000000E+01 0. -1.
         -5    1    4    4    0  502 -0.29555802815E+02 -0.24615011829E+02 -0.19524559404E+02  0.43390583164E+02  0.47000000000E+01 0. -1.
          5    1    5    5  503    0  0.33831371197E+02 -0.61193596131E+02 -0.57358352829E+01  0.70315060200E+02  0.47000000000E+01 0.  1.
         -5    1    5    5    0  503 -0.59061216805E+02  0.74950953213E+01 -0.54838075710E+02  0.81078408544E+02  0.47000000000E+01 0.  1.
<mgrwt>
<rscale>  0 0.27688470E+03</rscale>
<asrwt>0</asrwt>
<pdfrwt beam="1">  1        1 0.15513327E-01 0.27688470E+03</pdfrwt>
<pdfrwt beam="2">  1       -1 0.29241946E-01 0.27688470E+03</pdfrwt>
<totfact> 0.37853130E+03</totfact>
</mgrwt>
</event>
<event>
 9    1  0.8175317E-001  0.2819465E+03  0.7818608E-02  0.1094631E+00
          2   -1    0    0  501    0  0.00000000000E+00  0.00000000000E+00  0.13944458734E+02  0.13944458734E+02  0.00000000000E+00 0.  1.
         -2   -1    0    0    0  501 -0.00000000000E+00 -0.00000000000E+00 -0.14251867978E+04  0.14251867978E+04  0.00000000000E+00 0.  1.
         35    2    1    2    0    0  0.14210854715E-13  0.00000000000E+00 -0.14112423391E+04  0.14391312566E+04  0.28194650904E+03 0.  0.
         25    2    3    3    0    0 -0.36837588257E+02 -0.25626626245E+02 -0.94768671323E+03  0.95694582338E+03  0.12498588144E+03 0.  0.
         25    2    3    3    0    0  0.36837588257E+02  0.25626626245E+02 -0.46355562585E+03  0.48218543318E+03  0.12492094230E+03 0.  0.
          5    1    4    4  502    0 -0.20495595045E+02  0.18712093671E+02 -0.82362951364E+03  0.82411035524E+03  0.47000000000E+01 0.  1.
         -5    1    4    4    0  502 -0.16341993212E+02 -0.44338719917E+02 -0.12405719959E+03  0.13283546814E+03  0.47000000000E+01 0.  1.
          5    1    5    5  503    0  0.32460501147E+02  0.71399841952E+02 -0.36455423321E+03  0.37292559648E+03  0.47000000000E+01 0. -1.
         -5    1    5    5    0  503  0.43770871094E+01 -0.45773215707E+02 -0.99001392648E+02  0.10925983669E+03  0.47000000000E+01 0. -1.
<mgrwt>
<rscale>  0 0.28194651E+03</rscale>
<asrwt>0</asrwt>
<pdfrwt beam="1">  1        2 0.21453022E-02 0.28194651E+03</pdfrwt>
<pdfrwt beam="2">  1       -2 0.21925942E+00 0.28194651E+03</pdfrwt>
<totfact> 0.54439195E+02</totfact>
</mgrwt>
</event>
<event>
 9    1  0.8175317E-001  0.2747183E+03  0.7818608E-02  0.1098609E+00
         -2   -1    0    0    0  501 -0.00000000000E+00  0.00000000000E+00  0.30438342825E+02  0.30438342825E+02  0.00000000000E+00 0. -1.
          2   -1    0    0  501    0  0.00000000000E+00 -0.00000000000E+00 -0.61986094885E+03  0.61986094885E+03  0.00000000000E+00 0. -1.
         35    2    1    2    0    0  0.00000000000E+00  0.00000000000E+00 -0.58942260602E+03  0.65029929167E+03  0.27471832895E+03 0.  0.
         25    2    3    3    0    0 -0.23468181838E+02 -0.40612510773E+02 -0.36949649005E+03  0.39278184121E+03  0.12469878522E+03 0.  0.
         25    2    3    3    0    0  0.23468181838E+02  0.40612510773E+02 -0.21992611597E+03  0.25751745046E+03  0.12548947851E+03 0.  0.
          5    1    4    4  502    0 -0.30168357878E+01 -0.56724841529E+02 -0.62270040244E+02  0.84418344314E+02  0.47000000000E+01 0.  1.
         -5    1    4    4    0  502 -0.20451346050E+02  0.16112330756E+02 -0.30722644981E+03  0.30836349690E+03  0.47000000000E+01 0.  1.
          5    1    5    5  503    0  0.64165441841E+02 -0.13380926523E+02 -0.11914918624E+03  0.13606936357E+03  0.47000000000E+01 0. -1.
         -5    1    5    5    0  503 -0.40697260003E+02  0.53993437296E+02 -0.10077692973E+03  0.12144808689E+03  0.47000000000E+01 0. -1.
<mgrwt>
<rscale>  0 0.27471833E+03</rscale>
<asrwt>0</asrwt>
<pdfrwt beam="1">  1        2 0.95363216E-01 0.27471833E+03</pdfrwt>
<pdfrwt beam="2">  1       -2 0.46828223E-02 0.27471833E+03</pdfrwt>
<totfact> 0.10457834E+04</totfact>
</mgrwt>
</event>
<event>
 9    1  0.8175317E-001  0.2702059E+03  0.7818608E-02  0.1101162E+00
         -1   -1    0    0    0  501 -0.00000000000E+00  0.00000000000E+00  0.38407604599E+02  0.38407604599E+02  0.00000000000E+00 0.  1.
          1   -1    0    0  501    0  0.00000000000E+00 -0.00000000000E+00 -0.47523931897E+03  0.47523931897E+03  0.00000000000E+00 0.  1.
         35    2    1    2    0    0 -0.35527136788E-14  0.00000000000E+00 -0.43683171437E+03  0.51364692357E+03  0.27020587597E+03 0.  0.
         25    2    3    3    0    0  0.27900943607E+02  0.42045340592E+02 -0.21889120748E+03  0.25721242811E+03  0.12529405070E+03 0.  0.
         25    2    3    3    0    0 -0.27900943607E+02 -0.42045340592E+02 -0.21794050689E+03  0.25643449546E+03  0.12535674134E+03 0.  0.
          5    1    4    4  502    0  0.65380572553E+02 -0.55150348716E+01 -0.68258968554E+02  0.94796685939E+02  0.47000000000E+01 0. -1.
         -5    1    4    4    0  502 -0.37479628946E+02  0.47560375464E+02 -0.15063223893E+03  0.16241574217E+03  0.47000000000E+01 0. -1.
          5    1    5    5  503    0  0.18237902807E+02 -0.65703548395E+02 -0.17844014974E+03  0.19108258532E+03  0.47000000000E+01 0. -1.
         -5    1    5    5    0  503 -0.46138846414E+02  0.23658207802E+02 -0.39500357147E+02  0.65351910145E+02  0.47000000000E+01 0. -1.
<mgrwt>
<rscale>  0 0.27020588E+03</rscale>
<asrwt>0</asrwt>
<pdfrwt beam="1">  1        1 0.73113743E-01 0.27020588E+03</pdfrwt>
<pdfrwt beam="2">  1       -1 0.59088621E-02 0.27020588E+03</pdfrwt>
<totfact> 0.65697848E+03</totfact>
</mgrwt>
</event>
<event>
 9    1  0.8175317E-001  0.2692132E+03  0.7818608E-02  0.1101731E+00
          1   -1    0    0  501    0  0.00000000000E+00  0.00000000000E+00  0.12252933110E+04  0.12252933110E+04  0.00000000000E+00 0.  1.
         -1   -1    0    0    0  501 -0.00000000000E+00 -0.00000000000E+00 -0.14787424372E+02  0.14787424372E+02  0.00000000000E+00 0.  1.
         35    2    1    2    0    0  0.00000000000E+00 -0.71054273576E-14  0.12105058867E+04  0.12400807354E+04  0.26921316587E+03 0.  0.
         25    2    3    3    0    0 -0.37959985950E+01  0.48518913280E+02  0.63737174160E+03  0.65167297766E+03  0.12675345464E+03 0.  0.
         25    2    3    3    0    0  0.37959985950E+01 -0.48518913280E+02  0.57313414506E+03  0.58840775775E+03  0.12398567092E+03 0.  0.
          5    1    4    4  502    0  0.38011781845E+02  0.47672189335E+02  0.14317317499E+03  0.15568616262E+03  0.47000000000E+01 0.  1.
         -5    1    4    4    0  502 -0.41807780440E+02  0.84672394409E+00  0.49419856662E+03  0.49598681504E+03  0.47000000000E+01 0.  1.
          5    1    5    5  503    0  0.54532987144E+02 -0.21857992323E+02  0.14643719310E+03  0.15785296968E+03  0.47000000000E+01 0.  1.
         -5    1    5    5    0  503 -0.50736988549E+02 -0.26660920956E+02  0.42669695196E+03  0.43055478806E+03  0.47000000000E+01 0.  1.
<mgrwt>
<rscale>  0 0.26921317E+03</rscale>
<asrwt>0</asrwt>
<pdfrwt beam="1">  1        1 0.18850658E+00 0.26921317E+03</pdfrwt>
<pdfrwt beam="2">  1       -1 0.22749893E-02 0.26921317E+03</pdfrwt>
<totfact> 0.62334004E+03</totfact>
</mgrwt>
</event>
<event>
 9    1  0.8175317E-001  0.2772080E+03  0.7818608E-02  0.1097224E+00
         -2   -1    0    0    0  501 -0.00000000000E+00  0.00000000000E+00  0.14796421511E+02  0.14796421511E+02  0.00000000000E+00 0.  1.
          2   -1    0    0  501    0  0.00000000000E+00 -0.00000000000E+00 -0.12983591801E+04  0.12983591801E+04  0.00000000000E+00 0.  1.
         35    2    1    2    0    0  0.00000000000E+00  0.17763568394E-14 -0.12835627586E+04  0.13131556016E+04  0.27720800639E+03 0.  0.
         25    2    3    3    0    0  0.35819600331E+02 -0.12100652336E+02 -0.87726761192E+03  0.88637320511E+03  0.12095257861E+03 0.  0.
         25    2    3    3    0    0 -0.35819600331E+02  0.12100652336E+02 -0.40629514667E+03  0.42678239650E+03  0.12505198197E+03 0.  0.
          5    1    4    4  502    0  0.24158580662E+02 -0.18798845468E+02 -0.48893261134E+02  0.57876373373E+02  0.47000000000E+01 0. -1.
         -5    1    4    4    0  502  0.11661019669E+02  0.66981931322E+01 -0.82837435078E+03  0.82849683174E+03  0.47000000000E+01 0. -1.
          5    1    5    5  503    0  0.36676318615E+02  0.15053663511E+00 -0.45887368447E+02  0.58931448238E+02  0.47000000000E+01 0. -1.
         -5    1    5    5    0  503 -0.72495918946E+02  0.11950115701E+02 -0.36040777822E+03  0.36785094826E+03  0.47000000000E+01 0. -1.
<mgrwt>
<rscale>  0 0.27720801E+03</rscale>
<asrwt>0</asrwt>
<pdfrwt beam="1">  1        2 0.19974762E+00 0.27720801E+03</pdfrwt>
<pdfrwt beam="2">  1       -2 0.22763719E-02 0.27720801E+03</pdfrwt>
<totfact> 0.11221491E+04</totfact>
</mgrwt>
</event>
<event>
 9    1  0.8175317E-001  0.2666167E+03  0.7818608E-02  0.1103232E+00
          2   -1    0    0  501    0  0.00000000000E+00  0.00000000000E+00  0.33386455718E+04  0.33386455718E+04  0.00000000000E+00 0. -1.
         -2   -1    0    0    0  501 -0.00000000000E+00 -0.00000000000E+00 -0.53228528551E+01  0.53228528551E+01  0.00000000000E+00 0. -1.
         35    2    1    2    0    0  0.26645352591E-14 -0.71054273576E-14  0.33333227189E+04  0.33439684246E+04  0.26661672201E+03 0.  0.
         25    2    3    3    0    0 -0.75594322850E+01 -0.23888993096E+02  0.95806592753E+03  0.96498497915E+03  0.11259600119E+03 0.  0.
         25    2    3    3    0    0  0.75594322850E+01  0.23888993096E+02  0.23752567914E+04  0.23789834455E+04  0.13072711967E+03 0.  0.
          5    1    4    4  502    0  0.18111396970E+02  0.32897695290E+01  0.85559601900E+03  0.85580691924E+03  0.47000000000E+01 0.  1.
         -5    1    4    4    0  502 -0.25670829255E+02 -0.27178762625E+02  0.10246990853E+03  0.10917805992E+03  0.47000000000E+01 0.  1.
          5    1    5    5  503    0  0.97299977199E+01  0.46277318739E+02  0.31197434691E+03  0.31557304419E+03  0.47000000000E+01 0.  1.
         -5    1    5    5    0  503 -0.21705654349E+01 -0.22388325643E+02  0.20632824445E+04  0.20634104013E+04  0.47000000000E+01 0.  1.
<mgrwt>
<rscale>  0 0.26661672E+03</rscale>
<asrwt>0</asrwt>
<pdfrwt beam="1">  1        2 0.51363611E+00 0.26661672E+03</pdfrwt>
<pdfrwt beam="2">  1       -2 0.81890311E-03 0.26661672E+03</pdfrwt>
<totfact> 0.36815872E+03</totfact>
</mgrwt>
</event>
<event>
 9    1  0.8175317E-001  0.2738934E+03  0.7818608E-02  0.1099072E+00
         -2   -1    0    0    0  501 -0.00000000000E+00  0.00000000000E+00  0.13292239402E+02  0.13292239402E+02  0.00000000000E+00 0. -1.
          2   -1    0    0  501    0  0.00000000000E+00 -0.00000000000E+00 -0.14109285527E+04  0.14109285527E+04  0.00000000000E+00 0. -1.
         35    2    1    2    0    0  0.71054273576E-14  0.71054273576E-14 -0.13976363133E+04  0.14242207921E+04  0.27389341066E+03 0.  0.
         25    2    3    3    0    0  0.41404592532E+02  0.55465106042E+01 -0.87967385680E+03  0.88958684539E+03  0.12567241976E+03 0.  0.
         25    2    3    3    0    0 -0.41404592532E+02 -0.55465106042E+01 -0.51796245648E+03  0.53463394669E+03  0.12571096441E+03 0.  0.
          5    1    4    4  502    0  0.29711786315E+02  0.64135981619E+02 -0.40556458415E+03  0.41170491411E+03  0.47000000000E+01 0. -1.
         -5    1    4    4    0  502  0.11692806216E+02 -0.58589471015E+02 -0.47410927265E+03  0.47788193127E+03  0.47000000000E+01 0. -1.
          5    1    5    5  503    0 -0.10331057539E+02  0.32483166738E+02 -0.44634076581E+03  0.44766511601E+03  0.47000000000E+01 0. -1.
         -5    1    5    5    0  503 -0.31073534993E+02 -0.38029677342E+02 -0.71621690668E+02  0.86968830680E+02  0.47000000000E+01 0. -1.
<mgrwt>
<rscale>  0 0.27389341E+03</rscale>
<asrwt>0</asrwt>
<pdfrwt beam="1">  1        2 0.21706583E+00 0.27389341E+03</pdfrwt>
<pdfrwt beam="2">  1       -2 0.20449609E-02 0.27389341E+03</pdfrwt>
<totfact> 0.11399921E+04</totfact>
</mgrwt>
</event>
<event>
 9    1  0.8175317E-001  0.2786650E+03  0.7818608E-02  0.1096420E+00
         -1   -1    0    0    0  501 -0.00000000000E+00  0.00000000000E+00  0.33043033344E+02  0.33043033344E+02  0.00000000000E+00 0. -1.
          1   -1    0    0  501    0  0.00000000000E+00 -0.00000000000E+00 -0.58752312080E+03  0.58752312080E+03  0.00000000000E+00 0. -1.
         35    2    1    2    0    0  0.00000000000E+00  0.00000000000E+00 -0.55448008746E+03  0.62056615414E+03  0.27866500370E+03 0.  0.
         25    2    3    3    0    0 -0.51866999423E+02  0.14049477262E+02 -0.33756956416E+03  0.36459138801E+03  0.12683097462E+03 0.  0.
         25    2    3    3    0    0  0.51866999423E+02 -0.14049477262E+02 -0.21691052330E+03  0.25597476614E+03  0.12484122853E+03 0.  0.
          5    1    4    4  502    0  0.48618145894E+01  0.55809010233E+02 -0.81785617716E+02  0.99243438723E+02  0.47000000000E+01 0.  1.
         -5    1    4    4    0  502 -0.56728814012E+02 -0.41759532970E+02 -0.25578394644E+03  0.26534794929E+03  0.47000000000E+01 0.  1.
          5    1    5    5  503    0  0.24308950749E+02 -0.57548128897E+02 -0.46854523479E+02  0.78231378593E+02  0.47000000000E+01 0.  1.
         -5    1    5    5    0  503  0.27558048674E+02  0.43498651635E+02 -0.17005599982E+03  0.17774338754E+03  0.47000000000E+01 0.  1.
<mgrwt>
<rscale>  0 0.27866500E+03</rscale>
<asrwt>0</asrwt>
<pdfrwt beam="1">  1        1 0.90388169E-01 0.27866500E+03</pdfrwt>
<pdfrwt beam="2">  1       -1 0.50835438E-02 0.27866500E+03</pdfrwt>
<totfact> 0.61973067E+03</totfact>
</mgrwt>
</event>
<event>
 9    1  0.8175317E-001  0.2773238E+03  0.7818608E-02  0.1097160E+00
          2   -1    0    0  501    0  0.00000000000E+00  0.00000000000E+00  0.95194136111E+03  0.95194136111E+03  0.00000000000E+00 0.  1.
         -2   -1    0    0    0  501 -0.00000000000E+00 -0.00000000000E+00 -0.20197796855E+02  0.20197796855E+02  0.00000000000E+00 0.  1.
         35    2    1    2    0    0  0.00000000000E+00  0.14210854715E-13  0.93174356425E+03  0.97213915796E+03  0.27732376912E+03 0.  0.
         25    2    3    3    0    0  0.43706481835E+02 -0.33736542998E+02  0.54341741786E+03  0.56037466055E+03  0.12517531414E+03 0.  0.
         25    2    3    3    0    0 -0.43706481835E+02  0.33736542998E+02  0.38832614639E+03  0.41176449741E+03  0.12531717546E+03 0.  0.
          5    1    4    4  502    0  0.68469638984E+01 -0.73586021047E+02  0.40318405884E+03  0.40992835802E+03  0.47000000000E+01 0.  1.
         -5    1    4    4    0  502  0.36859517936E+02  0.39849478049E+02  0.14023335902E+03  0.15044630254E+03  0.47000000000E+01 0.  1.
          5    1    5    5  503    0 -0.44752544974E+02 -0.41491500618E+02  0.15946865154E+03  0.17081181379E+03  0.47000000000E+01 0. -1.
         -5    1    5    5    0  503  0.10460631389E+01  0.75228043616E+02  0.22885749485E+03  0.24095268362E+03  0.47000000000E+01 0. -1.
<mgrwt>
<rscale>  0 0.27732377E+03</rscale>
<asrwt>0</asrwt>
<pdfrwt beam="1">  1        2 0.14645248E+00 0.27732377E+03</pdfrwt>
<pdfrwt beam="2">  1       -2 0.31073541E-02 0.27732377E+03</pdfrwt>
<totfact> 0.11280239E+04</totfact>
</mgrwt>
</event>
<event>
 9    1  0.8175317E-001  0.2724463E+03  0.7818608E-02  0.1099888E+00
         -2   -1    0    0    0  501 -0.00000000000E+00  0.00000000000E+00  0.16666806605E+02  0.16666806605E+02  0.00000000000E+00 0. -1.
          2   -1    0    0  501    0  0.00000000000E+00 -0.00000000000E+00 -0.11133955211E+04  0.11133955211E+04  0.00000000000E+00 0. -1.
         35    2    1    2    0    0 -0.35527136788E-14  0.00000000000E+00 -0.10967287144E+04  0.11300623277E+04  0.27244630902E+03 0.  0.
         25    2    3    3    0    0 -0.19322329592E+02  0.19769488343E+02 -0.35613243314E+03  0.37853789587E+03  0.12528544840E+03 0.  0.
         25    2    3    3    0    0  0.19322329592E+02 -0.19769488343E+02 -0.74059628130E+03  0.75152443179E+03  0.12466729565E+03 0.  0.
          5    1    4    4  502    0  0.26471398345E+02 -0.31931138032E+02 -0.23786883592E+03  0.24150363477E+03  0.47000000000E+01 0.  1.
         -5    1    4    4    0  502 -0.45793727937E+02  0.51700626375E+02 -0.11826359723E+03  0.13703426110E+03  0.47000000000E+01 0.  1.
          5    1    5    5  503    0  0.22586358547E+02  0.51267380530E+02 -0.34809516234E+03  0.35260575710E+03  0.47000000000E+01 0. -1.
         -5    1    5    5    0  503 -0.32640289555E+01 -0.71036868874E+02 -0.39250111897E+03  0.39891867469E+03  0.47000000000E+01 0. -1.
<mgrwt>
<rscale>  0 0.27244631E+03</rscale>
<asrwt>0</asrwt>
<pdfrwt beam="1">  1        2 0.17129165E+00 0.27244631E+03</pdfrwt>
<pdfrwt beam="2">  1       -2 0.25641236E-02 0.27244631E+03</pdfrwt>
<totfact> 0.11980064E+04</totfact>
</mgrwt>
</event>
<event>
 9    1  0.8175317E-001  0.2753943E+03  0.7818608E-02  0.1098231E+00
          2   -1    0    0  501    0  0.00000000000E+00  0.00000000000E+00  0.43636299074E+03  0.43636299074E+03  0.00000000000E+00 0. -1.
         -2   -1    0    0    0  501 -0.00000000000E+00 -0.00000000000E+00 -0.43451227825E+02  0.43451227825E+02  0.00000000000E+00 0. -1.
         35    2    1    2    0    0  0.71054273576E-14  0.00000000000E+00  0.39291176291E+03  0.47981421856E+03  0.27539431893E+03 0.  0.
         25    2    3    3    0    0  0.30926856084E+02 -0.41996564442E+02  0.15354351543E+03  0.20532362344E+03  0.12594442171E+03 0.  0.
         25    2    3    3    0    0 -0.30926856084E+02  0.41996564442E+02  0.23936824748E+03  0.27449059512E+03  0.12380527878E+03 0.  0.
          5    1    4    4  502    0 -0.33654519099E+02 -0.50101798269E+02  0.34795041296E+02  0.69825509267E+02  0.47000000000E+01 0.  1.
         -5    1    4    4    0  502  0.64581375183E+02  0.81052338271E+01  0.11874847413E+03  0.13549811417E+03  0.47000000000E+01 0.  1.
          5    1    5    5  503    0  0.33204392911E+02 -0.19799162709E+02  0.11526693696E+03  0.12166797158E+03  0.47000000000E+01 0. -1.
         -5    1    5    5    0  503 -0.64131248995E+02  0.61795727151E+02  0.12410131052E+03  0.15282262354E+03  0.47000000000E+01 0. -1.
<mgrwt>
<rscale>  0 0.27539432E+03</rscale>
<asrwt>0</asrwt>
<pdfrwt beam="1">  1        2 0.67132765E-01 0.27539432E+03</pdfrwt>
<pdfrwt beam="2">  1       -2 0.66848046E-02 0.27539432E+03</pdfrwt>
<totfact> 0.90214272E+03</totfact>
</mgrwt>
</event>
<event>
 9    1  0.8175317E-001  0.2730837E+03  0.7818608E-02  0.1099528E+00
         -1   -1    0    0    0  501 -0.00000000000E+00  0.00000000000E+00  0.28377266488E+03  0.28377266488E+03  0.00000000000E+00 0. -1.
          1   -1    0    0  501    0  0.00000000000E+00 -0.00000000000E+00 -0.65699317589E+02  0.65699317589E+02  0.00000000000E+00 0. -1.
         35    2    1    2    0    0  0.00000000000E+00  0.00000000000E+00  0.21807334729E+03  0.34947198247E+03  0.27308365336E+03 0.  0.
         25    2    3    3    0    0  0.32754302358E+01  0.51251051371E+02  0.86596161068E+02  0.16040611985E+03  0.12487525562E+03 0.  0.
         25    2    3    3    0    0 -0.32754302358E+01 -0.51251051371E+02  0.13147718623E+03  0.18906586262E+03  0.12578653028E+03 0.  0.
          5    1    4    4  502    0 -0.36100611569E+02  0.68780673807E+02  0.87421262709E+02  0.11704102878E+03  0.47000000000E+01 0.  1.
         -5    1    4    4    0  502  0.39376041805E+02 -0.17529622436E+02 -0.82510164119E+00  0.43365091072E+02  0.47000000000E+01 0.  1.
          5    1    5    5  503    0  0.33201379455E+02 -0.77938610012E+02  0.58362089619E+02  0.10298049346E+03  0.47000000000E+01 0. -1.
         -5    1    5    5    0  503 -0.36476809691E+02  0.26687558641E+02  0.73115096607E+02  0.86085369159E+02  0.47000000000E+01 0. -1.
<mgrwt>
<rscale>  0 0.27308365E+03</rscale>
<asrwt>0</asrwt>
<pdfrwt beam="1">  1        1 0.10107587E-01 0.27308365E+03</pdfrwt>
<pdfrwt beam="2">  1       -1 0.43657332E-01 0.27308365E+03</pdfrwt>
<totfact> 0.33189475E+03</totfact>
</mgrwt>
</event>
<event>
 9    1  0.8175317E-001  0.2739124E+03  0.7818608E-02  0.1099061E+00
         -1   -1    0    0    0  501 -0.00000000000E+00  0.00000000000E+00  0.10455745570E+02  0.10455745570E+02  0.00000000000E+00 0.  1.
          1   -1    0    0  501    0  0.00000000000E+00 -0.00000000000E+00 -0.17939421799E+04  0.17939421799E+04  0.00000000000E+00 0.  1.
         35    2    1    2    0    0  0.71054273576E-14  0.00000000000E+00 -0.17834864343E+04  0.18043979254E+04  0.27391241666E+03 0.  0.
         25    2    3    3    0    0 -0.13379554859E+01  0.23346977879E+02 -0.55617437211E+03  0.57040908906E+03  0.12445772454E+03 0.  0.
         25    2    3    3    0    0  0.13379554859E+01 -0.23346977879E+02 -0.12273120622E+04  0.12339888364E+04  0.12604236905E+03 0.  0.
          5    1    4    4  502    0 -0.49560919348E+02 -0.18561950634E+02 -0.36353768160E+03  0.36739973691E+03  0.47000000000E+01 0.  1.
         -5    1    4    4    0  502  0.48222963862E+02  0.41908928513E+02 -0.19263669050E+03  0.20300935215E+03  0.47000000000E+01 0.  1.
          5    1    5    5  503    0  0.34304943522E+02 -0.32562775754E+02 -0.18195252678E+03  0.18805843644E+03  0.47000000000E+01 0.  1.
         -5    1    5    5    0  503 -0.32966988036E+02  0.92157978753E+01 -0.10453595354E+04  0.10459303999E+04  0.47000000000E+01 0.  1.
<mgrwt>
<rscale>  0 0.27391242E+03</rscale>
<asrwt>0</asrwt>
<pdfrwt beam="1">  1        1 0.27599087E+00 0.27391242E+03</pdfrwt>
<pdfrwt beam="2">  1       -1 0.16085776E-02 0.27391242E+03</pdfrwt>
<totfact> 0.43282820E+03</totfact>
</mgrwt>
</event>
<event>
 9    1  0.8175317E-001  0.2793698E+03  0.7818608E-02  0.1096034E+00
         -1   -1    0    0    0  501 -0.00000000000E+00  0.00000000000E+00  0.88658900114E+03  0.88658900114E+03  0.00000000000E+00 0.  1.
          1   -1    0    0  501    0  0.00000000000E+00 -0.00000000000E+00 -0.22007804766E+02  0.22007804766E+02  0.00000000000E+00 0.  1.
         35    2    1    2    0    0  0.00000000000E+00  0.00000000000E+00  0.86458119637E+03  0.90859680590E+03  0.27936984551E+03 0.  0.
         25    2    3    3    0    0  0.21529096103E+02  0.37831622414E+02  0.28355365145E+03  0.31253349248E+03  0.12401522906E+03 0.  0.
         25    2    3    3    0    0 -0.21529096103E+02 -0.37831622414E+02  0.58102754492E+03  0.59606331342E+03  0.12571289518E+03 0.  0.
          5    1    4    4  502    0  0.54527127076E+02  0.28998722130E+02  0.26735667379E+03  0.27443726877E+03  0.47000000000E+01 0.  1.
         -5    1    4    4    0  502 -0.32998030974E+02  0.88329002839E+01  0.16196977661E+02  0.38096223709E+02  0.47000000000E+01 0.  1.
          5    1    5    5  503    0  0.46576007799E+01  0.17367333437E+02  0.46030292691E+03  0.46067797000E+03  0.47000000000E+01 0. -1.
         -5    1    5    5    0  503 -0.26186696882E+02 -0.55198955851E+02  0.12072461801E+03  0.13538534343E+03  0.47000000000E+01 0. -1.
<mgrwt>
<rscale>  0 0.27936985E+03</rscale>
<asrwt>0</asrwt>
<pdfrwt beam="1">  1        1 0.33858168E-02 0.27936985E+03</pdfrwt>
<pdfrwt beam="2">  1       -1 0.13639828E+00 0.27936985E+03</pdfrwt>
<totfact> 0.13881295E+03</totfact>
</mgrwt>
</event>
<event>
 9    1  0.8175317E-001  0.2739060E+03  0.7818608E-02  0.1099065E+00
         -2   -1    0    0    0  501 -0.00000000000E+00  0.00000000000E+00  0.20996495731E+02  0.20996495731E+02  0.00000000000E+00 0. -1.
          2   -1    0    0  501    0  0.00000000000E+00 -0.00000000000E+00 -0.89329787477E+03  0.89329787477E+03  0.00000000000E+00 0. -1.
         35    2    1    2    0    0  0.00000000000E+00  0.71054273576E-14 -0.87230137904E+03  0.91429437050E+03  0.27390600588E+03 0.  0.
         25    2    3    3    0    0 -0.49411525377E+00 -0.28770826579E+02 -0.27694849329E+03  0.30525661820E+03  0.12511247102E+03 0.  0.
         25    2    3    3    0    0  0.49411525377E+00  0.28770826579E+02 -0.59535288575E+03  0.60903775230E+03  0.12511562873E+03 0.  0.
          5    1    4    4  502    0  0.27076807622E+02 -0.39835473241E+02 -0.27011002300E+03  0.27441124788E+03  0.47000000000E+01 0. -1.
         -5    1    4    4    0  502 -0.27570922876E+02  0.11064646661E+02 -0.68384702914E+01  0.30845370315E+02  0.47000000000E+01 0. -1.
          5    1    5    5  503    0 -0.40160763129E+02  0.45300234934E+02 -0.15486082852E+03  0.16633990619E+03  0.47000000000E+01 0. -1.
         -5    1    5    5    0  503  0.40654878382E+02 -0.16529408354E+02 -0.44049205723E+03  0.44269784612E+03  0.47000000000E+01 0. -1.
<mgrwt>
<rscale>  0 0.27390601E+03</rscale>
<asrwt>0</asrwt>
<pdfrwt beam="1">  1        2 0.13743045E+00 0.27390601E+03</pdfrwt>
<pdfrwt beam="2">  1       -2 0.32302299E-02 0.27390601E+03</pdfrwt>
<totfact> 0.11599209E+04</totfact>
</mgrwt>
</event>
<event>
 9    1  0.8175317E-001  0.2735975E+03  0.7818608E-02  0.1099238E+00
          1   -1    0    0  501    0  0.00000000000E+00  0.00000000000E+00  0.79882051701E+02  0.79882051701E+02  0.00000000000E+00 0.  1.
         -1   -1    0    0    0  501 -0.00000000000E+00 -0.00000000000E+00 -0.23426904643E+03  0.23426904643E+03  0.00000000000E+00 0.  1.
         35    2    1    2    0    0 -0.71054273576E-14  0.00000000000E+00 -0.15438699473E+03  0.31415109814E+03  0.27359745671E+03 0.  0.
         25    2    3    3    0    0  0.27156476764E+02 -0.47078164382E+02 -0.80911991224E+02  0.15944668234E+03  0.12618504821E+03 0.  0.
         25    2    3    3    0    0 -0.27156476764E+02  0.47078164382E+02 -0.73475003508E+02  0.15470441580E+03  0.12482408556E+03 0.  0.
          5    1    4    4  502    0  0.65750434908E+02  0.11600596007E+02 -0.41988412965E+02  0.79011457027E+02  0.47000000000E+01 0.  1.
         -5    1    4    4    0  502 -0.38593958144E+02 -0.58678760389E+02 -0.38923578260E+02  0.80435225309E+02  0.47000000000E+01 0.  1.
          5    1    5    5  503    0  0.10330791079E+02  0.10295007069E+02  0.32724796625E+02  0.36134674884E+02  0.47000000000E+01 0.  1.
         -5    1    5    5    0  503 -0.37487267843E+02  0.36783157313E+02 -0.10619980013E+03  0.11856974091E+03  0.47000000000E+01 0.  1.
<mgrwt>
<rscale>  0 0.27359746E+03</rscale>
<asrwt>0</asrwt>
<pdfrwt beam="1">  1        1 0.12289547E-01 0.27359746E+03</pdfrwt>
<pdfrwt beam="2">  1       -1 0.36041391E-01 0.27359746E+03</pdfrwt>
<totfact> 0.35912118E+03</totfact>
</mgrwt>
</event>
<event>
 9    1  0.8175317E-001  0.2740244E+03  0.7818608E-02  0.1098998E+00
         -2   -1    0    0    0  501 -0.00000000000E+00  0.00000000000E+00  0.30264172621E+02  0.30264172621E+02  0.00000000000E+00 0.  1.
          2   -1    0    0  501    0  0.00000000000E+00 -0.00000000000E+00 -0.62028251386E+03  0.62028251386E+03  0.00000000000E+00 0.  1.
         35    2    1    2    0    0 -0.71054273576E-14  0.71054273576E-14 -0.59001834124E+03  0.65054668648E+03  0.27402435712E+03 0.  0.
         25    2    3    3    0    0  0.63550429739E+01 -0.54982138140E+02 -0.26497301774E+03  0.29807618516E+03  0.12480100136E+03 0.  0.
         25    2    3    3    0    0 -0.63550429739E+01  0.54982138140E+02 -0.32504532350E+03  0.35247050133E+03  0.12456953837E+03 0.  0.
          5    1    4    4  502    0 -0.54194106473E+02 -0.51553108268E+02 -0.13059165978E+03  0.15056890699E+03  0.47000000000E+01 0. -1.
         -5    1    4    4    0  502  0.60549149447E+02 -0.34290298723E+01 -0.13438135796E+03  0.14750727817E+03  0.47000000000E+01 0. -1.
          5    1    5    5  503    0 -0.39606747603E+02  0.71670454314E+02 -0.28915566736E+03  0.30056353479E+03  0.47000000000E+01 0.  1.
         -5    1    5    5    0  503  0.33251704629E+02 -0.16688316174E+02 -0.35889656143E+02  0.51906966541E+02  0.47000000000E+01 0.  1.
<mgrwt>
<rscale>  0 0.27402436E+03</rscale>
<asrwt>0</asrwt>
<pdfrwt beam="1">  1        2 0.95428075E-01 0.27402436E+03</pdfrwt>
<pdfrwt beam="2">  1       -2 0.46560268E-02 0.27402436E+03</pdfrwt>
<totfact> 0.10539724E+04</totfact>
</mgrwt>
</event>
<event>
 9    1  0.8175317E-001  0.2782142E+03  0.7818608E-02  0.1096668E+00
          2   -1    0    0  501    0  0.00000000000E+00  0.00000000000E+00  0.78056515720E+03  0.78056515720E+03  0.00000000000E+00 0. -1.
         -2   -1    0    0    0  501 -0.00000000000E+00 -0.00000000000E+00 -0.24790731769E+02  0.24790731769E+02  0.00000000000E+00 0. -1.
         35    2    1    2    0    0 -0.71054273576E-14  0.00000000000E+00  0.75577442543E+03  0.80535588897E+03  0.27821417247E+03 0.  0.
         25    2    3    3    0    0  0.37698946553E+02 -0.42704019814E+02  0.43474036102E+03  0.45594293577E+03  0.12505972692E+03 0.  0.
         25    2    3    3    0    0 -0.37698946553E+02  0.42704019814E+02  0.32103406441E+03  0.34941295320E+03  0.12562522626E+03 0.  0.
          5    1    4    4  502    0  0.72348849311E+02 -0.59592770597E+02  0.35578770726E+03  0.36795738468E+03  0.47000000000E+01 0.  1.
         -5    1    4    4    0  502 -0.34649902758E+02  0.16888750783E+02  0.78952653756E+02  0.87985551082E+02  0.47000000000E+01 0.  1.
          5    1    5    5  503    0 -0.76431114090E+02  0.12958215022E+02  0.12360525670E+03  0.14597938218E+03  0.47000000000E+01 0. -1.
         -5    1    5    5    0  503  0.38732167537E+02  0.29745804793E+02  0.19742880771E+03  0.20343357102E+03  0.47000000000E+01 0. -1.
<mgrwt>
<rscale>  0 0.27821417E+03</rscale>
<asrwt>0</asrwt>
<pdfrwt beam="1">  1        2 0.12008693E+00 0.27821417E+03</pdfrwt>
<pdfrwt beam="2">  1       -2 0.38139593E-02 0.27821417E+03</pdfrwt>
<totfact> 0.10780132E+04</totfact>
</mgrwt>
</event>
<event>
 9    1  0.8175317E-001  0.2677917E+03  0.7818608E-02  0.1102550E+00
         -1   -1    0    0    0  501 -0.00000000000E+00  0.00000000000E+00  0.44189796250E+02  0.44189796250E+02  0.00000000000E+00 0.  1.
          1   -1    0    0  501    0  0.00000000000E+00 -0.00000000000E+00 -0.40570683296E+03  0.40570683296E+03  0.00000000000E+00 0.  1.
         35    2    1    2    0    0  0.00000000000E+00  0.00000000000E+00 -0.36151703671E+03  0.44989662921E+03  0.26779172718E+03 0.  0.
         25    2    3    3    0    0  0.48555023971E+02 -0.17906756237E+02 -0.20661691954E+03  0.24705516329E+03  0.12516972476E+03 0.  0.
         25    2    3    3    0    0 -0.48555023971E+02  0.17906756237E+02 -0.15490011717E+03  0.20284146592E+03  0.12030117092E+03 0.  0.
          5    1    4    4  502    0  0.35708168965E+02 -0.69429467767E+02 -0.92743223782E+02  0.12132155572E+03  0.47000000000E+01 0.  1.
         -5    1    4    4    0  502  0.12846855006E+02  0.51522711530E+02 -0.11387369576E+03  0.12573360757E+03  0.47000000000E+01 0.  1.
          5    1    5    5  503    0  0.12763406016E+02  0.21489799885E+01  0.15657876485E+02  0.20851420674E+02  0.47000000000E+01 0. -1.
         -5    1    5    5    0  503 -0.61318429988E+02  0.15757776248E+02 -0.17055799366E+03  0.18199004525E+03  0.47000000000E+01 0. -1.
<mgrwt>
<rscale>  0 0.26779173E+03</rscale>
<asrwt>0</asrwt>
<pdfrwt beam="1">  1        1 0.62416434E-01 0.26779173E+03</pdfrwt>
<pdfrwt beam="2">  1       -1 0.67984304E-02 0.26779173E+03</pdfrwt>
<totfact> 0.65252138E+03</totfact>
</mgrwt>
</event>
<event>
 9    1  0.8175317E-001  0.2692980E+03  0.7818608E-02  0.1101682E+00
          1   -1    0    0  501    0  0.00000000000E+00  0.00000000000E+00  0.39615742305E+03  0.39615742305E+03  0.00000000000E+00 0.  1.
         -1   -1    0    0    0  501 -0.00000000000E+00 -0.00000000000E+00 -0.45765517469E+02  0.45765517469E+02  0.00000000000E+00 0.  1.
         35    2    1    2    0    0 -0.17763568394E-14 -0.35527136788E-14  0.35039190558E+03  0.44192294052E+03  0.26929797225E+03 0.  0.
         25    2    3    3    0    0 -0.27730799313E+01 -0.31328487587E+02  0.24363994884E+03  0.27548652207E+03  0.12467251127E+03 0.  0.
         25    2    3    3    0    0  0.27730799313E+01  0.31328487587E+02  0.10675195674E+03  0.16643641844E+03  0.12375757355E+03 0.  0.
          5    1    4    4  502    0 -0.18851371096E+02  0.28658429345E+02  0.19048373126E+03  0.19360480789E+03  0.47000000000E+01 0.  1.
         -5    1    4    4    0  502  0.16078291164E+02 -0.59986916932E+02  0.53156217583E+02  0.81881714183E+02  0.47000000000E+01 0.  1.
          5    1    5    5  503    0  0.13646875692E+02 -0.21310156340E+02 -0.17399476065E+02  0.31067535253E+02  0.47000000000E+01 0.  1.
         -5    1    5    5    0  503 -0.10873795761E+02  0.52638643926E+02  0.12415143280E+03  0.13536888319E+03  0.47000000000E+01 0.  1.
<mgrwt>
<rscale>  0 0.26929797E+03</rscale>
<asrwt>0</asrwt>
<pdfrwt beam="1">  1        1 0.60947293E-01 0.26929797E+03</pdfrwt>
<pdfrwt beam="2">  1       -1 0.70408491E-02 0.26929797E+03</pdfrwt>
<totfact> 0.63806364E+03</totfact>
</mgrwt>
</event>
<event>
 9    1  0.8175317E-001  0.2754879E+03  0.7818608E-02  0.1098179E+00
          2   -1    0    0  501    0  0.00000000000E+00  0.00000000000E+00  0.38563093378E+02  0.38563093378E+02  0.00000000000E+00 0. -1.
         -2   -1    0    0    0  501 -0.00000000000E+00 -0.00000000000E+00 -0.49200914468E+03  0.49200914468E+03  0.00000000000E+00 0. -1.
         35    2    1    2    0    0  0.00000000000E+00 -0.35527136788E-14 -0.45344605130E+03  0.53057223806E+03  0.27548789149E+03 0.  0.
         25    2    3    3    0    0 -0.39855232855E+02 -0.17389261493E+02 -0.16079340847E+03  0.20919260894E+03  0.12655513196E+03 0.  0.
         25    2    3    3    0    0  0.39855232855E+02  0.17389261493E+02 -0.29265264283E+03  0.32137962912E+03  0.12549291078E+03 0.  0.
          5    1    4    4  502    0 -0.83969534772E+02 -0.20313487627E+02 -0.84790309758E+02  0.12114044402E+03  0.47000000000E+01 0. -1.
         -5    1    4    4    0  502  0.44114301917E+02  0.29242261338E+01 -0.76003098715E+02  0.88052164916E+02  0.47000000000E+01 0. -1.
          5    1    5    5  503    0 -0.30061714372E+02 -0.27706153339E+02 -0.49654817466E+02  0.64490530324E+02  0.47000000000E+01 0.  1.
         -5    1    5    5    0  503  0.69916947227E+02  0.45095414832E+02 -0.24299782536E+03  0.25688909879E+03  0.47000000000E+01 0.  1.
<mgrwt>
<rscale>  0 0.27548789E+03</rscale>
<asrwt>0</asrwt>
<pdfrwt beam="1">  1        2 0.59327832E-02 0.27548789E+03</pdfrwt>
<pdfrwt beam="2">  1       -2 0.75693719E-01 0.27548789E+03</pdfrwt>
<totfact> 0.20137908E+03</totfact>
</mgrwt>
</event>
<event>
 9    1  0.8175317E-001  0.2715542E+03  0.7818608E-02  0.1100393E+00
          2   -1    0    0  501    0  0.00000000000E+00  0.00000000000E+00  0.31205295297E+04  0.31205295297E+04  0.00000000000E+00 0.  1.
         -2   -1    0    0    0  501 -0.00000000000E+00 -0.00000000000E+00 -0.59077880165E+01  0.59077880165E+01  0.00000000000E+00 0.  1.
         35    2    1    2    0    0  0.17763568394E-14  0.00000000000E+00  0.31146217417E+04  0.31264373177E+04  0.27155424475E+03 0.  0.
         25    2    3    3    0    0 -0.15209072280E+02 -0.19696763439E+02  0.10104206443E+04  0.10184426684E+04  0.12512518525E+03 0.  0.
         25    2    3    3    0    0  0.15209072280E+02  0.19696763439E+02  0.21042010974E+04  0.21079946493E+04  0.12393508392E+03 0.  0.
          5    1    4    4  502    0 -0.42415938923E+02  0.34449751342E+02  0.26895218295E+03  0.27448727467E+03  0.47000000000E+01 0.  1.
         -5    1    4    4    0  502  0.27206866643E+02 -0.54146514781E+02  0.74146846138E+03  0.74395539374E+03  0.47000000000E+01 0.  1.
          5    1    5    5  503    0  0.23657409218E+02  0.25498550157E+02  0.20877820417E+04  0.20880770562E+04  0.47000000000E+01 0.  1.
         -5    1    5    5    0  503 -0.84483369383E+01 -0.58017867182E+01  0.16419055715E+02  0.19917593146E+02  0.47000000000E+01 0.  1.
<mgrwt>
<rscale>  0 0.27155424E+03</rscale>
<asrwt>0</asrwt>
<pdfrwt beam="1">  1        2 0.48008015E+00 0.27155424E+03</pdfrwt>
<pdfrwt beam="2">  1       -2 0.90889295E-03 0.27155424E+03</pdfrwt>
<totfact> 0.43220926E+03</totfact>
</mgrwt>
</event>
<event>
 9    1  0.8175317E-001  0.2705958E+03  0.7818608E-02  0.1100939E+00
          3   -1    0    0  501    0  0.00000000000E+00  0.00000000000E+00  0.73095049731E+02  0.73095049731E+02  0.00000000000E+00 0.  1.
         -3   -1    0    0    0  501 -0.00000000000E+00 -0.00000000000E+00 -0.25043442553E+03  0.25043442553E+03  0.00000000000E+00 0.  1.
         35    2    1    2    0    0  0.00000000000E+00  0.71054273576E-14 -0.17733937580E+03  0.32352947526E+03  0.27059576337E+03 0.  0.
         25    2    3    3    0    0 -0.33308276137E+02 -0.29041432543E+02 -0.11902479140E+03  0.17880080806E+03  0.12589671136E+03 0.  0.
         25    2    3    3    0    0  0.33308276137E+02  0.29041432543E+02 -0.58314584401E+02  0.14472866720E+03  0.12487173537E+03 0.  0.
          5    1    4    4  502    0 -0.21050178885E+02 -0.71466276519E+02 -0.32242453491E+02  0.81315462968E+02  0.47000000000E+01 0. -1.
         -5    1    4    4    0  502 -0.12258097252E+02  0.42424843976E+02 -0.86782337909E+02  0.97485345092E+02  0.47000000000E+01 0. -1.
          5    1    5    5  503    0  0.57974621517E+02  0.50391430143E+02  0.89601712360E+00  0.76962626116E+02  0.47000000000E+01 0. -1.
         -5    1    5    5    0  503 -0.24666345381E+02 -0.21349997600E+02 -0.59210601525E+02  0.67766041089E+02  0.47000000000E+01 0. -1.
<mgrwt>
<rscale>  0 0.27059576E+03</rscale>
<asrwt>0</asrwt>
<pdfrwt beam="1">  1        3 0.11245392E-01 0.27059576E+03</pdfrwt>
<pdfrwt beam="2">  1       -3 0.38528374E-01 0.27059576E+03</pdfrwt>
<totfact> 0.10276634E+03</totfact>
</mgrwt>
</event>
<event>
 9    1  0.8175317E-001  0.2769952E+03  0.7818608E-02  0.1097342E+00
          1   -1    0    0  501    0  0.00000000000E+00  0.00000000000E+00  0.25089120130E+03  0.25089120130E+03  0.00000000000E+00 0.  1.
         -1   -1    0    0    0  501 -0.00000000000E+00 -0.00000000000E+00 -0.76453797835E+02  0.76453797835E+02  0.00000000000E+00 0.  1.
         35    2    1    2    0    0 -0.71054273576E-14  0.00000000000E+00  0.17443740347E+03  0.32734499914E+03  0.27699519984E+03 0.  0.
         25    2    3    3    0    0 -0.57622904131E+02 -0.35816652781E+01  0.85503508215E+02  0.16255244458E+03  0.12561536496E+03 0.  0.
         25    2    3    3    0    0  0.57622904131E+02  0.35816652781E+01  0.88933895251E+02  0.16479255456E+03  0.12615118274E+03 0.  0.
          5    1    4    4  502    0 -0.42811902881E+02  0.49480500260E+02  0.84858887364E+02  0.10725809852E+03  0.47000000000E+01 0. -1.
         -5    1    4    4    0  502 -0.14811001250E+02 -0.53062165539E+02  0.64462085096E+00  0.55294346055E+02  0.47000000000E+01 0. -1.
          5    1    5    5  503    0  0.64404623583E+02 -0.45210293265E+02  0.22543758934E+02  0.81989250654E+02  0.47000000000E+01 0. -1.
         -5    1    5    5    0  503 -0.67817194520E+01  0.48791958543E+02  0.66390136318E+02  0.82803303904E+02  0.47000000000E+01 0. -1.
<mgrwt>
<rscale>  0 0.27699520E+03</rscale>
<asrwt>0</asrwt>
<pdfrwt beam="1">  1        1 0.38598646E-01 0.27699520E+03</pdfrwt>
<pdfrwt beam="2">  1       -1 0.11762123E-01 0.27699520E+03</pdfrwt>
<totfact> 0.51642824E+03</totfact>
</mgrwt>
</event>
<event>
 9    1  0.8175317E-001  0.2729110E+03  0.7818608E-02  0.1099625E+00
         -1   -1    0    0    0  501 -0.00000000000E+00  0.00000000000E+00  0.44696417785E+03  0.44696417785E+03  0.00000000000E+00 0.  1.
          1   -1    0    0  501    0  0.00000000000E+00 -0.00000000000E+00 -0.41659047537E+02  0.41659047537E+02  0.00000000000E+00 0.  1.
         35    2    1    2    0    0 -0.71054273576E-14  0.35527136788E-14  0.40530513031E+03  0.48862322538E+03  0.27291098865E+03 0.  0.
         25    2    3    3    0    0 -0.51994896974E+02 -0.17796417829E+02  0.21493579825E+03  0.25485354622E+03  0.12543026291E+03 0.  0.
         25    2    3    3    0    0  0.51994896974E+02  0.17796417829E+02  0.19036933206E+03  0.23376967916E+03  0.12404675936E+03 0.  0.
          5    1    4    4  502    0  0.13268382884E+01  0.34839003068E+02  0.15456687053E+03  0.15851979088E+03  0.47000000000E+01 0. -1.
         -5    1    4    4    0  502 -0.53321735262E+02 -0.52635420897E+02  0.60368927717E+02  0.96333755341E+02  0.47000000000E+01 0. -1.
          5    1    5    5  503    0  0.90785896507E+02  0.81347800134E+01  0.15647442474E+03  0.18114797611E+03  0.47000000000E+01 0. -1.
         -5    1    5    5    0  503 -0.38790999533E+02  0.96616378156E+01  0.33894907324E+02  0.52621703056E+02  0.47000000000E+01 0. -1.
<mgrwt>
<rscale>  0 0.27291099E+03</rscale>
<asrwt>0</asrwt>
<pdfrwt beam="1">  1        1 0.64090845E-02 0.27291099E+03</pdfrwt>
<pdfrwt beam="2">  1       -1 0.68763716E-01 0.27291099E+03</pdfrwt>
<totfact> 0.26136764E+03</totfact>
</mgrwt>
</event>
<event>
 9    1  0.8175317E-001  0.2754879E+03  0.7818608E-02  0.1098179E+00
         -1   -1    0    0    0  501 -0.00000000000E+00  0.00000000000E+00  0.24097694244E+03  0.24097694244E+03  0.00000000000E+00 0. -1.
          1   -1    0    0  501    0  0.00000000000E+00 -0.00000000000E+00 -0.78735291610E+02  0.78735291610E+02  0.00000000000E+00 0. -1.
         35    2    1    2    0    0  0.35527136788E-14 -0.35527136788E-14  0.16224165083E+03  0.31971223405E+03  0.27548785697E+03 0.  0.
         25    2    3    3    0    0 -0.14799647283E+02 -0.29852916060E+02  0.13041266456E+03  0.18353539942E+03  0.12477000283E+03 0.  0.
         25    2    3    3    0    0  0.14799647283E+02  0.29852916060E+02  0.31828986266E+02  0.13617683463E+03  0.12814374649E+03 0.  0.
          5    1    4    4  502    0  0.25759940410E+02 -0.53936693681E+02  0.19715799660E+02  0.63115324695E+02  0.47000000000E+01 0. -1.
         -5    1    4    4    0  502 -0.40559587693E+02  0.24083777621E+02  0.11069686490E+03  0.12042007473E+03  0.47000000000E+01 0. -1.
          5    1    5    5  503    0  0.66906247357E+02  0.68130210778E+01 -0.59130916597E+01  0.67675090281E+02  0.47000000000E+01 0.  1.
         -5    1    5    5    0  503 -0.52106600074E+02  0.23039894982E+02  0.37742077926E+02  0.68501744344E+02  0.47000000000E+01 0.  1.
<mgrwt>
<rscale>  0 0.27548786E+03</rscale>
<asrwt>0</asrwt>
<pdfrwt beam="1">  1        1 0.12113122E-01 0.27548786E+03</pdfrwt>
<pdfrwt beam="2">  1       -1 0.37073375E-01 0.27548786E+03</pdfrwt>
<totfact> 0.34851802E+03</totfact>
</mgrwt>
</event>
<event>
 9    1  0.8175317E-001  0.2730969E+03  0.7818608E-02  0.1099520E+00
         -2   -1    0    0    0  501 -0.00000000000E+00  0.00000000000E+00  0.26456591095E+02  0.26456591095E+02  0.00000000000E+00 0.  1.
          2   -1    0    0  501    0  0.00000000000E+00 -0.00000000000E+00 -0.70475735173E+03  0.70475735173E+03  0.00000000000E+00 0.  1.
         35    2    1    2    0    0 -0.35527136788E-14  0.00000000000E+00 -0.67830076063E+03  0.73121394282E+03  0.27309688446E+03 0.  0.
         25    2    3    3    0    0 -0.23536845700E+02 -0.70470314512E+01 -0.20777454918E+03  0.24373218465E+03  0.12502588048E+03 0.  0.
         25    2    3    3    0    0  0.23536845700E+02  0.70470314512E+01 -0.47052621146E+03  0.48748175818E+03  0.12505960631E+03 0.  0.
          5    1    4    4  502    0 -0.72700661554E+02  0.12691642449E+02 -0.11279683314E+03  0.13487653445E+03  0.47000000000E+01 0. -1.
         -5    1    4    4    0  502  0.49163815854E+02 -0.19738673900E+02 -0.94977716032E+02  0.10885565020E+03  0.47000000000E+01 0. -1.
          5    1    5    5  503    0  0.76141690644E+01 -0.31859681453E+02 -0.29200981084E+02  0.44133911781E+02  0.47000000000E+01 0.  1.
         -5    1    5    5    0  503  0.15922676635E+02  0.38906712904E+02 -0.44132523037E+03  0.44334784640E+03  0.47000000000E+01 0.  1.
<mgrwt>
<rscale>  0 0.27309688E+03</rscale>
<asrwt>0</asrwt>
<pdfrwt beam="1">  1        2 0.10842421E+00 0.27309688E+03</pdfrwt>
<pdfrwt beam="2">  1       -2 0.40702448E-02 0.27309688E+03</pdfrwt>
<totfact> 0.11086539E+04</totfact>
</mgrwt>
</event>
<event>
 9    1  0.8175317E-001  0.2718388E+03  0.7818608E-02  0.1100232E+00
         -2   -1    0    0    0  501 -0.00000000000E+00  0.00000000000E+00  0.11227232320E+02  0.11227232320E+02  0.00000000000E+00 0.  1.
          2   -1    0    0  501    0  0.00000000000E+00 -0.00000000000E+00 -0.16454703318E+04  0.16454703318E+04  0.00000000000E+00 0.  1.
         35    2    1    2    0    0  0.17763568394E-14 -0.71054273576E-14 -0.16342430994E+04  0.16566975641E+04  0.27183875875E+03 0.  0.
         25    2    3    3    0    0 -0.15525307645E+02 -0.45173139526E+02 -0.93605959561E+03  0.94559721002E+03  0.12515937577E+03 0.  0.
         25    2    3    3    0    0  0.15525307645E+02  0.45173139526E+02 -0.69818350382E+03  0.71110035406E+03  0.12618185613E+03 0.  0.
          5    1    4    4  502    0 -0.24429220227E+02 -0.58206201557E+02 -0.20957183053E+03  0.21892279656E+03  0.47000000000E+01 0. -1.
         -5    1    4    4    0  502  0.89039125824E+01  0.13033062031E+02 -0.72648776508E+03  0.72667441346E+03  0.47000000000E+01 0. -1.
          5    1    5    5  503    0 -0.46359864969E+02  0.53169935663E+02 -0.42509978559E+03  0.43093873909E+03  0.47000000000E+01 0.  1.
         -5    1    5    5    0  503  0.61885172614E+02 -0.79967961368E+01 -0.27308371823E+03  0.28016161497E+03  0.47000000000E+01 0.  1.
<mgrwt>
<rscale>  0 0.27183876E+03</rscale>
<asrwt>0</asrwt>
<pdfrwt beam="1">  1        2 0.25314933E+00 0.27183876E+03</pdfrwt>
<pdfrwt beam="2">  1       -2 0.17272662E-02 0.27183876E+03</pdfrwt>
<totfact> 0.10947461E+04</totfact>
</mgrwt>
</event>
<event>
 9    1  0.8175317E-001  0.2727735E+03  0.7818608E-02  0.1099703E+00
          1   -1    0    0  501    0  0.00000000000E+00  0.00000000000E+00  0.16428675009E+04  0.16428675009E+04  0.00000000000E+00 0. -1.
         -1   -1    0    0    0  501 -0.00000000000E+00 -0.00000000000E+00 -0.11322487599E+02  0.11322487599E+02  0.00000000000E+00 0. -1.
         35    2    1    2    0    0  0.00000000000E+00  0.35527136788E-14  0.16315450133E+04  0.16541899885E+04  0.27277350975E+03 0.  0.
         25    2    3    3    0    0  0.35409343407E+02  0.87033205471E+01  0.10526303499E+04  0.10607889345E+04  0.12614650452E+03 0.  0.
         25    2    3    3    0    0 -0.35409343407E+02 -0.87033205471E+01  0.57891466343E+03  0.59340105404E+03  0.12511216574E+03 0.  0.
          5    1    4    4  502    0 -0.21765879935E+02  0.10415114729E+02  0.43018314250E+02  0.49546881890E+02  0.47000000000E+01 0. -1.
         -5    1    4    4    0  502  0.57175223342E+02 -0.17117941817E+01  0.10096120356E+04  0.10112420526E+04  0.47000000000E+01 0. -1.
          5    1    5    5  503    0 -0.12436271832E+02 -0.20640054420E+02  0.56107354650E+03  0.56161044086E+03  0.47000000000E+01 0.  1.
         -5    1    5    5    0  503 -0.22973071575E+02  0.11936733873E+02  0.17841116929E+02  0.31790613181E+02  0.47000000000E+01 0.  1.
<mgrwt>
<rscale>  0 0.27277351E+03</rscale>
<asrwt>0</asrwt>
<pdfrwt beam="1">  1        1 0.25274866E+00 0.27277351E+03</pdfrwt>
<pdfrwt beam="2">  1       -1 0.17419225E-02 0.27277351E+03</pdfrwt>
<totfact> 0.48349583E+03</totfact>
</mgrwt>
</event>
<event>
 9    1  0.8175317E-001  0.2764237E+03  0.7818608E-02  0.1097658E+00
          1   -1    0    0  501    0  0.00000000000E+00  0.00000000000E+00  0.91644777283E+03  0.91644777283E+03  0.00000000000E+00 0. -1.
         -1   -1    0    0    0  501 -0.00000000000E+00 -0.00000000000E+00 -0.20844092576E+02  0.20844092576E+02  0.00000000000E+00 0. -1.
         35    2    1    2    0    0 -0.71054273576E-14  0.00000000000E+00  0.89560368025E+03  0.93729186540E+03  0.27642374874E+03 0.  0.
         25    2    3    3    0    0  0.21305305755E+02 -0.59664937340E+02  0.49191929242E+03  0.51013187973E+03  0.11931522812E+03 0.  0.
         25    2    3    3    0    0 -0.21305305755E+02  0.59664937340E+02  0.40368438784E+03  0.42715998568E+03  0.12446183182E+03 0.  0.
          5    1    4    4  502    0 -0.28830960684E+02  0.21895729672E+02  0.18594441374E+03  0.18949422755E+03  0.47000000000E+01 0. -1.
         -5    1    4    4    0  502  0.50136266439E+02 -0.81560667012E+02  0.30597487867E+03  0.32063765218E+03  0.47000000000E+01 0. -1.
          5    1    5    5  503    0 -0.94739028492E+01  0.98211351515E+02  0.29816701670E+03  0.31410330188E+03  0.47000000000E+01 0. -1.
         -5    1    5    5    0  503 -0.11831402906E+02 -0.38546414175E+02  0.10551737113E+03  0.11305668380E+03  0.47000000000E+01 0. -1.
<mgrwt>
<rscale>  0 0.27642375E+03</rscale>
<asrwt>0</asrwt>
<pdfrwt beam="1">  1        1 0.14099193E+00 0.27642375E+03</pdfrwt>
<pdfrwt beam="2">  1       -1 0.32067842E-02 0.27642375E+03</pdfrwt>
<totfact> 0.63281971E+03</totfact>
</mgrwt>
</event>
<event>
 9    1  0.8175317E-001  0.2809341E+03  0.7818608E-02  0.1095180E+00
         -2   -1    0    0    0  501 -0.00000000000E+00  0.00000000000E+00  0.64546034147E+03  0.64546034147E+03  0.00000000000E+00 0.  1.
          2   -1    0    0  501    0  0.00000000000E+00 -0.00000000000E+00 -0.30568874922E+02  0.30568874922E+02  0.00000000000E+00 0.  1.
         35    2    1    2    0    0 -0.35527136788E-14  0.14210854715E-13  0.61489146655E+03  0.67602921639E+03  0.28093413068E+03 0.  0.
         25    2    3    3    0    0 -0.31109337792E+02  0.42171601351E+02  0.39636886020E+03  0.41901946795E+03  0.12539061498E+03 0.  0.
         25    2    3    3    0    0  0.31109337792E+02 -0.42171601351E+02  0.21852260634E+03  0.25700974844E+03  0.12472227729E+03 0.  0.
          5    1    4    4  502    0  0.21434033797E+02  0.44209429662E+01  0.31098138058E+03  0.31178593876E+03  0.47000000000E+01 0.  1.
         -5    1    4    4    0  502 -0.52543371589E+02  0.37750658385E+02  0.85387479629E+02  0.10723352920E+03  0.47000000000E+01 0.  1.
          5    1    5    5  503    0 -0.20144455112E+02  0.13705346347E+02 -0.87764448069E+00  0.24829334467E+02  0.47000000000E+01 0.  1.
         -5    1    5    5    0  503  0.51253792904E+02 -0.55876947698E+02  0.21940025083E+03  0.23218041397E+03  0.47000000000E+01 0.  1.
<mgrwt>
<rscale>  0 0.28093413E+03</rscale>
<asrwt>0</asrwt>
<pdfrwt beam="1">  1        2 0.47029043E-02 0.28093413E+03</pdfrwt>
<pdfrwt beam="2">  1       -2 0.99301580E-01 0.28093413E+03</pdfrwt>
<totfact> 0.14870063E+03</totfact>
</mgrwt>
</event>
<event>
 9    1  0.8175317E-001  0.2728444E+03  0.7818608E-02  0.1099663E+00
         -2   -1    0    0    0  501 -0.00000000000E+00  0.00000000000E+00  0.10480351808E+03  0.10480351808E+03  0.00000000000E+00 0. -1.
          2   -1    0    0  501    0  0.00000000000E+00 -0.00000000000E+00 -0.17758012193E+03  0.17758012193E+03  0.00000000000E+00 0. -1.
         35    2    1    2    0    0  0.00000000000E+00  0.00000000000E+00 -0.72776603854E+02  0.28238364001E+03  0.27284443567E+03 0.  0.
         25    2    3    3    0    0 -0.32749662399E+02  0.35975896955E+02  0.12839173251E+01  0.12894852246E+03  0.11941217464E+03 0.  0.
         25    2    3    3    0    0  0.32749662399E+02 -0.35975896955E+02 -0.74060521179E+02  0.15343511755E+03  0.12526200123E+03 0.  0.
          5    1    4    4  502    0  0.96045623447E+01  0.66594710042E+02  0.24242599873E+02  0.71672147114E+02  0.47000000000E+01 0. -1.
         -5    1    4    4    0  502 -0.42354224743E+02 -0.30618813087E+02 -0.22958682548E+02  0.57276375346E+02  0.47000000000E+01 0. -1.
          5    1    5    5  503    0  0.25042581552E+02 -0.77478570292E+02 -0.18732116803E+02  0.83684179779E+02  0.47000000000E+01 0. -1.
         -5    1    5    5    0  503  0.77070808464E+01  0.41502673337E+02 -0.55328404376E+02  0.69750937772E+02  0.47000000000E+01 0. -1.
<mgrwt>
<rscale>  0 0.27284444E+03</rscale>
<asrwt>0</asrwt>
<pdfrwt beam="1">  1        2 0.27320019E-01 0.27284444E+03</pdfrwt>
<pdfrwt beam="2">  1       -2 0.16123618E-01 0.27284444E+03</pdfrwt>
<totfact> 0.58584989E+03</totfact>
</mgrwt>
</event>
<event>
 9    1  0.8175317E-001  0.2761029E+03  0.7818608E-02  0.1097837E+00
          2   -1    0    0  501    0  0.00000000000E+00  0.00000000000E+00  0.29247761815E+03  0.29247761815E+03  0.00000000000E+00 0. -1.
         -2   -1    0    0    0  501 -0.00000000000E+00 -0.00000000000E+00 -0.65161215180E+02  0.65161215180E+02  0.00000000000E+00 0. -1.
         35    2    1    2    0    0  0.71054273576E-14  0.00000000000E+00  0.22731640297E+03  0.35763883333E+03  0.27610285773E+03 0.  0.
         25    2    3    3    0    0 -0.56265022441E+02  0.16532294053E+01  0.83594660440E+02  0.16052474062E+03  0.12494654528E+03 0.  0.
         25    2    3    3    0    0  0.56265022441E+02 -0.16532294053E+01  0.14372174253E+03  0.19711409271E+03  0.12259502581E+03 0.  0.
          5    1    4    4  502    0 -0.48792548998E+02  0.55451102812E+02  0.74937137797E+02  0.10532427195E+03  0.47000000000E+01 0. -1.
         -5    1    4    4    0  502 -0.74724734430E+01 -0.53797873407E+02  0.86575226433E+01  0.55200468665E+02  0.47000000000E+01 0. -1.
          5    1    5    5  503    0  0.41081639406E+02 -0.19953238213E+02 -0.52245693250E+01  0.46208429275E+02  0.47000000000E+01 0. -1.
         -5    1    5    5    0  503  0.15183383035E+02  0.18300008808E+02  0.14894631185E+03  0.15090566343E+03  0.47000000000E+01 0. -1.
<mgrwt>
<rscale>  0 0.27610286E+03</rscale>
<asrwt>0</asrwt>
<pdfrwt beam="1">  1        2 0.44996556E-01 0.27610286E+03</pdfrwt>
<pdfrwt beam="2">  1       -2 0.10024802E-01 0.27610286E+03</pdfrwt>
<totfact> 0.73752169E+03</totfact>
</mgrwt>
</event>
<event>
 9    1  0.8175317E-001  0.2735244E+03  0.7818608E-02  0.1099279E+00
          1   -1    0    0  501    0  0.00000000000E+00  0.00000000000E+00  0.55631505935E+02  0.55631505935E+02  0.00000000000E+00 0. -1.
         -1   -1    0    0    0  501 -0.00000000000E+00 -0.00000000000E+00 -0.33621057117E+03  0.33621057117E+03  0.00000000000E+00 0. -1.
         35    2    1    2    0    0  0.00000000000E+00  0.00000000000E+00 -0.28057906524E+03  0.39184207711E+03  0.27352440758E+03 0.  0.
         25    2    3    3    0    0  0.36445450460E+02  0.51819344294E+01 -0.20717608243E+03  0.24449396032E+03  0.12449997670E+03 0.  0.
         25    2    3    3    0    0 -0.36445450460E+02 -0.51819344294E+01 -0.73402982809E+02  0.14734811679E+03  0.12234519334E+03 0.  0.
          5    1    4    4  502    0 -0.39146070631E+02  0.73285365876E+01 -0.13121058204E+03  0.13720214697E+03  0.47000000000E+01 0.  1.
         -5    1    4    4    0  502  0.75591521091E+02 -0.21466021582E+01 -0.75965500390E+02  0.10729181335E+03  0.47000000000E+01 0.  1.
          5    1    5    5  503    0 -0.19604260824E+02  0.13843417762E+02 -0.10426645620E+03  0.10709599034E+03  0.47000000000E+01 0.  1.
         -5    1    5    5    0  503 -0.16841189635E+02 -0.19025352192E+02  0.30863473391E+02  0.40252126455E+02  0.47000000000E+01 0.  1.
<mgrwt>
<rscale>  0 0.27352441E+03</rscale>
<asrwt>0</asrwt>
<pdfrwt beam="1">  1        1 0.85586933E-02 0.27352441E+03</pdfrwt>
<pdfrwt beam="2">  1       -1 0.51724703E-01 0.27352441E+03</pdfrwt>
<totfact> 0.30453806E+03</totfact>
</mgrwt>
</event>
<event>
 9    1  0.8175317E-001  0.2779500E+03  0.7818608E-02  0.1096814E+00
         -1   -1    0    0    0  501 -0.00000000000E+00  0.00000000000E+00  0.84301125261E+02  0.84301125261E+02  0.00000000000E+00 0.  1.
          1   -1    0    0  501    0  0.00000000000E+00 -0.00000000000E+00 -0.22910782354E+03  0.22910782354E+03  0.00000000000E+00 0.  1.
         35    2    1    2    0    0 -0.35527136788E-14  0.14210854715E-13 -0.14480669828E+03  0.31340894880E+03  0.27794997629E+03 0.  0.
         25    2    3    3    0    0  0.95404682282E+01 -0.48041679396E+02 -0.11678064583E+03  0.17661094471E+03  0.12310435840E+03 0.  0.
         25    2    3    3    0    0 -0.95404682282E+01  0.48041679396E+02 -0.28026052444E+02  0.13679800409E+03  0.12461625421E+03 0.  0.
          5    1    4    4  502    0 -0.38916022294E+02  0.20241401425E+02 -0.63269279678E+02  0.77131464875E+02  0.47000000000E+01 0. -1.
         -5    1    4    4    0  502  0.48456490522E+02 -0.68283080820E+02 -0.53511366156E+02  0.99479479834E+02  0.47000000000E+01 0. -1.
          5    1    5    5  503    0 -0.72481989106E+00  0.85125617895E+02 -0.43107928943E+02  0.95536797747E+02  0.47000000000E+01 0.  1.
         -5    1    5    5    0  503 -0.88156483371E+01 -0.37083938500E+02  0.15081876499E+02  0.41261206344E+02  0.47000000000E+01 0.  1.
<mgrwt>
<rscale>  0 0.27794998E+03</rscale>
<asrwt>0</asrwt>
<pdfrwt beam="1">  1        1 0.35247358E-01 0.27794998E+03</pdfrwt>
<pdfrwt beam="2">  1       -1 0.12969404E-01 0.27794998E+03</pdfrwt>
<totfact> 0.49680385E+03</totfact>
</mgrwt>
</event>
<event>
 9    1  0.8175317E-001  0.2683245E+03  0.7818608E-02  0.1102242E+00
          2   -1    0    0  501    0  0.00000000000E+00  0.00000000000E+00  0.22507221739E+03  0.22507221739E+03  0.00000000000E+00 0.  1.
         -2   -1    0    0    0  501 -0.00000000000E+00 -0.00000000000E+00 -0.79972126993E+02  0.79972126993E+02  0.00000000000E+00 0.  1.
         35    2    1    2    0    0 -0.35527136788E-14  0.17763568394E-14  0.14510009039E+03  0.30504434438E+03  0.26832445995E+03 0.  0.
         25    2    3    3    0    0  0.30496111880E+02  0.14828623475E+02  0.32774036017E+02  0.13365853256E+03  0.12506224440E+03 0.  0.
         25    2    3    3    0    0 -0.30496111880E+02 -0.14828623475E+02  0.11232605437E+03  0.17138581182E+03  0.12492418936E+03 0.  0.
          5    1    4    4  502    0  0.35041076619E+02 -0.47916335967E+02 -0.56141349492E+01  0.59811878538E+02  0.47000000000E+01 0. -1.
         -5    1    4    4    0  502 -0.45449647384E+01  0.62744959442E+02  0.38388170966E+02  0.73846654020E+02  0.47000000000E+01 0. -1.
          5    1    5    5  503    0 -0.77868753054E+02 -0.11875237776E+01  0.54060814640E+02  0.94918989641E+02  0.47000000000E+01 0.  1.
         -5    1    5    5    0  503  0.47372641174E+02 -0.13641099698E+02  0.58265239735E+02  0.76466822179E+02  0.47000000000E+01 0.  1.
<mgrwt>
<rscale>  0 0.26832446E+03</rscale>
<asrwt>0</asrwt>
<pdfrwt beam="1">  1        2 0.34626495E-01 0.26832446E+03</pdfrwt>
<pdfrwt beam="2">  1       -2 0.12303404E-01 0.26832446E+03</pdfrwt>
<totfact> 0.70383824E+03</totfact>
</mgrwt>
</event>
<event>
 9    1  0.8175317E-001  0.2700878E+03  0.7818608E-02  0.1101229E+00
          2   -1    0    0  501    0  0.00000000000E+00  0.00000000000E+00  0.38569685909E+04  0.38569685909E+04  0.00000000000E+00 0.  1.
         -2   -1    0    0    0  501 -0.00000000000E+00 -0.00000000000E+00 -0.47282874182E+01  0.47282874182E+01  0.00000000000E+00 0.  1.
         35    2    1    2    0    0  0.00000000000E+00  0.00000000000E+00  0.38522403034E+04  0.38616968783E+04  0.27008780839E+03 0.  0.
         25    2    3    3    0    0  0.34120948007E+02  0.32927166298E+02  0.16293433814E+04  0.16348293982E+04  0.12513540392E+03 0.  0.
         25    2    3    3    0    0 -0.34120948007E+02 -0.32927166298E+02  0.22228969220E+04  0.22268674800E+04  0.12417572412E+03 0.  0.
          5    1    4    4  502    0 -0.40904092743E+02  0.28303694455E+02  0.95233032296E+03  0.95364006729E+03  0.47000000000E+01 0.  1.
         -5    1    4    4    0  502  0.75025040749E+02  0.46234718427E+01  0.67701305848E+03  0.68118933094E+03  0.47000000000E+01 0.  1.
          5    1    5    5  503    0  0.37532442131E+02 -0.42146529279E+02  0.12490972197E+04  0.12503803295E+04  0.47000000000E+01 0. -1.
         -5    1    5    5    0  503 -0.71653390138E+02  0.92193629818E+01  0.97379970234E+03  0.97648715058E+03  0.47000000000E+01 0. -1.
<mgrwt>
<rscale>  0 0.27008781E+03</rscale>
<asrwt>0</asrwt>
<pdfrwt beam="1">  1        2 0.59337727E+00 0.27008781E+03</pdfrwt>
<pdfrwt beam="2">  1       -2 0.72743192E-03 0.27008781E+03</pdfrwt>
<totfact> 0.19379278E+03</totfact>
</mgrwt>
</event>
<event>
 9    1  0.8175317E-001  0.2732716E+03  0.7818608E-02  0.1099422E+00
         -1   -1    0    0    0  501 -0.00000000000E+00  0.00000000000E+00  0.32491783868E+02  0.32491783868E+02  0.00000000000E+00 0. -1.
          1   -1    0    0  501    0  0.00000000000E+00 -0.00000000000E+00 -0.57458669744E+03  0.57458669744E+03  0.00000000000E+00 0. -1.
         35    2    1    2    0    0 -0.14210854715E-13  0.00000000000E+00 -0.54209491358E+03  0.60707848131E+03  0.27327163619E+03 0.  0.
         25    2    3    3    0    0  0.49011107082E+02 -0.55347035110E+01 -0.22475390357E+03  0.26205648471E+03  0.12540559178E+03 0.  0.
         25    2    3    3    0    0 -0.49011107082E+02  0.55347035110E+01 -0.31734101001E+03  0.34502199660E+03  0.12610368728E+03 0.  0.
          5    1    4    4  502    0  0.38842833525E+02  0.57061075348E+02 -0.94619976172E+02  0.11721673058E+03  0.47000000000E+01 0.  1.
         -5    1    4    4    0  502  0.10168273557E+02 -0.62595778859E+02 -0.13013392740E+03  0.14483975414E+03  0.47000000000E+01 0.  1.
          5    1    5    5  503    0 -0.12447719676E+02  0.44081359236E+02 -0.26939834756E+03  0.27330508891E+03  0.47000000000E+01 0.  1.
         -5    1    5    5    0  503 -0.36563387406E+02 -0.38546655725E+02 -0.47942662451E+02  0.71716907693E+02  0.47000000000E+01 0.  1.
<mgrwt>
<rscale>  0 0.27327164E+03</rscale>
<asrwt>0</asrwt>
<pdfrwt beam="1">  1        1 0.88397956E-01 0.27327164E+03</pdfrwt>
<pdfrwt beam="2">  1       -1 0.49987358E-02 0.27327164E+03</pdfrwt>
<totfact> 0.65496606E+03</totfact>
</mgrwt>
</event>
<event>
 9    1  0.8175317E-001  0.2762312E+03  0.7818608E-02  0.1097765E+00
         -1   -1    0    0    0  501 -0.00000000000E+00  0.00000000000E+00  0.51914710160E+03  0.51914710160E+03  0.00000000000E+00 0.  1.
          1   -1    0    0  501    0  0.00000000000E+00 -0.00000000000E+00 -0.36744728049E+02  0.36744728049E+02  0.00000000000E+00 0.  1.
         35    2    1    2    0    0 -0.71054273576E-14  0.00000000000E+00  0.48240237355E+03  0.55589182965E+03  0.27623120074E+03 0.  0.
         25    2    3    3    0    0 -0.55711745455E+02  0.16518090571E+02  0.21325474593E+03  0.25375756744E+03  0.12465420359E+03 0.  0.
         25    2    3    3    0    0  0.55711745455E+02 -0.16518090571E+02  0.26914762763E+03  0.30213426222E+03  0.12437049912E+03 0.  0.
          5    1    4    4  502    0  0.15714856730E+02  0.22016835112E+02  0.16496942350E+03  0.16723844786E+03  0.47000000000E+01 0. -1.
         -5    1    4    4    0  502 -0.71426602185E+02 -0.54987445410E+01  0.48285322426E+02  0.86519119580E+02  0.47000000000E+01 0. -1.
          5    1    5    5  503    0  0.13363688819E+02  0.39482005399E+02  0.26798259220E+02  0.49776034659E+02  0.47000000000E+01 0.  1.
         -5    1    5    5    0  503  0.42348056636E+02 -0.56000095970E+02  0.24234936840E+03  0.25235822756E+03  0.47000000000E+01 0.  1.
<mgrwt>
<rscale>  0 0.27623120E+03</rscale>
<asrwt>0</asrwt>
<pdfrwt beam="1">  1        1 0.56530354E-02 0.27623120E+03</pdfrwt>
<pdfrwt beam="2">  1       -1 0.79868780E-01 0.27623120E+03</pdfrwt>
<totfact> 0.22932296E+03</totfact>
</mgrwt>
</event>
<event>
 9    1  0.8175317E-001  0.2730989E+03  0.7818608E-02  0.1099519E+00
          2   -1    0    0  501    0  0.00000000000E+00  0.00000000000E+00  0.92053582720E+02  0.92053582720E+02  0.00000000000E+00 0.  1.
         -2   -1    0    0    0  501 -0.00000000000E+00 -0.00000000000E+00 -0.20255317812E+03  0.20255317812E+03  0.00000000000E+00 0.  1.
         35    2    1    2    0    0  0.35527136788E-14  0.71054273576E-14 -0.11049959540E+03  0.29460676084E+03  0.27309885197E+03 0.  0.
         25    2    3    3    0    0 -0.12382260146E+02 -0.43626893513E+02 -0.94057728584E+02  0.16289747462E+03  0.12502841568E+03 0.  0.
         25    2    3    3    0    0  0.12382260146E+02  0.43626893513E+02 -0.16441866815E+02  0.13170928622E+03  0.12255763905E+03 0.  0.
          5    1    4    4  502    0 -0.19910492900E+02 -0.86050277916E+02 -0.73139770968E+02  0.11477192233E+03  0.47000000000E+01 0. -1.
         -5    1    4    4    0  502  0.75282327542E+01  0.42423384403E+02 -0.20917957616E+02  0.48125552292E+02  0.47000000000E+01 0. -1.
          5    1    5    5  503    0 -0.35421231870E+02  0.60564199088E+02 -0.33639939652E+02  0.77951404209E+02  0.47000000000E+01 0.  1.
         -5    1    5    5    0  503  0.47803492017E+02 -0.16937305575E+02  0.17198072838E+02  0.53757882012E+02  0.47000000000E+01 0.  1.
<mgrwt>
<rscale>  0 0.27309885E+03</rscale>
<asrwt>0</asrwt>
<pdfrwt beam="1">  1        2 0.14162090E-01 0.27309885E+03</pdfrwt>
<pdfrwt beam="2">  1       -2 0.31162027E-01 0.27309885E+03</pdfrwt>
<totfact> 0.39591548E+03</totfact>
</mgrwt>
</event>
<event>
 9    1  0.8175317E-001  0.2770049E+03  0.7818608E-02  0.1097336E+00
          2   -1    0    0  501    0  0.00000000000E+00  0.00000000000E+00  0.18598548132E+04  0.18598548132E+04  0.00000000000E+00 0. -1.
         -2   -1    0    0    0  501 -0.00000000000E+00 -0.00000000000E+00 -0.10314204144E+02  0.10314204144E+02  0.00000000000E+00 0. -1.
         35    2    1    2    0    0  0.00000000000E+00  0.00000000000E+00  0.18495406090E+04  0.18701690173E+04  0.27700485354E+03 0.  0.
         25    2    3    3    0    0  0.17856105017E+02 -0.21305404778E+02  0.12813811124E+04  0.12876777888E+04  0.12411193256E+03 0.  0.
         25    2    3    3    0    0 -0.17856105017E+02  0.21305404778E+02  0.56815949666E+03  0.58249122854E+03  0.12537167513E+03 0.  0.
          5    1    4    4  502    0  0.16234231152E+02  0.30027171602E+02  0.10522656378E+04  0.10528296366E+04  0.47000000000E+01 0. -1.
         -5    1    4    4    0  502  0.16218738650E+01 -0.51332576380E+02  0.22911547456E+03  0.23484815212E+03  0.47000000000E+01 0. -1.
          5    1    5    5  503    0  0.10904848415E+02  0.26668668991E+02  0.54252520449E+03  0.54331005985E+03  0.47000000000E+01 0. -1.
         -5    1    5    5    0  503 -0.28760953432E+02 -0.53632642126E+01  0.25634292171E+02  0.39181168696E+02  0.47000000000E+01 0. -1.
<mgrwt>
<rscale>  0 0.27700485E+03</rscale>
<asrwt>0</asrwt>
<pdfrwt beam="1">  1        2 0.28613124E+00 0.27700485E+03</pdfrwt>
<pdfrwt beam="2">  1       -2 0.15868021E-02 0.27700485E+03</pdfrwt>
<totfact> 0.95649242E+03</totfact>
</mgrwt>
</event>
<event>
 9    1  0.8175317E-001  0.2731498E+03  0.7818608E-02  0.1099490E+00
         -2   -1    0    0    0  501 -0.00000000000E+00  0.00000000000E+00  0.59472728830E+02  0.59472728830E+02  0.00000000000E+00 0. -1.
          2   -1    0    0  501    0  0.00000000000E+00 -0.00000000000E+00 -0.31363449889E+03  0.31363449889E+03  0.00000000000E+00 0. -1.
         35    2    1    2    0    0  0.00000000000E+00 -0.17763568394E-14 -0.25416177006E+03  0.37310722772E+03  0.27314977213E+03 0.  0.
         25    2    3    3    0    0  0.10066695028E+01 -0.70527419772E+01 -0.20250269001E+03  0.23744878817E+03  0.12378947042E+03 0.  0.
         25    2    3    3    0    0 -0.10066695028E+01  0.70527419772E+01 -0.51659080045E+02  0.13565843955E+03  0.12523496763E+03 0.  0.
          5    1    4    4  502    0  0.60633313644E+02 -0.15209020043E+02 -0.11773039313E+03  0.13338009027E+03  0.47000000000E+01 0. -1.
         -5    1    4    4    0  502 -0.59626644141E+02  0.81562780656E+01 -0.84772296889E+02  0.10406869790E+03  0.47000000000E+01 0. -1.
          5    1    5    5  503    0  0.42588499848E+02 -0.11830248864E+02 -0.71311593260E+02  0.84030758897E+02  0.47000000000E+01 0.  1.
         -5    1    5    5    0  503 -0.43595169351E+02  0.18882990841E+02  0.19652513215E+02  0.51627680652E+02  0.47000000000E+01 0.  1.
<mgrwt>
<rscale>  0 0.27314977E+03</rscale>
<asrwt>0</asrwt>
<pdfrwt beam="1">  1        2 0.48251461E-01 0.27314977E+03</pdfrwt>
<pdfrwt beam="2">  1       -2 0.91496506E-02 0.27314977E+03</pdfrwt>
<totfact> 0.79033377E+03</totfact>
</mgrwt>
</event>
<event>
 9    1  0.8175317E-001  0.2765474E+03  0.7818608E-02  0.1097590E+00
         -1   -1    0    0    0  501 -0.00000000000E+00  0.00000000000E+00  0.99957294523E+01  0.99957294523E+01  0.00000000000E+00 0. -1.
          1   -1    0    0  501    0  0.00000000000E+00 -0.00000000000E+00 -0.19127781823E+04  0.19127781823E+04  0.00000000000E+00 0. -1.
         35    2    1    2    0    0  0.00000000000E+00  0.71054273576E-14 -0.19027824528E+04  0.19227739117E+04  0.27654737903E+03 0.  0.
         25    2    3    3    0    0  0.45380093414E+02  0.30819771967E+02 -0.11112905922E+04  0.11196398441E+04  0.12496955195E+03 0.  0.
         25    2    3    3    0    0 -0.45380093414E+02 -0.30819771967E+02 -0.79149186060E+03  0.80313406762E+03  0.12472270829E+03 0.  0.
          5    1    4    4  502    0  0.49910601885E+02 -0.33575179423E+02 -0.31523260781E+03  0.32095490007E+03  0.47000000000E+01 0.  1.
         -5    1    4    4    0  502 -0.45305084713E+01  0.64394951390E+02 -0.79605798443E+03  0.79868494404E+03  0.47000000000E+01 0.  1.
          5    1    5    5  503    0  0.28863349719E+02 -0.15445851473E+02 -0.52461791380E+03  0.52565931245E+03  0.47000000000E+01 0.  1.
         -5    1    5    5    0  503 -0.74243443133E+02 -0.15373920494E+02 -0.26687394680E+03  0.27747475517E+03  0.47000000000E+01 0.  1.
<mgrwt>
<rscale>  0 0.27654738E+03</rscale>
<asrwt>0</asrwt>
<pdfrwt beam="1">  1        1 0.29427337E+00 0.27654738E+03</pdfrwt>
<pdfrwt beam="2">  1       -1 0.15378055E-02 0.27654738E+03</pdfrwt>
<totfact> 0.38689639E+03</totfact>
</mgrwt>
</event>
<event>
 9    1  0.8175317E-001  0.2755658E+03  0.7818608E-02  0.1098136E+00
          2   -1    0    0  501    0  0.00000000000E+00  0.00000000000E+00  0.12799343991E+03  0.12799343991E+03  0.00000000000E+00 0. -1.
         -2   -1    0    0    0  501 -0.00000000000E+00 -0.00000000000E+00 -0.14832111777E+03  0.14832111777E+03  0.00000000000E+00 0. -1.
         35    2    1    2    0    0  0.35527136788E-14 -0.71054273576E-14 -0.20327677853E+02  0.27631455768E+03  0.27556581845E+03 0.  0.
         25    2    3    3    0    0 -0.12979023851E+02 -0.49974364400E+02 -0.31308869977E+02  0.14059361244E+03  0.12696624104E+03 0.  0.
         25    2    3    3    0    0  0.12979023851E+02  0.49974364400E+02  0.10981192124E+02  0.13572094524E+03  0.12503478011E+03 0.  0.
          5    1    4    4  502    0 -0.50948039453E+02  0.15584600462E+02 -0.36113569770E+02  0.64535745267E+02  0.47000000000E+01 0.  1.
         -5    1    4    4    0  502  0.37969015602E+02 -0.65558964862E+02  0.48046997933E+01  0.76057867178E+02  0.47000000000E+01 0.  1.
          5    1    5    5  503    0 -0.26105262906E+02  0.34598723584E+02  0.57962677065E+02  0.72528052211E+02  0.47000000000E+01 0.  1.
         -5    1    5    5    0  503  0.39084286756E+02  0.15375640816E+02 -0.46981484941E+02  0.63192893026E+02  0.47000000000E+01 0.  1.
<mgrwt>
<rscale>  0 0.27556582E+03</rscale>
<asrwt>0</asrwt>
<pdfrwt beam="1">  1        2 0.19691298E-01 0.27556582E+03</pdfrwt>
<pdfrwt beam="2">  1       -2 0.22818633E-01 0.27556582E+03</pdfrwt>
<totfact> 0.46932960E+03</totfact>
</mgrwt>
</event>
<event>
 9    1  0.8175317E-001  0.2791551E+03  0.7818608E-02  0.1096151E+00
          2   -1    0    0  501    0  0.00000000000E+00  0.00000000000E+00  0.33512256054E+03  0.33512256054E+03  0.00000000000E+00 0.  1.
         -2   -1    0    0    0  501 -0.00000000000E+00 -0.00000000000E+00 -0.58133636012E+02  0.58133636012E+02  0.00000000000E+00 0.  1.
         35    2    1    2    0    0  0.00000000000E+00  0.31086244690E-14  0.27698892453E+03  0.39325619655E+03  0.27915510351E+03 0.  0.
         25    2    3    3    0    0  0.44425675181E+02 -0.11821097321E+01  0.74273784171E+02  0.15156344223E+03  0.12441802123E+03 0.  0.
         25    2    3    3    0    0 -0.44425675181E+02  0.11821097321E+01  0.20271514036E+03  0.24169275432E+03  0.12388269195E+03 0.  0.
          5    1    4    4  502    0  0.13937288983E+02 -0.45606692046E+02  0.83907753798E+02  0.96627219410E+02  0.47000000000E+01 0. -1.
         -5    1    4    4    0  502  0.30488386198E+02  0.44424582314E+02 -0.96339696266E+01  0.54936222818E+02  0.47000000000E+01 0. -1.
          5    1    5    5  503    0 -0.33896097243E+02  0.42358513519E+01  0.21889327697E+03  0.22159251916E+03  0.47000000000E+01 0. -1.
         -5    1    5    5    0  503 -0.10529577938E+02 -0.30537416198E+01 -0.16178136612E+02  0.20100235164E+02  0.47000000000E+01 0. -1.
<mgrwt>
<rscale>  0 0.27915510E+03</rscale>
<asrwt>0</asrwt>
<pdfrwt beam="1">  1        2 0.51557316E-01 0.27915510E+03</pdfrwt>
<pdfrwt beam="2">  1       -2 0.89436365E-02 0.27915510E+03</pdfrwt>
<totfact> 0.76344954E+03</totfact>
</mgrwt>
</event>
<event>
 9    1  0.8175317E-001  0.2754479E+03  0.7818608E-02  0.1098201E+00
          2   -1    0    0  501    0  0.00000000000E+00  0.00000000000E+00  0.82559664644E+03  0.82559664644E+03  0.00000000000E+00 0. -1.
         -2   -1    0    0    0  501 -0.00000000000E+00 -0.00000000000E+00 -0.22974770176E+02  0.22974770176E+02  0.00000000000E+00 0. -1.
         35    2    1    2    0    0  0.00000000000E+00  0.00000000000E+00  0.80262187626E+03  0.84857141662E+03  0.27544794942E+03 0.  0.
         25    2    3    3    0    0  0.34950272460E+02  0.39232925039E+02  0.46810531284E+03  0.48752249145E+03  0.12567757083E+03 0.  0.
         25    2    3    3    0    0 -0.34950272460E+02 -0.39232925039E+02  0.33451656343E+03  0.36104892517E+03  0.12527669857E+03 0.  0.
          5    1    4    4  502    0  0.77878582150E+02  0.32338914076E+01  0.31124672170E+03  0.32089272877E+03  0.47000000000E+01 0. -1.
         -5    1    4    4    0  502 -0.42928309690E+02  0.35999033631E+02  0.15685859114E+03  0.16662976268E+03  0.47000000000E+01 0. -1.
          5    1    5    5  503    0  0.86922657633E+01 -0.56271532501E+02  0.29222857346E+03  0.29776109551E+03  0.47000000000E+01 0. -1.
         -5    1    5    5    0  503 -0.43642538224E+02  0.17038607462E+02  0.42287989963E+02  0.63287829651E+02  0.47000000000E+01 0. -1.
<mgrwt>
<rscale>  0 0.27544795E+03</rscale>
<asrwt>0</asrwt>
<pdfrwt beam="1">  1        2 0.12701485E+00 0.27544795E+03</pdfrwt>
<pdfrwt beam="2">  1       -2 0.35345807E-02 0.27544795E+03</pdfrwt>
<totfact> 0.11244715E+04</totfact>
</mgrwt>
</event>
<event>
 9    1  0.8175317E-001  0.2771364E+03  0.7818608E-02  0.1097263E+00
          2   -1    0    0  501    0  0.00000000000E+00  0.00000000000E+00  0.31215111849E+04  0.31215111849E+04  0.00000000000E+00 0. -1.
         -2   -1    0    0    0  501 -0.00000000000E+00 -0.00000000000E+00 -0.61512328654E+01  0.61512328654E+01  0.00000000000E+00 0. -1.
         35    2    1    2    0    0  0.35527136788E-14  0.00000000000E+00  0.31153599521E+04  0.31276624178E+04  0.27713637214E+03 0.  0.
         25    2    3    3    0    0 -0.24446739508E+02  0.78997379552E+01  0.21908021414E+04  0.21943960269E+04  0.12288145094E+03 0.  0.
         25    2    3    3    0    0  0.24446739508E+02 -0.78997379552E+01  0.92455781067E+03  0.93326639095E+03  0.12457512699E+03 0.  0.
          5    1    4    4  502    0  0.40919089939E+02 -0.25568595673E+02  0.63125866068E+03  0.63311745489E+03  0.47000000000E+01 0.  1.
         -5    1    4    4    0  502 -0.65365829446E+02  0.33468333629E+02  0.15595434807E+04  0.15612785720E+04  0.47000000000E+01 0.  1.
          5    1    5    5  503    0  0.55767334202E+02 -0.78633542584E+01  0.19507711800E+03  0.20309849795E+03  0.47000000000E+01 0.  1.
         -5    1    5    5    0  503 -0.31320594694E+02 -0.36383696810E-01  0.72948069268E+03  0.73016789300E+03  0.47000000000E+01 0.  1.
<mgrwt>
<rscale>  0 0.27713637E+03</rscale>
<asrwt>0</asrwt>
<pdfrwt beam="1">  1        2 0.48023122E+00 0.27713637E+03</pdfrwt>
<pdfrwt beam="2">  1       -2 0.94634601E-03 0.27713637E+03</pdfrwt>
<totfact> 0.40684495E+03</totfact>
</mgrwt>
</event>
<event>
 9    1  0.8175317E-001  0.2730994E+03  0.7818608E-02  0.1099519E+00
         -1   -1    0    0    0  501 -0.00000000000E+00  0.00000000000E+00  0.32385889938E+02  0.32385889938E+02  0.00000000000E+00 0.  1.
          1   -1    0    0  501    0  0.00000000000E+00 -0.00000000000E+00 -0.57573889154E+03  0.57573889154E+03  0.00000000000E+00 0.  1.
         35    2    1    2    0    0  0.71054273576E-14 -0.35527136788E-14 -0.54335300160E+03  0.60812478147E+03  0.27309936927E+03 0.  0.
         25    2    3    3    0    0  0.32281842638E+02  0.21107348760E+02 -0.18604375837E+03  0.22739198396E+03  0.12492876691E+03 0.  0.
         25    2    3    3    0    0 -0.32281842638E+02 -0.21107348760E+02 -0.35730924323E+03  0.38073279752E+03  0.12569777355E+03 0.  0.
          5    1    4    4  502    0  0.37239749648E+02  0.63386194302E+02 -0.62404722097E+02  0.96545574326E+02  0.47000000000E+01 0.  1.
         -5    1    4    4    0  502 -0.49579070097E+01 -0.42278845542E+02 -0.12363903628E+03  0.13084640963E+03  0.47000000000E+01 0.  1.
          5    1    5    5  503    0  0.46874343012E+02 -0.31353588204E+00 -0.16701721063E+03  0.17353426458E+03  0.47000000000E+01 0.  1.
         -5    1    5    5    0  503 -0.79156185650E+02 -0.20793812878E+02 -0.19029203260E+03  0.20719853294E+03  0.47000000000E+01 0.  1.
<mgrwt>
<rscale>  0 0.27309937E+03</rscale>
<asrwt>0</asrwt>
<pdfrwt beam="1">  1        1 0.88575222E-01 0.27309937E+03</pdfrwt>
<pdfrwt beam="2">  1       -1 0.49824442E-02 0.27309937E+03</pdfrwt>
<totfact> 0.65635667E+03</totfact>
</mgrwt>
</event>
<event>
 9    1  0.8175317E-001  0.2759678E+03  0.7818608E-02  0.1097912E+00
         -2   -1    0    0    0  501 -0.00000000000E+00  0.00000000000E+00  0.18539786386E+02  0.18539786386E+02  0.00000000000E+00 0. -1.
          2   -1    0    0  501    0  0.00000000000E+00 -0.00000000000E+00 -0.10269568803E+04  0.10269568803E+04  0.00000000000E+00 0. -1.
         35    2    1    2    0    0 -0.71054273576E-14  0.88817841970E-14 -0.10084170939E+04  0.10454966667E+04  0.27596783282E+03 0.  0.
         25    2    3    3    0    0 -0.38865739345E+02 -0.13424095498E+02 -0.65331643779E+03  0.66660685123E+03  0.12590303488E+03 0.  0.
         25    2    3    3    0    0  0.38865739345E+02  0.13424095498E+02 -0.35510065613E+03  0.37888981545E+03  0.12557971268E+03 0.  0.
          5    1    4    4  502    0 -0.82905249145E+02 -0.90567260032E+00 -0.34379926686E+03  0.35368648048E+03  0.47000000000E+01 0.  1.
         -5    1    4    4    0  502  0.44039509800E+02 -0.12518422898E+02 -0.30951717092E+03  0.31292037075E+03  0.47000000000E+01 0.  1.
          5    1    5    5  503    0  0.20504824936E+02 -0.55634151896E+02 -0.18510834853E+03  0.19442941496E+03  0.47000000000E+01 0.  1.
         -5    1    5    5    0  503  0.18360914409E+02  0.69058247394E+02 -0.16999230759E+03  0.18446040050E+03  0.47000000000E+01 0.  1.
<mgrwt>
<rscale>  0 0.27596783E+03</rscale>
<asrwt>0</asrwt>
<pdfrwt beam="1">  1        2 0.15799334E+00 0.27596783E+03</pdfrwt>
<pdfrwt beam="2">  1       -2 0.28522753E-02 0.27596783E+03</pdfrwt>
<totfact> 0.11518610E+04</totfact>
</mgrwt>
</event>
<event>
 9    1  0.8175317E-001  0.2880175E+03  0.7818608E-02  0.1091389E+00
         -4   -1    0    0    0  501 -0.00000000000E+00  0.00000000000E+00  0.32728701874E+03  0.32728701874E+03  0.00000000000E+00 0. -1.
          4   -1    0    0  501    0  0.00000000000E+00 -0.00000000000E+00 -0.63364919919E+02  0.63364919919E+02  0.00000000000E+00 0. -1.
         35    2    1    2    0    0 -0.14210854715E-13 -0.35527136788E-14  0.26392209882E+03  0.39065193866E+03  0.28801746984E+03 0.  0.
         25    2    3    3    0    0 -0.66031689629E+02  0.16919176774E+02  0.10060393891E+03  0.17394676391E+03  0.12445835277E+03 0.  0.
         25    2    3    3    0    0  0.66031689629E+02 -0.16919176774E+02  0.16331815991E+03  0.21670517474E+03  0.12506745710E+03 0.  0.
          5    1    4    4  502    0 -0.62772848679E+02 -0.44751172522E+02  0.38732972707E+02  0.86402726509E+02  0.47000000000E+01 0. -1.
         -5    1    4    4    0  502 -0.32588409504E+01  0.61670349296E+02  0.61870966202E+02  0.87544037406E+02  0.47000000000E+01 0. -1.
          5    1    5    5  503    0 -0.72981991325E+01 -0.35098367636E+02 -0.59171381695E+00  0.36160741786E+02  0.47000000000E+01 0.  1.
         -5    1    5    5    0  503  0.73329888762E+02  0.18179190862E+02  0.16390987373E+03  0.18054443296E+03  0.47000000000E+01 0.  1.
<mgrwt>
<rscale>  0 0.28801747E+03</rscale>
<asrwt>0</asrwt>
<pdfrwt beam="1">  1        4 0.97484494E-02 0.28801747E+03</pdfrwt>
<pdfrwt beam="2">  1       -4 0.50351848E-01 0.28801747E+03</pdfrwt>
<totfact> 0.57101070E+02</totfact>
</mgrwt>
</event>
<event>
 9    1  0.8175317E-001  0.2795166E+03  0.7818608E-02  0.1095953E+00
         -2   -1    0    0    0  501 -0.00000000000E+00  0.00000000000E+00  0.15781193759E+02  0.15781193759E+02  0.00000000000E+00 0.  1.
          2   -1    0    0  501    0  0.00000000000E+00 -0.00000000000E+00 -0.12377000445E+04  0.12377000445E+04  0.00000000000E+00 0.  1.
         35    2    1    2    0    0  0.00000000000E+00  0.35527136788E-14 -0.12219188508E+04  0.12534812383E+04  0.27951661287E+03 0.  0.
         25    2    3    3    0    0 -0.10802727752E+02  0.26819115174E+02 -0.36815184359E+03  0.38992160128E+03  0.12516833201E+03 0.  0.
         25    2    3    3    0    0  0.10802727752E+02 -0.26819115174E+02 -0.85376700720E+03  0.86355963703E+03  0.12641669296E+03 0.  0.
          5    1    4    4  502    0 -0.49898524565E+02 -0.30681723637E+02 -0.16628758827E+03  0.17636576463E+03  0.47000000000E+01 0.  1.
         -5    1    4    4    0  502  0.39095796813E+02  0.57500838811E+02 -0.20186425532E+03  0.21355583665E+03  0.47000000000E+01 0.  1.
          5    1    5    5  503    0  0.48851661337E+02 -0.59150566067E+02 -0.42768687641E+03  0.43453817845E+03  0.47000000000E+01 0.  1.
         -5    1    5    5    0  503 -0.38048933585E+02  0.32331450892E+02 -0.42608013079E+03  0.42902145858E+03  0.47000000000E+01 0.  1.
<mgrwt>
<rscale>  0 0.27951661E+03</rscale>
<asrwt>0</asrwt>
<pdfrwt beam="1">  1        2 0.19041533E+00 0.27951661E+03</pdfrwt>
<pdfrwt beam="2">  1       -2 0.24278767E-02 0.27951661E+03</pdfrwt>
<totfact> 0.11031968E+04</totfact>
</mgrwt>
</event>
<event>
 9    1  0.8175317E-001  0.2720165E+03  0.7818608E-02  0.1100131E+00
          2   -1    0    0  501    0  0.00000000000E+00  0.00000000000E+00  0.35120109175E+02  0.35120109175E+02  0.00000000000E+00 0.  1.
         -2   -1    0    0    0  501 -0.00000000000E+00 -0.00000000000E+00 -0.52671389441E+03  0.52671389441E+03  0.00000000000E+00 0.  1.
         35    2    1    2    0    0  0.00000000000E+00 -0.71054273576E-14 -0.49159378523E+03  0.56183400358E+03  0.27201653976E+03 0.  0.
         25    2    3    3    0    0  0.35274190874E+02  0.26132857729E+02 -0.18071225753E+03  0.22404895161E+03  0.12495526361E+03 0.  0.
         25    2    3    3    0    0 -0.35274190874E+02 -0.26132857729E+02 -0.31088152770E+03  0.33778505197E+03  0.12459623699E+03 0.  0.
          5    1    4    4  502    0  0.63610473709E+02  0.64294781587E+01 -0.17790645033E+03  0.18910427183E+03  0.47000000000E+01 0.  1.
         -5    1    4    4    0  502 -0.28336282835E+02  0.19703379570E+02 -0.28058072032E+01  0.34944679788E+02  0.47000000000E+01 0.  1.
          5    1    5    5  503    0 -0.11763290008E+02  0.26012678124E+02 -0.87164061126E+01  0.30217547063E+02  0.47000000000E+01 0.  1.
         -5    1    5    5    0  503 -0.23510900866E+02 -0.52145535852E+02 -0.30216512159E+03  0.30756750490E+03  0.47000000000E+01 0.  1.
<mgrwt>
<rscale>  0 0.27201654E+03</rscale>
<asrwt>0</asrwt>
<pdfrwt beam="1">  1        2 0.54030941E-02 0.27201654E+03</pdfrwt>
<pdfrwt beam="2">  1       -2 0.81032901E-01 0.27201654E+03</pdfrwt>
<totfact> 0.19591464E+03</totfact>
</mgrwt>
</event>
<event>
 9    1  0.8175317E-001  0.2743259E+03  0.7818608E-02  0.1098829E+00
          3   -1    0    0  501    0  0.00000000000E+00  0.00000000000E+00  0.24921862494E+04  0.24921862494E+04  0.00000000000E+00 0.  1.
         -3   -1    0    0    0  501 -0.00000000000E+00 -0.00000000000E+00 -0.75490640257E+01  0.75490640257E+01  0.00000000000E+00 0.  1.
         35    2    1    2    0    0  0.17763568394E-14  0.00000000000E+00  0.24846371853E+04  0.24997353134E+04  0.27432589058E+03 0.  0.
         25    2    3    3    0    0 -0.16230611213E+01  0.26890938302E+02  0.17881179272E+04  0.17926361743E+04  0.12430999562E+03 0.  0.
         25    2    3    3    0    0  0.16230611213E+01 -0.26890938302E+02  0.69651925817E+03  0.70709913911E+03  0.11884594494E+03 0.  0.
          5    1    4    4  502    0  0.18241987168E+02  0.49995724802E+02  0.16600466664E+04  0.16609061886E+04  0.47000000000E+01 0. -1.
         -5    1    4    4    0  502 -0.19865048289E+02 -0.23104786500E+02  0.12807126073E+03  0.13172998568E+03  0.47000000000E+01 0. -1.
          5    1    5    5  503    0 -0.14088109204E+02 -0.59547210618E+02  0.19921183335E+03  0.20845092866E+03  0.47000000000E+01 0. -1.
         -5    1    5    5    0  503  0.15711170326E+02  0.32656272316E+02  0.49730742483E+03  0.49864821045E+03  0.47000000000E+01 0. -1.
<mgrwt>
<rscale>  0 0.27432589E+03</rscale>
<asrwt>0</asrwt>
<pdfrwt beam="1">  1        3 0.38341261E+00 0.27432589E+03</pdfrwt>
<pdfrwt beam="2">  1       -3 0.11613965E-02 0.27432589E+03</pdfrwt>
<totfact> 0.90315808E+01</totfact>
</mgrwt>
</event>
<event>
 9    1  0.8175317E-001  0.2753802E+03  0.7818608E-02  0.1098239E+00
         -1   -1    0    0    0  501 -0.00000000000E+00  0.00000000000E+00  0.33632049645E+02  0.33632049645E+02  0.00000000000E+00 0.  1.
          1   -1    0    0  501    0  0.00000000000E+00 -0.00000000000E+00 -0.56370528841E+03  0.56370528841E+03  0.00000000000E+00 0.  1.
         35    2    1    2    0    0  0.00000000000E+00  0.17763568394E-14 -0.53007323876E+03  0.59733733805E+03  0.27538020441E+03 0.  0.
         25    2    3    3    0    0  0.91049469101E+01 -0.94146823545E+01 -0.37110410484E+03  0.39195909190E+03  0.12546767230E+03 0.  0.
         25    2    3    3    0    0 -0.91049469101E+01  0.94146823545E+01 -0.15896913393E+03  0.20537824616E+03  0.12937349864E+03 0.  0.
          5    1    4    4  502    0  0.43632294682E+02 -0.18820834721E+02 -0.51145130494E+02  0.69970817718E+02  0.47000000000E+01 0. -1.
         -5    1    4    4    0  502 -0.34527347772E+02  0.94061523666E+01 -0.31995897434E+03  0.32198827418E+03  0.47000000000E+01 0. -1.
          5    1    5    5  503    0 -0.41042022455E+02 -0.12204818246E+02 -0.16081343817E+03  0.16648260297E+03  0.47000000000E+01 0. -1.
         -5    1    5    5    0  503  0.31937075545E+02  0.21619500600E+02  0.18443042451E+01  0.38895643184E+02  0.47000000000E+01 0. -1.
<mgrwt>
<rscale>  0 0.27538020E+03</rscale>
<asrwt>0</asrwt>
<pdfrwt beam="1">  1        1 0.86723884E-01 0.27538020E+03</pdfrwt>
<pdfrwt beam="2">  1       -1 0.51741618E-02 0.27538020E+03</pdfrwt>
<totfact> 0.63860454E+03</totfact>
</mgrwt>
</event>
<event>
 9    1  0.8175317E-001  0.2739712E+03  0.7818608E-02  0.1099028E+00
         -1   -1    0    0    0  501 -0.00000000000E+00  0.00000000000E+00  0.12260264796E+03  0.12260264796E+03  0.00000000000E+00 0. -1.
          1   -1    0    0  501    0  0.00000000000E+00 -0.00000000000E+00 -0.15305590485E+03  0.15305590485E+03  0.00000000000E+00 0. -1.
         35    2    1    2    0    0  0.00000000000E+00 -0.35527136788E-14 -0.30453256895E+02  0.27565855281E+03  0.27397123368E+03 0.  0.
         25    2    3    3    0    0 -0.51868127364E+02 -0.89066033751E+01  0.86034182351E+01  0.13519612104E+03  0.12423502775E+03 0.  0.
         25    2    3    3    0    0  0.51868127364E+02  0.89066033751E+01 -0.39056675130E+02  0.14046243177E+03  0.12423622920E+03 0.  0.
          5    1    4    4  502    0 -0.50011577153E+02 -0.30555528560E+02 -0.47026528442E+02  0.75288661511E+02  0.47000000000E+01 0.  1.
         -5    1    4    4    0  502 -0.18565502118E+01  0.21648925185E+02  0.55629946677E+02  0.59907459532E+02  0.47000000000E+01 0.  1.
          5    1    5    5  503    0  0.56440760626E+01 -0.30605671867E+02 -0.66506616165E+02  0.73578412179E+02  0.47000000000E+01 0. -1.
         -5    1    5    5    0  503  0.46224051302E+02  0.39512275242E+02  0.27449941034E+02  0.66884019589E+02  0.47000000000E+01 0. -1.
<mgrwt>
<rscale>  0 0.27397123E+03</rscale>
<asrwt>0</asrwt>
<pdfrwt beam="1">  1        1 0.23547062E-01 0.27397123E+03</pdfrwt>
<pdfrwt beam="2">  1       -1 0.18861946E-01 0.27397123E+03</pdfrwt>
<totfact> 0.45557721E+03</totfact>
</mgrwt>
</event>
<event>
 9    1  0.8175317E-001  0.2723255E+03  0.7818608E-02  0.1099956E+00
          2   -1    0    0  501    0  0.00000000000E+00  0.00000000000E+00  0.13389816115E+03  0.13389816115E+03  0.00000000000E+00 0. -1.
         -2   -1    0    0    0  501 -0.00000000000E+00 -0.00000000000E+00 -0.13846567274E+03  0.13846567274E+03  0.00000000000E+00 0. -1.
         35    2    1    2    0    0 -0.71054273576E-14 -0.14210854715E-13 -0.45675115888E+01  0.27236383389E+03  0.27232553287E+03 0.  0.
         25    2    3    3    0    0 -0.97384892186E+01  0.47076069839E+02 -0.16531001922E+02  0.13615759827E+03  0.12631161078E+03 0.  0.
         25    2    3    3    0    0  0.97384892186E+01 -0.47076069839E+02  0.11963490333E+02  0.13620623562E+03  0.12687796892E+03 0.  0.
          5    1    4    4  502    0  0.39461370402E+02 -0.17997028119E+02 -0.30537628077E+02  0.53251568086E+02  0.47000000000E+01 0.  1.
         -5    1    4    4    0  502 -0.49199859620E+02  0.65073097958E+02  0.14006626156E+02  0.82906030183E+02  0.47000000000E+01 0.  1.
          5    1    5    5  503    0 -0.26260947991E+02  0.19517344801E+02  0.43015387492E+02  0.54249218415E+02  0.47000000000E+01 0.  1.
         -5    1    5    5    0  503  0.35999437210E+02 -0.66593414640E+02 -0.31051897160E+02  0.81957017210E+02  0.47000000000E+01 0.  1.
<mgrwt>
<rscale>  0 0.27232553E+03</rscale>
<asrwt>0</asrwt>
<pdfrwt beam="1">  1        2 0.20599717E-01 0.27232553E+03</pdfrwt>
<pdfrwt beam="2">  1       -2 0.21302411E-01 0.27232553E+03</pdfrwt>
<totfact> 0.50192769E+03</totfact>
</mgrwt>
</event>
<event>
 9    1  0.8175317E-001  0.2729068E+03  0.7818608E-02  0.1099627E+00
          1   -1    0    0  501    0  0.00000000000E+00  0.00000000000E+00  0.19653988626E+03  0.19653988626E+03  0.00000000000E+00 0.  1.
         -1   -1    0    0    0  501 -0.00000000000E+00 -0.00000000000E+00 -0.94736666015E+02  0.94736666015E+02  0.00000000000E+00 0.  1.
         35    2    1    2    0    0 -0.35527136788E-14 -0.71054273576E-14  0.10180322025E+03  0.29127655228E+03  0.27290682339E+03 0.  0.
         25    2    3    3    0    0 -0.58442656888E+01 -0.40472874393E+02  0.16444159731E+02  0.13262456313E+03  0.12508659142E+03 0.  0.
         25    2    3    3    0    0  0.58442656888E+01  0.40472874393E+02  0.85359060516E+02  0.15865198914E+03  0.12732664860E+03 0.  0.
          5    1    4    4  502    0 -0.56803751518E+02 -0.10171358777E+02  0.38123604595E+02  0.69322593382E+02  0.47000000000E+01 0.  1.
         -5    1    4    4    0  502  0.50959485829E+02 -0.30301515616E+02 -0.21679444864E+02  0.63301969750E+02  0.47000000000E+01 0.  1.
          5    1    5    5  503    0  0.21133071591E+02  0.41739020571E+02  0.11539076195E+03  0.12460285108E+03  0.47000000000E+01 0.  1.
         -5    1    5    5    0  503 -0.15288805902E+02 -0.12661461784E+01 -0.30031701434E+02  0.34049138067E+02  0.47000000000E+01 0.  1.
<mgrwt>
<rscale>  0 0.27290682E+03</rscale>
<asrwt>0</asrwt>
<pdfrwt beam="1">  1        1 0.30236906E-01 0.27290682E+03</pdfrwt>
<pdfrwt beam="2">  1       -1 0.14574872E-01 0.27290682E+03</pdfrwt>
<totfact> 0.50098795E+03</totfact>
</mgrwt>
</event>
<event>
 9    1  0.8175317E-001  0.2764309E+03  0.7818608E-02  0.1097654E+00
          1   -1    0    0  501    0  0.00000000000E+00  0.00000000000E+00  0.22570288426E+03  0.22570288426E+03  0.00000000000E+00 0. -1.
         -1   -1    0    0    0  501 -0.00000000000E+00 -0.00000000000E+00 -0.84640093194E+02  0.84640093194E+02  0.00000000000E+00 0. -1.
         35    2    1    2    0    0  0.00000000000E+00  0.00000000000E+00  0.14106279107E+03  0.31034297746E+03  0.27643091837E+03 0.  0.
         25    2    3    3    0    0 -0.36625539646E+02  0.45450392432E+02  0.82627154653E+02  0.16069106374E+03  0.12484872027E+03 0.  0.
         25    2    3    3    0    0  0.36625539646E+02 -0.45450392432E+02  0.58435636417E+02  0.14965191372E+03  0.12479504538E+03 0.  0.
          5    1    4    4  502    0 -0.82971934085E+02  0.33821679464E+02  0.56463319167E+02  0.10601152890E+03  0.47000000000E+01 0.  1.
         -5    1    4    4    0  502  0.46346394440E+02  0.11628712968E+02  0.26163835486E+02  0.54679534839E+02  0.47000000000E+01 0.  1.
          5    1    5    5  503    0  0.42354917849E+02  0.19762305153E+01  0.84770955009E+02  0.94900207409E+02  0.47000000000E+01 0. -1.
         -5    1    5    5    0  503 -0.57293782034E+01 -0.47426622947E+02 -0.26335318593E+02  0.54751706313E+02  0.47000000000E+01 0. -1.
<mgrwt>
<rscale>  0 0.27643092E+03</rscale>
<asrwt>0</asrwt>
<pdfrwt beam="1">  1        1 0.34723520E-01 0.27643092E+03</pdfrwt>
<pdfrwt beam="2">  1       -1 0.13021553E-01 0.27643092E+03</pdfrwt>
<totfact> 0.50297398E+03</totfact>
</mgrwt>
</event>
<event>
 9    1  0.8175317E-001  0.2730588E+03  0.7818608E-02  0.1099542E+00
          2   -1    0    0  501    0  0.00000000000E+00  0.00000000000E+00  0.66097062897E+03  0.66097062897E+03  0.00000000000E+00 0. -1.
         -2   -1    0    0    0  501 -0.00000000000E+00 -0.00000000000E+00 -0.28201369503E+02  0.28201369503E+02  0.00000000000E+00 0. -1.
         35    2    1    2    0    0  0.00000000000E+00 -0.10658141036E-13  0.63276925947E+03  0.68917199848E+03  0.27305879908E+03 0.  0.
         25    2    3    3    0    0  0.11623844268E+02 -0.10358956382E+02  0.43513779524E+03  0.45285789708E+03  0.12447068878E+03 0.  0.
         25    2    3    3    0    0 -0.11623844268E+02  0.10358956382E+02  0.19763146423E+03  0.23631410140E+03  0.12862245968E+03 0.  0.
          5    1    4    4  502    0  0.36366837240E+02  0.21225585781E+02  0.49699764761E+02  0.65308720397E+02  0.47000000000E+01 0.  1.
         -5    1    4    4    0  502 -0.24742992972E+02 -0.31584542163E+02  0.38543803048E+03  0.38754917668E+03  0.47000000000E+01 0.  1.
          5    1    5    5  503    0  0.77717077739E+01  0.66983695908E+02  0.12475821105E+03  0.14189403153E+03  0.47000000000E+01 0.  1.
         -5    1    5    5    0  503 -0.19395552042E+02 -0.56624739526E+02  0.72873253175E+02  0.94420069867E+02  0.47000000000E+01 0.  1.
<mgrwt>
<rscale>  0 0.27305880E+03</rscale>
<asrwt>0</asrwt>
<pdfrwt beam="1">  1        2 0.10168778E+00 0.27305880E+03</pdfrwt>
<pdfrwt beam="2">  1       -2 0.43386727E-02 0.27305880E+03</pdfrwt>
<totfact> 0.10877358E+04</totfact>
</mgrwt>
</event>
<event>
 9    1  0.8175317E-001  0.2710293E+03  0.7818608E-02  0.1100692E+00
         -4   -1    0    0    0  501 -0.00000000000E+00  0.00000000000E+00  0.60276677603E+02  0.60276677603E+02  0.00000000000E+00 0. -1.
          4   -1    0    0  501    0  0.00000000000E+00 -0.00000000000E+00 -0.30466549823E+03  0.30466549823E+03  0.00000000000E+00 0. -1.
         35    2    1    2    0    0  0.00000000000E+00  0.00000000000E+00 -0.24438882062E+03  0.36494217583E+03  0.27102932693E+03 0.  0.
         25    2    3    3    0    0  0.38865219121E+02  0.37129317773E+01 -0.65573122563E+02  0.14660388999E+03  0.12517417880E+03 0.  0.
         25    2    3    3    0    0 -0.38865219121E+02 -0.37129317773E+01 -0.17881569806E+03  0.21833828584E+03  0.11904731022E+03 0.  0.
          5    1    4    4  502    0  0.25374485386E+02  0.50999344650E+02  0.82802609627E+01  0.57753358213E+02  0.47000000000E+01 0.  1.
         -5    1    4    4    0  502  0.13490733735E+02 -0.47286412873E+02 -0.73853383526E+02  0.88850531778E+02  0.47000000000E+01 0.  1.
          5    1    5    5  503    0  0.69510335858E+01 -0.48498743352E+02 -0.12566373593E+03  0.13495891784E+03  0.47000000000E+01 0. -1.
         -5    1    5    5    0  503 -0.45816252707E+02  0.44785811575E+02 -0.53151962125E+02  0.83379368001E+02  0.47000000000E+01 0. -1.
<mgrwt>
<rscale>  0 0.27102933E+03</rscale>
<asrwt>0</asrwt>
<pdfrwt beam="1">  1        4 0.46871615E-01 0.27102933E+03</pdfrwt>
<pdfrwt beam="2">  1       -4 0.92733350E-02 0.27102933E+03</pdfrwt>
<totfact> 0.71380083E+02</totfact>
</mgrwt>
</event>
<event>
 9    1  0.8175317E-001  0.2764182E+03  0.7818608E-02  0.1097661E+00
          1   -1    0    0  501    0  0.00000000000E+00  0.00000000000E+00  0.90790097298E+02  0.90790097298E+02  0.00000000000E+00 0. -1.
         -1   -1    0    0    0  501 -0.00000000000E+00 -0.00000000000E+00 -0.21039468371E+03  0.21039468371E+03  0.00000000000E+00 0. -1.
         35    2    1    2    0    0  0.00000000000E+00 -0.53290705182E-14 -0.11960458642E+03  0.30118478101E+03  0.27641818902E+03 0.  0.
         25    2    3    3    0    0  0.29526982247E+02  0.15317847390E+02 -0.65349956781E+01  0.12921934635E+03  0.12469344078E+03 0.  0.
         25    2    3    3    0    0 -0.29526982247E+02 -0.15317847390E+02 -0.11306959074E+03  0.17196543466E+03  0.12522339734E+03 0.  0.
          5    1    4    4  502    0  0.77744718503E+01 -0.36015103309E+02  0.41345331041E+02  0.55579281012E+02  0.47000000000E+01 0. -1.
         -5    1    4    4    0  502  0.21752510396E+02  0.51332950699E+02 -0.47880326719E+02  0.73640065336E+02  0.47000000000E+01 0. -1.
          5    1    5    5  503    0 -0.17300559074E+02  0.15171050063E+02  0.22421642222E+02  0.32469834373E+02  0.47000000000E+01 0.  1.
         -5    1    5    5    0  503 -0.12226423173E+02 -0.30488897452E+02 -0.13549123296E+03  0.13949560029E+03  0.47000000000E+01 0.  1.
<mgrwt>
<rscale>  0 0.27641819E+03</rscale>
<asrwt>0</asrwt>
<pdfrwt beam="1">  1        1 0.13967707E-01 0.27641819E+03</pdfrwt>
<pdfrwt beam="2">  1       -1 0.32368413E-01 0.27641819E+03</pdfrwt>
<totfact> 0.36530575E+03</totfact>
</mgrwt>
</event>
<event>
 9    1  0.8175317E-001  0.2984543E+03  0.7818608E-02  0.1086016E+00
         -2   -1    0    0    0  501 -0.00000000000E+00  0.00000000000E+00  0.68488779792E+01  0.68488779792E+01  0.00000000000E+00 0. -1.
          2   -1    0    0  501    0  0.00000000000E+00 -0.00000000000E+00 -0.32514428908E+04  0.32514428908E+04  0.00000000000E+00 0. -1.
         35    2    1    2    0    0  0.00000000000E+00  0.00000000000E+00 -0.32445940128E+04  0.32582917688E+04  0.29845425522E+03 0.  0.
         25    2    3    3    0    0 -0.30610021192E+02 -0.49002207454E+02 -0.22269416497E+04  0.22311952617E+04  0.12499997911E+03 0.  0.
         25    2    3    3    0    0  0.30610021192E+02  0.49002207454E+02 -0.10176523631E+04  0.10270965071E+04  0.12638319915E+03 0.  0.
          5    1    4    4  502    0 -0.53037332110E+02 -0.81677638968E+02 -0.15115787607E+04  0.15147199857E+04  0.47000000000E+01 0.  1.
         -5    1    4    4    0  502  0.22427310918E+02  0.32675431513E+02 -0.71536288903E+03  0.71647527599E+03  0.47000000000E+01 0.  1.
          5    1    5    5  503    0  0.37746859279E+02  0.49170762703E+02 -0.20088091678E+03  0.21028034149E+03  0.47000000000E+01 0.  1.
         -5    1    5    5    0  503 -0.71368380869E+01 -0.16855524906E+00 -0.81677144630E+03  0.81681616559E+03  0.47000000000E+01 0.  1.
<mgrwt>
<rscale>  0 0.29845426E+03</rscale>
<asrwt>0</asrwt>
<pdfrwt beam="1">  1        2 0.50022112E+00 0.29845426E+03</pdfrwt>
<pdfrwt beam="2">  1       -2 0.10536754E-02 0.29845426E+03</pdfrwt>
<totfact> 0.28876583E+03</totfact>
</mgrwt>
</event>
<event>
 9    1  0.8175317E-001  0.2759841E+03  0.7818608E-02  0.1097903E+00
          2   -1    0    0  501    0  0.00000000000E+00  0.00000000000E+00  0.16479492319E+02  0.16479492319E+02  0.00000000000E+00 0. -1.
         -2   -1    0    0    0  501 -0.00000000000E+00 -0.00000000000E+00 -0.11554847156E+04  0.11554847156E+04  0.00000000000E+00 0. -1.
         35    2    1    2    0    0  0.00000000000E+00  0.71054273576E-14 -0.11390052233E+04  0.11719642079E+04  0.27598406835E+03 0.  0.
         25    2    3    3    0    0 -0.84509506106E+01  0.31569909452E+02 -0.77660606902E+03  0.78723573240E+03  0.12471982268E+03 0.  0.
         25    2    3    3    0    0  0.84509506106E+01 -0.31569909452E+02 -0.36239915425E+03  0.38472847552E+03  0.12495909380E+03 0.  0.
          5    1    4    4  502    0  0.18007869550E+02  0.13932159148E+02 -0.22200345467E+02  0.32145509221E+02  0.47000000000E+01 0.  1.
         -5    1    4    4    0  502 -0.26458820160E+02  0.17637750303E+02 -0.75440572356E+03  0.75509022318E+03  0.47000000000E+01 0.  1.
          5    1    5    5  503    0  0.77839006574E+01  0.40044772323E+02 -0.52636400684E+02  0.66759670287E+02  0.47000000000E+01 0.  1.
         -5    1    5    5    0  503  0.66704995321E+00 -0.71614681775E+02 -0.30976275357E+03  0.31796880523E+03  0.47000000000E+01 0.  1.
<mgrwt>
<rscale>  0 0.27598407E+03</rscale>
<asrwt>0</asrwt>
<pdfrwt beam="1">  1        2 0.25353067E-02 0.27598407E+03</pdfrwt>
<pdfrwt beam="2">  1       -2 0.17776687E+00 0.27598407E+03</pdfrwt>
<totfact> 0.79519730E+02</totfact>
</mgrwt>
</event>
<event>
 9    1  0.8175317E-001  0.2761816E+03  0.7818608E-02  0.1097793E+00
         -1   -1    0    0    0  501 -0.00000000000E+00  0.00000000000E+00  0.15417477224E+04  0.15417477224E+04  0.00000000000E+00 0. -1.
          1   -1    0    0  501    0  0.00000000000E+00 -0.00000000000E+00 -0.12368471423E+02  0.12368471423E+02  0.00000000000E+00 0. -1.
         35    2    1    2    0    0 -0.71054273576E-14 -0.71054273576E-14  0.15293792509E+04  0.15541161938E+04  0.27618155365E+03 0.  0.
         25    2    3    3    0    0  0.46492772364E+02  0.88565461849E+01  0.64957095735E+03  0.66352053835E+03  0.12679534645E+03 0.  0.
         25    2    3    3    0    0 -0.46492772364E+02 -0.88565461849E+01  0.87980829359E+03  0.89059565543E+03  0.12983825217E+03 0.  0.
          5    1    4    4  502    0 -0.17244326346E+02 -0.46594076223E+02  0.27732183412E+03  0.28177626658E+03  0.47000000000E+01 0.  1.
         -5    1    4    4    0  502  0.63737098710E+02  0.55450622408E+02  0.37224912324E+03  0.38174427177E+03  0.47000000000E+01 0.  1.
          5    1    5    5  503    0  0.15982321124E+02 -0.13091443019E+02  0.69664769490E+03  0.69696981375E+03  0.47000000000E+01 0.  1.
         -5    1    5    5    0  503 -0.62475093488E+02  0.42348968338E+01  0.18316059869E+03  0.19362584169E+03  0.47000000000E+01 0.  1.
<mgrwt>
<rscale>  0 0.27618155E+03</rscale>
<asrwt>0</asrwt>
<pdfrwt beam="1">  1        1 0.19028430E-02 0.27618155E+03</pdfrwt>
<pdfrwt beam="2">  1       -1 0.23719181E+00 0.27618155E+03</pdfrwt>
<totfact> 0.62087504E+02</totfact>
</mgrwt>
</event>
<event>
 9    1  0.8175317E-001  0.2746393E+03  0.7818608E-02  0.1098653E+00
         -4   -1    0    0    0  501 -0.00000000000E+00  0.00000000000E+00  0.17449442142E+02  0.17449442142E+02  0.00000000000E+00 0.  1.
          4   -1    0    0  501    0  0.00000000000E+00 -0.00000000000E+00 -0.10806470065E+04  0.10806470065E+04  0.00000000000E+00 0.  1.
         35    2    1    2    0    0  0.35527136788E-14  0.00000000000E+00 -0.10631975643E+04  0.10980964486E+04  0.27463930829E+03 0.  0.
         25    2    3    3    0    0  0.16895838817E+02 -0.47188338611E+02 -0.43252920702E+03  0.45319862305E+03  0.12567922797E+03 0.  0.
         25    2    3    3    0    0 -0.16895838817E+02  0.47188338611E+02 -0.63066835729E+03  0.64489782554E+03  0.12505366779E+03 0.  0.
          5    1    4    4  502    0  0.57868021421E+02 -0.66652914498E+02 -0.31381669735E+03  0.32602810991E+03  0.47000000000E+01 0.  1.
         -5    1    4    4    0  502 -0.40972182604E+02  0.19464575887E+02 -0.11871250967E+03  0.12717051315E+03  0.47000000000E+01 0.  1.
          5    1    5    5  503    0  0.24897106522E+02  0.72193506714E+02 -0.49058584462E+03  0.49651619235E+03  0.47000000000E+01 0. -1.
         -5    1    5    5    0  503 -0.41792945339E+02 -0.25005168103E+02 -0.14008251268E+03  0.14838163320E+03  0.47000000000E+01 0. -1.
<mgrwt>
<rscale>  0 0.27463931E+03</rscale>
<asrwt>0</asrwt>
<pdfrwt beam="1">  1        4 0.16625341E+00 0.27463931E+03</pdfrwt>
<pdfrwt beam="2">  1       -4 0.26845291E-02 0.27463931E+03</pdfrwt>
<totfact> 0.28985787E+02</totfact>
</mgrwt>
</event>
<event>
 9    1  0.8175317E-001  0.2784369E+03  0.7818608E-02  0.1096546E+00
          1   -1    0    0  501    0  0.00000000000E+00  0.00000000000E+00  0.77436719477E+03  0.77436719477E+03  0.00000000000E+00 0. -1.
         -1   -1    0    0    0  501 -0.00000000000E+00 -0.00000000000E+00 -0.25029184502E+02  0.25029184502E+02  0.00000000000E+00 0. -1.
         35    2    1    2    0    0  0.00000000000E+00  0.00000000000E+00  0.74933801027E+03  0.79939637927E+03  0.27843691846E+03 0.  0.
         25    2    3    3    0    0 -0.36136158484E+02 -0.47380552241E+02  0.39314701969E+03  0.41708577212E+03  0.12587781192E+03 0.  0.
         25    2    3    3    0    0  0.36136158484E+02  0.47380552241E+02  0.35619099058E+03  0.38231060715E+03  0.12545373605E+03 0.  0.
          5    1    4    4  502    0  0.43448212780E+02 -0.54360600576E+01  0.18699612586E+03  0.19211178785E+03  0.47000000000E+01 0.  1.
         -5    1    4    4    0  502 -0.79584371264E+02 -0.41944492183E+02  0.20615089382E+03  0.22497398427E+03  0.47000000000E+01 0.  1.
          5    1    5    5  503    0  0.75132917711E+02  0.26029719645E+02  0.30059363274E+03  0.31096804285E+03  0.47000000000E+01 0.  1.
         -5    1    5    5    0  503 -0.38996759227E+02  0.21350832596E+02  0.55597357840E+02  0.71342564304E+02  0.47000000000E+01 0.  1.
<mgrwt>
<rscale>  0 0.27843692E+03</rscale>
<asrwt>0</asrwt>
<pdfrwt beam="1">  1        1 0.11913340E+00 0.27843692E+03</pdfrwt>
<pdfrwt beam="2">  1       -1 0.38506444E-02 0.27843692E+03</pdfrwt>
<totfact> 0.62960085E+03</totfact>
</mgrwt>
</event>
<event>
 9    1  0.8175317E-001  0.2736356E+03  0.7818608E-02  0.1099217E+00
          2   -1    0    0  501    0  0.00000000000E+00  0.00000000000E+00  0.64112932301E+03  0.64112932301E+03  0.00000000000E+00 0. -1.
         -2   -1    0    0    0  501 -0.00000000000E+00 -0.00000000000E+00 -0.29197083119E+02  0.29197083119E+02  0.00000000000E+00 0. -1.
         35    2    1    2    0    0 -0.71054273576E-14  0.00000000000E+00  0.61193223989E+03  0.67032640613E+03  0.27363556884E+03 0.  0.
         25    2    3    3    0    0 -0.41036180209E+01 -0.25381011264E+02  0.42460228466E+03  0.44357134608E+03  0.12572749702E+03 0.  0.
         25    2    3    3    0    0  0.41036180209E+01  0.25381011264E+02  0.18732995523E+03  0.22675506005E+03  0.12515714010E+03 0.  0.
          5    1    4    4  502    0  0.58292661510E+02  0.20161952039E+00  0.23869286513E+03  0.24575282074E+03  0.47000000000E+01 0.  1.
         -5    1    4    4    0  502 -0.62396279531E+02 -0.25582630785E+02  0.18590941953E+03  0.19781852534E+03  0.47000000000E+01 0.  1.
          5    1    5    5  503    0 -0.14535839072E+02 -0.41261850481E+02  0.25902181635E+02  0.51057261345E+02  0.47000000000E+01 0.  1.
         -5    1    5    5    0  503  0.18639457093E+02  0.66642861745E+02  0.16142777359E+03  0.17569779871E+03  0.47000000000E+01 0.  1.
<mgrwt>
<rscale>  0 0.27363557E+03</rscale>
<asrwt>0</asrwt>
<pdfrwt beam="1">  1        2 0.98635270E-01 0.27363557E+03</pdfrwt>
<pdfrwt beam="2">  1       -2 0.44918594E-02 0.27363557E+03</pdfrwt>
<totfact> 0.10702969E+04</totfact>
</mgrwt>
</event>
<event>
 9    1  0.8175317E-001  0.2850886E+03  0.7818608E-02  0.1092942E+00
          4   -1    0    0  501    0  0.00000000000E+00  0.00000000000E+00  0.79962631568E+03  0.79962631568E+03  0.00000000000E+00 0.  1.
         -4   -1    0    0    0  501 -0.00000000000E+00 -0.00000000000E+00 -0.25410468895E+02  0.25410468895E+02  0.00000000000E+00 0.  1.
         35    2    1    2    0    0 -0.35527136788E-14 -0.35527136788E-14  0.77421584679E+03  0.82503678458E+03  0.28508861515E+03 0.  0.
         25    2    3    3    0    0  0.16793925977E+01 -0.80306713354E+01  0.18987062901E+03  0.22774969744E+03  0.12550600336E+03 0.  0.
         25    2    3    3    0    0 -0.16793925977E+01  0.80306713354E+01  0.58434521777E+03  0.59728708714E+03  0.12339051376E+03 0.  0.
          5    1    4    4  502    0  0.31877157860E+02  0.42319210949E+02  0.39491899873E+02  0.66247784598E+02  0.47000000000E+01 0.  1.
         -5    1    4    4    0  502 -0.30197765263E+02 -0.50349882284E+02  0.15037872914E+03  0.16150191284E+03  0.47000000000E+01 0.  1.
          5    1    5    5  503    0  0.60544558775E+02  0.21111533189E+01  0.30538138454E+03  0.31136791837E+03  0.47000000000E+01 0. -1.
         -5    1    5    5    0  503 -0.62223951373E+02  0.59195180165E+01  0.27896383324E+03  0.28591916877E+03  0.47000000000E+01 0. -1.
<mgrwt>
<rscale>  0 0.28508862E+03</rscale>
<asrwt>0</asrwt>
<pdfrwt beam="1">  1        4 0.12301941E+00 0.28508862E+03</pdfrwt>
<pdfrwt beam="2">  1       -4 0.39093035E-02 0.28508862E+03</pdfrwt>
<totfact> 0.34692351E+02</totfact>
</mgrwt>
</event>
<event>
 9    1  0.8175317E-001  0.2726839E+03  0.7818608E-02  0.1099753E+00
         -2   -1    0    0    0  501 -0.00000000000E+00  0.00000000000E+00  0.56516531357E+02  0.56516531357E+02  0.00000000000E+00 0.  1.
          2   -1    0    0  501    0  0.00000000000E+00 -0.00000000000E+00 -0.32891492665E+03  0.32891492665E+03  0.00000000000E+00 0.  1.
         35    2    1    2    0    0 -0.35527136788E-14 -0.71054273576E-14 -0.27239839529E+03  0.38543145800E+03  0.27268392520E+03 0.  0.
         25    2    3    3    0    0 -0.64557774517E+01 -0.44209773782E+02 -0.18143210992E+03  0.22512098070E+03  0.12556139647E+03 0.  0.
         25    2    3    3    0    0  0.64557774517E+01  0.44209773782E+02 -0.90966285374E+02  0.16031047730E+03  0.12421112228E+03 0.  0.
          5    1    4    4  502    0 -0.23731031191E+02  0.39529568373E+02 -0.49265301008E+02  0.67638069905E+02  0.47000000000E+01 0. -1.
         -5    1    4    4    0  502  0.17275253739E+02 -0.83739342156E+02 -0.13216680891E+03  0.15748291080E+03  0.47000000000E+01 0. -1.
          5    1    5    5  503    0  0.11758262388E+02  0.61781831237E+02 -0.11412353460E+03  0.13038988671E+03  0.47000000000E+01 0.  1.
         -5    1    5    5    0  503 -0.53024849367E+01 -0.17572057455E+02  0.23157249228E+02  0.29920590594E+02  0.47000000000E+01 0.  1.
<mgrwt>
<rscale>  0 0.27268393E+03</rscale>
<asrwt>0</asrwt>
<pdfrwt beam="1">  1        2 0.50602296E-01 0.27268393E+03</pdfrwt>
<pdfrwt beam="2">  1       -2 0.86948511E-02 0.27268393E+03</pdfrwt>
<totfact> 0.81361105E+03</totfact>
</mgrwt>
</event>
<event>
 9    1  0.8175317E-001  0.2746521E+03  0.7818608E-02  0.1098646E+00
         -1   -1    0    0    0  501 -0.00000000000E+00  0.00000000000E+00  0.13068357025E+03  0.13068357025E+03  0.00000000000E+00 0. -1.
          1   -1    0    0  501    0  0.00000000000E+00 -0.00000000000E+00 -0.14430617605E+03  0.14430617605E+03  0.00000000000E+00 0. -1.
         35    2    1    2    0    0  0.00000000000E+00  0.00000000000E+00 -0.13622605796E+02  0.27498974630E+03  0.27465211665E+03 0.  0.
         25    2    3    3    0    0  0.48416604268E+02  0.25826310157E+02  0.87891061716E+01  0.13640192213E+03  0.12456753232E+03 0.  0.
         25    2    3    3    0    0 -0.48416604268E+02 -0.25826310157E+02 -0.22411711967E+02  0.13858782417E+03  0.12527224077E+03 0.  0.
          5    1    4    4  502    0  0.61788415472E+02  0.32854073412E+02 -0.42986956594E+02  0.82262791489E+02  0.47000000000E+01 0.  1.
         -5    1    4    4    0  502 -0.13371811204E+02 -0.70277632547E+01  0.51776062766E+02  0.54139130643E+02  0.47000000000E+01 0.  1.
          5    1    5    5  503    0 -0.82478213879E+02  0.13404801038E+02 -0.60299570858E+01  0.83909444272E+02  0.47000000000E+01 0.  1.
         -5    1    5    5    0  503  0.34061609611E+02 -0.39231111195E+02 -0.16381754882E+02  0.54678379894E+02  0.47000000000E+01 0.  1.
<mgrwt>
<rscale>  0 0.27465212E+03</rscale>
<asrwt>0</asrwt>
<pdfrwt beam="1">  1        1 0.22200950E-01 0.27465212E+03</pdfrwt>
<pdfrwt beam="2">  1       -1 0.20105165E-01 0.27465212E+03</pdfrwt>
<totfact> 0.44292442E+03</totfact>
</mgrwt>
</event>
<event>
 9    1  0.8175317E-001  0.2795641E+03  0.7818608E-02  0.1095927E+00
          2   -1    0    0  501    0  0.00000000000E+00  0.00000000000E+00  0.38653866430E+03  0.38653866430E+03  0.00000000000E+00 0. -1.
         -2   -1    0    0    0  501 -0.00000000000E+00 -0.00000000000E+00 -0.50548701354E+02  0.50548701354E+02  0.00000000000E+00 0. -1.
         35    2    1    2    0    0 -0.14210854715E-13 -0.35527136788E-14  0.33598996294E+03  0.43708736565E+03  0.27956414293E+03 0.  0.
         25    2    3    3    0    0 -0.61873037838E+02 -0.12616505687E+02  0.14857232645E+03  0.20510469619E+03  0.12651779001E+03 0.  0.
         25    2    3    3    0    0  0.61873037838E+02  0.12616505687E+02  0.18741763650E+03  0.23198266945E+03  0.12125650263E+03 0.  0.
          5    1    4    4  502    0 -0.10222795172E+02 -0.61251568328E+02  0.10390319934E+03  0.12113721557E+03  0.47000000000E+01 0. -1.
         -5    1    4    4    0  502 -0.51650242666E+02  0.48635062642E+02  0.44669127107E+02  0.83967480623E+02  0.47000000000E+01 0. -1.
          5    1    5    5  503    0 -0.26271974504E+02 -0.26941557892E+02  0.72125266107E+02  0.81487472638E+02  0.47000000000E+01 0. -1.
         -5    1    5    5    0  503  0.88145012341E+02  0.39558063578E+02  0.11529237039E+03  0.15049519682E+03  0.47000000000E+01 0. -1.
<mgrwt>
<rscale>  0 0.27956414E+03</rscale>
<asrwt>0</asrwt>
<pdfrwt beam="1">  1        2 0.59467485E-01 0.27956414E+03</pdfrwt>
<pdfrwt beam="2">  1       -2 0.77767235E-02 0.27956414E+03</pdfrwt>
<totfact> 0.81462490E+03</totfact>
</mgrwt>
</event>
<event>
 9    1  0.8175317E-001  0.2711738E+03  0.7818608E-02  0.1100610E+00
          2   -1    0    0  501    0  0.00000000000E+00  0.00000000000E+00  0.22952274696E+04  0.22952274696E+04  0.00000000000E+00 0.  1.
         -2   -1    0    0    0  501 -0.00000000000E+00 -0.00000000000E+00 -0.80095815402E+01  0.80095815402E+01  0.00000000000E+00 0.  1.
         35    2    1    2    0    0  0.35527136788E-14 -0.17763568394E-14  0.22872178880E+04  0.23032370511E+04  0.27117383038E+03 0.  0.
         25    2    3    3    0    0 -0.17214892644E+02 -0.11554252765E+02  0.75702282432E+03  0.76775382445E+03  0.12622410676E+03 0.  0.
         25    2    3    3    0    0  0.17214892644E+02  0.11554252765E+02  0.15301950637E+04  0.15354832267E+04  0.12562624358E+03 0.  0.
          5    1    4    4  502    0 -0.43252234260E+02 -0.66856242729E+01  0.89988431908E+02  0.10017714918E+03  0.47000000000E+01 0.  1.
         -5    1    4    4    0  502  0.26037341616E+02 -0.48686284920E+01  0.66703439242E+03  0.66757667527E+03  0.47000000000E+01 0.  1.
          5    1    5    5  503    0  0.35165042950E+02  0.56140204827E+02  0.53329696167E+03  0.53741607919E+03  0.47000000000E+01 0.  1.
         -5    1    5    5    0  503 -0.17950150306E+02 -0.44585952063E+02  0.99689810204E+03  0.99806714747E+03  0.47000000000E+01 0.  1.
<mgrwt>
<rscale>  0 0.27117383E+03</rscale>
<asrwt>0</asrwt>
<pdfrwt beam="1">  1        2 0.35311139E+00 0.27117383E+03</pdfrwt>
<pdfrwt beam="2">  1       -2 0.12322451E-02 0.27117383E+03</pdfrwt>
<totfact> 0.81447622E+03</totfact>
</mgrwt>
</event>
<event>
 9    1  0.8175317E-001  0.2845519E+03  0.7818608E-02  0.1093228E+00
          4   -1    0    0  501    0  0.00000000000E+00  0.00000000000E+00  0.23142961246E+02  0.23142961246E+02  0.00000000000E+00 0.  1.
         -4   -1    0    0    0  501 -0.00000000000E+00 -0.00000000000E+00 -0.87466972006E+03  0.87466972006E+03  0.00000000000E+00 0.  1.
         35    2    1    2    0    0 -0.35527136788E-14 -0.14210854715E-13 -0.85152675881E+03  0.89781268131E+03  0.28455191044E+03 0.  0.
         25    2    3    3    0    0  0.22754564363E+02  0.66333124116E+02 -0.46209441015E+03  0.48295525304E+03  0.12164160060E+03 0.  0.
         25    2    3    3    0    0 -0.22754564363E+02 -0.66333124116E+02 -0.38943234867E+03  0.41485742826E+03  0.12462454832E+03 0.  0.
          5    1    4    4  502    0  0.78240655047E+01 -0.35403863501E+02 -0.14676511630E+03  0.15125058318E+03  0.47000000000E+01 0. -1.
         -5    1    4    4    0  502  0.14930498858E+02  0.10173698762E+03 -0.31532929385E+03  0.33170466986E+03  0.47000000000E+01 0. -1.
          5    1    5    5  503    0 -0.58123432762E+02  0.86444004319E+01 -0.18648400471E+03  0.19557973593E+03  0.47000000000E+01 0. -1.
         -5    1    5    5    0  503  0.35368868399E+02 -0.74977524548E+02 -0.20294834396E+03  0.21927769233E+03  0.47000000000E+01 0. -1.
<mgrwt>
<rscale>  0 0.28455191E+03</rscale>
<asrwt>0</asrwt>
<pdfrwt beam="1">  1        4 0.35604558E-02 0.28455191E+03</pdfrwt>
<pdfrwt beam="2">  1       -4 0.13456456E+00 0.28455191E+03</pdfrwt>
<totfact> 0.32230963E+02</totfact>
</mgrwt>
</event>
<event>
 9    1  0.8175317E-001  0.2752626E+03  0.7818608E-02  0.1098305E+00
          2   -1    0    0  501    0  0.00000000000E+00  0.00000000000E+00  0.17500216046E+04  0.17500216046E+04  0.00000000000E+00 0. -1.
         -2   -1    0    0    0  501 -0.00000000000E+00 -0.00000000000E+00 -0.10824083018E+02  0.10824083018E+02  0.00000000000E+00 0. -1.
         35    2    1    2    0    0  0.00000000000E+00  0.00000000000E+00  0.17391975216E+04  0.17608456876E+04  0.27526263190E+03 0.  0.
         25    2    3    3    0    0  0.20761190183E+02  0.54305866468E+02  0.93550516642E+03  0.94540205630E+03  0.12343005114E+03 0.  0.
         25    2    3    3    0    0 -0.20761190183E+02 -0.54305866468E+02  0.80369235516E+03  0.81544363131E+03  0.12508700950E+03 0.  0.
          5    1    4    4  502    0 -0.25533051196E+01 -0.29444455642E+02  0.78914322703E+02  0.84398197034E+02  0.47000000000E+01 0.  1.
         -5    1    4    4    0  502  0.23314495303E+02  0.83750322110E+02  0.85659084371E+03  0.86100385927E+03  0.47000000000E+01 0.  1.
          5    1    5    5  503    0 -0.58001372180E+02 -0.58612941718E+02  0.70406180206E+03  0.70888979908E+03  0.47000000000E+01 0.  1.
         -5    1    5    5    0  503  0.37240181997E+02  0.43070752502E+01  0.99630553104E+02  0.10655383224E+03  0.47000000000E+01 0.  1.
<mgrwt>
<rscale>  0 0.27526263E+03</rscale>
<asrwt>0</asrwt>
<pdfrwt beam="1">  1        2 0.26923387E+00 0.27526263E+03</pdfrwt>
<pdfrwt beam="2">  1       -2 0.16652449E-02 0.27526263E+03</pdfrwt>
<totfact> 0.10177069E+04</totfact>
</mgrwt>
</event>
<event>
 9    1  0.8175317E-001  0.2741640E+03  0.7818608E-02  0.1098920E+00
         -2   -1    0    0    0  501 -0.00000000000E+00  0.00000000000E+00  0.36312831741E+02  0.36312831741E+02  0.00000000000E+00 0. -1.
          2   -1    0    0  501    0  0.00000000000E+00 -0.00000000000E+00 -0.51748860012E+03  0.51748860012E+03  0.00000000000E+00 0. -1.
         35    2    1    2    0    0  0.00000000000E+00  0.00000000000E+00 -0.48117576838E+03  0.55380143186E+03  0.27416401269E+03 0.  0.
         25    2    3    3    0    0  0.40485120575E+02  0.24361915573E+02 -0.16967751605E+03  0.21519150778E+03  0.12363000302E+03 0.  0.
         25    2    3    3    0    0 -0.40485120575E+02 -0.24361915573E+02 -0.31149825232E+03  0.33860992408E+03  0.12406841488E+03 0.  0.
          5    1    4    4  502    0  0.45299300800E+02  0.14770422083E+02 -0.18769203460E+03  0.19370230219E+03  0.47000000000E+01 0.  1.
         -5    1    4    4    0  502 -0.48141802245E+01  0.95914934894E+01  0.18014518541E+02  0.21489205590E+02  0.47000000000E+01 0.  1.
          5    1    5    5  503    0  0.36801378896E+02  0.67258887491E+01 -0.17182031530E+03  0.17590875424E+03  0.47000000000E+01 0.  1.
         -5    1    5    5    0  503 -0.77286499471E+02 -0.31087804322E+02 -0.13967793702E+03  0.16270116985E+03  0.47000000000E+01 0.  1.
<mgrwt>
<rscale>  0 0.27416401E+03</rscale>
<asrwt>0</asrwt>
<pdfrwt beam="1">  1        2 0.79613622E-01 0.27416401E+03</pdfrwt>
<pdfrwt beam="2">  1       -2 0.55865901E-02 0.27416401E+03</pdfrwt>
<totfact> 0.98334195E+03</totfact>
</mgrwt>
</event>
<event>
 9    1  0.8175317E-001  0.2737375E+03  0.7818608E-02  0.1099159E+00
          3   -1    0    0  501    0  0.00000000000E+00  0.00000000000E+00  0.43944414065E+02  0.43944414065E+02  0.00000000000E+00 0.  1.
         -3   -1    0    0    0  501 -0.00000000000E+00 -0.00000000000E+00 -0.42628969349E+03  0.42628969349E+03  0.00000000000E+00 0.  1.
         35    2    1    2    0    0  0.00000000000E+00 -0.71054273576E-14 -0.38234527943E+03  0.47023410756E+03  0.27373747133E+03 0.  0.
         25    2    3    3    0    0  0.51005070803E+01  0.49448996567E+02 -0.15238303105E+03  0.20292375433E+03  0.12444373622E+03 0.  0.
         25    2    3    3    0    0 -0.51005070803E+01 -0.49448996567E+02 -0.22996224837E+03  0.26731035323E+03  0.12688960096E+03 0.  0.
          5    1    4    4  502    0 -0.24220255886E+02  0.65863052356E+02 -0.15363766375E+03  0.16897095663E+03  0.47000000000E+01 0.  1.
         -5    1    4    4    0  502  0.29320762967E+02 -0.16414055789E+02  0.12546326998E+01  0.33952797699E+02  0.47000000000E+01 0.  1.
          5    1    5    5  503    0 -0.45183454856E+02 -0.68326602616E+02 -0.19192395198E+03  0.20872700487E+03  0.47000000000E+01 0.  1.
         -5    1    5    5    0  503  0.40082947775E+02  0.18877606049E+02 -0.38038296398E+02  0.58583348362E+02  0.47000000000E+01 0.  1.
<mgrwt>
<rscale>  0 0.27373747E+03</rscale>
<asrwt>0</asrwt>
<pdfrwt beam="1">  1        3 0.67606788E-02 0.27373747E+03</pdfrwt>
<pdfrwt beam="2">  1       -3 0.65583032E-01 0.27373747E+03</pdfrwt>
<totfact> 0.81457878E+02</totfact>
</mgrwt>
</event>
<event>
 9    1  0.8175317E-001  0.2607372E+03  0.7818608E-02  0.1106701E+00
          1   -1    0    0  501    0  0.00000000000E+00  0.00000000000E+00  0.13331785477E+02  0.13331785477E+02  0.00000000000E+00 0. -1.
         -1   -1    0    0    0  501 -0.00000000000E+00 -0.00000000000E+00 -0.12748460834E+04  0.12748460834E+04  0.00000000000E+00 0. -1.
         35    2    1    2    0    0  0.00000000000E+00  0.00000000000E+00 -0.12615142979E+04  0.12881778688E+04  0.26073722020E+03 0.  0.
         25    2    3    3    0    0  0.13882479726E+00 -0.31810017211E+02 -0.69091740153E+03  0.70291685069E+03  0.12535288899E+03 0.  0.
         25    2    3    3    0    0 -0.13882479726E+00  0.31810017211E+02 -0.57059689634E+03  0.58526101814E+03  0.12624478116E+03 0.  0.
          5    1    4    4  502    0  0.12141606465E+02 -0.41468316523E+00 -0.64832771680E+03  0.64845856378E+03  0.47000000000E+01 0.  1.
         -5    1    4    4    0  502 -0.12002781668E+02 -0.31395334046E+02 -0.42589684733E+02  0.54458286911E+02  0.47000000000E+01 0.  1.
          5    1    5    5  503    0  0.29204890440E+02  0.63531468350E+02 -0.47629938289E+03  0.48142742469E+03  0.47000000000E+01 0.  1.
         -5    1    5    5    0  503 -0.29343715237E+02 -0.31721451139E+02 -0.94297513445E+02  0.10383359345E+03  0.47000000000E+01 0.  1.
<mgrwt>
<rscale>  0 0.26073722E+03</rscale>
<asrwt>0</asrwt>
<pdfrwt beam="1">  1        1 0.20510438E-02 0.26073722E+03</pdfrwt>
<pdfrwt beam="2">  1       -1 0.19613018E+00 0.26073722E+03</pdfrwt>
<totfact> 0.10336916E+03</totfact>
</mgrwt>
</event>
<event>
 9    1  0.8175317E-001  0.2692042E+03  0.7818608E-02  0.1101736E+00
          1   -1    0    0  501    0  0.00000000000E+00  0.00000000000E+00  0.19474986930E+02  0.19474986930E+02  0.00000000000E+00 0.  1.
         -1   -1    0    0    0  501 -0.00000000000E+00 -0.00000000000E+00 -0.93030760548E+03  0.93030760548E+03  0.00000000000E+00 0.  1.
         35    2    1    2    0    0  0.00000000000E+00  0.71054273576E-14 -0.91083261855E+03  0.94978259241E+03  0.26920422328E+03 0.  0.
         25    2    3    3    0    0 -0.23350852810E+02 -0.33154128976E+02 -0.58670956513E+03  0.60110472566E+03  0.12431540050E+03 0.  0.
         25    2    3    3    0    0  0.23350852810E+02  0.33154128976E+02 -0.32412305343E+03  0.34867786676E+03  0.12196738256E+03 0.  0.
          5    1    4    4  502    0 -0.40490579121E+01 -0.25844050261E+02 -0.18225824455E+02  0.32227014770E+02  0.47000000000E+01 0.  1.
         -5    1    4    4    0  502 -0.19301794898E+02 -0.73100787143E+01 -0.56848374067E+03  0.56887771089E+03  0.47000000000E+01 0.  1.
          5    1    5    5  503    0 -0.14669102542E+02 -0.34432663922E+02 -0.43875913860E+02  0.57861703494E+02  0.47000000000E+01 0.  1.
         -5    1    5    5    0  503  0.38019955352E+02  0.67586792897E+02 -0.28024713957E+03  0.29081616326E+03  0.47000000000E+01 0.  1.
<mgrwt>
<rscale>  0 0.26920422E+03</rscale>
<asrwt>0</asrwt>
<pdfrwt beam="1">  1        1 0.29961522E-02 0.26920422E+03</pdfrwt>
<pdfrwt beam="2">  1       -1 0.14312423E+00 0.26920422E+03</pdfrwt>
<totfact> 0.14572887E+03</totfact>
</mgrwt>
</event>
<event>
 9    1  0.8175317E-001  0.2739370E+03  0.7818608E-02  0.1099047E+00
         -1   -1    0    0    0  501 -0.00000000000E+00  0.00000000000E+00  0.30370341655E+02  0.30370341655E+02  0.00000000000E+00 0.  1.
          1   -1    0    0  501    0  0.00000000000E+00 -0.00000000000E+00 -0.61772023429E+03  0.61772023429E+03  0.00000000000E+00 0.  1.
         35    2    1    2    0    0  0.17763568394E-14  0.00000000000E+00 -0.58734989264E+03  0.64809057595E+03  0.27393703337E+03 0.  0.
         25    2    3    3    0    0  0.13450668252E+01  0.31430256643E+02 -0.39660448685E+03  0.41783445339E+03  0.12767474774E+03 0.  0.
         25    2    3    3    0    0 -0.13450668252E+01 -0.31430256643E+02 -0.19074540578E+03  0.23025612256E+03  0.12507758356E+03 0.  0.
          5    1    4    4  502    0 -0.28840660215E+02  0.62889283702E+02 -0.33568872712E+03  0.34277668708E+03  0.47000000000E+01 0.  1.
         -5    1    4    4    0  502  0.30185727040E+02 -0.31459027059E+02 -0.60915759730E+02  0.75057766313E+02  0.47000000000E+01 0.  1.
          5    1    5    5  503    0  0.40707362606E+00 -0.53386321375E+02 -0.19913615147E+03  0.20622211773E+03  0.47000000000E+01 0. -1.
         -5    1    5    5    0  503 -0.17521404512E+01  0.21956064732E+02  0.83907456882E+01  0.24034004824E+02  0.47000000000E+01 0. -1.
<mgrwt>
<rscale>  0 0.27393703E+03</rscale>
<asrwt>0</asrwt>
<pdfrwt beam="1">  1        1 0.95033881E-01 0.27393703E+03</pdfrwt>
<pdfrwt beam="2">  1       -1 0.46723603E-02 0.27393703E+03</pdfrwt>
<totfact> 0.65547379E+03</totfact>
</mgrwt>
</event>
<event>
 9    1  0.8175317E-001  0.2761710E+03  0.7818608E-02  0.1097799E+00
          1   -1    0    0  501    0  0.00000000000E+00  0.00000000000E+00  0.20814415334E+03  0.20814415334E+03  0.00000000000E+00 0. -1.
         -1   -1    0    0    0  501 -0.00000000000E+00 -0.00000000000E+00 -0.91607660920E+02  0.91607660920E+02  0.00000000000E+00 0. -1.
         35    2    1    2    0    0  0.00000000000E+00  0.00000000000E+00  0.11653649242E+03  0.29975181426E+03  0.27617095446E+03 0.  0.
         25    2    3    3    0    0 -0.41854656545E+02 -0.97049403561E+01  0.10167097288E+03  0.16647243387E+03  0.12461976718E+03 0.  0.
         25    2    3    3    0    0  0.41854656545E+02  0.97049403561E+01  0.14865519541E+02  0.13327938039E+03  0.12528532006E+03 0.  0.
          5    1    4    4  502    0 -0.85994574116E+02 -0.28598230184E+00  0.71999858162E+02  0.11225514749E+03  0.47000000000E+01 0.  1.
         -5    1    4    4    0  502  0.44139917570E+02 -0.94189580542E+01  0.29671114718E+02  0.54217286381E+02  0.47000000000E+01 0.  1.
          5    1    5    5  503    0  0.42608415386E+02 -0.24026740031E+02  0.59475079449E+02  0.77150089913E+02  0.47000000000E+01 0.  1.
         -5    1    5    5    0  503 -0.75375884018E+00  0.33731680387E+02 -0.44609559907E+02  0.56129290475E+02  0.47000000000E+01 0.  1.
<mgrwt>
<rscale>  0 0.27617095E+03</rscale>
<asrwt>0</asrwt>
<pdfrwt beam="1">  1        1 0.32022177E-01 0.27617095E+03</pdfrwt>
<pdfrwt beam="2">  1       -1 0.14093486E-01 0.27617095E+03</pdfrwt>
<totfact> 0.49165831E+03</totfact>
</mgrwt>
</event>
<event>
 9    1  0.8175317E-001  0.2804150E+03  0.7818608E-02  0.1095463E+00
          2   -1    0    0  501    0  0.00000000000E+00  0.00000000000E+00  0.66701768515E+02  0.66701768515E+02  0.00000000000E+00 0. -1.
         -2   -1    0    0    0  501 -0.00000000000E+00 -0.00000000000E+00 -0.29471693728E+03  0.29471693728E+03  0.00000000000E+00 0. -1.
         35    2    1    2    0    0  0.00000000000E+00 -0.14210854715E-13 -0.22801516877E+03  0.36141870579E+03  0.28041498482E+03 0.  0.
         25    2    3    3    0    0  0.47375342581E+02  0.36316918653E+02 -0.15167986941E+03  0.20500602045E+03  0.12432756722E+03 0.  0.
         25    2    3    3    0    0 -0.47375342581E+02 -0.36316918653E+02 -0.76335299360E+02  0.15641268535E+03  0.12277829020E+03 0.  0.
          5    1    4    4  502    0  0.77054068230E+01  0.74173101771E+02 -0.51644776059E+02  0.90831135713E+02  0.47000000000E+01 0.  1.
         -5    1    4    4    0  502  0.39669935758E+02 -0.37856183118E+02 -0.10003509335E+03  0.11417488473E+03  0.47000000000E+01 0.  1.
          5    1    5    5  503    0  0.10460996215E+02  0.26589306410E+02 -0.63608115250E+02  0.69889240823E+02  0.47000000000E+01 0.  1.
         -5    1    5    5    0  503 -0.57836338796E+02 -0.62906225062E+02 -0.12727184109E+02  0.86523444524E+02  0.47000000000E+01 0.  1.
<mgrwt>
<rscale>  0 0.28041498E+03</rscale>
<asrwt>0</asrwt>
<pdfrwt beam="1">  1        2 0.10261811E-01 0.28041498E+03</pdfrwt>
<pdfrwt beam="2">  1       -2 0.45341067E-01 0.28041498E+03</pdfrwt>
<totfact> 0.28867095E+03</totfact>
</mgrwt>
</event>
<event>
 9    1  0.8175317E-001  0.2698300E+03  0.7818608E-02  0.1101377E+00
          2   -1    0    0  501    0  0.00000000000E+00  0.00000000000E+00  0.27023756212E+03  0.27023756212E+03  0.00000000000E+00 0. -1.
         -2   -1    0    0    0  501 -0.00000000000E+00 -0.00000000000E+00 -0.67355754465E+02  0.67355754465E+02  0.00000000000E+00 0. -1.
         35    2    1    2    0    0  0.71054273576E-14  0.17763568394E-14  0.20288180765E+03  0.33759331658E+03  0.26982998263E+03 0.  0.
         25    2    3    3    0    0 -0.42411860229E+02 -0.13796097645E+01  0.60391168112E+02  0.14536167218E+03  0.12522880397E+03 0.  0.
         25    2    3    3    0    0  0.42411860229E+02  0.13796097645E+01  0.14249063954E+03  0.19223164440E+03  0.12185546168E+03 0.  0.
          5    1    4    4  502    0  0.18584046349E+02 -0.14314493262E+02 -0.28165107680E+02  0.36954496163E+02  0.47000000000E+01 0.  1.
         -5    1    4    4    0  502 -0.60995906578E+02  0.12934883497E+02  0.88556275792E+02  0.10840717602E+03  0.47000000000E+01 0.  1.
          5    1    5    5  503    0  0.45037532612E+01 -0.20929963257E+02 -0.16350701182E+02  0.27345613625E+02  0.47000000000E+01 0.  1.
         -5    1    5    5    0  503  0.37908106968E+02  0.22309573022E+02  0.15884134072E+03  0.16488603077E+03  0.47000000000E+01 0.  1.
<mgrwt>
<rscale>  0 0.26982998E+03</rscale>
<asrwt>0</asrwt>
<pdfrwt beam="1">  1        2 0.41575009E-01 0.26982998E+03</pdfrwt>
<pdfrwt beam="2">  1       -2 0.10362424E-01 0.26982998E+03</pdfrwt>
<totfact> 0.76108622E+03</totfact>
</mgrwt>
</event>
<event>
 9    1  0.8175317E-001  0.2787541E+03  0.7818608E-02  0.1096371E+00
         -2   -1    0    0    0  501 -0.00000000000E+00  0.00000000000E+00  0.52239896933E+02  0.52239896933E+02  0.00000000000E+00 0.  1.
          2   -1    0    0  501    0  0.00000000000E+00 -0.00000000000E+00 -0.37186069220E+03  0.37186069220E+03  0.00000000000E+00 0.  1.
         35    2    1    2    0    0  0.71054273576E-14  0.71054273576E-14 -0.31962079526E+03  0.42410058913E+03  0.27875411555E+03 0.  0.
         25    2    3    3    0    0 -0.31861134651E+02  0.53005976157E+02 -0.16680126750E+03  0.21750594413E+03  0.12514554520E+03 0.  0.
         25    2    3    3    0    0  0.31861134651E+02 -0.53005976157E+02 -0.15281952777E+03  0.20659464500E+03  0.12451013560E+03 0.  0.
          5    1    4    4  502    0  0.51809622785E+01 -0.37929015401E+02 -0.29092877339E+02  0.48310848588E+02  0.47000000000E+01 0.  1.
         -5    1    4    4    0  502 -0.37042096930E+02  0.90934991558E+02 -0.13770839016E+03  0.16919509554E+03  0.47000000000E+01 0.  1.
          5    1    5    5  503    0 -0.18755839872E+02 -0.32948791586E+02  0.59676395014E+01  0.38666615026E+02  0.47000000000E+01 0. -1.
         -5    1    5    5    0  503  0.50616974524E+02 -0.20057184571E+02 -0.15878716727E+03  0.16792802998E+03  0.47000000000E+01 0. -1.
<mgrwt>
<rscale>  0 0.27875412E+03</rscale>
<asrwt>0</asrwt>
<pdfrwt beam="1">  1        2 0.57209339E-01 0.27875412E+03</pdfrwt>
<pdfrwt beam="2">  1       -2 0.80369070E-02 0.27875412E+03</pdfrwt>
<totfact> 0.80686337E+03</totfact>
</mgrwt>
</event>
<event>
 9    1  0.8175317E-001  0.2745759E+03  0.7818608E-02  0.1098689E+00
         -2   -1    0    0    0  501 -0.00000000000E+00  0.00000000000E+00  0.61263442419E+01  0.61263442419E+01  0.00000000000E+00 0.  1.
          2   -1    0    0  501    0  0.00000000000E+00 -0.00000000000E+00 -0.30765461357E+04  0.30765461357E+04  0.00000000000E+00 0.  1.
         35    2    1    2    0    0  0.71054273576E-14  0.00000000000E+00 -0.30704197914E+04  0.30826724799E+04  0.27457589627E+03 0.  0.
         25    2    3    3    0    0  0.49997408322E+02  0.12439176284E+02 -0.18272739166E+04  0.18322329958E+04  0.12447212749E+03 0.  0.
         25    2    3    3    0    0 -0.49997408322E+02 -0.12439176284E+02 -0.12431458748E+04  0.12504394841E+04  0.12463050781E+03 0.  0.
          5    1    4    4  502    0  0.62047770936E+02 -0.40146569642E+02 -0.13202951910E+04  0.13223702788E+04  0.47000000000E+01 0.  1.
         -5    1    4    4    0  502 -0.12050362614E+02  0.52585745926E+02 -0.50697872564E+03  0.50986271698E+03  0.47000000000E+01 0.  1.
          5    1    5    5  503    0  0.34073860272E+02 -0.20963067306E+02 -0.20968611271E+03  0.21352010212E+03  0.47000000000E+01 0. -1.
         -5    1    5    5    0  503 -0.84071268593E+02  0.85238910223E+01 -0.10334597621E+04  0.10369193820E+04  0.47000000000E+01 0. -1.
<mgrwt>
<rscale>  0 0.27457590E+03</rscale>
<asrwt>0</asrwt>
<pdfrwt beam="1">  1        2 0.47331446E+00 0.27457590E+03</pdfrwt>
<pdfrwt beam="2">  1       -2 0.94251515E-03 0.27457590E+03</pdfrwt>
<totfact> 0.43578020E+03</totfact>
</mgrwt>
</event>
<event>
 9    1  0.8175317E-001  0.2718762E+03  0.7818608E-02  0.1100211E+00
          2   -1    0    0  501    0  0.00000000000E+00  0.00000000000E+00  0.15117422088E+04  0.15117422088E+04  0.00000000000E+00 0. -1.
         -2   -1    0    0    0  501 -0.00000000000E+00 -0.00000000000E+00 -0.12223758437E+02  0.12223758437E+02  0.00000000000E+00 0. -1.
         35    2    1    2    0    0  0.00000000000E+00  0.71054273576E-14  0.14995184503E+04  0.15239659672E+04  0.27187623345E+03 0.  0.
         25    2    3    3    0    0  0.13239245146E+02 -0.38222038706E+02  0.91045545042E+03  0.92004617614E+03  0.12617304460E+03 0.  0.
         25    2    3    3    0    0 -0.13239245146E+02  0.38222038706E+02  0.58906299990E+03  0.60391979105E+03  0.12683727494E+03 0.  0.
          5    1    4    4  502    0 -0.17897767709E+02 -0.78901634993E+02  0.56305811165E+03  0.56886054986E+03  0.47000000000E+01 0.  1.
         -5    1    4    4    0  502  0.31137012854E+02  0.40679596287E+02  0.34739733877E+03  0.35118562629E+03  0.47000000000E+01 0.  1.
          5    1    5    5  503    0 -0.19002815845E+02  0.12954780950E+02  0.12198388145E+02  0.26454187435E+02  0.47000000000E+01 0. -1.
         -5    1    5    5    0  503  0.57635706992E+01  0.25267257756E+02  0.57686461175E+03  0.57746560361E+03  0.47000000000E+01 0. -1.
<mgrwt>
<rscale>  0 0.27187623E+03</rscale>
<asrwt>0</asrwt>
<pdfrwt beam="1">  1        2 0.23257558E+00 0.27187623E+03</pdfrwt>
<pdfrwt beam="2">  1       -2 0.18805794E-02 0.27187623E+03</pdfrwt>
<totfact> 0.11379085E+04</totfact>
</mgrwt>
</event>
<event>
 9    1  0.8175317E-001  0.2688452E+03  0.7818608E-02  0.1101942E+00
          1   -1    0    0  501    0  0.00000000000E+00  0.00000000000E+00  0.72791021618E+02  0.72791021618E+02  0.00000000000E+00 0. -1.
         -1   -1    0    0    0  501 -0.00000000000E+00 -0.00000000000E+00 -0.24823714354E+03  0.24823714354E+03  0.00000000000E+00 0. -1.
         35    2    1    2    0    0  0.00000000000E+00  0.00000000000E+00 -0.17544612192E+03  0.32102816515E+03  0.26884519919E+03 0.  0.
         25    2    3    3    0    0  0.20173400011E+02 -0.49360175653E+02 -0.76329147209E+02  0.15590480006E+03  0.12504709097E+03 0.  0.
         25    2    3    3    0    0 -0.20173400011E+02  0.49360175653E+02 -0.99116974708E+02  0.16512336509E+03  0.12082283731E+03 0.  0.
          5    1    4    4  502    0 -0.26973432996E+02 -0.71177531718E+02 -0.69714410755E+02  0.10332471232E+03  0.47000000000E+01 0.  1.
         -5    1    4    4    0  502  0.47146833007E+02  0.21817356065E+02 -0.66147364544E+01  0.52580087739E+02  0.47000000000E+01 0.  1.
          5    1    5    5  503    0 -0.38602150475E+02  0.53766757268E+02 -0.23400313471E+01  0.66396957424E+02  0.47000000000E+01 0. -1.
         -5    1    5    5    0  503  0.18428750464E+02 -0.44065816150E+01 -0.96776943361E+02  0.98726407670E+02  0.47000000000E+01 0. -1.
<mgrwt>
<rscale>  0 0.26884520E+03</rscale>
<asrwt>0</asrwt>
<pdfrwt beam="1">  1        1 0.11198619E-01 0.26884520E+03</pdfrwt>
<pdfrwt beam="2">  1       -1 0.38190330E-01 0.26884520E+03</pdfrwt>
<totfact> 0.36702039E+03</totfact>
</mgrwt>
</event>
<event>
 9    1  0.8175317E-001  0.2740175E+03  0.7818608E-02  0.1099002E+00
          2   -1    0    0  501    0  0.00000000000E+00  0.00000000000E+00  0.70728059783E+03  0.70728059783E+03  0.00000000000E+00 0.  1.
         -2   -1    0    0    0  501 -0.00000000000E+00 -0.00000000000E+00 -0.26540245260E+02  0.26540245260E+02  0.00000000000E+00 0.  1.
         35    2    1    2    0    0  0.00000000000E+00  0.00000000000E+00  0.68074035257E+03  0.73382084309E+03  0.27401752159E+03 0.  0.
         25    2    3    3    0    0 -0.37247931954E+02  0.42880756160E+02  0.36387754491E+03  0.38858269570E+03  0.12394948982E+03 0.  0.
         25    2    3    3    0    0  0.37247931954E+02 -0.42880756160E+02  0.31686280767E+03  0.34523814739E+03  0.12474442613E+03 0.  0.
          5    1    4    4  502    0 -0.54059434742E+02  0.74592884381E+02  0.19296465003E+03  0.21387839313E+03  0.47000000000E+01 0. -1.
         -5    1    4    4    0  502  0.16811502788E+02 -0.31712128221E+02  0.17091289488E+03  0.17470430257E+03  0.47000000000E+01 0. -1.
          5    1    5    5  503    0 -0.12740168104E+02  0.38685611403E+02  0.85021608657E+02  0.94390954818E+02  0.47000000000E+01 0.  1.
         -5    1    5    5    0  503  0.49988100058E+02 -0.81566367563E+02  0.23184119901E+03  0.25084719257E+03  0.47000000000E+01 0.  1.
<mgrwt>
<rscale>  0 0.27401752E+03</rscale>
<asrwt>0</asrwt>
<pdfrwt beam="1">  1        2 0.10881239E+00 0.27401752E+03</pdfrwt>
<pdfrwt beam="2">  1       -2 0.40831152E-02 0.27401752E+03</pdfrwt>
<totfact> 0.10987472E+04</totfact>
</mgrwt>
</event>
<event>
 9    1  0.8175317E-001  0.2770516E+03  0.7818608E-02  0.1097310E+00
          2   -1    0    0  501    0  0.00000000000E+00  0.00000000000E+00  0.72483377496E+03  0.72483377496E+03  0.00000000000E+00 0. -1.
         -2   -1    0    0    0  501 -0.00000000000E+00 -0.00000000000E+00 -0.26474199822E+02  0.26474199822E+02  0.00000000000E+00 0. -1.
         35    2    1    2    0    0  0.00000000000E+00  0.35527136788E-14  0.69835957513E+03  0.75130797478E+03  0.27705157784E+03 0.  0.
         25    2    3    3    0    0  0.54320630036E+02  0.11017787098E+02  0.29230873004E+03  0.32257902125E+03  0.12466237931E+03 0.  0.
         25    2    3    3    0    0 -0.54320630036E+02 -0.11017787098E+02  0.40605084510E+03  0.42872895352E+03  0.12593293575E+03 0.  0.
          5    1    4    4  502    0  0.68282505328E+02  0.46851365699E+02  0.25738107991E+03  0.27041571940E+03  0.47000000000E+01 0.  1.
         -5    1    4    4    0  502 -0.13961875291E+02 -0.35833578602E+02  0.34927650130E+02  0.52163301857E+02  0.47000000000E+01 0.  1.
          5    1    5    5  503    0  0.22600450197E+01 -0.26508244305E+02  0.10758390183E+02  0.29079679829E+02  0.47000000000E+01 0.  1.
         -5    1    5    5    0  503 -0.56580675056E+02  0.15490457207E+02  0.39529245491E+03  0.39964927370E+03  0.47000000000E+01 0.  1.
<mgrwt>
<rscale>  0 0.27705158E+03</rscale>
<asrwt>0</asrwt>
<pdfrwt beam="1">  1        2 0.11151287E+00 0.27705158E+03</pdfrwt>
<pdfrwt beam="2">  1       -2 0.40729544E-02 0.27705158E+03</pdfrwt>
<totfact> 0.10707378E+04</totfact>
</mgrwt>
</event>
<event>
 9    1  0.8175317E-001  0.2752289E+03  0.7818608E-02  0.1098324E+00
         -2   -1    0    0    0  501 -0.00000000000E+00  0.00000000000E+00  0.22367197690E+02  0.22367197690E+02  0.00000000000E+00 0.  1.
          2   -1    0    0  501    0  0.00000000000E+00 -0.00000000000E+00 -0.84667465415E+03  0.84667465415E+03  0.00000000000E+00 0.  1.
         35    2    1    2    0    0  0.00000000000E+00  0.17763568394E-14 -0.82430745646E+03  0.86904185184E+03  0.27522891831E+03 0.  0.
         25    2    3    3    0    0 -0.50819483829E+02  0.75406163970E+01 -0.31739862864E+03  0.34440030756E+03  0.12341070276E+03 0.  0.
         25    2    3    3    0    0  0.50819483829E+02 -0.75406163970E+01 -0.50690882782E+03  0.52464154428E+03  0.12511078861E+03 0.  0.
          5    1    4    4  502    0  0.23820050365E+02 -0.38603969337E+02 -0.11742178634E+03  0.12596677004E+03  0.47000000000E+01 0. -1.
         -5    1    4    4    0  502 -0.74639534194E+02  0.46144585734E+02 -0.19997684230E+03  0.21843353752E+03  0.47000000000E+01 0. -1.
          5    1    5    5  503    0 -0.15181913690E+02 -0.16294136170E+02 -0.12937327459E+02  0.26181172980E+02  0.47000000000E+01 0. -1.
         -5    1    5    5    0  503  0.66001397519E+02  0.87535197730E+01 -0.49397150036E+03  0.49846037130E+03  0.47000000000E+01 0. -1.
<mgrwt>
<rscale>  0 0.27522892E+03</rscale>
<asrwt>0</asrwt>
<pdfrwt beam="1">  1        2 0.13025763E+00 0.27522892E+03</pdfrwt>
<pdfrwt beam="2">  1       -2 0.34411076E-02 0.27522892E+03</pdfrwt>
<totfact> 0.11328233E+04</totfact>
</mgrwt>
</event>
<event>
 9    1  0.8175317E-001  0.2735854E+03  0.7818608E-02  0.1099245E+00
         -2   -1    0    0    0  501 -0.00000000000E+00  0.00000000000E+00  0.75498413799E+01  0.75498413799E+01  0.00000000000E+00 0. -1.
          2   -1    0    0  501    0  0.00000000000E+00 -0.00000000000E+00 -0.24784953293E+04  0.24784953293E+04  0.00000000000E+00 0. -1.
         35    2    1    2    0    0  0.00000000000E+00  0.00000000000E+00 -0.24709454879E+04  0.24860451706E+04  0.27358542795E+03 0.  0.
         25    2    3    3    0    0  0.22475033970E+01  0.23440144526E+02 -0.77211029087E+03  0.78245008491E+03  0.12457665294E+03 0.  0.
         25    2    3    3    0    0 -0.22475033970E+01 -0.23440144526E+02 -0.16988351970E+04  0.17035950857E+04  0.12506277578E+03 0.  0.
          5    1    4    4  502    0  0.41517339983E+02  0.88848671597E+01 -0.96562100457E+02  0.10558863399E+03  0.47000000000E+01 0.  1.
         -5    1    4    4    0  502 -0.39269836586E+02  0.14555277366E+02 -0.67554819042E+03  0.67686145092E+03  0.47000000000E+01 0.  1.
          5    1    5    5  503    0  0.41608908472E+02 -0.31325932473E+02 -0.14371835303E+04  0.14381346269E+04  0.47000000000E+01 0.  1.
         -5    1    5    5    0  503 -0.43856411869E+02  0.78857879477E+01 -0.26165166667E+03  0.26546045879E+03  0.47000000000E+01 0.  1.
<mgrwt>
<rscale>  0 0.27358543E+03</rscale>
<asrwt>0</asrwt>
<pdfrwt beam="1">  1        2 0.38130739E+00 0.27358543E+03</pdfrwt>
<pdfrwt beam="2">  1       -2 0.11615128E-02 0.27358543E+03</pdfrwt>
<totfact> 0.70652416E+03</totfact>
</mgrwt>
</event>
<event>
 9    1  0.8175317E-001  0.2593331E+03  0.7818608E-02  0.1107545E+00
         -2   -1    0    0    0  501 -0.00000000000E+00  0.00000000000E+00  0.17394485773E+02  0.17394485773E+02  0.00000000000E+00 0. -1.
          2   -1    0    0  501    0  0.00000000000E+00 -0.00000000000E+00 -0.96659482673E+03  0.96659482673E+03  0.00000000000E+00 0. -1.
         35    2    1    2    0    0 -0.71054273576E-14  0.35527136788E-14 -0.94920034095E+03  0.98398931250E+03  0.25933314452E+03 0.  0.
         25    2    3    3    0    0 -0.13793572402E+02 -0.12509360596E+02 -0.40707236023E+03  0.42755717189E+03  0.12942365328E+03 0.  0.
         25    2    3    3    0    0  0.13793572402E+02  0.12509360596E+02 -0.54212798072E+03  0.55643214061E+03  0.12396464367E+03 0.  0.
          5    1    4    4  502    0 -0.48470528171E+02 -0.42905890077E+02 -0.11692382812E+03  0.13372949969E+03  0.47000000000E+01 0.  1.
         -5    1    4    4    0  502  0.34676955770E+02  0.30396529481E+02 -0.29014853211E+03  0.29382767220E+03  0.47000000000E+01 0.  1.
          5    1    5    5  503    0 -0.39110712634E+02  0.45623107624E+02 -0.21099712055E+03  0.21943789708E+03  0.47000000000E+01 0.  1.
         -5    1    5    5    0  503  0.52904285036E+02 -0.33113747028E+02 -0.33113086017E+03  0.33699424353E+03  0.47000000000E+01 0.  1.
<mgrwt>
<rscale>  0 0.25933314E+03</rscale>
<asrwt>0</asrwt>
<pdfrwt beam="1">  1        2 0.14870694E+00 0.25933314E+03</pdfrwt>
<pdfrwt beam="2">  1       -2 0.26760739E-02 0.25933314E+03</pdfrwt>
<totfact> 0.13758198E+04</totfact>
</mgrwt>
</event>
<event>
 9    1  0.8175317E-001  0.2732569E+03  0.7818608E-02  0.1099430E+00
         -2   -1    0    0    0  501 -0.00000000000E+00  0.00000000000E+00  0.43683288653E+03  0.43683288653E+03  0.00000000000E+00 0.  1.
          2   -1    0    0  501    0  0.00000000000E+00 -0.00000000000E+00 -0.42733356322E+02  0.42733356322E+02  0.00000000000E+00 0.  1.
         35    2    1    2    0    0  0.00000000000E+00 -0.17763568394E-14  0.39409953021E+03  0.47956624285E+03  0.27325691496E+03 0.  0.
         25    2    3    3    0    0 -0.55841148894E+02 -0.10630137367E+02  0.19705212497E+03  0.24029277627E+03  0.12521918640E+03 0.  0.
         25    2    3    3    0    0  0.55841148894E+02  0.10630137367E+02  0.19704740524E+03  0.23927346658E+03  0.12325939384E+03 0.  0.
          5    1    4    4  502    0 -0.82722860455E+02 -0.42601297592E+02  0.15492947802E+03  0.18078488697E+03  0.47000000000E+01 0. -1.
         -5    1    4    4    0  502  0.26881711561E+02  0.31971160225E+02  0.42122646950E+02  0.59507889297E+02  0.47000000000E+01 0. -1.
          5    1    5    5  503    0  0.69389760935E+02 -0.14978683758E+02  0.44469815461E+02  0.83898476607E+02  0.47000000000E+01 0.  1.
         -5    1    5    5    0  503 -0.13548612042E+02  0.25608821125E+02  0.15257758978E+03  0.15537498997E+03  0.47000000000E+01 0.  1.
<mgrwt>
<rscale>  0 0.27325691E+03</rscale>
<asrwt>0</asrwt>
<pdfrwt beam="1">  1        2 0.65743628E-02 0.27325691E+03</pdfrwt>
<pdfrwt beam="2">  1       -2 0.67205057E-01 0.27325691E+03</pdfrwt>
<totfact> 0.22753104E+03</totfact>
</mgrwt>
</event>
<event>
 9    1  0.8175317E-001  0.2746535E+03  0.7818608E-02  0.1098645E+00
          2   -1    0    0  501    0  0.00000000000E+00  0.00000000000E+00  0.32395257554E+03  0.32395257554E+03  0.00000000000E+00 0.  1.
         -2   -1    0    0    0  501 -0.00000000000E+00 -0.00000000000E+00 -0.58214172230E+02  0.58214172230E+02  0.00000000000E+00 0.  1.
         35    2    1    2    0    0  0.71054273576E-14  0.14210854715E-13  0.26573840331E+03  0.38216674777E+03  0.27465346185E+03 0.  0.
         25    2    3    3    0    0 -0.22242951215E+02 -0.56005825493E+02  0.13830379368E+03  0.19635706620E+03  0.12568514922E+03 0.  0.
         25    2    3    3    0    0  0.22242951215E+02  0.56005825493E+02  0.12743460963E+03  0.18580968157E+03  0.12105476721E+03 0.  0.
          5    1    4    4  502    0  0.12014363053E+02 -0.14739741641E+01 -0.20872903362E+02  0.24582221506E+02  0.47000000000E+01 0. -1.
         -5    1    4    4    0  502 -0.34257314268E+02 -0.54531851329E+02  0.15917669704E+03  0.17177484470E+03  0.47000000000E+01 0. -1.
          5    1    5    5  503    0  0.35069448170E+02 -0.30119040013E+02  0.31340415542E+02  0.56047608446E+02  0.47000000000E+01 0. -1.
         -5    1    5    5    0  503 -0.12826496955E+02  0.86124865506E+02  0.96094194089E+02  0.12976207312E+03  0.47000000000E+01 0. -1.
<mgrwt>
<rscale>  0 0.27465346E+03</rscale>
<asrwt>0</asrwt>
<pdfrwt beam="1">  1        2 0.49838857E-01 0.27465346E+03</pdfrwt>
<pdfrwt beam="2">  1       -2 0.89560267E-02 0.27465346E+03</pdfrwt>
<totfact> 0.78963031E+03</totfact>
</mgrwt>
</event>
<event>
 9    1  0.8175317E-001  0.2748118E+03  0.7818608E-02  0.1098557E+00
         -2   -1    0    0    0  501 -0.00000000000E+00  0.00000000000E+00  0.53559199973E+03  0.53559199973E+03  0.00000000000E+00 0. -1.
          2   -1    0    0  501    0  0.00000000000E+00 -0.00000000000E+00 -0.35251431598E+02  0.35251431598E+02  0.00000000000E+00 0. -1.
         35    2    1    2    0    0  0.00000000000E+00  0.00000000000E+00  0.50034056813E+03  0.57084343133E+03  0.27481182466E+03 0.  0.
         25    2    3    3    0    0 -0.99357447090E+01  0.56720827178E+02  0.26154604117E+03  0.29528352232E+03  0.12437867843E+03 0.  0.
         25    2    3    3    0    0  0.99357447090E+01 -0.56720827178E+02  0.23879452696E+03  0.27555990900E+03  0.12487780461E+03 0.  0.
          5    1    4    4  502    0  0.27805052458E+02  0.71849060473E+02  0.88350249045E+02  0.11731694225E+03  0.47000000000E+01 0. -1.
         -5    1    4    4    0  502 -0.37740797167E+02 -0.15128233295E+02  0.17319579212E+03  0.17796658007E+03  0.47000000000E+01 0. -1.
          5    1    5    5  503    0 -0.42103154000E+02  0.17877637630E+02  0.90960210786E+02  0.10192220293E+03  0.47000000000E+01 0.  1.
         -5    1    5    5    0  503  0.52038898709E+02 -0.74598464808E+02  0.14783431618E+03  0.17363770607E+03  0.47000000000E+01 0.  1.
<mgrwt>
<rscale>  0 0.27481182E+03</rscale>
<asrwt>0</asrwt>
<pdfrwt beam="1">  1        2 0.54232975E-02 0.27481182E+03</pdfrwt>
<pdfrwt beam="2">  1       -2 0.82398764E-01 0.27481182E+03</pdfrwt>
<totfact> 0.18791968E+03</totfact>
</mgrwt>
</event>
<event>
 9    1  0.8175317E-001  0.2763379E+03  0.7818608E-02  0.1097706E+00
         -4   -1    0    0    0  501 -0.00000000000E+00  0.00000000000E+00  0.15990791192E+03  0.15990791192E+03  0.00000000000E+00 0.  1.
          4   -1    0    0  501    0  0.00000000000E+00 -0.00000000000E+00 -0.11938531273E+03  0.11938531273E+03  0.00000000000E+00 0.  1.
         35    2    1    2    0    0 -0.35527136788E-14 -0.14210854715E-13  0.40522599197E+02  0.27929322465E+03  0.27633788066E+03 0.  0.
         25    2    3    3    0    0 -0.26457591133E+02 -0.47444915681E+02  0.43513339640E+02  0.14325646361E+03  0.12521173862E+03 0.  0.
         25    2    3    3    0    0  0.26457591133E+02  0.47444915681E+02 -0.29907404438E+01  0.13603676103E+03  0.12468372657E+03 0.  0.
          5    1    4    4  502    0 -0.35934539061E+02 -0.40034083438E+02 -0.34565742465E+02  0.64116296574E+02  0.47000000000E+01 0. -1.
         -5    1    4    4    0  502  0.94769479276E+01 -0.74108322427E+01  0.78079082106E+02  0.79140167039E+02  0.47000000000E+01 0. -1.
          5    1    5    5  503    0  0.52247851528E+02 -0.25599219424E+02 -0.26096002678E+01  0.58429941280E+02  0.47000000000E+01 0.  1.
         -5    1    5    5    0  503 -0.25790260395E+02  0.73044135105E+02 -0.38114017594E+00  0.77606819753E+02  0.47000000000E+01 0.  1.
<mgrwt>
<rscale>  0 0.27633788E+03</rscale>
<asrwt>0</asrwt>
<pdfrwt beam="1">  1        4 0.18366971E-01 0.27633788E+03</pdfrwt>
<pdfrwt beam="2">  1       -4 0.24601217E-01 0.27633788E+03</pdfrwt>
<totfact> 0.76206841E+02</totfact>
</mgrwt>
</event>
<event>
 9    1  0.8175317E-001  0.2761716E+03  0.7818608E-02  0.1097798E+00
         -1   -1    0    0    0  501 -0.00000000000E+00  0.00000000000E+00  0.49870171446E+03  0.49870171446E+03  0.00000000000E+00 0.  1.
          1   -1    0    0  501    0  0.00000000000E+00 -0.00000000000E+00 -0.38234659943E+02  0.38234659943E+02  0.00000000000E+00 0.  1.
         35    2    1    2    0    0  0.71054273576E-14  0.71054273576E-14  0.46046705452E+03  0.53693637441E+03  0.27617161668E+03 0.  0.
         25    2    3    3    0    0  0.34195275010E+02  0.19491585852E+02  0.14640074534E+03  0.19647737739E+03  0.12498377029E+03 0.  0.
         25    2    3    3    0    0 -0.34195275010E+02 -0.19491585852E+02  0.31406630918E+03  0.34045899702E+03  0.12540112973E+03 0.  0.
          5    1    4    4  502    0  0.34064099033E+00  0.56960097648E+02  0.20456484269E+02  0.60705242846E+02  0.47000000000E+01 0. -1.
         -5    1    4    4    0  502  0.33854634020E+02 -0.37468511796E+02  0.12594426107E+03  0.13577213454E+03  0.47000000000E+01 0. -1.
          5    1    5    5  503    0  0.29469722736E+02  0.34580068413E+02  0.83384452588E+02  0.95075247163E+02  0.47000000000E+01 0. -1.
         -5    1    5    5    0  503 -0.63664997747E+02 -0.54071654265E+02  0.23068185659E+03  0.24538374985E+03  0.47000000000E+01 0. -1.
<mgrwt>
<rscale>  0 0.27617162E+03</rscale>
<asrwt>0</asrwt>
<pdfrwt beam="1">  1        1 0.58822557E-02 0.27617162E+03</pdfrwt>
<pdfrwt beam="2">  1       -1 0.76723336E-01 0.27617162E+03</pdfrwt>
<totfact> 0.23582962E+03</totfact>
</mgrwt>
</event>
<event>
 9    1  0.8175317E-001  0.2751082E+03  0.7818608E-02  0.1098391E+00
         -1   -1    0    0    0  501 -0.00000000000E+00  0.00000000000E+00  0.29808283090E+02  0.29808283090E+02  0.00000000000E+00 0.  1.
          1   -1    0    0  501    0  0.00000000000E+00 -0.00000000000E+00 -0.63476069511E+03  0.63476069511E+03  0.00000000000E+00 0.  1.
         35    2    1    2    0    0  0.00000000000E+00  0.00000000000E+00 -0.60495241202E+03  0.66456897820E+03  0.27510817141E+03 0.  0.
         25    2    3    3    0    0  0.79164013871E+01 -0.51100418518E+02 -0.36587814488E+03  0.39001532796E+03  0.12478468240E+03 0.  0.
         25    2    3    3    0    0 -0.79164013871E+01  0.51100418518E+02 -0.23907426714E+03  0.27455365024E+03  0.12469675002E+03 0.  0.
          5    1    4    4  502    0  0.46271962623E+02 -0.39131959714E+02 -0.75944558794E+02  0.97273176192E+02  0.47000000000E+01 0.  1.
         -5    1    4    4    0  502 -0.38355561236E+02 -0.11968458804E+02 -0.28993358609E+03  0.29274215177E+03  0.47000000000E+01 0.  1.
          5    1    5    5  503    0 -0.27680708915E+02  0.15881935881E+02 -0.23082413316E+03  0.23306721773E+03  0.47000000000E+01 0.  1.
         -5    1    5    5    0  503  0.19764307528E+02  0.35218482637E+02 -0.82501339844E+01  0.41486432506E+02  0.47000000000E+01 0.  1.
<mgrwt>
<rscale>  0 0.27510817E+03</rscale>
<asrwt>0</asrwt>
<pdfrwt beam="1">  1        1 0.97655495E-01 0.27510817E+03</pdfrwt>
<pdfrwt beam="2">  1       -1 0.45858896E-02 0.27510817E+03</pdfrwt>
<totfact> 0.64880132E+03</totfact>
</mgrwt>
</event>
<event>
 9    1  0.8175317E-001  0.2746951E+03  0.7818608E-02  0.1098622E+00
         -1   -1    0    0    0  501 -0.00000000000E+00  0.00000000000E+00  0.11142753052E+02  0.11142753052E+02  0.00000000000E+00 0.  1.
          1   -1    0    0  501    0  0.00000000000E+00 -0.00000000000E+00 -0.16929705966E+04  0.16929705966E+04  0.00000000000E+00 0.  1.
         35    2    1    2    0    0  0.00000000000E+00  0.00000000000E+00 -0.16818278435E+04  0.17041133496E+04  0.27469512760E+03 0.  0.
         25    2    3    3    0    0 -0.31857963975E+02  0.22238987267E+02 -0.11029865589E+04  0.11106935617E+04  0.12470499830E+03 0.  0.
         25    2    3    3    0    0  0.31857963975E+02 -0.22238987267E+02 -0.57884128464E+03  0.59341978789E+03  0.12482110969E+03 0.  0.
          5    1    4    4  502    0 -0.17844556871E+01  0.30387821633E+02 -0.61991166003E+02  0.69221374214E+02  0.47000000000E+01 0. -1.
         -5    1    4    4    0  502 -0.30073508288E+02 -0.81488343657E+01 -0.10409953929E+04  0.10414721875E+04  0.47000000000E+01 0. -1.
          5    1    5    5  503    0  0.51988525797E+02 -0.16333990152E+02 -0.99062055645E+02  0.11315912211E+03  0.47000000000E+01 0. -1.
         -5    1    5    5    0  503 -0.20130561822E+02 -0.59049971151E+01 -0.47977922900E+03  0.48026066577E+03  0.47000000000E+01 0. -1.
<mgrwt>
<rscale>  0 0.27469513E+03</rscale>
<asrwt>0</asrwt>
<pdfrwt beam="1">  1        1 0.26045689E+00 0.27469513E+03</pdfrwt>
<pdfrwt beam="2">  1       -1 0.17142705E-02 0.27469513E+03</pdfrwt>
<totfact> 0.45898116E+03</totfact>
</mgrwt>
</event>
<event>
 9    1  0.8175317E-001  0.2740523E+03  0.7818608E-02  0.1098982E+00
          1   -1    0    0  501    0  0.00000000000E+00  0.00000000000E+00  0.16257486624E+03  0.16257486624E+03  0.00000000000E+00 0.  1.
         -1   -1    0    0    0  501 -0.00000000000E+00 -0.00000000000E+00 -0.11549245061E+03  0.11549245061E+03  0.00000000000E+00 0.  1.
         35    2    1    2    0    0 -0.35527136788E-14  0.14210854715E-13  0.47082415631E+02  0.27806731685E+03  0.27405232865E+03 0.  0.
         25    2    3    3    0    0 -0.61561217273E+01  0.35085082341E+02  0.64937408339E+02  0.14633907827E+03  0.12621171891E+03 0.  0.
         25    2    3    3    0    0  0.61561217273E+01 -0.35085082341E+02 -0.17854992708E+02  0.13172823858E+03  0.12555742605E+03 0.  0.
          5    1    4    4  502    0  0.21735300158E+02 -0.29988434708E+02 -0.14297205202E+02  0.39977863447E+02  0.47000000000E+01 0. -1.
         -5    1    4    4    0  502 -0.27891421885E+02  0.65073517049E+02  0.79234613541E+02  0.10636121482E+03  0.47000000000E+01 0. -1.
          5    1    5    5  503    0 -0.50604457343E+02 -0.75869353982E+01  0.23143375674E+02  0.56356707935E+02  0.47000000000E+01 0. -1.
         -5    1    5    5    0  503  0.56760579070E+02 -0.27498146943E+02 -0.40998368381E+02  0.75371530644E+02  0.47000000000E+01 0. -1.
<mgrwt>
<rscale>  0 0.27405233E+03</rscale>
<asrwt>0</asrwt>
<pdfrwt beam="1">  1        1 0.25011518E-01 0.27405233E+03</pdfrwt>
<pdfrwt beam="2">  1       -1 0.17768069E-01 0.27405233E+03</pdfrwt>
<totfact> 0.46451529E+03</totfact>
</mgrwt>
</event>
<event>
 9    1  0.8175317E-001  0.2691110E+03  0.7818608E-02  0.1101789E+00
          1   -1    0    0  501    0  0.00000000000E+00  0.00000000000E+00  0.67902619185E+02  0.67902619185E+02  0.00000000000E+00 0.  1.
         -1   -1    0    0    0  501 -0.00000000000E+00 -0.00000000000E+00 -0.26663456236E+03  0.26663456236E+03  0.00000000000E+00 0.  1.
         35    2    1    2    0    0  0.71054273576E-14 -0.35527136788E-14 -0.19873194317E+03  0.33453718154E+03  0.26911101909E+03 0.  0.
         25    2    3    3    0    0  0.29850847913E+02 -0.29929454728E+02 -0.64460545487E+02  0.14661264356E+03  0.12471270964E+03 0.  0.
         25    2    3    3    0    0 -0.29850847913E+02  0.29929454728E+02 -0.13427139768E+03  0.18792453798E+03  0.12449890907E+03 0.  0.
          5    1    4    4  502    0  0.17018281543E+02 -0.54006649593E+02 -0.91633768445E+02  0.10782011698E+03  0.47000000000E+01 0.  1.
         -5    1    4    4    0  502  0.12832566370E+02  0.24077194866E+02  0.27173222958E+02  0.38792526576E+02  0.47000000000E+01 0.  1.
          5    1    5    5  503    0  0.47878395367E+02  0.15667318844E+02 -0.37961386862E+02  0.63253162097E+02  0.47000000000E+01 0. -1.
         -5    1    5    5    0  503 -0.77729243280E+02  0.14262135883E+02 -0.96310010821E+02  0.12467137589E+03  0.47000000000E+01 0. -1.
<mgrwt>
<rscale>  0 0.26911102E+03</rscale>
<asrwt>0</asrwt>
<pdfrwt beam="1">  1        1 0.10446557E-01 0.26911102E+03</pdfrwt>
<pdfrwt beam="2">  1       -1 0.41020701E-01 0.26911102E+03</pdfrwt>
<totfact> 0.35488415E+03</totfact>
</mgrwt>
</event>
<event>
 9    1  0.8175317E-001  0.2738247E+03  0.7818608E-02  0.1099110E+00
          3   -1    0    0  501    0  0.00000000000E+00  0.00000000000E+00  0.20635617408E+02  0.20635617408E+02  0.00000000000E+00 0. -1.
         -3   -1    0    0    0  501 -0.00000000000E+00 -0.00000000000E+00 -0.90838051867E+03  0.90838051867E+03  0.00000000000E+00 0. -1.
         35    2    1    2    0    0  0.00000000000E+00 -0.35527136788E-14 -0.88774490126E+03  0.92901613607E+03  0.27382470922E+03 0.  0.
         25    2    3    3    0    0 -0.35460525731E+02 -0.28489130454E+02 -0.33284143326E+03  0.35851110949E+03  0.12521068843E+03 0.  0.
         25    2    3    3    0    0  0.35460525731E+02  0.28489130454E+02 -0.55490346800E+03  0.57050502658E+03  0.12445500038E+03 0.  0.
          5    1    4    4  502    0  0.20385610209E+02 -0.70141548377E+01 -0.18722105686E+01  0.22144223719E+02  0.47000000000E+01 0.  1.
         -5    1    4    4    0  502 -0.55846135940E+02 -0.21474975616E+02 -0.33096922269E+03  0.33636688577E+03  0.47000000000E+01 0.  1.
          5    1    5    5  503    0  0.52746183589E+01  0.11271808994E+02 -0.52277746210E+03  0.52294668959E+03  0.47000000000E+01 0. -1.
         -5    1    5    5    0  503  0.30185907372E+02  0.17217321460E+02 -0.32126005900E+02  0.47558336990E+02  0.47000000000E+01 0. -1.
<mgrwt>
<rscale>  0 0.27382471E+03</rscale>
<asrwt>0</asrwt>
<pdfrwt beam="1">  1        3 0.31747108E-02 0.27382471E+03</pdfrwt>
<pdfrwt beam="2">  1       -3 0.13975083E+00 0.27382471E+03</pdfrwt>
<totfact> 0.48265649E+02</totfact>
</mgrwt>
</event>
<event>
 9    1  0.8175317E-001  0.2734887E+03  0.7818608E-02  0.1099299E+00
         -2   -1    0    0    0  501 -0.00000000000E+00  0.00000000000E+00  0.68219294189E+01  0.68219294189E+01  0.00000000000E+00 0.  1.
          2   -1    0    0  501    0  0.00000000000E+00 -0.00000000000E+00 -0.27410149935E+04  0.27410149935E+04  0.00000000000E+00 0.  1.
         35    2    1    2    0    0  0.71054273576E-14  0.00000000000E+00 -0.27341930641E+04  0.27478369230E+04  0.27348865294E+03 0.  0.
         25    2    3    3    0    0 -0.50126859793E+02 -0.18084283746E+02 -0.12227183658E+04  0.12302712628E+04  0.12524948922E+03 0.  0.
         25    2    3    3    0    0  0.50126859793E+02  0.18084283746E+02 -0.15114746983E+04  0.15175656602E+04  0.12494008932E+03 0.  0.
          5    1    4    4  502    0  0.19386495327E+02 -0.49100398891E+02 -0.32223590031E+03  0.32656507899E+03  0.47000000000E+01 0.  1.
         -5    1    4    4    0  502 -0.69513355120E+02  0.31016115145E+02 -0.90048246552E+03  0.90370618381E+03  0.47000000000E+01 0.  1.
          5    1    5    5  503    0  0.36601151641E+02 -0.42076715795E+02 -0.35004732013E+03  0.35449303328E+03  0.47000000000E+01 0. -1.
         -5    1    5    5    0  503  0.13525708152E+02  0.60160999541E+02 -0.11614273782E+04  0.11630726269E+04  0.47000000000E+01 0. -1.
<mgrwt>
<rscale>  0 0.27348865E+03</rscale>
<asrwt>0</asrwt>
<pdfrwt beam="1">  1        2 0.42169435E+00 0.27348865E+03</pdfrwt>
<pdfrwt beam="2">  1       -2 0.10495283E-02 0.27348865E+03</pdfrwt>
<totfact> 0.58504718E+03</totfact>
</mgrwt>
</event>
<event>
 9    1  0.8175317E-001  0.2596482E+03  0.7818608E-02  0.1107355E+00
         -1   -1    0    0    0  501 -0.00000000000E+00  0.00000000000E+00  0.53929364289E+02  0.53929364289E+02  0.00000000000E+00 0.  1.
          1   -1    0    0  501    0  0.00000000000E+00 -0.00000000000E+00 -0.31252550966E+03  0.31252550966E+03  0.00000000000E+00 0.  1.
         35    2    1    2    0    0  0.88817841970E-14  0.00000000000E+00 -0.25859614537E+03  0.36645487395E+03  0.25964823943E+03 0.  0.
         25    2    3    3    0    0 -0.12528665594E+02 -0.29978305111E+02 -0.15081604934E+03  0.19836607618E+03  0.12469143194E+03 0.  0.
         25    2    3    3    0    0  0.12528665594E+02  0.29978305111E+02 -0.10778009602E+03  0.16808879777E+03  0.12482639383E+03 0.  0.
          5    1    4    4  502    0  0.13572658216E+02 -0.74251364340E+02 -0.73892474060E+02  0.10573395803E+03  0.47000000000E+01 0. -1.
         -5    1    4    4    0  502 -0.26101323811E+02  0.44273059229E+02 -0.76923575283E+02  0.92632118147E+02  0.47000000000E+01 0. -1.
          5    1    5    5  503    0 -0.51819305187E+02  0.93306164207E+01 -0.18475118008E+02  0.55997506893E+02  0.47000000000E+01 0. -1.
         -5    1    5    5    0  503  0.64347970781E+02  0.20647688691E+02 -0.89304978017E+02  0.11209129088E+03  0.47000000000E+01 0. -1.
<mgrwt>
<rscale>  0 0.25964824E+03</rscale>
<asrwt>0</asrwt>
<pdfrwt beam="1">  1        1 0.48080847E-01 0.25964824E+03</pdfrwt>
<pdfrwt beam="2">  1       -1 0.82968253E-02 0.25964824E+03</pdfrwt>
<totfact> 0.67034291E+03</totfact>
</mgrwt>
</event>
<event>
 9    1  0.8175317E-001  0.2756283E+03  0.7818608E-02  0.1098101E+00
         -2   -1    0    0    0  501 -0.00000000000E+00  0.00000000000E+00  0.10751811233E+02  0.10751811233E+02  0.00000000000E+00 0.  1.
          2   -1    0    0  501    0  0.00000000000E+00 -0.00000000000E+00 -0.17664689064E+04  0.17664689064E+04  0.00000000000E+00 0.  1.
         35    2    1    2    0    0  0.35527136788E-14  0.00000000000E+00 -0.17557170952E+04  0.17772207177E+04  0.27562830211E+03 0.  0.
         25    2    3    3    0    0 -0.18158185432E+02 -0.31002625091E+02 -0.11632925517E+04  0.11704968365E+04  0.12458892787E+03 0.  0.
         25    2    3    3    0    0  0.18158185432E+02  0.31002625091E+02 -0.59242454351E+03  0.60672388118E+03  0.12592118876E+03 0.  0.
          5    1    4    4  502    0 -0.41456447160E+01 -0.42235955058E+02 -0.11395902824E+04  0.11403899175E+04  0.47000000000E+01 0.  1.
         -5    1    4    4    0  502 -0.14012540716E+02  0.11233329967E+02 -0.23702269293E+02  0.30106918957E+02  0.47000000000E+01 0.  1.
          5    1    5    5  503    0 -0.24289967809E+02 -0.20724239330E+02 -0.45971201931E+02  0.56168835122E+02  0.47000000000E+01 0.  1.
         -5    1    5    5    0  503  0.42448153241E+02  0.51726864420E+02 -0.54645334158E+03  0.55055504605E+03  0.47000000000E+01 0.  1.
<mgrwt>
<rscale>  0 0.27562830E+03</rscale>
<asrwt>0</asrwt>
<pdfrwt beam="1">  1        2 0.27176465E+00 0.27562830E+03</pdfrwt>
<pdfrwt beam="2">  1       -2 0.16541236E-02 0.27562830E+03</pdfrwt>
<totfact> 0.10075143E+04</totfact>
</mgrwt>
</event>
<event>
 9    1  0.8175317E-001  0.2749465E+03  0.7818608E-02  0.1098482E+00
          1   -1    0    0  501    0  0.00000000000E+00  0.00000000000E+00  0.28372515873E+02  0.28372515873E+02  0.00000000000E+00 0.  1.
         -1   -1    0    0    0  501 -0.00000000000E+00 -0.00000000000E+00 -0.66609842286E+03  0.66609842286E+03  0.00000000000E+00 0.  1.
         35    2    1    2    0    0 -0.71054273576E-14  0.00000000000E+00 -0.63772590698E+03  0.69447093873E+03  0.27494645352E+03 0.  0.
         25    2    3    3    0    0  0.21018193992E+02 -0.14179718164E+02 -0.45117580695E+03  0.46858634605E+03  0.12397873221E+03 0.  0.
         25    2    3    3    0    0 -0.21018193992E+02  0.14179718164E+02 -0.18655010003E+03  0.22588459268E+03  0.12482019269E+03 0.  0.
          5    1    4    4  502    0  0.57212443609E+02  0.22115943358E+02 -0.34673743332E+03  0.35215240496E+03  0.47000000000E+01 0. -1.
         -5    1    4    4    0  502 -0.36194249618E+02 -0.36295661522E+02 -0.10443837363E+03  0.11643394109E+03  0.47000000000E+01 0. -1.
          5    1    5    5  503    0  0.39001432222E+02  0.31244704930E+02 -0.13750352063E+03  0.14637845295E+03  0.47000000000E+01 0.  1.
         -5    1    5    5    0  503 -0.60019626214E+02 -0.17064986766E+02 -0.49046579403E+02  0.79506139734E+02  0.47000000000E+01 0.  1.
<mgrwt>
<rscale>  0 0.27494645E+03</rscale>
<asrwt>0</asrwt>
<pdfrwt beam="1">  1        1 0.43650023E-02 0.27494645E+03</pdfrwt>
<pdfrwt beam="2">  1       -1 0.10247668E+00 0.27494645E+03</pdfrwt>
<totfact> 0.19175445E+03</totfact>
</mgrwt>
</event>
<event>
 9    1  0.8175317E-001  0.2809449E+03  0.7818608E-02  0.1095174E+00
          2   -1    0    0  501    0  0.00000000000E+00  0.00000000000E+00  0.34922097849E+02  0.34922097849E+02  0.00000000000E+00 0.  1.
         -2   -1    0    0    0  501 -0.00000000000E+00 -0.00000000000E+00 -0.56504372749E+03  0.56504372749E+03  0.00000000000E+00 0.  1.
         35    2    1    2    0    0  0.35527136788E-14  0.00000000000E+00 -0.53012162964E+03  0.59996582534E+03  0.28094492229E+03 0.  0.
         25    2    3    3    0    0 -0.74703947055E+01 -0.38220252637E+02 -0.15486854199E+03  0.20273659710E+03  0.12490503591E+03 0.  0.
         25    2    3    3    0    0  0.74703947055E+01  0.38220252637E+02 -0.37525308766E+03  0.39722922825E+03  0.12433658138E+03 0.  0.
          5    1    4    4  502    0  0.37681492475E+02 -0.64786092131E+02 -0.11218452972E+03  0.13499848635E+03  0.47000000000E+01 0.  1.
         -5    1    4    4    0  502 -0.45151887181E+02  0.26565839494E+02 -0.42684012273E+02  0.67738110749E+02  0.47000000000E+01 0.  1.
          5    1    5    5  503    0 -0.96544980186E+01  0.81441774201E+02 -0.26620485935E+03  0.27859125805E+03  0.47000000000E+01 0.  1.
         -5    1    5    5    0  503  0.17124892724E+02 -0.43221521564E+02 -0.10904822830E+03  0.11863797020E+03  0.47000000000E+01 0.  1.
<mgrwt>
<rscale>  0 0.28094492E+03</rscale>
<asrwt>0</asrwt>
<pdfrwt beam="1">  1        2 0.53726305E-02 0.28094492E+03</pdfrwt>
<pdfrwt beam="2">  1       -2 0.86929803E-01 0.28094492E+03</pdfrwt>
<totfact> 0.16892439E+03</totfact>
</mgrwt>
</event>
<event>
 9    1  0.8175317E-001  0.2749566E+03  0.7818608E-02  0.1098476E+00
         -1   -1    0    0    0  501 -0.00000000000E+00  0.00000000000E+00  0.13578288961E+03  0.13578288961E+03  0.00000000000E+00 0. -1.
          1   -1    0    0  501    0  0.00000000000E+00 -0.00000000000E+00 -0.13919486537E+03  0.13919486537E+03  0.00000000000E+00 0. -1.
         35    2    1    2    0    0  0.00000000000E+00  0.00000000000E+00 -0.34119757662E+01  0.27497775498E+03  0.27495658594E+03 0.  0.
         25    2    3    3    0    0 -0.12351774900E+02 -0.56284995813E+01 -0.56981630923E+02  0.13855948580E+03  0.12556901884E+03 0.  0.
         25    2    3    3    0    0  0.12351774900E+02  0.56284995813E+01  0.53569655156E+02  0.13641826917E+03  0.12472365397E+03 0.  0.
          5    1    4    4  502    0 -0.15294376973E+02  0.39962099391E+02 -0.77191636586E+02  0.88382838343E+02  0.47000000000E+01 0.  1.
         -5    1    4    4    0  502  0.29426020728E+01 -0.45590598972E+02  0.20210005664E+02  0.50176647462E+02  0.47000000000E+01 0.  1.
          5    1    5    5  503    0  0.20141216497E+02 -0.31698432794E+02  0.80868600652E+02  0.89287624087E+02  0.47000000000E+01 0. -1.
         -5    1    5    5    0  503 -0.77894415966E+01  0.37326932376E+02 -0.27298945496E+02  0.47130645085E+02  0.47000000000E+01 0. -1.
<mgrwt>
<rscale>  0 0.27495659E+03</rscale>
<asrwt>0</asrwt>
<pdfrwt beam="1">  1        1 0.21414595E-01 0.27495659E+03</pdfrwt>
<pdfrwt beam="2">  1       -1 0.20889675E-01 0.27495659E+03</pdfrwt>
<totfact> 0.43584800E+03</totfact>
</mgrwt>
</event>
<event>
 9    1  0.8175317E-001  0.2790514E+03  0.7818608E-02  0.1096208E+00
         -1   -1    0    0    0  501 -0.00000000000E+00  0.00000000000E+00  0.32501385544E+03  0.32501385544E+03  0.00000000000E+00 0.  1.
          1   -1    0    0  501    0  0.00000000000E+00 -0.00000000000E+00 -0.59897221240E+02  0.59897221240E+02  0.00000000000E+00 0.  1.
         35    2    1    2    0    0 -0.71054273576E-14  0.00000000000E+00  0.26511663421E+03  0.38491107668E+03  0.27905144189E+03 0.  0.
         25    2    3    3    0    0  0.60135904487E+02  0.12904555817E+02  0.12258310977E+03  0.18599826222E+03  0.12564187272E+03 0.  0.
         25    2    3    3    0    0 -0.60135904487E+02 -0.12904555817E+02  0.14253352444E+03  0.19891281446E+03  0.12436899774E+03 0.  0.
          5    1    4    4  502    0  0.57238991976E+02 -0.29537469608E+02  0.12749375324E+03  0.14291784853E+03  0.47000000000E+01 0.  1.
         -5    1    4    4    0  502  0.28969125108E+01  0.42442025424E+02 -0.49106434763E+01  0.43080413688E+02  0.47000000000E+01 0.  1.
          5    1    5    5  503    0  0.31416044775E+01  0.43437191959E+02  0.16151917841E+02  0.46686548105E+02  0.47000000000E+01 0.  1.
         -5    1    5    5    0  503 -0.63277508965E+02 -0.56341747776E+02  0.12638160660E+03  0.15222626636E+03  0.47000000000E+01 0.  1.
<mgrwt>
<rscale>  0 0.27905144E+03</rscale>
<asrwt>0</asrwt>
<pdfrwt beam="1">  1        1 0.92149573E-02 0.27905144E+03</pdfrwt>
<pdfrwt beam="2">  1       -1 0.50002130E-01 0.27905144E+03</pdfrwt>
<totfact> 0.29360028E+03</totfact>
</mgrwt>
</event>
<event>
 9    1  0.8175317E-001  0.2736550E+03  0.7818608E-02  0.1099206E+00
         -2   -1    0    0    0  501 -0.00000000000E+00  0.00000000000E+00  0.70494799568E+01  0.70494799568E+01  0.00000000000E+00 0.  1.
          2   -1    0    0  501    0  0.00000000000E+00 -0.00000000000E+00 -0.26557663036E+04  0.26557663036E+04  0.00000000000E+00 0.  1.
         35    2    1    2    0    0  0.00000000000E+00  0.00000000000E+00 -0.26487168236E+04  0.26628157835E+04  0.27365504802E+03 0.  0.
         25    2    3    3    0    0 -0.34442884691E+02 -0.32466653815E+02 -0.15943446765E+04  0.15999698818E+04  0.12541243709E+03 0.  0.
         25    2    3    3    0    0  0.34442884691E+02  0.32466653815E+02 -0.10543721471E+04  0.10628459017E+04  0.12530119800E+03 0.  0.
          5    1    4    4  502    0 -0.50422957406E+01 -0.60237390424E+02 -0.36891832872E+03  0.37386734441E+03  0.47000000000E+01 0.  1.
         -5    1    4    4    0  502 -0.29400588950E+02  0.27770736609E+02 -0.12254263478E+04  0.12261025374E+04  0.47000000000E+01 0.  1.
          5    1    5    5  503    0  0.45358601329E+02  0.73493451927E+02 -0.82579902144E+03  0.83031608680E+03  0.47000000000E+01 0. -1.
         -5    1    5    5    0  503 -0.10915716638E+02 -0.41026798112E+02 -0.22857312568E+03  0.23252981490E+03  0.47000000000E+01 0. -1.
<mgrwt>
<rscale>  0 0.27365505E+03</rscale>
<asrwt>0</asrwt>
<pdfrwt beam="1">  1        2 0.40857972E+00 0.27365505E+03</pdfrwt>
<pdfrwt beam="2">  1       -2 0.10845346E-02 0.27365505E+03</pdfrwt>
<totfact> 0.62297190E+03</totfact>
</mgrwt>
</event>
<event>
 9    1  0.8175317E-001  0.2771498E+03  0.7818608E-02  0.1097256E+00
         -2   -1    0    0    0  501 -0.00000000000E+00  0.00000000000E+00  0.92770103438E+01  0.92770103438E+01  0.00000000000E+00 0.  1.
          2   -1    0    0  501    0  0.00000000000E+00 -0.00000000000E+00 -0.20699565313E+04  0.20699565313E+04  0.00000000000E+00 0.  1.
         35    2    1    2    0    0 -0.35527136788E-14  0.00000000000E+00 -0.20606795209E+04  0.20792335416E+04  0.27714983783E+03 0.  0.
         25    2    3    3    0    0 -0.16353231759E+02  0.34232138219E+02 -0.13699344941E+04  0.13761527495E+04  0.12504640928E+03 0.  0.
         25    2    3    3    0    0  0.16353231759E+02 -0.34232138219E+02 -0.69074502683E+03  0.70308079207E+03  0.12551749128E+03 0.  0.
          5    1    4    4  502    0  0.11915004131E+02 -0.16111527431E+02 -0.40252648485E+02  0.45209670975E+02  0.47000000000E+01 0.  1.
         -5    1    4    4    0  502 -0.28268235890E+02  0.50343665650E+02 -0.13296818456E+04  0.13309430786E+04  0.47000000000E+01 0.  1.
          5    1    5    5  503    0  0.22852414228E+02 -0.30165453463E+02 -0.53113953153E+02  0.65386309256E+02  0.47000000000E+01 0. -1.
         -5    1    5    5    0  503 -0.64991824691E+01 -0.40666847565E+01 -0.63763107368E+03  0.63769448282E+03  0.47000000000E+01 0. -1.
<mgrwt>
<rscale>  0 0.27714984E+03</rscale>
<asrwt>0</asrwt>
<pdfrwt beam="1">  1        2 0.31845504E+00 0.27714984E+03</pdfrwt>
<pdfrwt beam="2">  1       -2 0.14272315E-02 0.27714984E+03</pdfrwt>
<totfact> 0.86602188E+03</totfact>
</mgrwt>
</event>
<event>
 9    1  0.8175317E-001  0.2728505E+03  0.7818608E-02  0.1099659E+00
         -1   -1    0    0    0  501 -0.00000000000E+00  0.00000000000E+00  0.10075655953E+04  0.10075655953E+04  0.00000000000E+00 0. -1.
          1   -1    0    0  501    0  0.00000000000E+00 -0.00000000000E+00 -0.18472095860E+02  0.18472095860E+02  0.00000000000E+00 0. -1.
         35    2    1    2    0    0  0.00000000000E+00  0.53290705182E-14  0.98909349947E+03  0.10260376912E+04  0.27285049579E+03 0.  0.
         25    2    3    3    0    0 -0.39037440167E+02 -0.26202094990E+01  0.34962135389E+03  0.37310080924E+03  0.12425109869E+03 0.  0.
         25    2    3    3    0    0  0.39037440167E+02  0.26202094990E+01  0.63947214558E+03  0.65293688196E+03  0.12598079064E+03 0.  0.
          5    1    4    4  502    0 -0.25885346426E+02  0.95316333168E+01  0.55442134742E+01  0.28525979323E+02  0.47000000000E+01 0. -1.
         -5    1    4    4    0  502 -0.13152093741E+02 -0.12151842816E+02  0.34407714042E+03  0.34457482992E+03  0.47000000000E+01 0. -1.
          5    1    5    5  503    0  0.28966530450E+02 -0.60806840135E+02  0.33029402502E+03  0.33712425700E+03  0.47000000000E+01 0.  1.
         -5    1    5    5    0  503  0.10070909717E+02  0.63427049634E+02  0.30917812056E+03  0.31581262496E+03  0.47000000000E+01 0.  1.
<mgrwt>
<rscale>  0 0.27285050E+03</rscale>
<asrwt>0</asrwt>
<pdfrwt beam="1">  1        1 0.28418617E-02 0.27285050E+03</pdfrwt>
<pdfrwt beam="2">  1       -1 0.15501005E+00 0.27285050E+03</pdfrwt>
<totfact> 0.12744101E+03</totfact>
</mgrwt>
</event>
<event>
 9    1  0.8175317E-001  0.2763382E+03  0.7818608E-02  0.1097706E+00
          2   -1    0    0  501    0  0.00000000000E+00  0.00000000000E+00  0.60445825821E+03  0.60445825821E+03  0.00000000000E+00 0. -1.
         -2   -1    0    0    0  501 -0.00000000000E+00 -0.00000000000E+00 -0.31583153696E+02  0.31583153696E+02  0.00000000000E+00 0. -1.
         35    2    1    2    0    0 -0.53290705182E-14 -0.71054273576E-14  0.57287510451E+03  0.63604141190E+03  0.27633818463E+03 0.  0.
         25    2    3    3    0    0 -0.70023014702E+01  0.52169834790E+02  0.34329334254E+03  0.36894711735E+03  0.12450274086E+03 0.  0.
         25    2    3    3    0    0  0.70023014702E+01 -0.52169834790E+02  0.22958176197E+03  0.26709429455E+03  0.12593987797E+03 0.  0.
          5    1    4    4  502    0 -0.18857997229E+02  0.90499438671E+02  0.26748244594E+03  0.28304544042E+03  0.47000000000E+01 0. -1.
         -5    1    4    4    0  502  0.11855695759E+02 -0.38329603881E+02  0.75810896603E+02  0.85901676930E+02  0.47000000000E+01 0. -1.
          5    1    5    5  503    0 -0.31372363156E+02  0.23788440390E+02  0.28906520797E+02  0.49069257288E+02  0.47000000000E+01 0.  1.
         -5    1    5    5    0  503  0.38374664626E+02 -0.75958275180E+02  0.20067524117E+03  0.21802503726E+03  0.47000000000E+01 0.  1.
<mgrwt>
<rscale>  0 0.27633818E+03</rscale>
<asrwt>0</asrwt>
<pdfrwt beam="1">  1        2 0.92993569E-01 0.27633818E+03</pdfrwt>
<pdfrwt beam="2">  1       -2 0.48589472E-02 0.27633818E+03</pdfrwt>
<totfact> 0.10185518E+04</totfact>
</mgrwt>
</event>
<event>
 9    1  0.8175317E-001  0.2700953E+03  0.7818608E-02  0.1101225E+00
         -2   -1    0    0    0  501 -0.00000000000E+00  0.00000000000E+00  0.80470251271E+02  0.80470251271E+02  0.00000000000E+00 0.  1.
          2   -1    0    0  501    0  0.00000000000E+00 -0.00000000000E+00 -0.22664110034E+03  0.22664110034E+03  0.00000000000E+00 0.  1.
         35    2    1    2    0    0  0.35527136788E-14  0.71054273576E-14 -0.14617084907E+03  0.30711135162E+03  0.27009528906E+03 0.  0.
         25    2    3    3    0    0 -0.98751820069E+01  0.38814238870E+02 -0.10954604843E+03  0.17116449412E+03  0.12527123756E+03 0.  0.
         25    2    3    3    0    0  0.98751820069E+01 -0.38814238870E+02 -0.36624800643E+02  0.13594685750E+03  0.12464392357E+03 0.  0.
          5    1    4    4  502    0 -0.39031137465E+02  0.51118262468E+02 -0.83426250862E+01  0.65024578760E+02  0.47000000000E+01 0.  1.
         -5    1    4    4    0  502  0.29155955458E+02 -0.12304023598E+02 -0.10120342334E+03  0.10613991536E+03  0.47000000000E+01 0.  1.
          5    1    5    5  503    0 -0.36340887708E+02 -0.17360144469E+01 -0.61422770026E+02  0.71543836515E+02  0.47000000000E+01 0.  1.
         -5    1    5    5    0  503  0.46216069715E+02 -0.37078224423E+02  0.24797969383E+02  0.64403020984E+02  0.47000000000E+01 0.  1.
<mgrwt>
<rscale>  0 0.27009529E+03</rscale>
<asrwt>0</asrwt>
<pdfrwt beam="1">  1        2 0.34867861E-01 0.27009529E+03</pdfrwt>
<pdfrwt beam="2">  1       -2 0.12380039E-01 0.27009529E+03</pdfrwt>
<totfact> 0.69174162E+03</totfact>
</mgrwt>
</event>
<event>
 9    1  0.8175317E-001  0.2763775E+03  0.7818608E-02  0.1097684E+00
         -2   -1    0    0    0  501 -0.00000000000E+00  0.00000000000E+00  0.50053738810E+01  0.50053738810E+01  0.00000000000E+00 0.  1.
          2   -1    0    0  501    0  0.00000000000E+00 -0.00000000000E+00 -0.38151251500E+04  0.38151251500E+04  0.00000000000E+00 0.  1.
         35    2    1    2    0    0 -0.71054273576E-14 -0.35527136788E-14 -0.38101197761E+04  0.38201305239E+04  0.27637747939E+03 0.  0.
         25    2    3    3    0    0 -0.45580589169E+02  0.16969854922E+02 -0.24069482319E+04  0.24105960973E+04  0.12332147800E+03 0.  0.
         25    2    3    3    0    0  0.45580589169E+02 -0.16969854922E+02 -0.14031715442E+04  0.14095344266E+04  0.12462484212E+03 0.  0.
          5    1    4    4  502    0 -0.28447524843E+02  0.46146208392E+02 -0.22125766881E+04  0.22132456766E+04  0.47000000000E+01 0.  1.
         -5    1    4    4    0  502 -0.17133064326E+02 -0.29176353470E+02 -0.19437154383E+03  0.19735042069E+03  0.47000000000E+01 0.  1.
          5    1    5    5  503    0  0.78196445706E+02  0.41577811180E+01 -0.56154803264E+03  0.56700110602E+03  0.47000000000E+01 0. -1.
         -5    1    5    5    0  503 -0.32615856538E+02 -0.21127636040E+02 -0.84162351154E+03  0.84253332058E+03  0.47000000000E+01 0. -1.
<mgrwt>
<rscale>  0 0.27637748E+03</rscale>
<asrwt>0</asrwt>
<pdfrwt beam="1">  1        2 0.58694401E+00 0.27637748E+03</pdfrwt>
<pdfrwt beam="2">  1       -2 0.77005531E-03 0.27637748E+03</pdfrwt>
<totfact> 0.19119075E+03</totfact>
</mgrwt>
</event>
<event>
 9    1  0.8175317E-001  0.2839186E+03  0.7818608E-02  0.1093568E+00
          2   -1    0    0  501    0  0.00000000000E+00  0.00000000000E+00  0.52999721315E+03  0.52999721315E+03  0.00000000000E+00 0. -1.
         -2   -1    0    0    0  501 -0.00000000000E+00 -0.00000000000E+00 -0.38023684712E+02  0.38023684712E+02  0.00000000000E+00 0. -1.
         35    2    1    2    0    0 -0.71054273576E-14  0.71054273576E-14  0.49197352843E+03  0.56802089786E+03  0.28391862870E+03 0.  0.
         25    2    3    3    0    0  0.88757107262E+01 -0.60887169378E+02  0.29126498057E+03  0.32278833145E+03  0.12478378251E+03 0.  0.
         25    2    3    3    0    0 -0.88757107262E+01  0.60887169378E+02  0.20070854786E+03  0.24523256641E+03  0.12676381505E+03 0.  0.
          5    1    4    4  502    0 -0.43740737749E+02 -0.71039174978E+02  0.20152251051E+03  0.21815872378E+03  0.47000000000E+01 0. -1.
         -5    1    4    4    0  502  0.52616448475E+02  0.10152005600E+02  0.89742470062E+02  0.10462960767E+03  0.47000000000E+01 0. -1.
          5    1    5    5  503    0 -0.62595817517E+02  0.58789364492E+02  0.10925700910E+03  0.13904535154E+03  0.47000000000E+01 0. -1.
         -5    1    5    5    0  503  0.53720106790E+02  0.20978048868E+01  0.91451538759E+02  0.10618721486E+03  0.47000000000E+01 0. -1.
<mgrwt>
<rscale>  0 0.28391863E+03</rscale>
<asrwt>0</asrwt>
<pdfrwt beam="1">  1        2 0.81538028E-01 0.28391863E+03</pdfrwt>
<pdfrwt beam="2">  1       -2 0.58497980E-02 0.28391863E+03</pdfrwt>
<totfact> 0.89320483E+03</totfact>
</mgrwt>
</event>
<event>
 9    1  0.8175317E-001  0.2763854E+03  0.7818608E-02  0.1097680E+00
          2   -1    0    0  501    0  0.00000000000E+00  0.00000000000E+00  0.12905633277E+04  0.12905633277E+04  0.00000000000E+00 0.  1.
         -2   -1    0    0    0  501 -0.00000000000E+00 -0.00000000000E+00 -0.14797586511E+02  0.14797586511E+02  0.00000000000E+00 0.  1.
         35    2    1    2    0    0  0.35527136788E-14  0.00000000000E+00  0.12757657412E+04  0.13053609142E+04  0.27638540113E+03 0.  0.
         25    2    3    3    0    0 -0.29175315819E+02 -0.23312714525E+02  0.85621314737E+03  0.86597509984E+03  0.12416617131E+03 0.  0.
         25    2    3    3    0    0  0.29175315819E+02  0.23312714525E+02  0.41955259381E+03  0.43938581436E+03  0.12506331668E+03 0.  0.
          5    1    4    4  502    0 -0.54237673471E+01  0.34818455098E+02  0.63443040063E+03  0.63542565679E+03  0.47000000000E+01 0.  1.
         -5    1    4    4    0  502 -0.23751548472E+02 -0.58131169623E+02  0.22178274674E+03  0.23054944305E+03  0.47000000000E+01 0.  1.
          5    1    5    5  503    0  0.53598971103E+02  0.28891051484E+02  0.40590305274E+03  0.41047158340E+03  0.47000000000E+01 0. -1.
         -5    1    5    5    0  503 -0.24423655283E+02 -0.55783369594E+01  0.13649541074E+02  0.28914230963E+02  0.47000000000E+01 0. -1.
<mgrwt>
<rscale>  0 0.27638540E+03</rscale>
<asrwt>0</asrwt>
<pdfrwt beam="1">  1        2 0.19854812E+00 0.27638540E+03</pdfrwt>
<pdfrwt beam="2">  1       -2 0.22765528E-02 0.27638540E+03</pdfrwt>
<totfact> 0.11331617E+04</totfact>
</mgrwt>
</event>
<event>
 9    1  0.8175317E-001  0.2765356E+03  0.7818608E-02  0.1097596E+00
         -1   -1    0    0    0  501 -0.00000000000E+00  0.00000000000E+00  0.12259727038E+04  0.12259727038E+04  0.00000000000E+00 0.  1.
          1   -1    0    0  501    0  0.00000000000E+00 -0.00000000000E+00 -0.15594132854E+02  0.15594132854E+02  0.00000000000E+00 0.  1.
         35    2    1    2    0    0 -0.71054273576E-14  0.71054273576E-14  0.12103785709E+04  0.12415668366E+04  0.27653557614E+03 0.  0.
         25    2    3    3    0    0 -0.31712485918E+02  0.29817852157E+02  0.81462256011E+03  0.82531270130E+03  0.12504540542E+03 0.  0.
         25    2    3    3    0    0  0.31712485918E+02 -0.29817852157E+02  0.39575601079E+03  0.41625413531E+03  0.12144916226E+03 0.  0.
          5    1    4    4  502    0  0.74278965752E+01  0.63967970231E+02  0.24704177696E+03  0.25534056557E+03  0.47000000000E+01 0.  1.
         -5    1    4    4    0  502 -0.39140382493E+02 -0.34150118074E+02  0.56758078314E+03  0.56997213572E+03  0.47000000000E+01 0.  1.
          5    1    5    5  503    0  0.16448977267E+02 -0.69446964194E+02  0.33123387314E+03  0.33886784800E+03  0.47000000000E+01 0.  1.
         -5    1    5    5    0  503  0.15263508650E+02  0.39629112037E+02  0.64522137647E+02  0.77386287311E+02  0.47000000000E+01 0.  1.
<mgrwt>
<rscale>  0 0.27653558E+03</rscale>
<asrwt>0</asrwt>
<pdfrwt beam="1">  1        1 0.23990983E-02 0.27653558E+03</pdfrwt>
<pdfrwt beam="2">  1       -1 0.18861111E+00 0.27653558E+03</pdfrwt>
<totfact> 0.93215820E+02</totfact>
</mgrwt>
</event>
<event>
 9    1  0.8175317E-001  0.2780148E+03  0.7818608E-02  0.1096778E+00
          2   -1    0    0  501    0  0.00000000000E+00  0.00000000000E+00  0.14978849576E+03  0.14978849576E+03  0.00000000000E+00 0. -1.
         -2   -1    0    0    0  501 -0.00000000000E+00 -0.00000000000E+00 -0.12900228225E+03  0.12900228225E+03  0.00000000000E+00 0. -1.
         35    2    1    2    0    0  0.71054273576E-14  0.71054273576E-14  0.20786213509E+02  0.27879077800E+03  0.27801480397E+03 0.  0.
         25    2    3    3    0    0  0.48682851463E+02 -0.12252537889E+02  0.53978623070E+01  0.13728463688E+03  0.12766279761E+03 0.  0.
         25    2    3    3    0    0 -0.48682851463E+02  0.12252537889E+02  0.15388351202E+02  0.14150614113E+03  0.13140411680E+03 0.  0.
          5    1    4    4  502    0  0.54518958872E+01  0.34057172154E+02  0.49093075752E+02  0.60181676868E+02  0.47000000000E+01 0.  1.
         -5    1    4    4    0  502  0.43230955576E+02 -0.46309710043E+02 -0.43695213445E+02  0.77102960010E+02  0.47000000000E+01 0.  1.
          5    1    5    5  503    0  0.24319124322E+02 -0.37913825538E+02 -0.15056413074E+02  0.47724873487E+02  0.47000000000E+01 0. -1.
         -5    1    5    5    0  503 -0.73001975785E+02  0.50166363427E+02  0.30444764276E+02  0.93781267639E+02  0.47000000000E+01 0. -1.
<mgrwt>
<rscale>  0 0.27801480E+03</rscale>
<asrwt>0</asrwt>
<pdfrwt beam="1">  1        2 0.23044384E-01 0.27801480E+03</pdfrwt>
<pdfrwt beam="2">  1       -2 0.19846505E-01 0.27801480E+03</pdfrwt>
<totfact> 0.49946692E+03</totfact>
</mgrwt>
</event>
<event>
 9    1  0.8175317E-001  0.2754712E+03  0.7818608E-02  0.1098188E+00
          2   -1    0    0  501    0  0.00000000000E+00  0.00000000000E+00  0.10919080268E+04  0.10919080268E+04  0.00000000000E+00 0.  1.
         -2   -1    0    0    0  501 -0.00000000000E+00 -0.00000000000E+00 -0.17374263069E+02  0.17374263069E+02  0.00000000000E+00 0.  1.
         35    2    1    2    0    0  0.00000000000E+00  0.00000000000E+00  0.10745337638E+04  0.11092822899E+04  0.27547121306E+03 0.  0.
         25    2    3    3    0    0 -0.28764547535E+02  0.44280299447E+02  0.43156759498E+03  0.45244703768E+03  0.12517822795E+03 0.  0.
         25    2    3    3    0    0  0.28764547535E+02 -0.44280299447E+02  0.64296616880E+03  0.65683525224E+03  0.12344598110E+03 0.  0.
          5    1    4    4  502    0  0.15592690803E+02  0.11990168451E+02  0.36712564092E+03  0.36768223014E+03  0.47000000000E+01 0. -1.
         -5    1    4    4    0  502 -0.44357238338E+02  0.32290130996E+02  0.64441954063E+02  0.84764807533E+02  0.47000000000E+01 0. -1.
          5    1    5    5  503    0  0.17471988068E+02 -0.64130886194E+02  0.62175137733E+03  0.62531184712E+03  0.47000000000E+01 0.  1.
         -5    1    5    5    0  503  0.11292559467E+02  0.19850586747E+02  0.21214791470E+02  0.31523405124E+02  0.47000000000E+01 0.  1.
<mgrwt>
<rscale>  0 0.27547121E+03</rscale>
<asrwt>0</asrwt>
<pdfrwt beam="1">  1        2 0.16798580E+00 0.27547121E+03</pdfrwt>
<pdfrwt beam="2">  1       -2 0.26729644E-02 0.27547121E+03</pdfrwt>
<totfact> 0.11600033E+04</totfact>
</mgrwt>
</event>
<event>
 9    1  0.8175317E-001  0.3086843E+03  0.7818608E-02  0.1080978E+00
         -2   -1    0    0    0  501 -0.00000000000E+00  0.00000000000E+00  0.28434670152E+03  0.28434670152E+03  0.00000000000E+00 0.  1.
          2   -1    0    0  501    0  0.00000000000E+00 -0.00000000000E+00 -0.83776271870E+02  0.83776271870E+02  0.00000000000E+00 0.  1.
         35    2    1    2    0    0  0.00000000000E+00  0.00000000000E+00  0.20057042965E+03  0.36812297339E+03  0.30868434733E+03 0.  0.
         25    2    3    3    0    0 -0.65354039028E+02  0.77700883887E+01  0.27764545985E+02  0.14477287571E+03  0.12592375009E+03 0.  0.
         25    2    3    3    0    0  0.65354039028E+02 -0.77700883887E+01  0.17280588366E+03  0.22335009768E+03  0.12526718651E+03 0.  0.
          5    1    4    4  502    0 -0.49008735320E+01 -0.52720777524E+02  0.25834585508E+02  0.59101732229E+02  0.47000000000E+01 0.  1.
         -5    1    4    4    0  502 -0.60453165496E+02  0.60490865912E+02  0.19299604767E+01  0.85671143478E+02  0.47000000000E+01 0.  1.
          5    1    5    5  503    0  0.24757141998E+02 -0.57035226849E+02  0.35244518935E+02  0.71625409574E+02  0.47000000000E+01 0. -1.
         -5    1    5    5    0  503  0.40596897030E+02  0.49265138460E+02  0.13756136473E+03  0.15172468811E+03  0.47000000000E+01 0. -1.
<mgrwt>
<rscale>  0 0.30868435E+03</rscale>
<asrwt>0</asrwt>
<pdfrwt beam="1">  1        2 0.12888657E-01 0.30868435E+03</pdfrwt>
<pdfrwt beam="2">  1       -2 0.43745646E-01 0.30868435E+03</pdfrwt>
<totfact> 0.23467321E+03</totfact>
</mgrwt>
</event>
<event>
 9    1  0.8175317E-001  0.2791535E+03  0.7818608E-02  0.1096152E+00
         -1   -1    0    0    0  501 -0.00000000000E+00  0.00000000000E+00  0.16079887996E+03  0.16079887996E+03  0.00000000000E+00 0.  1.
          1   -1    0    0  501    0  0.00000000000E+00 -0.00000000000E+00 -0.12115553053E+03  0.12115553053E+03  0.00000000000E+00 0.  1.
         35    2    1    2    0    0  0.00000000000E+00  0.71054273576E-14  0.39643349427E+02  0.28195441049E+03  0.27915353202E+03 0.  0.
         25    2    3    3    0    0  0.36275909315E+02  0.10965327145E+02 -0.30152377146E+02  0.13418916303E+03  0.12514545790E+03 0.  0.
         25    2    3    3    0    0 -0.36275909315E+02 -0.10965327145E+02  0.69795726573E+02  0.14776524745E+03  0.12460716236E+03 0.  0.
          5    1    4    4  502    0 -0.15696924156E+01 -0.50121421657E+02 -0.36044588454E+02  0.61934830266E+02  0.47000000000E+01 0. -1.
         -5    1    4    4    0  502  0.37845601731E+02  0.61086748802E+02  0.58922113079E+01  0.72254332768E+02  0.47000000000E+01 0. -1.
          5    1    5    5  503    0  0.20855602514E+02 -0.39585636617E+02  0.70567081493E+02  0.83688600019E+02  0.47000000000E+01 0. -1.
         -5    1    5    5    0  503 -0.57131511829E+02  0.28620309472E+02 -0.77135492006E+00  0.64076647435E+02  0.47000000000E+01 0. -1.
<mgrwt>
<rscale>  0 0.27915353E+03</rscale>
<asrwt>0</asrwt>
<pdfrwt beam="1">  1        1 0.18639312E-01 0.27915353E+03</pdfrwt>
<pdfrwt beam="2">  1       -1 0.24738289E-01 0.27915353E+03</pdfrwt>
<totfact> 0.39471910E+03</totfact>
</mgrwt>
</event>
<event>
 9    1  0.8175317E-001  0.2790942E+03  0.7818608E-02  0.1096185E+00
          4   -1    0    0  501    0  0.00000000000E+00  0.00000000000E+00  0.12645571067E+03  0.12645571067E+03  0.00000000000E+00 0.  1.
         -4   -1    0    0    0  501 -0.00000000000E+00 -0.00000000000E+00 -0.15399383201E+03  0.15399383201E+03  0.00000000000E+00 0.  1.
         35    2    1    2    0    0  0.88817841970E-15  0.00000000000E+00 -0.27538121346E+02  0.28044954268E+03  0.27909424549E+03 0.  0.
         25    2    3    3    0    0  0.77327472144E+01 -0.30083253656E+02  0.40316850472E+02  0.13478850274E+03  0.12481063460E+03 0.  0.
         25    2    3    3    0    0 -0.77327472144E+01  0.30083253656E+02 -0.67854971818E+02  0.14566103994E+03  0.12509214134E+03 0.  0.
          5    1    4    4  502    0  0.56198085373E+01 -0.78654846319E+02  0.32051356873E+02  0.85249906597E+02  0.47000000000E+01 0.  1.
         -5    1    4    4    0  502  0.21129386772E+01  0.48571592663E+02  0.82654935991E+01  0.49538596146E+02  0.47000000000E+01 0.  1.
          5    1    5    5  503    0  0.19969016748E+02  0.14999906750E+02 -0.98323854603E+02  0.10155505510E+03  0.47000000000E+01 0.  1.
         -5    1    5    5    0  503 -0.27701763962E+02  0.15083346906E+02  0.30468882785E+02  0.44105984840E+02  0.47000000000E+01 0.  1.
<mgrwt>
<rscale>  0 0.27909425E+03</rscale>
<asrwt>0</asrwt>
<pdfrwt beam="1">  1        4 0.19454725E-01 0.27909425E+03</pdfrwt>
<pdfrwt beam="2">  1       -4 0.23691359E-01 0.27909425E+03</pdfrwt>
<totfact> 0.73769815E+02</totfact>
</mgrwt>
</event>
<event>
 9    1  0.8175317E-001  0.2749669E+03  0.7818608E-02  0.1098470E+00
          2   -1    0    0  501    0  0.00000000000E+00  0.00000000000E+00  0.15900939743E+04  0.15900939743E+04  0.00000000000E+00 0.  1.
         -2   -1    0    0    0  501 -0.00000000000E+00 -0.00000000000E+00 -0.11887156764E+02  0.11887156764E+02  0.00000000000E+00 0.  1.
         35    2    1    2    0    0 -0.35527136788E-14  0.00000000000E+00  0.15782068175E+04  0.16019811310E+04  0.27496688049E+03 0.  0.
         25    2    3    3    0    0  0.69937064863E+01 -0.25091477648E+02  0.48813636922E+03  0.50451080044E+03  0.12480199766E+03 0.  0.
         25    2    3    3    0    0 -0.69937064863E+01  0.25091477648E+02  0.10900704483E+04  0.10974703306E+04  0.12453533690E+03 0.  0.
          5    1    4    4  502    0  0.53194280001E+02 -0.32931318628E+02  0.39697953271E+03  0.40190663414E+03  0.47000000000E+01 0.  1.
         -5    1    4    4    0  502 -0.46200573515E+02  0.78398409795E+01  0.91156836511E+02  0.10260416630E+03  0.47000000000E+01 0.  1.
          5    1    5    5  503    0 -0.32015869922E+02  0.62963355729E+02  0.86057410552E+03  0.86348090957E+03  0.47000000000E+01 0. -1.
         -5    1    5    5    0  503  0.25022163436E+02 -0.37871878081E+02  0.22949634275E+03  0.23398942102E+03  0.47000000000E+01 0. -1.
<mgrwt>
<rscale>  0 0.27496688E+03</rscale>
<asrwt>0</asrwt>
<pdfrwt beam="1">  1        2 0.24462967E+00 0.27496688E+03</pdfrwt>
<pdfrwt beam="2">  1       -2 0.18287946E-02 0.27496688E+03</pdfrwt>
<totfact> 0.10772426E+04</totfact>
</mgrwt>
</event>
<event>
 9    1  0.8175317E-001  0.2709144E+03  0.7818608E-02  0.1100757E+00
          2   -1    0    0  501    0  0.00000000000E+00  0.00000000000E+00  0.16981938444E+04  0.16981938444E+04  0.00000000000E+00 0. -1.
         -2   -1    0    0    0  501 -0.00000000000E+00 -0.00000000000E+00 -0.10804804474E+02  0.10804804474E+02  0.00000000000E+00 0. -1.
         35    2    1    2    0    0  0.00000000000E+00  0.71054273576E-14  0.16873890400E+04  0.17089986489E+04  0.27091439569E+03 0.  0.
         25    2    3    3    0    0  0.40691552748E+02 -0.31608182753E+02  0.88101846627E+03  0.89119851523E+03  0.12404183154E+03 0.  0.
         25    2    3    3    0    0 -0.40691552748E+02  0.31608182753E+02  0.80637057369E+03  0.81780013367E+03  0.12612960332E+03 0.  0.
          5    1    4    4  502    0  0.84817266979E+02 -0.15939443814E+02  0.61604733763E+03  0.62208073981E+03  0.47000000000E+01 0.  1.
         -5    1    4    4    0  502 -0.44125714231E+02 -0.15668738939E+02  0.26497112864E+03  0.26911777542E+03  0.47000000000E+01 0.  1.
          5    1    5    5  503    0 -0.46922699819E+02  0.32641503121E+02  0.13878958892E+03  0.15017272548E+03  0.47000000000E+01 0. -1.
         -5    1    5    5    0  503  0.62311470704E+01 -0.10333203673E+01  0.66758098477E+03  0.66762740819E+03  0.47000000000E+01 0. -1.
<mgrwt>
<rscale>  0 0.27091440E+03</rscale>
<asrwt>0</asrwt>
<pdfrwt beam="1">  1        2 0.26126038E+00 0.27091440E+03</pdfrwt>
<pdfrwt beam="2">  1       -2 0.16622790E-02 0.27091440E+03</pdfrwt>
<totfact> 0.10861842E+04</totfact>
</mgrwt>
</event>
<event>
 9    1  0.8175317E-001  0.2682206E+03  0.7818608E-02  0.1102302E+00
         -1   -1    0    0    0  501 -0.00000000000E+00  0.00000000000E+00  0.57049824212E+02  0.57049824212E+02  0.00000000000E+00 0. -1.
          1   -1    0    0  501    0  0.00000000000E+00 -0.00000000000E+00 -0.31526087655E+03  0.31526087655E+03  0.00000000000E+00 0. -1.
         35    2    1    2    0    0 -0.14210854715E-13  0.00000000000E+00 -0.25821105234E+03  0.37231070077E+03  0.26822063745E+03 0.  0.
         25    2    3    3    0    0 -0.41897122592E+02 -0.10478506951E+02 -0.97003380642E+02  0.16388284615E+03  0.12483093934E+03 0.  0.
         25    2    3    3    0    0  0.41897122592E+02  0.10478506951E+02 -0.16120767170E+03  0.20842785462E+03  0.12485627408E+03 0.  0.
          5    1    4    4  502    0 -0.41164991787E+02 -0.22173829043E+02 -0.12479941848E+03  0.13335374046E+03  0.47000000000E+01 0.  1.
         -5    1    4    4    0  502 -0.73213080474E+00  0.11695322092E+02  0.27796037836E+02  0.30529105682E+02  0.47000000000E+01 0.  1.
          5    1    5    5  503    0  0.41758696161E+02  0.27127052062E+02 -0.38973751959E+01  0.50169165750E+02  0.47000000000E+01 0.  1.
         -5    1    5    5    0  503  0.13842643066E+00 -0.16648545111E+02 -0.15731029650E+03  0.15825868887E+03  0.47000000000E+01 0.  1.
<mgrwt>
<rscale>  0 0.26822064E+03</rscale>
<asrwt>0</asrwt>
<pdfrwt beam="1">  1        1 0.48501674E-01 0.26822064E+03</pdfrwt>
<pdfrwt beam="2">  1       -1 0.87768960E-02 0.26822064E+03</pdfrwt>
<totfact> 0.60903156E+03</totfact>
</mgrwt>
</event>
<event>
 9    1  0.8175317E-001  0.2743837E+03  0.7818608E-02  0.1098797E+00
          3   -1    0    0  501    0  0.00000000000E+00  0.00000000000E+00  0.10616376045E+03  0.10616376045E+03  0.00000000000E+00 0. -1.
         -3   -1    0    0    0  501 -0.00000000000E+00 -0.00000000000E+00 -0.17728834958E+03  0.17728834958E+03  0.00000000000E+00 0. -1.
         35    2    1    2    0    0 -0.35527136788E-14  0.00000000000E+00 -0.71124589132E+02  0.28345211003E+03  0.27438365750E+03 0.  0.
         25    2    3    3    0    0 -0.17275166317E+02 -0.43944399497E+02 -0.68055492123E+02  0.14965501995E+03  0.12464161973E+03 0.  0.
         25    2    3    3    0    0  0.17275166317E+02  0.43944399497E+02 -0.30690970096E+01  0.13379709008E+03  0.12515071050E+03 0.  0.
          5    1    4    4  502    0 -0.59876053116E+02 -0.60617846861E+02 -0.31696138526E+02  0.91029667100E+02  0.47000000000E+01 0. -1.
         -5    1    4    4    0  502  0.42600886798E+02  0.16673447364E+02 -0.36359353596E+02  0.58625352851E+02  0.47000000000E+01 0. -1.
          5    1    5    5  503    0 -0.12303259146E+02  0.82165090339E+02  0.91800559155E+01  0.83718789305E+02  0.47000000000E+01 0.  1.
         -5    1    5    5    0  503  0.29578425463E+02 -0.38220690842E+02 -0.12249152925E+02  0.50078300777E+02  0.47000000000E+01 0.  1.
<mgrwt>
<rscale>  0 0.27438366E+03</rscale>
<asrwt>0</asrwt>
<pdfrwt beam="1">  1        3 0.16332886E-01 0.27438366E+03</pdfrwt>
<pdfrwt beam="2">  1       -3 0.27275130E-01 0.27438366E+03</pdfrwt>
<totfact> 0.10431820E+03</totfact>
</mgrwt>
</event>
<event>
 9    1  0.8175317E-001  0.2745740E+03  0.7818608E-02  0.1098690E+00
          1   -1    0    0  501    0  0.00000000000E+00  0.00000000000E+00  0.25766246302E+03  0.25766246302E+03  0.00000000000E+00 0.  1.
         -1   -1    0    0    0  501 -0.00000000000E+00 -0.00000000000E+00 -0.73148862767E+02  0.73148862767E+02  0.00000000000E+00 0.  1.
         35    2    1    2    0    0 -0.71054273576E-14  0.00000000000E+00  0.18451360025E+03  0.33081132579E+03  0.27457396925E+03 0.  0.
         25    2    3    3    0    0 -0.29548058611E+02 -0.39278347085E+02  0.12791296894E+03  0.18480462644E+03  0.12399655645E+03 0.  0.
         25    2    3    3    0    0  0.29548058611E+02  0.39278347085E+02  0.56600631307E+02  0.14600669935E+03  0.12529344944E+03 0.  0.
          5    1    4    4  502    0  0.24927738214E+02 -0.15142034646E+02  0.12109737738E+03  0.12464885941E+03  0.47000000000E+01 0.  1.
         -5    1    4    4    0  502 -0.54475796825E+02 -0.24136312439E+02  0.68155915679E+01  0.60155767024E+02  0.47000000000E+01 0.  1.
          5    1    5    5  503    0 -0.47104848246E+02  0.71354470662E+01  0.36929649456E+02  0.60462139741E+02  0.47000000000E+01 0.  1.
         -5    1    5    5    0  503  0.76652906857E+02  0.32142900019E+02  0.19670981851E+02  0.85544559606E+02  0.47000000000E+01 0.  1.
<mgrwt>
<rscale>  0 0.27457397E+03</rscale>
<asrwt>0</asrwt>
<pdfrwt beam="1">  1        1 0.39640379E-01 0.27457397E+03</pdfrwt>
<pdfrwt beam="2">  1       -1 0.11253671E-01 0.27457397E+03</pdfrwt>
<totfact> 0.53489748E+03</totfact>
</mgrwt>
</event>
<event>
 9    1  0.8175317E-001  0.2748784E+03  0.7818608E-02  0.1098520E+00
         -2   -1    0    0    0  501 -0.00000000000E+00  0.00000000000E+00  0.22754807703E+02  0.22754807703E+02  0.00000000000E+00 0.  1.
          2   -1    0    0  501    0  0.00000000000E+00 -0.00000000000E+00 -0.83013355016E+03  0.83013355016E+03  0.00000000000E+00 0.  1.
         35    2    1    2    0    0 -0.71054273576E-14  0.00000000000E+00 -0.80737874246E+03  0.85288835787E+03  0.27487836802E+03 0.  0.
         25    2    3    3    0    0  0.33045164742E+02 -0.31417751402E+02 -0.53616880892E+03  0.55228955250E+03  0.12436920892E+03 0.  0.
         25    2    3    3    0    0 -0.33045164742E+02  0.31417751402E+02 -0.27120993354E+03  0.30059880537E+03  0.12134972484E+03 0.  0.
          5    1    4    4  502    0  0.43629852515E+01  0.45448239329E+02 -0.12930053364E+03  0.13720530638E+03  0.47000000000E+01 0.  1.
         -5    1    4    4    0  502  0.28682179490E+02 -0.76865990731E+02 -0.40686827527E+03  0.41508424612E+03  0.47000000000E+01 0.  1.
          5    1    5    5  503    0 -0.69012141742E+02  0.52942199958E+02 -0.19279960681E+03  0.21156401071E+03  0.47000000000E+01 0. -1.
         -5    1    5    5    0  503  0.35966977000E+02 -0.21524448557E+02 -0.78410326735E+02  0.89034794653E+02  0.47000000000E+01 0. -1.
<mgrwt>
<rscale>  0 0.27487837E+03</rscale>
<asrwt>0</asrwt>
<pdfrwt beam="1">  1        2 0.12771287E+00 0.27487837E+03</pdfrwt>
<pdfrwt beam="2">  1       -2 0.35007393E-02 0.27487837E+03</pdfrwt>
<totfact> 0.11326576E+04</totfact>
</mgrwt>
</event>
<event>
 9    1  0.8175317E-001  0.2730187E+03  0.7818608E-02  0.1099564E+00
          2   -1    0    0  501    0  0.00000000000E+00  0.00000000000E+00  0.58038029176E+03  0.58038029176E+03  0.00000000000E+00 0.  1.
         -2   -1    0    0    0  501 -0.00000000000E+00 -0.00000000000E+00 -0.32107920116E+02  0.32107920116E+02  0.00000000000E+00 0.  1.
         35    2    1    2    0    0  0.00000000000E+00  0.71054273576E-14  0.54827237164E+03  0.61248821187E+03  0.27301871031E+03 0.  0.
         25    2    3    3    0    0  0.40728837645E+02 -0.35472167366E+02  0.28488717500E+03  0.31578755694E+03  0.12507584005E+03 0.  0.
         25    2    3    3    0    0 -0.40728837645E+02  0.35472167366E+02  0.26338519665E+03  0.29670065494E+03  0.12546873696E+03 0.  0.
          5    1    4    4  502    0  0.41876804322E+02  0.38039773690E+01  0.17997087201E+02  0.45979583859E+02  0.47000000000E+01 0.  1.
         -5    1    4    4    0  502 -0.11479666770E+01 -0.39276144735E+02  0.26689008779E+03  0.26980797308E+03  0.47000000000E+01 0.  1.
          5    1    5    5  503    0 -0.45234860259E+02  0.39223388045E-01  0.18365639894E+02  0.49046721092E+02  0.47000000000E+01 0.  1.
         -5    1    5    5    0  503  0.45060226136E+01  0.35432943978E+02  0.24501955675E+03  0.24765393385E+03  0.47000000000E+01 0.  1.
<mgrwt>
<rscale>  0 0.27301871E+03</rscale>
<asrwt>0</asrwt>
<pdfrwt beam="1">  1        2 0.89289268E-01 0.27301871E+03</pdfrwt>
<pdfrwt beam="2">  1       -2 0.49396805E-02 0.27301871E+03</pdfrwt>
<totfact> 0.10407812E+04</totfact>
</mgrwt>
</event>
<event>
 9    1  0.8175317E-001  0.2708015E+03  0.7818608E-02  0.1100822E+00
          2   -1    0    0  501    0  0.00000000000E+00  0.00000000000E+00  0.52119004686E+03  0.52119004686E+03  0.00000000000E+00 0.  1.
         -2   -1    0    0    0  501 -0.00000000000E+00 -0.00000000000E+00 -0.35175952919E+02  0.35175952919E+02  0.00000000000E+00 0.  1.
         35    2    1    2    0    0  0.00000000000E+00 -0.71054273576E-14  0.48601409395E+03  0.55636599978E+03  0.27080145162E+03 0.  0.
         25    2    3    3    0    0  0.53659290235E+01 -0.32076290118E+02  0.33000962855E+03  0.35396607858E+03  0.12380609140E+03 0.  0.
         25    2    3    3    0    0 -0.53659290235E+01  0.32076290118E+02  0.15600446540E+03  0.20239992120E+03  0.12478242383E+03 0.  0.
          5    1    4    4  502    0 -0.23865820446E+02 -0.12731343722E+02  0.60906407813E+01  0.28122062579E+02  0.47000000000E+01 0. -1.
         -5    1    4    4    0  502  0.29231749470E+02 -0.19344946396E+02  0.32391898777E+03  0.32584401600E+03  0.47000000000E+01 0. -1.
          5    1    5    5  503    0 -0.24047144171E+02  0.19224534449E+02 -0.11577075605E+02  0.33225992041E+02  0.47000000000E+01 0.  1.
         -5    1    5    5    0  503  0.18681215147E+02  0.12851755669E+02  0.16758154100E+03  0.16917392916E+03  0.47000000000E+01 0.  1.
<mgrwt>
<rscale>  0 0.27080145E+03</rscale>
<asrwt>0</asrwt>
<pdfrwt beam="1">  1        2 0.80183078E-01 0.27080145E+03</pdfrwt>
<pdfrwt beam="2">  1       -2 0.54116855E-02 0.27080145E+03</pdfrwt>
<totfact> 0.10235242E+04</totfact>
</mgrwt>
</event>
<event>
 9    1  0.8175317E-001  0.2771993E+03  0.7818608E-02  0.1097229E+00
          2   -1    0    0  501    0  0.00000000000E+00  0.00000000000E+00  0.83218906874E+03  0.83218906874E+03  0.00000000000E+00 0.  1.
         -2   -1    0    0    0  501 -0.00000000000E+00 -0.00000000000E+00 -0.23083526214E+02  0.23083526214E+02  0.00000000000E+00 0.  1.
         35    2    1    2    0    0  0.71054273576E-14  0.35527136788E-14  0.80910554253E+03  0.85527259496E+03  0.27719926539E+03 0.  0.
         25    2    3    3    0    0  0.39877045853E+02 -0.41786519128E+01  0.26870623507E+03  0.29895920329E+03  0.12476347441E+03 0.  0.
         25    2    3    3    0    0 -0.39877045853E+02  0.41786519128E+01  0.54039930746E+03  0.55631339167E+03  0.12587906231E+03 0.  0.
          5    1    4    4  502    0  0.23978860379E+02  0.18867828172E+02  0.22054433837E+01  0.30950519632E+02  0.47000000000E+01 0.  1.
         -5    1    4    4    0  502  0.15898185474E+02 -0.23046480085E+02  0.26650079169E+03  0.26800868366E+03  0.47000000000E+01 0.  1.
          5    1    5    5  503    0 -0.68510305929E+02 -0.37277303614E+02  0.38614956038E+03  0.39397567484E+03  0.47000000000E+01 0. -1.
         -5    1    5    5    0  503  0.28633260076E+02  0.41455955527E+02  0.15424974708E+03  0.16233771683E+03  0.47000000000E+01 0. -1.
<mgrwt>
<rscale>  0 0.27719927E+03</rscale>
<asrwt>0</asrwt>
<pdfrwt beam="1">  1        2 0.12802906E+00 0.27719927E+03</pdfrwt>
<pdfrwt beam="2">  1       -2 0.35513124E-02 0.27719927E+03</pdfrwt>
<totfact> 0.11053779E+04</totfact>
</mgrwt>
</event>
<event>
 9    1  0.8175317E-001  0.2662244E+03  0.7818608E-02  0.1103460E+00
          2   -1    0    0  501    0  0.00000000000E+00  0.00000000000E+00  0.18957725105E+04  0.18957725105E+04  0.00000000000E+00 0. -1.
         -2   -1    0    0    0  501 -0.00000000000E+00 -0.00000000000E+00 -0.93465071912E+01  0.93465071912E+01  0.00000000000E+00 0. -1.
         35    2    1    2    0    0  0.00000000000E+00  0.00000000000E+00  0.18864260033E+04  0.19051190177E+04  0.26622435202E+03 0.  0.
         25    2    3    3    0    0  0.25341362517E+02 -0.37177863028E+02  0.11512952471E+04  0.11584092563E+04  0.12002866667E+03 0.  0.
         25    2    3    3    0    0 -0.25341362517E+02  0.37177863028E+02  0.73513075617E+03  0.74670976140E+03  0.12301975837E+03 0.  0.
          5    1    4    4  502    0 -0.23202066849E+02 -0.53525692419E+02  0.90014711704E+03  0.90204781357E+03  0.47000000000E+01 0. -1.
         -5    1    4    4    0  502  0.48543429366E+02  0.16347829391E+02  0.25114813009E+03  0.25636144271E+03  0.47000000000E+01 0. -1.
          5    1    5    5  503    0 -0.86353229871E+01 -0.35154267025E+02  0.46783136717E+03  0.46925331048E+03  0.47000000000E+01 0. -1.
         -5    1    5    5    0  503 -0.16706039530E+02  0.72332130053E+02  0.26729938900E+03  0.27745645092E+03  0.47000000000E+01 0. -1.
<mgrwt>
<rscale>  0 0.26622435E+03</rscale>
<asrwt>0</asrwt>
<pdfrwt beam="1">  1        2 0.29165700E+00 0.26622435E+03</pdfrwt>
<pdfrwt beam="2">  1       -2 0.14379257E-02 0.26622435E+03</pdfrwt>
<totfact> 0.10572623E+04</totfact>
</mgrwt>
</event>
<event>
 9    1  0.8175317E-001  0.2773236E+03  0.7818608E-02  0.1097160E+00
          1   -1    0    0  501    0  0.00000000000E+00  0.00000000000E+00  0.33337108750E+02  0.33337108750E+02  0.00000000000E+00 0. -1.
         -1   -1    0    0    0  501 -0.00000000000E+00 -0.00000000000E+00 -0.57674772596E+03  0.57674772596E+03  0.00000000000E+00 0. -1.
         35    2    1    2    0    0  0.71054273576E-14  0.71054273576E-14 -0.54341061721E+03  0.61008483471E+03  0.27732364963E+03 0.  0.
         25    2    3    3    0    0 -0.48302244665E+02  0.33631316632E+02 -0.29336732298E+03  0.32429855267E+03  0.12506395474E+03 0.  0.
         25    2    3    3    0    0  0.48302244665E+02 -0.33631316632E+02 -0.25004329423E+03  0.28578628204E+03  0.12525165752E+03 0.  0.
          5    1    4    4  502    0  0.40595754902E+02  0.11615688979E+01 -0.11928907038E+03  0.12610050305E+03  0.47000000000E+01 0.  1.
         -5    1    4    4    0  502 -0.88897999567E+02  0.32469747734E+02 -0.17407825260E+03  0.19819804962E+03  0.47000000000E+01 0.  1.
          5    1    5    5  503    0  0.11237246387E+02  0.45242887515E+02 -0.55975721056E+02  0.72997026822E+02  0.47000000000E+01 0.  1.
         -5    1    5    5    0  503  0.37064998278E+02 -0.78874204147E+02 -0.19406757318E+03  0.21278925522E+03  0.47000000000E+01 0.  1.
<mgrwt>
<rscale>  0 0.27732365E+03</rscale>
<asrwt>0</asrwt>
<pdfrwt beam="1">  1        1 0.51287862E-02 0.27732365E+03</pdfrwt>
<pdfrwt beam="2">  1       -1 0.88730416E-01 0.27732365E+03</pdfrwt>
<totfact> 0.21023176E+03</totfact>
</mgrwt>
</event>
<event>
 9    1  0.8175317E-001  0.2725523E+03  0.7818608E-02  0.1099828E+00
          2   -1    0    0  501    0  0.00000000000E+00  0.00000000000E+00  0.24867417631E+03  0.24867417631E+03  0.00000000000E+00 0.  1.
         -2   -1    0    0    0  501 -0.00000000000E+00 -0.00000000000E+00 -0.74680836225E+02  0.74680836225E+02  0.00000000000E+00 0.  1.
         35    2    1    2    0    0  0.00000000000E+00 -0.17763568394E-14  0.17399334009E+03  0.32335501254E+03  0.27255234679E+03 0.  0.
         25    2    3    3    0    0  0.27030749379E+02 -0.56822206811E+01  0.33007996312E+02  0.13207500573E+03  0.12486524846E+03 0.  0.
         25    2    3    3    0    0 -0.27030749379E+02  0.56822206811E+01  0.14098534377E+03  0.19128000681E+03  0.12628628113E+03 0.  0.
          5    1    4    4  502    0 -0.31162490093E+02 -0.14518367204E+02 -0.29894516307E+02  0.45800173365E+02  0.47000000000E+01 0.  1.
         -5    1    4    4    0  502  0.58193239472E+02  0.88361465226E+01  0.62902512619E+02  0.86274832364E+02  0.47000000000E+01 0.  1.
          5    1    5    5  503    0  0.31529015587E+02  0.30133381159E+02  0.11402396033E+03  0.12217058980E+03  0.47000000000E+01 0. -1.
         -5    1    5    5    0  503 -0.58559764966E+02 -0.24451160478E+02  0.26961383449E+02  0.69109417007E+02  0.47000000000E+01 0. -1.
<mgrwt>
<rscale>  0 0.27255235E+03</rscale>
<asrwt>0</asrwt>
<pdfrwt beam="1">  1        2 0.38257565E-01 0.27255235E+03</pdfrwt>
<pdfrwt beam="2">  1       -2 0.11489360E-01 0.27255235E+03</pdfrwt>
<totfact> 0.70594533E+03</totfact>
</mgrwt>
</event>
<event>
 9    1  0.8175317E-001  0.2726896E+03  0.7818608E-02  0.1099750E+00
          1   -1    0    0  501    0  0.00000000000E+00  0.00000000000E+00  0.88016381180E+02  0.88016381180E+02  0.00000000000E+00 0.  1.
         -1   -1    0    0    0  501 -0.00000000000E+00 -0.00000000000E+00 -0.21120966020E+03  0.21120966020E+03  0.00000000000E+00 0.  1.
         35    2    1    2    0    0  0.00000000000E+00  0.00000000000E+00 -0.12319327902E+03  0.29922604138E+03  0.27268964015E+03 0.  0.
         25    2    3    3    0    0  0.44284075955E+02 -0.23905373479E+02 -0.83486266863E+02  0.15847345241E+03  0.12494531644E+03 0.  0.
         25    2    3    3    0    0 -0.44284075955E+02  0.23905373479E+02 -0.39707012159E+02  0.14075258897E+03  0.12530801340E+03 0.  0.
          5    1    4    4  502    0 -0.25285948042E+02  0.64925838805E+01 -0.77796555787E+02  0.82194445713E+02  0.47000000000E+01 0. -1.
         -5    1    4    4    0  502  0.69570023997E+02 -0.30397957360E+02 -0.56897110760E+01  0.76279006697E+02  0.47000000000E+01 0. -1.
          5    1    5    5  503    0 -0.58942283279E+02 -0.38375890994E+02 -0.26116432381E+02  0.75173531299E+02  0.47000000000E+01 0. -1.
         -5    1    5    5    0  503  0.14658207324E+02  0.62281264473E+02 -0.13590579777E+02  0.65579057671E+02  0.47000000000E+01 0. -1.
<mgrwt>
<rscale>  0 0.27268964E+03</rscale>
<asrwt>0</asrwt>
<pdfrwt beam="1">  1        1 0.13540982E-01 0.27268964E+03</pdfrwt>
<pdfrwt beam="2">  1       -1 0.32493794E-01 0.27268964E+03</pdfrwt>
<totfact> 0.37789775E+03</totfact>
</mgrwt>
</event>
<event>
 9    1  0.8175317E-001  0.2892414E+03  0.7818608E-02  0.1090746E+00
          3   -1    0    0  501    0  0.00000000000E+00  0.00000000000E+00  0.32536730396E+03  0.32536730396E+03  0.00000000000E+00 0.  1.
         -3   -1    0    0    0  501 -0.00000000000E+00 -0.00000000000E+00 -0.64281664300E+02  0.64281664300E+02  0.00000000000E+00 0.  1.
         35    2    1    2    0    0  0.35527136788E-14  0.00000000000E+00  0.26108563966E+03  0.38964896826E+03  0.28924143415E+03 0.  0.
         25    2    3    3    0    0 -0.26387085974E+02 -0.65195811101E+02  0.92408766653E+02  0.16819224409E+03  0.12166543769E+03 0.  0.
         25    2    3    3    0    0  0.26387085974E+02  0.65195811101E+02  0.16867687300E+03  0.22145672416E+03  0.12507766028E+03 0.  0.
          5    1    4    4  502    0 -0.50887159969E+02 -0.91160966718E+02  0.67592795279E+02  0.12446164420E+03  0.47000000000E+01 0.  1.
         -5    1    4    4    0  502  0.24500073995E+02  0.25965155617E+02  0.24815971374E+02  0.43730599895E+02  0.47000000000E+01 0.  1.
          5    1    5    5  503    0  0.28208062520E+02  0.71821522958E+02  0.30619349976E+02  0.83148424784E+02  0.47000000000E+01 0.  1.
         -5    1    5    5    0  503 -0.18209765453E+01 -0.66257118566E+01  0.13805752303E+03  0.13830829938E+03  0.47000000000E+01 0.  1.
<mgrwt>
<rscale>  0 0.28924143E+03</rscale>
<asrwt>0</asrwt>
<pdfrwt beam="1">  1        3 0.50056507E-01 0.28924143E+03</pdfrwt>
<pdfrwt beam="2">  1       -3 0.98894870E-02 0.28924143E+03</pdfrwt>
<totfact> 0.76555305E+02</totfact>
</mgrwt>
</event>
<event>
 9    1  0.8175317E-001  0.2753188E+03  0.7818608E-02  0.1098274E+00
         -1   -1    0    0    0  501 -0.00000000000E+00  0.00000000000E+00  0.51765988688E+03  0.51765988688E+03  0.00000000000E+00 0.  1.
          1   -1    0    0  501    0  0.00000000000E+00 -0.00000000000E+00 -0.36607268358E+02  0.36607268358E+02  0.00000000000E+00 0.  1.
         35    2    1    2    0    0  0.00000000000E+00  0.00000000000E+00  0.48105261852E+03  0.55426715524E+03  0.27531882897E+03 0.  0.
         25    2    3    3    0    0 -0.55331059972E+02  0.71954427964E+00  0.28177771712E+03  0.31243337626E+03  0.12310113237E+03 0.  0.
         25    2    3    3    0    0  0.55331059972E+02 -0.71954427964E+00  0.19927490140E+03  0.24183377898E+03  0.12534371299E+03 0.  0.
          5    1    4    4  502    0  0.29350797712E+02 -0.31808863813E+02  0.10544781004E+03  0.11408156637E+03  0.47000000000E+01 0.  1.
         -5    1    4    4    0  502 -0.84681857684E+02  0.32528408093E+02  0.17632990709E+03  0.19835180989E+03  0.47000000000E+01 0.  1.
          5    1    5    5  503    0  0.54299574459E+02 -0.49844432837E+02  0.16768644214E+03  0.18323139510E+03  0.47000000000E+01 0.  1.
         -5    1    5    5    0  503  0.10314855127E+01  0.49124888557E+02  0.31588459253E+02  0.58602383877E+02  0.47000000000E+01 0.  1.
<mgrwt>
<rscale>  0 0.27531883E+03</rscale>
<asrwt>0</asrwt>
<pdfrwt beam="1">  1        1 0.56318878E-02 0.27531883E+03</pdfrwt>
<pdfrwt beam="2">  1       -1 0.79639977E-01 0.27531883E+03</pdfrwt>
<totfact> 0.23186906E+03</totfact>
</mgrwt>
</event>
<event>
 9    1  0.8175317E-001  0.2749344E+03  0.7818608E-02  0.1098488E+00
          2   -1    0    0  501    0  0.00000000000E+00  0.00000000000E+00  0.52706284748E+03  0.52706284748E+03  0.00000000000E+00 0.  1.
         -2   -1    0    0    0  501 -0.00000000000E+00 -0.00000000000E+00 -0.35853849653E+02  0.35853849653E+02  0.00000000000E+00 0.  1.
         35    2    1    2    0    0  0.71054273576E-14  0.71054273576E-14  0.49120899783E+03  0.56291669713E+03  0.27493440739E+03 0.  0.
         25    2    3    3    0    0 -0.36380644672E+02  0.36660795208E+02  0.19641744051E+03  0.23856152910E+03  0.12515680970E+03 0.  0.
         25    2    3    3    0    0  0.36380644672E+02 -0.36660795208E+02  0.29479155731E+03  0.32435516804E+03  0.12504658155E+03 0.  0.
          5    1    4    4  502    0 -0.99072079800E+01  0.23984865518E+02  0.20572832733E+03  0.20741181550E+03  0.47000000000E+01 0. -1.
         -5    1    4    4    0  502 -0.26473436692E+02  0.12675929690E+02 -0.93108868161E+01  0.31149713596E+02  0.47000000000E+01 0. -1.
          5    1    5    5  503    0  0.43322078515E+02 -0.77379141087E+02  0.15639334990E+03  0.17984800209E+03  0.47000000000E+01 0. -1.
         -5    1    5    5    0  503 -0.69414338429E+01  0.40718345879E+02  0.13839820742E+03  0.14450716595E+03  0.47000000000E+01 0. -1.
<mgrwt>
<rscale>  0 0.27493441E+03</rscale>
<asrwt>0</asrwt>
<pdfrwt beam="1">  1        2 0.81086587E-01 0.27493441E+03</pdfrwt>
<pdfrwt beam="2">  1       -2 0.55159772E-02 0.27493441E+03</pdfrwt>
<totfact> 0.98223157E+03</totfact>
</mgrwt>
</event>
<event>
 9    1  0.8175317E-001  0.2812768E+03  0.7818608E-02  0.1094994E+00
         -2   -1    0    0    0  501 -0.00000000000E+00  0.00000000000E+00  0.65620674664E+02  0.65620674664E+02  0.00000000000E+00 0.  1.
          2   -1    0    0  501    0  0.00000000000E+00 -0.00000000000E+00 -0.30141649234E+03  0.30141649234E+03  0.00000000000E+00 0.  1.
         35    2    1    2    0    0  0.71054273576E-14 -0.71054273576E-14 -0.23579581768E+03  0.36703716701E+03  0.28127675753E+03 0.  0.
         25    2    3    3    0    0  0.43812569654E+02 -0.22046227041E+02 -0.17824492773E+03  0.22304596687E+03  0.12479051121E+03 0.  0.
         25    2    3    3    0    0 -0.43812569654E+02  0.22046227041E+02 -0.57550889946E+02  0.14399120013E+03  0.12253890564E+03 0.  0.
          5    1    4    4  502    0  0.31265290511E+02  0.47050804291E+02 -0.11590095202E+03  0.12902099540E+03  0.47000000000E+01 0.  1.
         -5    1    4    4    0  502  0.12547279143E+02 -0.69097031331E+02 -0.62343975717E+02  0.94024971475E+02  0.47000000000E+01 0.  1.
          5    1    5    5  503    0  0.13925610389E+02 -0.33152273718E+02 -0.52510908252E+02  0.63815996136E+02  0.47000000000E+01 0.  1.
         -5    1    5    5    0  503 -0.57738180043E+02  0.55198500758E+02 -0.50399816932E+01  0.80175203998E+02  0.47000000000E+01 0.  1.
<mgrwt>
<rscale>  0 0.28127676E+03</rscale>
<asrwt>0</asrwt>
<pdfrwt beam="1">  1        2 0.46371768E-01 0.28127676E+03</pdfrwt>
<pdfrwt beam="2">  1       -2 0.10095488E-01 0.28127676E+03</pdfrwt>
<totfact> 0.70657201E+03</totfact>
</mgrwt>
</event>
<event>
 9    1  0.8175317E-001  0.2766530E+03  0.7818608E-02  0.1097531E+00
          2   -1    0    0  501    0  0.00000000000E+00  0.00000000000E+00  0.17489005980E+03  0.17489005980E+03  0.00000000000E+00 0.  1.
         -2   -1    0    0    0  501 -0.00000000000E+00 -0.00000000000E+00 -0.10940714032E+03  0.10940714032E+03  0.00000000000E+00 0.  1.
         35    2    1    2    0    0 -0.17763568394E-14  0.14210854715E-13  0.65482919484E+02  0.28429720012E+03  0.27665300514E+03 0.  0.
         25    2    3    3    0    0  0.10648747347E+01 -0.33374186633E+02  0.85082958479E+02  0.15327788347E+03  0.12304482698E+03 0.  0.
         25    2    3    3    0    0 -0.10648747347E+01  0.33374186633E+02 -0.19600038995E+02  0.13101931665E+03  0.12516760569E+03 0.  0.
          5    1    4    4  502    0 -0.37431395237E+02  0.25790259511E+02  0.43028308837E+01  0.45900448676E+02  0.47000000000E+01 0.  1.
         -5    1    4    4    0  502  0.38496269972E+02 -0.59164446144E+02  0.80780127595E+02  0.10737743480E+03  0.47000000000E+01 0.  1.
          5    1    5    5  503    0 -0.13324463771E+02  0.79800640516E+02 -0.82948125498E+01  0.81465191811E+02  0.47000000000E+01 0. -1.
         -5    1    5    5    0  503  0.12259589037E+02 -0.46426453884E+02 -0.11305226445E+02  0.49554124839E+02  0.47000000000E+01 0. -1.
<mgrwt>
<rscale>  0 0.27665301E+03</rscale>
<asrwt>0</asrwt>
<pdfrwt beam="1">  1        2 0.26906163E-01 0.27665301E+03</pdfrwt>
<pdfrwt beam="2">  1       -2 0.16831868E-01 0.27665301E+03</pdfrwt>
<totfact> 0.55485750E+03</totfact>
</mgrwt>
</event>
<event>
 9    1  0.8175317E-001  0.2753315E+03  0.7818608E-02  0.1098266E+00
          1   -1    0    0  501    0  0.00000000000E+00  0.00000000000E+00  0.27177673964E+04  0.27177673964E+04  0.00000000000E+00 0.  1.
         -1   -1    0    0    0  501 -0.00000000000E+00 -0.00000000000E+00 -0.69733210608E+01  0.69733210608E+01  0.00000000000E+00 0.  1.
         35    2    1    2    0    0  0.00000000000E+00  0.00000000000E+00  0.27107940753E+04  0.27247407174E+04  0.27533154286E+03 0.  0.
         25    2    3    3    0    0 -0.49734787803E+02  0.29280667348E+02  0.14734841581E+04  0.14797590141E+04  0.12328937110E+03 0.  0.
         25    2    3    3    0    0  0.49734787803E+02 -0.29280667348E+02  0.12373099172E+04  0.12449817033E+04  0.12535032436E+03 0.  0.
          5    1    4    4  502    0 -0.27496420147E+02 -0.46355478977E+02  0.75824985438E+03  0.76017748928E+03  0.47000000000E+01 0. -1.
         -5    1    4    4    0  502 -0.22238367656E+02  0.75636146325E+02  0.71523430376E+03  0.71958152485E+03  0.47000000000E+01 0. -1.
          5    1    5    5  503    0  0.54291915523E+02 -0.45275790919E+02  0.12134678007E+04  0.12155343281E+04  0.47000000000E+01 0. -1.
         -5    1    5    5    0  503 -0.45571277198E+01  0.15995123570E+02  0.23842116470E+02  0.29447375246E+02  0.47000000000E+01 0. -1.
<mgrwt>
<rscale>  0 0.27533154E+03</rscale>
<asrwt>0</asrwt>
<pdfrwt beam="1">  1        1 0.41811721E+00 0.27533154E+03</pdfrwt>
<pdfrwt beam="2">  1       -1 0.10728208E-02 0.27533154E+03</pdfrwt>
<totfact> 0.19237123E+03</totfact>
</mgrwt>
</event>
<event>
 9    1  0.8175317E-001  0.2678670E+03  0.7818608E-02  0.1102507E+00
         -1   -1    0    0    0  501 -0.00000000000E+00  0.00000000000E+00  0.15441768707E+02  0.15441768707E+02  0.00000000000E+00 0. -1.
          1   -1    0    0  501    0  0.00000000000E+00 -0.00000000000E+00 -0.11616662355E+04  0.11616662355E+04  0.00000000000E+00 0. -1.
         35    2    1    2    0    0 -0.71054273576E-14  0.35527136788E-14 -0.11462244667E+04  0.11771080042E+04  0.26786699179E+03 0.  0.
         25    2    3    3    0    0 -0.20735482157E+02 -0.13839378644E+02 -0.39316567630E+03  0.41341195411E+03  0.12533437740E+03 0.  0.
         25    2    3    3    0    0  0.20735482157E+02  0.13839378644E+02 -0.75305879045E+03  0.76369605005E+03  0.12454969439E+03 0.  0.
          5    1    4    4  502    0 -0.62760116544E+02  0.19511115042E+02 -0.14207663089E+03  0.15661217987E+03  0.47000000000E+01 0.  1.
         -5    1    4    4    0  502  0.42024634387E+02 -0.33350493686E+02 -0.25108904542E+03  0.25679977424E+03  0.47000000000E+01 0.  1.
          5    1    5    5  503    0  0.67595481133E+02  0.18495971226E+02 -0.29718094915E+03  0.30536839483E+03  0.47000000000E+01 0. -1.
         -5    1    5    5    0  503 -0.46859998976E+02 -0.46565925820E+01 -0.45587784129E+03  0.45832765522E+03  0.47000000000E+01 0. -1.
<mgrwt>
<rscale>  0 0.26786699E+03</rscale>
<asrwt>0</asrwt>
<pdfrwt beam="1">  1        1 0.17871793E+00 0.26786699E+03</pdfrwt>
<pdfrwt beam="2">  1       -1 0.23756561E-02 0.26786699E+03</pdfrwt>
<totfact> 0.64816595E+03</totfact>
</mgrwt>
</event>
<event>
 9    1  0.8175317E-001  0.2752096E+03  0.7818608E-02  0.1098334E+00
          4   -1    0    0  501    0  0.00000000000E+00  0.00000000000E+00  0.36883859091E+02  0.36883859091E+02  0.00000000000E+00 0. -1.
         -4   -1    0    0    0  501 -0.00000000000E+00 -0.00000000000E+00 -0.51337051402E+03  0.51337051402E+03  0.00000000000E+00 0. -1.
         35    2    1    2    0    0 -0.71054273576E-14 -0.71054273576E-14 -0.47648665493E+03  0.55025437311E+03  0.27520963428E+03 0.  0.
         25    2    3    3    0    0 -0.15156249478E+02 -0.35656320786E+02 -0.33213835165E+03  0.35535592917E+03  0.12025334361E+03 0.  0.
         25    2    3    3    0    0  0.15156249478E+02  0.35656320786E+02 -0.14434830328E+03  0.19489844394E+03  0.12509150923E+03 0.  0.
          5    1    4    4  502    0 -0.23586300605E+02 -0.78288169248E+02 -0.23416706594E+03  0.24807590732E+03  0.47000000000E+01 0. -1.
         -5    1    4    4    0  502  0.84300511265E+01  0.42631848463E+02 -0.97971285707E+02  0.10728002185E+03  0.47000000000E+01 0. -1.
          5    1    5    5  503    0  0.33171725466E+02  0.76865496014E+02 -0.77418427345E+02  0.11412436524E+03  0.47000000000E+01 0. -1.
         -5    1    5    5    0  503 -0.18015475987E+02 -0.41209175228E+02 -0.66929875938E+02  0.80774078708E+02  0.47000000000E+01 0. -1.
<mgrwt>
<rscale>  0 0.27520963E+03</rscale>
<asrwt>0</asrwt>
<pdfrwt beam="1">  1        4 0.56744399E-02 0.27520963E+03</pdfrwt>
<pdfrwt beam="2">  1       -4 0.78980078E-01 0.27520963E+03</pdfrwt>
<totfact> 0.53247577E+02</totfact>
</mgrwt>
</event>
<event>
 9    1  0.8175317E-001  0.2729188E+03  0.7818608E-02  0.1099621E+00
         -2   -1    0    0    0  501 -0.00000000000E+00  0.00000000000E+00  0.14760981063E+02  0.14760981063E+02  0.00000000000E+00 0. -1.
          2   -1    0    0  501    0  0.00000000000E+00 -0.00000000000E+00 -0.12615126756E+04  0.12615126756E+04  0.00000000000E+00 0. -1.
         35    2    1    2    0    0  0.71054273576E-14  0.00000000000E+00 -0.12467516945E+04  0.12762736566E+04  0.27291877704E+03 0.  0.
         25    2    3    3    0    0  0.20145268051E+02 -0.49505353093E+02 -0.55933277695E+03  0.57545893559E+03  0.12427075028E+03 0.  0.
         25    2    3    3    0    0 -0.20145268051E+02  0.49505353093E+02 -0.68741891754E+03  0.70081472103E+03  0.12545873106E+03 0.  0.
          5    1    4    4  502    0 -0.40902603795E+02 -0.49110898990E+02 -0.39347926311E+03  0.39866392349E+03  0.47000000000E+01 0.  1.
         -5    1    4    4    0  502  0.61047871847E+02 -0.39445410329E+00 -0.16585351384E+03  0.17679501210E+03  0.47000000000E+01 0.  1.
          5    1    5    5  503    0 -0.45206248400E+02  0.13767251180E+01 -0.56499422445E+03  0.56682101578E+03  0.47000000000E+01 0. -1.
         -5    1    5    5    0  503  0.25060980349E+02  0.48128627975E+02 -0.12242469310E+03  0.13399370525E+03  0.47000000000E+01 0. -1.
<mgrwt>
<rscale>  0 0.27291878E+03</rscale>
<asrwt>0</asrwt>
<pdfrwt beam="1">  1        2 0.19407891E+00 0.27291878E+03</pdfrwt>
<pdfrwt beam="2">  1       -2 0.22709197E-02 0.27291878E+03</pdfrwt>
<totfact> 0.11800885E+04</totfact>
</mgrwt>
</event>
<event>
 9    1  0.8175317E-001  0.2930903E+03  0.7818608E-02  0.1088747E+00
          2   -1    0    0  501    0  0.00000000000E+00  0.00000000000E+00  0.10432620330E+03  0.10432620330E+03  0.00000000000E+00 0.  1.
         -2   -1    0    0    0  501 -0.00000000000E+00 -0.00000000000E+00 -0.20584941607E+03  0.20584941607E+03  0.00000000000E+00 0.  1.
         35    2    1    2    0    0  0.00000000000E+00  0.00000000000E+00 -0.10152321276E+03  0.31017561937E+03  0.29309034805E+03 0.  0.
         25    2    3    3    0    0  0.44638694959E+02 -0.36772577927E+02  0.33442020731E+01  0.13772128522E+03  0.12494452024E+03 0.  0.
         25    2    3    3    0    0 -0.44638694959E+02  0.36772577927E+02 -0.10486741484E+03  0.17245433415E+03  0.12409064066E+03 0.  0.
          5    1    4    4  502    0 -0.29442719026E+02 -0.53251837250E+02 -0.49593794245E+01  0.61231669244E+02  0.47000000000E+01 0. -1.
         -5    1    4    4    0  502  0.74081413986E+02  0.16479259322E+02  0.83035814976E+01  0.76489615973E+02  0.47000000000E+01 0. -1.
          5    1    5    5  503    0 -0.79531158508E+02  0.45703591642E+02 -0.10004521728E+03  0.13581295580E+03  0.47000000000E+01 0.  1.
         -5    1    5    5    0  503  0.34892463548E+02 -0.89310137144E+01 -0.48221975567E+01  0.36641378354E+02  0.47000000000E+01 0.  1.
<mgrwt>
<rscale>  0 0.29309035E+03</rscale>
<asrwt>0</asrwt>
<pdfrwt beam="1">  1        2 0.16050185E-01 0.29309035E+03</pdfrwt>
<pdfrwt beam="2">  1       -2 0.31669140E-01 0.29309035E+03</pdfrwt>
<totfact> 0.33205226E+03</totfact>
</mgrwt>
</event>
<event>
 9    1  0.8175317E-001  0.2669221E+03  0.7818608E-02  0.1103054E+00
         -1   -1    0    0    0  501 -0.00000000000E+00  0.00000000000E+00  0.56063948096E+03  0.56063948096E+03  0.00000000000E+00 0. -1.
          1   -1    0    0  501    0  0.00000000000E+00 -0.00000000000E+00 -0.31770600924E+02  0.31770600924E+02  0.00000000000E+00 0. -1.
         35    2    1    2    0    0  0.88817841970E-15 -0.71054273576E-14  0.52886888004E+03  0.59241008189E+03  0.26692211008E+03 0.  0.
         25    2    3    3    0    0  0.58040000941E+01 -0.44234578665E+02  0.22738020197E+03  0.26327615891E+03  0.12498878044E+03 0.  0.
         25    2    3    3    0    0 -0.58040000941E+01  0.44234578665E+02  0.30148867806E+03  0.32913392297E+03  0.12427120296E+03 0.  0.
          5    1    4    4  502    0  0.75994437128E+01  0.43330919336E+02  0.63375926682E+02  0.77291126256E+02  0.47000000000E+01 0. -1.
         -5    1    4    4    0  502 -0.17954436186E+01 -0.87565498001E+02  0.16400427529E+03  0.18598503266E+03  0.47000000000E+01 0. -1.
          5    1    5    5  503    0  0.24342687092E+01  0.34626690857E+02  0.87779216541E+01  0.36111982671E+02  0.47000000000E+01 0.  1.
         -5    1    5    5    0  503 -0.82382688034E+01  0.96078878084E+01  0.29271075641E+03  0.29302194030E+03  0.47000000000E+01 0.  1.
<mgrwt>
<rscale>  0 0.26692211E+03</rscale>
<asrwt>0</asrwt>
<pdfrwt beam="1">  1        1 0.48877852E-02 0.26692211E+03</pdfrwt>
<pdfrwt beam="2">  1       -1 0.86252221E-01 0.26692211E+03</pdfrwt>
<totfact> 0.23849985E+03</totfact>
</mgrwt>
</event>
<event>
 9    1  0.8175317E-001  0.2748513E+03  0.7818608E-02  0.1098535E+00
          1   -1    0    0  501    0  0.00000000000E+00  0.00000000000E+00  0.14646188802E+04  0.14646188802E+04  0.00000000000E+00 0. -1.
         -1   -1    0    0    0  501 -0.00000000000E+00 -0.00000000000E+00 -0.12894691805E+02  0.12894691805E+02  0.00000000000E+00 0. -1.
         35    2    1    2    0    0  0.00000000000E+00 -0.71054273576E-14  0.14517241884E+04  0.14775135720E+04  0.27485129850E+03 0.  0.
         25    2    3    3    0    0 -0.20909984736E+02  0.46510089757E+02  0.86382925228E+03  0.87435715331E+03  0.12529580416E+03 0.  0.
         25    2    3    3    0    0  0.20909984736E+02 -0.46510089757E+02  0.58789493607E+03  0.60315641865E+03  0.12480702540E+03 0.  0.
          5    1    4    4  502    0 -0.23512850290E+02  0.74144219653E+02  0.30426432376E+03  0.31408452390E+03  0.47000000000E+01 0.  1.
         -5    1    4    4    0  502  0.26028655533E+01 -0.27634129895E+02  0.55956492852E+03  0.56027262942E+03  0.47000000000E+01 0.  1.
          5    1    5    5  503    0  0.15074157788E+02 -0.12990096197E+01  0.25821061736E+01  0.16052256268E+02  0.47000000000E+01 0.  1.
         -5    1    5    5    0  503  0.58358269483E+01 -0.45211080138E+02  0.58531282990E+03  0.58710416238E+03  0.47000000000E+01 0.  1.
<mgrwt>
<rscale>  0 0.27485130E+03</rscale>
<asrwt>0</asrwt>
<pdfrwt beam="1">  1        1 0.22532585E+00 0.27485130E+03</pdfrwt>
<pdfrwt beam="2">  1       -1 0.19837999E-02 0.27485130E+03</pdfrwt>
<totfact> 0.52422810E+03</totfact>
</mgrwt>
</event>
<event>
 9    1  0.8175317E-001  0.2748266E+03  0.7818608E-02  0.1098549E+00
         -2   -1    0    0    0  501 -0.00000000000E+00  0.00000000000E+00  0.27164004586E+02  0.27164004586E+02  0.00000000000E+00 0. -1.
          2   -1    0    0  501    0  0.00000000000E+00 -0.00000000000E+00 -0.69512657341E+03  0.69512657341E+03  0.00000000000E+00 0. -1.
         35    2    1    2    0    0  0.14210854715E-13  0.00000000000E+00 -0.66796256883E+03  0.72229057800E+03  0.27482664666E+03 0.  0.
         25    2    3    3    0    0  0.35542484491E+02 -0.42376047450E+02 -0.39278316922E+03  0.41482041211E+03  0.12140164199E+03 0.  0.
         25    2    3    3    0    0 -0.35542484491E+02  0.42376047450E+02 -0.27517939961E+03  0.30747016589E+03  0.12551973289E+03 0.  0.
          5    1    4    4  502    0 -0.16464138442E+02 -0.36888622498E+02 -0.36366085577E+02  0.54556580764E+02  0.47000000000E+01 0. -1.
         -5    1    4    4    0  502  0.52006622933E+02 -0.54874249512E+01 -0.35641708364E+03  0.36026383134E+03  0.47000000000E+01 0. -1.
          5    1    5    5  503    0 -0.17330237538E+02 -0.15879120444E+02 -0.23035170887E+03  0.23159551675E+03  0.47000000000E+01 0.  1.
         -5    1    5    5    0  503 -0.18212246954E+02  0.58255167893E+02 -0.44827690733E+02  0.75874649138E+02  0.47000000000E+01 0.  1.
<mgrwt>
<rscale>  0 0.27482665E+03</rscale>
<asrwt>0</asrwt>
<pdfrwt beam="1">  1        2 0.10694254E+00 0.27482665E+03</pdfrwt>
<pdfrwt beam="2">  1       -2 0.41790780E-02 0.27482665E+03</pdfrwt>
<totfact> 0.10836507E+04</totfact>
</mgrwt>
</event>
<event>
 9    1  0.8175317E-001  0.2714525E+03  0.7818608E-02  0.1100451E+00
         -1   -1    0    0    0  501 -0.00000000000E+00  0.00000000000E+00  0.93571248532E+02  0.93571248532E+02  0.00000000000E+00 0. -1.
          1   -1    0    0  501    0  0.00000000000E+00 -0.00000000000E+00 -0.19687264442E+03  0.19687264442E+03  0.00000000000E+00 0. -1.
         35    2    1    2    0    0  0.71054273576E-14  0.71054273576E-14 -0.10330139589E+03  0.29044389295E+03  0.27145253096E+03 0.  0.
         25    2    3    3    0    0 -0.16479561274E+02 -0.25792458299E+02 -0.95628897646E+01  0.12995929494E+03  0.12594102840E+03 0.  0.
         25    2    3    3    0    0  0.16479561274E+02  0.25792458299E+02 -0.93738506125E+02  0.16048459802E+03  0.12661584350E+03 0.  0.
          5    1    4    4  502    0 -0.19892851653E+02 -0.76074214108E+02 -0.21381725346E+01  0.78801480828E+02  0.47000000000E+01 0. -1.
         -5    1    4    4    0  502  0.34132903788E+01  0.50281755809E+02 -0.74247172300E+01  0.51157814109E+02  0.47000000000E+01 0. -1.
          5    1    5    5  503    0 -0.15475440632E+02  0.72048999968E+02 -0.52530330613E+02  0.90620490472E+02  0.47000000000E+01 0.  1.
         -5    1    5    5    0  503  0.31955001906E+02 -0.46256541669E+02 -0.41208175513E+02  0.69864107545E+02  0.47000000000E+01 0.  1.
<mgrwt>
<rscale>  0 0.27145253E+03</rscale>
<asrwt>0</asrwt>
<pdfrwt beam="1">  1        1 0.30288099E-01 0.27145253E+03</pdfrwt>
<pdfrwt beam="2">  1       -1 0.14395577E-01 0.27145253E+03</pdfrwt>
<totfact> 0.50971836E+03</totfact>
</mgrwt>
</event>
<event>
 9    1  0.8175317E-001  0.2747908E+03  0.7818608E-02  0.1098569E+00
         -2   -1    0    0    0  501 -0.00000000000E+00  0.00000000000E+00  0.55264544047E+02  0.55264544047E+02  0.00000000000E+00 0.  1.
          2   -1    0    0  501    0  0.00000000000E+00 -0.00000000000E+00 -0.34158423677E+03  0.34158423677E+03  0.00000000000E+00 0.  1.
         35    2    1    2    0    0 -0.14210854715E-13 -0.35527136788E-14 -0.28631969273E+03  0.39684878082E+03  0.27479080843E+03 0.  0.
         25    2    3    3    0    0  0.53271678607E+02  0.16742470286E+00 -0.10529363807E+03  0.17048144884E+03  0.12304175880E+03 0.  0.
         25    2    3    3    0    0 -0.53271678607E+02 -0.16742470286E+00 -0.18102605465E+03  0.22636733198E+03  0.12503534200E+03 0.  0.
          5    1    4    4  502    0 -0.18405947046E+02  0.42719378858E+02 -0.19162917494E+02  0.50527533321E+02  0.47000000000E+01 0. -1.
         -5    1    4    4    0  502  0.71677625653E+02 -0.42551954155E+02 -0.86130720579E+02  0.11995391552E+03  0.47000000000E+01 0. -1.
          5    1    5    5  503    0 -0.79724084325E+02 -0.30361070309E+02 -0.15859182859E+03  0.18014211697E+03  0.47000000000E+01 0.  1.
         -5    1    5    5    0  503  0.26452405719E+02  0.30193645606E+02 -0.22434226067E+02  0.46225215008E+02  0.47000000000E+01 0.  1.
<mgrwt>
<rscale>  0 0.27479081E+03</rscale>
<asrwt>0</asrwt>
<pdfrwt beam="1">  1        2 0.52551421E-01 0.27479081E+03</pdfrwt>
<pdfrwt beam="2">  1       -2 0.85022375E-02 0.27479081E+03</pdfrwt>
<totfact> 0.80935204E+03</totfact>
</mgrwt>
</event>
<event>
 9    1  0.8175317E-001  0.2766453E+03  0.7818608E-02  0.1097535E+00
         -2   -1    0    0    0  501 -0.00000000000E+00  0.00000000000E+00  0.11781562846E+02  0.11781562846E+02  0.00000000000E+00 0.  1.
          2   -1    0    0  501    0  0.00000000000E+00 -0.00000000000E+00 -0.16239911856E+04  0.16239911856E+04  0.00000000000E+00 0.  1.
         35    2    1    2    0    0  0.00000000000E+00  0.00000000000E+00 -0.16122096227E+04  0.16357727484E+04  0.27664529069E+03 0.  0.
         25    2    3    3    0    0  0.40999983250E+02  0.11962257977E+00 -0.57815557373E+03  0.59340807488E+03  0.12723310481E+03 0.  0.
         25    2    3    3    0    0 -0.40999983250E+02 -0.11962257977E+00 -0.10340540490E+04  0.10423646736E+04  0.12480113567E+03 0.  0.
          5    1    4    4  502    0 -0.91667535446E+01 -0.48803505341E+02 -0.12081220167E+03  0.13070382388E+03  0.47000000000E+01 0. -1.
         -5    1    4    4    0  502  0.50166736795E+02  0.48923127921E+02 -0.45734337206E+03  0.46270425100E+03  0.47000000000E+01 0. -1.
          5    1    5    5  503    0  0.17431175467E+02  0.30945836988E+02 -0.10498305038E+03  0.11092800175E+03  0.47000000000E+01 0. -1.
         -5    1    5    5    0  503 -0.58431158717E+02 -0.31065459568E+02 -0.92907099864E+03  0.93143667182E+03  0.47000000000E+01 0. -1.
<mgrwt>
<rscale>  0 0.27664529E+03</rscale>
<asrwt>0</asrwt>
<pdfrwt beam="1">  1        2 0.24984495E+00 0.27664529E+03</pdfrwt>
<pdfrwt beam="2">  1       -2 0.18125470E-02 0.27664529E+03</pdfrwt>
<totfact> 0.10473577E+04</totfact>
</mgrwt>
</event>
<event>
 9    1  0.8175317E-001  0.2858481E+03  0.7818608E-02  0.1092537E+00
         -2   -1    0    0    0  501 -0.00000000000E+00  0.00000000000E+00  0.50506529690E+02  0.50506529690E+02  0.00000000000E+00 0. -1.
          2   -1    0    0  501    0  0.00000000000E+00 -0.00000000000E+00 -0.40444840687E+03  0.40444840687E+03  0.00000000000E+00 0. -1.
         35    2    1    2    0    0  0.00000000000E+00 -0.35527136788E-14 -0.35394187718E+03  0.45495493656E+03  0.28584810980E+03 0.  0.
         25    2    3    3    0    0 -0.46969777407E+02  0.36578801183E+01 -0.95513657648E+02  0.16396343171E+03  0.12466598599E+03 0.  0.
         25    2    3    3    0    0  0.46969777407E+02 -0.36578801183E+01 -0.25842821953E+03  0.29099150485E+03  0.12518534726E+03 0.  0.
          5    1    4    4  502    0 -0.14782676559E+02 -0.12668267583E+02  0.28435945863E+02  0.34780821539E+02  0.47000000000E+01 0.  1.
         -5    1    4    4    0  502 -0.32187100849E+02  0.16326147702E+02 -0.12394960351E+03  0.12918261017E+03  0.47000000000E+01 0.  1.
          5    1    5    5  503    0  0.44042349152E+02 -0.59112766554E+02 -0.11051422808E+03  0.13292679299E+03  0.47000000000E+01 0.  1.
         -5    1    5    5    0  503  0.29274282557E+01  0.55454886436E+02 -0.14791399145E+03  0.15806471186E+03  0.47000000000E+01 0.  1.
<mgrwt>
<rscale>  0 0.28584811E+03</rscale>
<asrwt>0</asrwt>
<pdfrwt beam="1">  1        2 0.62222833E-01 0.28584811E+03</pdfrwt>
<pdfrwt beam="2">  1       -2 0.77702352E-02 0.28584811E+03</pdfrwt>
<totfact> 0.77710340E+03</totfact>
</mgrwt>
</event>
<event>
 9    1  0.8175317E-001  0.2616688E+03  0.7818608E-02  0.1106145E+00
          1   -1    0    0  501    0  0.00000000000E+00  0.00000000000E+00  0.17454419225E+03  0.17454419225E+03  0.00000000000E+00 0. -1.
         -1   -1    0    0    0  501 -0.00000000000E+00 -0.00000000000E+00 -0.98070556847E+02  0.98070556847E+02  0.00000000000E+00 0. -1.
         35    2    1    2    0    0 -0.17763568394E-14  0.35527136788E-14  0.76473635405E+02  0.27261474910E+03  0.26166884513E+03 0.  0.
         25    2    3    3    0    0 -0.54931411204E+01  0.31280434972E+02  0.60607020167E+02  0.14242681484E+03  0.12491415644E+03 0.  0.
         25    2    3    3    0    0  0.54931411204E+01 -0.31280434972E+02  0.15866615238E+02  0.13018793426E+03  0.12525377654E+03 0.  0.
          5    1    4    4  502    0 -0.15406993960E+02 -0.17223757890E+02  0.84160045694E+02  0.87401582308E+02  0.47000000000E+01 0.  1.
         -5    1    4    4    0  502  0.99138528395E+01  0.48504192862E+02 -0.23553025527E+02  0.55025232528E+02  0.47000000000E+01 0.  1.
          5    1    5    5  503    0  0.53456704990E+02 -0.54198935232E+01  0.43145073241E+02  0.69069399152E+02  0.47000000000E+01 0.  1.
         -5    1    5    5    0  503 -0.47963563870E+02 -0.25860541448E+02 -0.27278458004E+02  0.61118535111E+02  0.47000000000E+01 0.  1.
<mgrwt>
<rscale>  0 0.26166885E+03</rscale>
<asrwt>0</asrwt>
<pdfrwt beam="1">  1        1 0.26852953E-01 0.26166885E+03</pdfrwt>
<pdfrwt beam="2">  1       -1 0.15087778E-01 0.26166885E+03</pdfrwt>
<totfact> 0.55021872E+03</totfact>
</mgrwt>
</event>
<event>
 9    1  0.8175317E-001  0.2746250E+03  0.7818608E-02  0.1098661E+00
         -1   -1    0    0    0  501 -0.00000000000E+00  0.00000000000E+00  0.46141080457E+03  0.46141080457E+03  0.00000000000E+00 0.  1.
          1   -1    0    0  501    0  0.00000000000E+00 -0.00000000000E+00 -0.40863196152E+02  0.40863196152E+02  0.00000000000E+00 0.  1.
         35    2    1    2    0    0  0.00000000000E+00  0.00000000000E+00  0.42054760842E+03  0.50227400072E+03  0.27462498221E+03 0.  0.
         25    2    3    3    0    0 -0.39846999933E+02  0.36340135874E+02  0.20711750056E+03  0.24864928458E+03  0.12657179309E+03 0.  0.
         25    2    3    3    0    0  0.39846999933E+02 -0.36340135874E+02  0.21343010786E+03  0.25362471614E+03  0.12595513811E+03 0.  0.
          5    1    4    4  502    0 -0.14090853842E+02  0.18392892027E+02  0.21471317989E+03  0.21601085681E+03  0.47000000000E+01 0.  1.
         -5    1    4    4    0  502 -0.25756146091E+02  0.17947243847E+02 -0.75956793324E+01  0.32638427776E+02  0.47000000000E+01 0.  1.
          5    1    5    5  503    0  0.27635180160E+02  0.45168207407E+02  0.10108277825E+03  0.11420896726E+03  0.47000000000E+01 0. -1.
         -5    1    5    5    0  503  0.12211819773E+02 -0.81508343281E+02  0.11234732961E+03  0.13941574888E+03  0.47000000000E+01 0. -1.
<mgrwt>
<rscale>  0 0.27462498E+03</rscale>
<asrwt>0</asrwt>
<pdfrwt beam="1">  1        1 0.62866459E-02 0.27462498E+03</pdfrwt>
<pdfrwt beam="2">  1       -1 0.70986274E-01 0.27462498E+03</pdfrwt>
<totfact> 0.25190043E+03</totfact>
</mgrwt>
</event>
<event>
 9    1  0.8175317E-001  0.2604728E+03  0.7818608E-02  0.1106859E+00
          3   -1    0    0  501    0  0.00000000000E+00  0.00000000000E+00  0.27553123566E+02  0.27553123566E+02  0.00000000000E+00 0.  1.
         -3   -1    0    0    0  501 -0.00000000000E+00 -0.00000000000E+00 -0.61559336448E+03  0.61559336448E+03  0.00000000000E+00 0.  1.
         35    2    1    2    0    0  0.00000000000E+00  0.71054273576E-14 -0.58804024091E+03  0.64314648804E+03  0.26047280117E+03 0.  0.
         25    2    3    3    0    0  0.21001249999E+02 -0.32017928623E+02 -0.30264122436E+03  0.32958817768E+03  0.12478163299E+03 0.  0.
         25    2    3    3    0    0 -0.21001249999E+02  0.32017928623E+02 -0.28539901655E+03  0.31355831036E+03  0.12409679727E+03 0.  0.
          5    1    4    4  502    0 -0.11704629213E+02  0.43979373064E+02 -0.82038726067E+02  0.93934158722E+02  0.47000000000E+01 0.  1.
         -5    1    4    4    0  502  0.32705879211E+02 -0.75997301687E+02 -0.22060249829E+03  0.23565401896E+03  0.47000000000E+01 0.  1.
          5    1    5    5  503    0 -0.42376594200E+02  0.51881947576E+02 -0.73303496959E+02  0.99413303369E+02  0.47000000000E+01 0. -1.
         -5    1    5    5    0  503  0.21375344201E+02 -0.19864018953E+02 -0.21209551959E+03  0.21414500699E+03  0.47000000000E+01 0. -1.
<mgrwt>
<rscale>  0 0.26047280E+03</rscale>
<asrwt>0</asrwt>
<pdfrwt beam="1">  1        3 0.42389418E-02 0.26047280E+03</pdfrwt>
<pdfrwt beam="2">  1       -3 0.94706678E-01 0.26047280E+03</pdfrwt>
<totfact> 0.76626453E+02</totfact>
</mgrwt>
</event>
<event>
 9    1  0.8175317E-001  0.2739152E+03  0.7818608E-02  0.1099059E+00
         -2   -1    0    0    0  501 -0.00000000000E+00  0.00000000000E+00  0.21126049498E+03  0.21126049498E+03  0.00000000000E+00 0. -1.
          2   -1    0    0  501    0  0.00000000000E+00 -0.00000000000E+00 -0.88787966497E+02  0.88787966497E+02  0.00000000000E+00 0. -1.
         35    2    1    2    0    0  0.00000000000E+00 -0.17763568394E-14  0.12247252848E+03  0.30004846148E+03  0.27391524054E+03 0.  0.
         25    2    3    3    0    0 -0.49552880324E+02 -0.13568026185E+02  0.88927382974E+02  0.16208961392E+03  0.12540089399E+03 0.  0.
         25    2    3    3    0    0  0.49552880324E+02  0.13568026185E+02  0.33545145511E+02  0.13795884756E+03  0.12356288905E+03 0.  0.
          5    1    4    4  502    0 -0.65505636125E+02 -0.11210500591E+02  0.11392315405E+03  0.13197438660E+03  0.47000000000E+01 0.  1.
         -5    1    4    4    0  502  0.15952755801E+02 -0.23575255943E+01 -0.24995771081E+02  0.30115227319E+02  0.47000000000E+01 0.  1.
          5    1    5    5  503    0  0.76273457781E+02 -0.28707123145E+02  0.32067671763E+02  0.87704987620E+02  0.47000000000E+01 0.  1.
         -5    1    5    5    0  503 -0.26720577457E+02  0.42275149330E+02  0.14774737484E+01  0.50253859943E+02  0.47000000000E+01 0.  1.
<mgrwt>
<rscale>  0 0.27391524E+03</rscale>
<asrwt>0</asrwt>
<pdfrwt beam="1">  1        2 0.13659687E-01 0.27391524E+03</pdfrwt>
<pdfrwt beam="2">  1       -2 0.32501614E-01 0.27391524E+03</pdfrwt>
<totfact> 0.38272222E+03</totfact>
</mgrwt>
</event>
<event>
 9    1  0.8175317E-001  0.2697030E+03  0.7818608E-02  0.1101450E+00
         -2   -1    0    0    0  501 -0.00000000000E+00  0.00000000000E+00  0.15169684225E+02  0.15169684225E+02  0.00000000000E+00 0.  1.
          2   -1    0    0  501    0  0.00000000000E+00 -0.00000000000E+00 -0.11987680604E+04  0.11987680604E+04  0.00000000000E+00 0.  1.
         35    2    1    2    0    0 -0.14210854715E-13  0.00000000000E+00 -0.11835983761E+04  0.12139377446E+04  0.26970304363E+03 0.  0.
         25    2    3    3    0    0 -0.23028304437E+02  0.15831311285E+02 -0.77810509644E+03  0.78863644763E+03  0.12537532535E+03 0.  0.
         25    2    3    3    0    0  0.23028304437E+02 -0.15831311285E+02 -0.40549327971E+03  0.42530129696E+03  0.12520167766E+03 0.  0.
          5    1    4    4  502    0 -0.72932250344E+02  0.16446744019E+02 -0.55070565439E+03  0.55577730820E+03  0.47000000000E+01 0.  1.
         -5    1    4    4    0  502  0.49903945907E+02 -0.61543273367E+00 -0.22739944205E+03  0.23285913943E+03  0.47000000000E+01 0.  1.
          5    1    5    5  503    0  0.66118380594E+02 -0.72710209697E+01 -0.33880435394E+03  0.34530419668E+03  0.47000000000E+01 0. -1.
         -5    1    5    5    0  503 -0.43090076157E+02 -0.85602903155E+01 -0.66688925769E+02  0.79997100283E+02  0.47000000000E+01 0. -1.
<mgrwt>
<rscale>  0 0.26970304E+03</rscale>
<asrwt>0</asrwt>
<pdfrwt beam="1">  1        2 0.18442583E+00 0.26970304E+03</pdfrwt>
<pdfrwt beam="2">  1       -2 0.23337979E-02 0.26970304E+03</pdfrwt>
<totfact> 0.12291435E+04</totfact>
</mgrwt>
</event>
<event>
 9    1  0.8175317E-001  0.2760023E+03  0.7818608E-02  0.1097893E+00
          1   -1    0    0  501    0  0.00000000000E+00  0.00000000000E+00  0.59304748213E+03  0.59304748213E+03  0.00000000000E+00 0. -1.
         -1   -1    0    0    0  501 -0.00000000000E+00 -0.00000000000E+00 -0.32112626171E+02  0.32112626171E+02  0.00000000000E+00 0. -1.
         35    2    1    2    0    0 -0.71054273576E-14  0.00000000000E+00  0.56093485596E+03  0.62516010830E+03  0.27600226155E+03 0.  0.
         25    2    3    3    0    0 -0.20037785120E+02 -0.52164153846E+02  0.24437681425E+03  0.28070606902E+03  0.12630620755E+03 0.  0.
         25    2    3    3    0    0  0.20037785120E+02  0.52164153846E+02  0.31655804171E+03  0.34445403928E+03  0.12376178580E+03 0.  0.
          5    1    4    4  502    0 -0.43124948434E+02  0.11821298383E+01  0.20686032808E+03  0.21136329848E+03  0.47000000000E+01 0.  1.
         -5    1    4    4    0  502  0.23087163314E+02 -0.53346283684E+02  0.37516486164E+02  0.69342770545E+02  0.47000000000E+01 0.  1.
          5    1    5    5  503    0 -0.35057852250E+02 -0.20604418342E+02  0.65083243211E+02  0.76886368144E+02  0.47000000000E+01 0.  1.
         -5    1    5    5    0  503  0.55095637369E+02  0.72768572187E+02  0.25147479850E+03  0.26756767114E+03  0.47000000000E+01 0.  1.
<mgrwt>
<rscale>  0 0.27600226E+03</rscale>
<asrwt>0</asrwt>
<pdfrwt beam="1">  1        1 0.91238066E-01 0.27600226E+03</pdfrwt>
<pdfrwt beam="2">  1       -1 0.49404045E-02 0.27600226E+03</pdfrwt>
<totfact> 0.63833928E+03</totfact>
</mgrwt>
</event>
<event>
 9    1  0.8175317E-001  0.2753740E+03  0.7818608E-02  0.1098243E+00
          2   -1    0    0  501    0  0.00000000000E+00  0.00000000000E+00  0.18112324270E+04  0.18112324270E+04  0.00000000000E+00 0. -1.
         -2   -1    0    0    0  501 -0.00000000000E+00 -0.00000000000E+00 -0.10466747685E+02  0.10466747685E+02  0.00000000000E+00 0. -1.
         35    2    1    2    0    0  0.00000000000E+00  0.00000000000E+00  0.18007656793E+04  0.18216991747E+04  0.27537402066E+03 0.  0.
         25    2    3    3    0    0  0.31275924271E+02  0.43940506334E+02  0.10224877916E+04  0.10314848637E+04  0.12478296576E+03 0.  0.
         25    2    3    3    0    0 -0.31275924271E+02 -0.43940506334E+02  0.77827788776E+03  0.79021431102E+03  0.12575068683E+03 0.  0.
          5    1    4    4  502    0  0.22883003958E+02  0.81742310341E+02  0.86782061515E+03  0.87197485471E+03  0.47000000000E+01 0. -1.
         -5    1    4    4    0  502  0.83929203125E+01 -0.37801804007E+02  0.15466717642E+03  0.15951000896E+03  0.47000000000E+01 0. -1.
          5    1    5    5  503    0 -0.58093026594E+02 -0.68317378896E+02  0.38927535582E+03  0.39949900707E+03  0.47000000000E+01 0. -1.
         -5    1    5    5    0  503  0.26817102323E+02  0.24376872562E+02  0.38900253194E+03  0.39071530396E+03  0.47000000000E+01 0. -1.
<mgrwt>
<rscale>  0 0.27537402E+03</rscale>
<asrwt>0</asrwt>
<pdfrwt beam="1">  1        2 0.27865089E+00 0.27537402E+03</pdfrwt>
<pdfrwt beam="2">  1       -2 0.16102703E-02 0.27537402E+03</pdfrwt>
<totfact> 0.99273686E+03</totfact>
</mgrwt>
</event>
<event>
 9    1  0.8175317E-001  0.2780758E+03  0.7818608E-02  0.1096745E+00
          2   -1    0    0  501    0  0.00000000000E+00  0.00000000000E+00  0.65953626625E+02  0.65953626625E+02  0.00000000000E+00 0.  1.
         -2   -1    0    0    0  501 -0.00000000000E+00 -0.00000000000E+00 -0.29310809200E+03  0.29310809200E+03  0.00000000000E+00 0.  1.
         35    2    1    2    0    0  0.00000000000E+00  0.35527136788E-14 -0.22715446538E+03  0.35906171863E+03  0.27807582894E+03 0.  0.
         25    2    3    3    0    0  0.46999081385E+02  0.31420094081E+02 -0.87214394796E+02  0.16336441253E+03  0.12603747323E+03 0.  0.
         25    2    3    3    0    0 -0.46999081385E+02 -0.31420094081E+02 -0.13994007058E+03  0.19569730610E+03  0.12457157098E+03 0.  0.
          5    1    4    4  502    0  0.20532572509E+02 -0.25189714153E+02 -0.94718879784E+02  0.10024901207E+03  0.47000000000E+01 0. -1.
         -5    1    4    4    0  502  0.26466508877E+02  0.56609808234E+02  0.75044849874E+01  0.63115400461E+02  0.47000000000E+01 0. -1.
          5    1    5    5  503    0 -0.50600544518E+01 -0.18887201496E+02  0.20862785604E+02  0.28977169540E+02  0.47000000000E+01 0. -1.
         -5    1    5    5    0  503 -0.41939026934E+02 -0.12532892585E+02 -0.16080285618E+03  0.16672013656E+03  0.47000000000E+01 0. -1.
<mgrwt>
<rscale>  0 0.27807583E+03</rscale>
<asrwt>0</asrwt>
<pdfrwt beam="1">  1        2 0.10146712E-01 0.27807583E+03</pdfrwt>
<pdfrwt beam="2">  1       -2 0.45093552E-01 0.27807583E+03</pdfrwt>
<totfact> 0.29581586E+03</totfact>
</mgrwt>
</event>
<event>
 9    1  0.8175317E-001  0.2793811E+03  0.7818608E-02  0.1096027E+00
         -1   -1    0    0    0  501 -0.00000000000E+00  0.00000000000E+00  0.35500384068E+03  0.35500384068E+03  0.00000000000E+00 0. -1.
          1   -1    0    0  501    0  0.00000000000E+00 -0.00000000000E+00 -0.54966854291E+02  0.54966854291E+02  0.00000000000E+00 0. -1.
         35    2    1    2    0    0  0.14210854715E-13  0.00000000000E+00  0.30003698639E+03  0.40997069497E+03  0.27938106151E+03 0.  0.
         25    2    3    3    0    0 -0.50094412889E+02 -0.30450551103E+02  0.13507240272E+03  0.19416499292E+03  0.12656541485E+03 0.  0.
         25    2    3    3    0    0  0.50094412889E+02  0.30450551103E+02  0.16496458367E+03  0.21580570205E+03  0.12618280749E+03 0.  0.
          5    1    4    4  502    0 -0.38829443018E+02  0.12277837511E+02  0.14323315188E+03  0.14898421640E+03  0.47000000000E+01 0.  1.
         -5    1    4    4    0  502 -0.11264969871E+02 -0.42728388614E+02 -0.81607491666E+01  0.45180776518E+02  0.47000000000E+01 0.  1.
          5    1    5    5  503    0 -0.27621029065E+02 -0.51518110961E+01 -0.15947061445E+01  0.28532358680E+02  0.47000000000E+01 0.  1.
         -5    1    5    5    0  503  0.77715441954E+02  0.35602362199E+02  0.16655928982E+03  0.18727334337E+03  0.47000000000E+01 0.  1.
<mgrwt>
<rscale>  0 0.27938106E+03</rscale>
<asrwt>0</asrwt>
<pdfrwt beam="1">  1        1 0.84564394E-02 0.27938106E+03</pdfrwt>
<pdfrwt beam="2">  1       -1 0.54615974E-01 0.27938106E+03</pdfrwt>
<totfact> 0.27972236E+03</totfact>
</mgrwt>
</event>
<event>
 9    1  0.8175317E-001  0.2764747E+03  0.7818608E-02  0.1097630E+00
         -2   -1    0    0    0  501 -0.00000000000E+00  0.00000000000E+00  0.35554186414E+02  0.35554186414E+02  0.00000000000E+00 0.  1.
          2   -1    0    0  501    0  0.00000000000E+00 -0.00000000000E+00 -0.53747716652E+03  0.53747716652E+03  0.00000000000E+00 0.  1.
         35    2    1    2    0    0  0.00000000000E+00  0.71054273576E-14 -0.50192298010E+03  0.57303135293E+03  0.27647468869E+03 0.  0.
         25    2    3    3    0    0  0.37723351836E+02 -0.38887059886E+01 -0.36069915423E+03  0.38359563627E+03  0.12491420654E+03 0.  0.
         25    2    3    3    0    0 -0.37723351836E+02  0.38887059886E+01 -0.14122382588E+03  0.18943571666E+03  0.12043067900E+03 0.  0.
          5    1    4    4  502    0  0.53262200752E+02  0.49617073411E+02 -0.17311119834E+03  0.18785178465E+03  0.47000000000E+01 0. -1.
         -5    1    4    4    0  502 -0.15538848916E+02 -0.53505779400E+02 -0.18758795588E+03  0.19574385162E+03  0.47000000000E+01 0. -1.
          5    1    5    5  503    0 -0.67479893908E+02  0.39395502128E+02 -0.10184448292E+03  0.12845205475E+03  0.47000000000E+01 0. -1.
         -5    1    5    5    0  503  0.29756542073E+02 -0.35506796139E+02 -0.39379342961E+02  0.60983661912E+02  0.47000000000E+01 0. -1.
<mgrwt>
<rscale>  0 0.27647469E+03</rscale>
<asrwt>0</asrwt>
<pdfrwt beam="1">  1        2 0.82688798E-01 0.27647469E+03</pdfrwt>
<pdfrwt beam="2">  1       -2 0.54698746E-02 0.27647469E+03</pdfrwt>
<totfact> 0.97331882E+03</totfact>
</mgrwt>
</event>
<event>
 9    1  0.8175317E-001  0.2759001E+03  0.7818608E-02  0.1097950E+00
         -4   -1    0    0    0  501 -0.00000000000E+00  0.00000000000E+00  0.54550937658E+03  0.54550937658E+03  0.00000000000E+00 0.  1.
          4   -1    0    0  501    0  0.00000000000E+00 -0.00000000000E+00 -0.34885219042E+02  0.34885219042E+02  0.00000000000E+00 0.  1.
         35    2    1    2    0    0  0.00000000000E+00  0.71054273576E-14  0.51062415753E+03  0.58039459562E+03  0.27590008402E+03 0.  0.
         25    2    3    3    0    0 -0.13288819351E+02  0.49669655326E+02  0.34848830144E+03  0.37372379308E+03  0.12482671948E+03 0.  0.
         25    2    3    3    0    0  0.13288819351E+02 -0.49669655326E+02  0.16213585610E+03  0.20667080253E+03  0.11739300409E+03 0.  0.
          5    1    4    4  502    0  0.30338539862E+02  0.63271726794E+02  0.10794571132E+03  0.12883363305E+03  0.47000000000E+01 0. -1.
         -5    1    4    4    0  502 -0.43627359214E+02 -0.13602071468E+02  0.24054259012E+03  0.24489016004E+03  0.47000000000E+01 0. -1.
          5    1    5    5  503    0  0.12194017305E+02  0.19347700915E+02  0.12689820806E+03  0.12902818606E+03  0.47000000000E+01 0. -1.
         -5    1    5    5    0  503  0.10948020468E+01 -0.69017356241E+02  0.35237648034E+02  0.77642616474E+02  0.47000000000E+01 0. -1.
<mgrwt>
<rscale>  0 0.27590008E+03</rscale>
<asrwt>0</asrwt>
<pdfrwt beam="1">  1        4 0.53669572E-02 0.27590008E+03</pdfrwt>
<pdfrwt beam="2">  1       -4 0.83924514E-01 0.27590008E+03</pdfrwt>
<totfact> 0.50903243E+02</totfact>
</mgrwt>
</event>
<event>
 9    1  0.8175317E-001  0.2737372E+03  0.7818608E-02  0.1099160E+00
          2   -1    0    0  501    0  0.00000000000E+00  0.00000000000E+00  0.23792937097E+03  0.23792937097E+03  0.00000000000E+00 0. -1.
         -2   -1    0    0    0  501 -0.00000000000E+00 -0.00000000000E+00 -0.78733501321E+02  0.78733501321E+02  0.00000000000E+00 0. -1.
         35    2    1    2    0    0  0.35527136788E-14  0.00000000000E+00  0.15919586965E+03  0.31666287229E+03  0.27373719107E+03 0.  0.
         25    2    3    3    0    0  0.22714665962E+02 -0.37598497047E+02  0.11907217497E+03  0.17790735097E+03  0.12467252965E+03 0.  0.
         25    2    3    3    0    0 -0.22714665962E+02  0.37598497047E+02  0.40123694683E+02  0.13875552132E+03  0.12535382240E+03 0.  0.
          5    1    4    4  502    0  0.49234995385E+02  0.64207546176E-01 -0.73481684303E+00  0.49464318948E+02  0.47000000000E+01 0. -1.
         -5    1    4    4    0  502 -0.26520329422E+02 -0.37662704593E+02  0.11980699181E+03  0.12844303203E+03  0.47000000000E+01 0. -1.
          5    1    5    5  503    0 -0.52486248630E+02  0.69748752040E+02  0.17246626632E+02  0.89102361566E+02  0.47000000000E+01 0.  1.
         -5    1    5    5    0  503  0.29771582668E+02 -0.32150254993E+02  0.22877068051E+02  0.49653159751E+02  0.47000000000E+01 0.  1.
<mgrwt>
<rscale>  0 0.27373719E+03</rscale>
<asrwt>0</asrwt>
<pdfrwt beam="1">  1        2 0.36604518E-01 0.27373719E+03</pdfrwt>
<pdfrwt beam="2">  1       -2 0.12112846E-01 0.27373719E+03</pdfrwt>
<totfact> 0.68014572E+03</totfact>
</mgrwt>
</event>
<event>
 9    1  0.8175317E-001  0.2737399E+03  0.7818608E-02  0.1099158E+00
         -4   -1    0    0    0  501 -0.00000000000E+00  0.00000000000E+00  0.15776295298E+04  0.15776295298E+04  0.00000000000E+00 0. -1.
          4   -1    0    0  501    0  0.00000000000E+00 -0.00000000000E+00 -0.11874387744E+02  0.11874387744E+02  0.00000000000E+00 0. -1.
         35    2    1    2    0    0  0.00000000000E+00  0.35527136788E-14  0.15657551421E+04  0.15895039176E+04  0.27373991125E+03 0.  0.
         25    2    3    3    0    0 -0.15664280074E+02 -0.17409649946E+02  0.46837049460E+03  0.48519538097E+03  0.12447960442E+03 0.  0.
         25    2    3    3    0    0  0.15664280074E+02  0.17409649946E+02  0.10973846475E+04  0.11043085366E+04  0.12122629215E+03 0.  0.
          5    1    4    4  502    0 -0.43271584430E+02  0.23579838228E+02  0.83004714738E+02  0.96645286790E+02  0.47000000000E+01 0.  1.
         -5    1    4    4    0  502  0.27607304356E+02 -0.40989488174E+02  0.38536577987E+03  0.38855009418E+03  0.47000000000E+01 0.  1.
          5    1    5    5  503    0 -0.10670770157E+02 -0.86252310325E+01  0.13603746963E+02  0.19884966119E+02  0.47000000000E+01 0. -1.
         -5    1    5    5    0  503  0.26335050230E+02  0.26034880978E+02  0.10837809005E+04  0.10844235705E+04  0.47000000000E+01 0. -1.
<mgrwt>
<rscale>  0 0.27373991E+03</rscale>
<asrwt>0</asrwt>
<pdfrwt beam="1">  1        4 0.18268301E-02 0.27373991E+03</pdfrwt>
<pdfrwt beam="2">  1       -4 0.24271207E+00 0.27373991E+03</pdfrwt>
<totfact> 0.17256625E+02</totfact>
</mgrwt>
</event>
<event>
 9    1  0.8175317E-001  0.2764974E+03  0.7818608E-02  0.1097617E+00
         -3   -1    0    0    0  501 -0.00000000000E+00  0.00000000000E+00  0.60674896349E+02  0.60674896349E+02  0.00000000000E+00 0.  1.
          3   -1    0    0  501    0  0.00000000000E+00 -0.00000000000E+00 -0.31500185732E+03  0.31500185732E+03  0.00000000000E+00 0.  1.
         35    2    1    2    0    0  0.71054273576E-14  0.00000000000E+00 -0.25432696097E+03  0.37567675367E+03  0.27649741440E+03 0.  0.
         25    2    3    3    0    0  0.34106041455E+02 -0.24897638732E+02 -0.18050668005E+03  0.22361928887E+03  0.12505922731E+03 0.  0.
         25    2    3    3    0    0 -0.34106041455E+02  0.24897638732E+02 -0.73820280924E+02  0.15205746480E+03  0.12605127626E+03 0.  0.
          5    1    4    4  502    0  0.42265218607E+02  0.36277898876E+02 -0.36192077078E+02  0.66591223851E+02  0.47000000000E+01 0. -1.
         -5    1    4    4    0  502 -0.81591771523E+01 -0.61175537607E+02 -0.14431460297E+03  0.15702806502E+03  0.47000000000E+01 0. -1.
          5    1    5    5  503    0  0.35873752635E+02 -0.18918428540E+02  0.55743663251E+00  0.40831774418E+02  0.47000000000E+01 0. -1.
         -5    1    5    5    0  503 -0.69979794090E+02  0.43816067271E+02 -0.74377717556E+02  0.11122569038E+03  0.47000000000E+01 0. -1.
<mgrwt>
<rscale>  0 0.27649741E+03</rscale>
<asrwt>0</asrwt>
<pdfrwt beam="1">  1        3 0.48461824E-01 0.27649741E+03</pdfrwt>
<pdfrwt beam="2">  1       -3 0.93345994E-02 0.27649741E+03</pdfrwt>
<totfact> 0.89551435E+02</totfact>
</mgrwt>
</event>
<event>
 9    1  0.8175317E-001  0.2714022E+03  0.7818608E-02  0.1100480E+00
          4   -1    0    0  501    0  0.00000000000E+00  0.00000000000E+00  0.98056590627E+03  0.98056590627E+03  0.00000000000E+00 0. -1.
         -4   -1    0    0    0  501 -0.00000000000E+00 -0.00000000000E+00 -0.18779751437E+02  0.18779751437E+02  0.00000000000E+00 0. -1.
         35    2    1    2    0    0  0.00000000000E+00 -0.71054273576E-14  0.96178615483E+03  0.99934565771E+03  0.27140216644E+03 0.  0.
         25    2    3    3    0    0 -0.49542269063E+02 -0.36023659318E+02  0.44944021085E+03  0.47064941262E+03  0.12554770414E+03 0.  0.
         25    2    3    3    0    0  0.49542269063E+02  0.36023659318E+02  0.51234594399E+03  0.52869624509E+03  0.11519206918E+03 0.  0.
          5    1    4    4  502    0 -0.31780674724E+01 -0.76483426267E+02  0.28026077954E+03  0.29056498267E+03  0.47000000000E+01 0.  1.
         -5    1    4    4    0  502 -0.46364201590E+02  0.40459766950E+02  0.16917943131E+03  0.18008442994E+03  0.47000000000E+01 0.  1.
          5    1    5    5  503    0  0.38657403200E+02 -0.23633299313E+02  0.79728858744E+02  0.91824335420E+02  0.47000000000E+01 0. -1.
         -5    1    5    5    0  503  0.10884865862E+02  0.59656958631E+02  0.43261708524E+03  0.43687190967E+03  0.47000000000E+01 0. -1.
<mgrwt>
<rscale>  0 0.27140217E+03</rscale>
<asrwt>0</asrwt>
<pdfrwt beam="1">  1        4 0.15085625E+00 0.27140217E+03</pdfrwt>
<pdfrwt beam="2">  1       -4 0.28891933E-02 0.27140217E+03</pdfrwt>
<totfact> 0.33336194E+02</totfact>
</mgrwt>
</event>
<event>
 9    1  0.8175317E-001  0.2735732E+03  0.7818608E-02  0.1099252E+00
         -1   -1    0    0    0  501 -0.00000000000E+00  0.00000000000E+00  0.49808296491E+02  0.49808296491E+02  0.00000000000E+00 0. -1.
          1   -1    0    0  501    0  0.00000000000E+00 -0.00000000000E+00 -0.37565169458E+03  0.37565169458E+03  0.00000000000E+00 0. -1.
         35    2    1    2    0    0  0.71054273576E-14 -0.71054273576E-14 -0.32584339809E+03  0.42545999107E+03  0.27357317837E+03 0.  0.
         25    2    3    3    0    0  0.29348350009E+02 -0.46757475637E+02 -0.17424733500E+03  0.22079550112E+03  0.12385851761E+03 0.  0.
         25    2    3    3    0    0 -0.29348350009E+02  0.46757475637E+02 -0.15159606309E+03  0.20466448995E+03  0.12593093316E+03 0.  0.
          5    1    4    4  502    0  0.47695137033E+02 -0.32131719625E+02 -0.18556202866E+03  0.19432609188E+03  0.47000000000E+01 0. -1.
         -5    1    4    4    0  502 -0.18346787024E+02 -0.14625756013E+02  0.11314693665E+02  0.26469409245E+02  0.47000000000E+01 0. -1.
          5    1    5    5  503    0 -0.50645399965E+02  0.71827318527E+02 -0.14670091502E+03  0.17107708407E+03  0.47000000000E+01 0.  1.
         -5    1    5    5    0  503  0.21297049956E+02 -0.25069842890E+02 -0.48951480680E+01  0.33587405883E+02  0.47000000000E+01 0.  1.
<mgrwt>
<rscale>  0 0.27357318E+03</rscale>
<asrwt>0</asrwt>
<pdfrwt beam="1">  1        1 0.57792568E-01 0.27357318E+03</pdfrwt>
<pdfrwt beam="2">  1       -1 0.76628149E-02 0.27357318E+03</pdfrwt>
<totfact> 0.60069976E+03</totfact>
</mgrwt>
</event>
<event>
 9    1  0.8175317E-001  0.2683895E+03  0.7818608E-02  0.1102205E+00
         -4   -1    0    0    0  501 -0.00000000000E+00  0.00000000000E+00  0.70753592256E+03  0.70753592256E+03  0.00000000000E+00 0. -1.
          4   -1    0    0  501    0  0.00000000000E+00 -0.00000000000E+00 -0.25452044031E+02  0.25452044031E+02  0.00000000000E+00 0. -1.
         35    2    1    2    0    0  0.14210854715E-13  0.35527136788E-14  0.68208387853E+03  0.73298796659E+03  0.26838953373E+03 0.  0.
         25    2    3    3    0    0 -0.38579256298E+02  0.24085335058E+02  0.29028930953E+03  0.31909131498E+03  0.12443038893E+03 0.  0.
         25    2    3    3    0    0  0.38579256298E+02 -0.24085335058E+02  0.39179456900E+03  0.41389665160E+03  0.12545513753E+03 0.  0.
          5    1    4    4  502    0  0.33187624904E+02  0.15338196904E+02  0.26147589467E+02  0.45193640769E+02  0.47000000000E+01 0.  1.
         -5    1    4    4    0  502 -0.71766881202E+02  0.87471381541E+01  0.26414172006E+03  0.27389767422E+03  0.47000000000E+01 0.  1.
          5    1    5    5  503    0  0.10040062571E+01 -0.56561718067E+02  0.79750995252E+02  0.97890485865E+02  0.47000000000E+01 0. -1.
         -5    1    5    5    0  503  0.37575250041E+02  0.32476383009E+02  0.31204357375E+03  0.31600616574E+03  0.47000000000E+01 0. -1.
<mgrwt>
<rscale>  0 0.26838953E+03</rscale>
<asrwt>0</asrwt>
<pdfrwt beam="1">  1        4 0.39156996E-02 0.26838953E+03</pdfrwt>
<pdfrwt beam="2">  1       -4 0.10885167E+00 0.26838953E+03</pdfrwt>
<totfact> 0.46156270E+02</totfact>
</mgrwt>
</event>
<event>
 9    1  0.8175317E-001  0.2744842E+03  0.7818608E-02  0.1098740E+00
          2   -1    0    0  501    0  0.00000000000E+00  0.00000000000E+00  0.19753384478E+04  0.19753384478E+04  0.00000000000E+00 0.  1.
         -2   -1    0    0    0  501 -0.00000000000E+00 -0.00000000000E+00 -0.95352730887E+01  0.95352730887E+01  0.00000000000E+00 0.  1.
         35    2    1    2    0    0  0.00000000000E+00  0.00000000000E+00  0.19658031747E+04  0.19848737209E+04  0.27448418200E+03 0.  0.
         25    2    3    3    0    0 -0.24168034315E+02 -0.11471887173E+02  0.61762435080E+03  0.63066971016E+03  0.12477478325E+03 0.  0.
         25    2    3    3    0    0  0.24168034315E+02  0.11471887173E+02  0.13481788239E+04  0.13542040107E+04  0.12476643520E+03 0.  0.
          5    1    4    4  502    0 -0.16773257352E+02  0.46546814592E+02  0.12429216136E+03  0.13386029839E+03  0.47000000000E+01 0.  1.
         -5    1    4    4    0  502 -0.73947769625E+01 -0.58018701765E+02  0.49333218944E+03  0.49680941177E+03  0.47000000000E+01 0.  1.
          5    1    5    5  503    0 -0.39301714949E+02 -0.29277753084E+02  0.67597836271E+03  0.67776887541E+03  0.47000000000E+01 0.  1.
         -5    1    5    5    0  503  0.63469749263E+02  0.40749640256E+02  0.67220046120E+03  0.67643513532E+03  0.47000000000E+01 0.  1.
<mgrwt>
<rscale>  0 0.27448418E+03</rscale>
<asrwt>0</asrwt>
<pdfrwt beam="1">  1        2 0.30389790E+00 0.27448418E+03</pdfrwt>
<pdfrwt beam="2">  1       -2 0.14669667E-02 0.27448418E+03</pdfrwt>
<totfact> 0.93302397E+03</totfact>
</mgrwt>
</event>
<event>
 9    1  0.8175317E-001  0.2807962E+03  0.7818608E-02  0.1095255E+00
         -2   -1    0    0    0  501 -0.00000000000E+00  0.00000000000E+00  0.15701959241E+02  0.15701959241E+02  0.00000000000E+00 0. -1.
          2   -1    0    0  501    0  0.00000000000E+00 -0.00000000000E+00 -0.12553606702E+04  0.12553606702E+04  0.00000000000E+00 0. -1.
         35    2    1    2    0    0  0.71054273576E-14 -0.71054273576E-14 -0.12396587109E+04  0.12710626294E+04  0.28079616860E+03 0.  0.
         25    2    3    3    0    0 -0.48767515511E+02  0.35975814189E+02 -0.72570637688E+03  0.73888630495E+03  0.12502278362E+03 0.  0.
         25    2    3    3    0    0  0.48767515511E+02 -0.35975814189E+02 -0.51395233403E+03  0.53217632444E+03  0.12406493810E+03 0.  0.
          5    1    4    4  502    0  0.16554156204E+02  0.22152075508E+02 -0.34581381515E+02  0.44527704684E+02  0.47000000000E+01 0.  1.
         -5    1    4    4    0  502 -0.65321671714E+02  0.13823738680E+02 -0.69112499537E+03  0.69435860027E+03  0.47000000000E+01 0.  1.
          5    1    5    5  503    0  0.47954374270E+02 -0.24484465746E+02 -0.71900029118E+02  0.89948959202E+02  0.47000000000E+01 0. -1.
         -5    1    5    5    0  503  0.81314124090E+00 -0.11491348443E+02 -0.44205230491E+03  0.44222736524E+03  0.47000000000E+01 0. -1.
<mgrwt>
<rscale>  0 0.28079617E+03</rscale>
<asrwt>0</asrwt>
<pdfrwt beam="1">  1        2 0.19313237E+00 0.28079617E+03</pdfrwt>
<pdfrwt beam="2">  1       -2 0.24156866E-02 0.28079617E+03</pdfrwt>
<totfact> 0.10864777E+04</totfact>
</mgrwt>
</event>
<event>
 9    1  0.8175317E-001  0.2766408E+03  0.7818608E-02  0.1097538E+00
         -1   -1    0    0    0  501 -0.00000000000E+00  0.00000000000E+00  0.44777074793E+03  0.44777074793E+03  0.00000000000E+00 0.  1.
          1   -1    0    0  501    0  0.00000000000E+00 -0.00000000000E+00 -0.42728400191E+02  0.42728400191E+02  0.00000000000E+00 0.  1.
         35    2    1    2    0    0  0.00000000000E+00  0.00000000000E+00  0.40504234774E+03  0.49049914812E+03  0.27664076136E+03 0.  0.
         25    2    3    3    0    0  0.33565284946E+02 -0.30929656045E+02  0.13613772429E+03  0.19044053426E+03  0.12510333783E+03 0.  0.
         25    2    3    3    0    0 -0.33565284946E+02  0.30929656045E+02  0.26890462344E+03  0.30005861386E+03  0.12506879413E+03 0.  0.
          5    1    4    4  502    0  0.44137827165E+02 -0.74018486586E+02  0.10556214573E+03  0.13635373393E+03  0.47000000000E+01 0. -1.
         -5    1    4    4    0  502 -0.10572542218E+02  0.43088830541E+02  0.30575578557E+02  0.54086800335E+02  0.47000000000E+01 0. -1.
          5    1    5    5  503    0 -0.22764370686E+02  0.79662874756E+02  0.16985094702E+03  0.18903921390E+03  0.47000000000E+01 0.  1.
         -5    1    5    5    0  503 -0.10800914260E+02 -0.48733218711E+02  0.99053676424E+02  0.11101939996E+03  0.47000000000E+01 0.  1.
<mgrwt>
<rscale>  0 0.27664076E+03</rscale>
<asrwt>0</asrwt>
<pdfrwt beam="1">  1        1 0.65736004E-02 0.27664076E+03</pdfrwt>
<pdfrwt beam="2">  1       -1 0.68887804E-01 0.27664076E+03</pdfrwt>
<totfact> 0.25161030E+03</totfact>
</mgrwt>
</event>
<event>
 9    1  0.8175317E-001  0.3017361E+03  0.7818608E-02  0.1084376E+00
          1   -1    0    0  501    0  0.00000000000E+00  0.00000000000E+00  0.64556693193E+03  0.64556693193E+03  0.00000000000E+00 0. -1.
         -1   -1    0    0    0  501 -0.00000000000E+00 -0.00000000000E+00 -0.35257651693E+02  0.35257651693E+02  0.00000000000E+00 0. -1.
         35    2    1    2    0    0  0.22204460493E-14  0.00000000000E+00  0.61030928023E+03  0.68082458362E+03  0.30173613659E+03 0.  0.
         25    2    3    3    0    0  0.23458679239E+01 -0.83175033559E+02  0.27372956602E+03  0.31224326428E+03  0.12507754184E+03 0.  0.
         25    2    3    3    0    0 -0.23458679239E+01  0.83175033559E+02  0.33657971421E+03  0.36858131934E+03  0.12507076254E+03 0.  0.
          5    1    4    4  502    0 -0.45374454501E+02 -0.82934585592E+01  0.16705146582E+03  0.17336638892E+03  0.47000000000E+01 0.  1.
         -5    1    4    4    0  502  0.47720322425E+02 -0.74881574999E+02  0.10667810020E+03  0.13887687536E+03  0.47000000000E+01 0.  1.
          5    1    5    5  503    0 -0.20101897487E+01  0.10809515377E+03  0.18049721350E+03  0.21045174557E+03  0.47000000000E+01 0. -1.
         -5    1    5    5    0  503 -0.33567817520E+00 -0.24920120215E+02  0.15608250071E+03  0.15812957377E+03  0.47000000000E+01 0. -1.
<mgrwt>
<rscale>  0 0.30173614E+03</rscale>
<asrwt>0</asrwt>
<pdfrwt beam="1">  1        1 0.99317981E-01 0.30173614E+03</pdfrwt>
<pdfrwt beam="2">  1       -1 0.54242546E-02 0.30173614E+03</pdfrwt>
<totfact> 0.49351288E+03</totfact>
</mgrwt>
</event>
<event>
 9    1  0.8175317E-001  0.2759522E+03  0.7818608E-02  0.1097921E+00
          2   -1    0    0  501    0  0.00000000000E+00  0.00000000000E+00  0.10220740023E+04  0.10220740023E+04  0.00000000000E+00 0. -1.
         -2   -1    0    0    0  501 -0.00000000000E+00 -0.00000000000E+00 -0.18626243831E+02  0.18626243831E+02  0.00000000000E+00 0. -1.
         35    2    1    2    0    0 -0.14210854715E-13  0.71054273576E-14  0.10034477585E+04  0.10407002461E+04  0.27595216672E+03 0.  0.
         25    2    3    3    0    0 -0.33052848121E+02  0.53895912727E+02  0.46098509228E+03  0.48071500671E+03  0.12075761754E+03 0.  0.
         25    2    3    3    0    0  0.33052848121E+02 -0.53895912727E+02  0.54246266618E+03  0.55998523942E+03  0.12377586187E+03 0.  0.
          5    1    4    4  502    0 -0.64312987380E+02  0.23833585808E+02  0.39922993965E+03  0.40510595512E+03  0.47000000000E+01 0.  1.
         -5    1    4    4    0  502  0.31260139259E+02  0.30062326919E+02  0.61755152621E+02  0.75609051585E+02  0.47000000000E+01 0.  1.
          5    1    5    5  503    0  0.51521879722E+01  0.85755570892E+01  0.41581136368E+03  0.41595824958E+03  0.47000000000E+01 0. -1.
         -5    1    5    5    0  503  0.27900660149E+02 -0.62471469816E+02  0.12665130250E+03  0.14402698984E+03  0.47000000000E+01 0. -1.
<mgrwt>
<rscale>  0 0.27595217E+03</rscale>
<asrwt>0</asrwt>
<pdfrwt beam="1">  1        2 0.15724211E+00 0.27595217E+03</pdfrwt>
<pdfrwt beam="2">  1       -2 0.28655768E-02 0.27595217E+03</pdfrwt>
<totfact> 0.11517414E+04</totfact>
</mgrwt>
</event>
<event>
 9    1  0.8175317E-001  0.2741958E+03  0.7818608E-02  0.1098902E+00
          3   -1    0    0  501    0  0.00000000000E+00  0.00000000000E+00  0.94964243557E+01  0.94964243557E+01  0.00000000000E+00 0. -1.
         -3   -1    0    0    0  501 -0.00000000000E+00 -0.00000000000E+00 -0.19792541113E+04  0.19792541113E+04  0.00000000000E+00 0. -1.
         35    2    1    2    0    0 -0.14210854715E-13  0.71054273576E-14 -0.19697576869E+04  0.19887505357E+04  0.27419582016E+03 0.  0.
         25    2    3    3    0    0 -0.54367313265E+02  0.13623225714E+01 -0.10525338967E+04  0.10613487353E+04  0.12520332950E+03 0.  0.
         25    2    3    3    0    0  0.54367313265E+02 -0.13623225714E+01 -0.91722379029E+03  0.92740180031E+03  0.12576548448E+03 0.  0.
          5    1    4    4  502    0  0.30898427116E+02  0.24116397774E+02 -0.17610157059E+03  0.18047206599E+03  0.47000000000E+01 0. -1.
         -5    1    4    4    0  502 -0.85265740381E+02 -0.22754075202E+02 -0.87643232606E+03  0.88087666934E+03  0.47000000000E+01 0. -1.
          5    1    5    5  503    0  0.62069194012E+02 -0.53354777034E+02 -0.63684153399E+03  0.64209699150E+03  0.47000000000E+01 0.  1.
         -5    1    5    5    0  503 -0.77018807475E+01  0.51992454462E+02 -0.28038225629E+03  0.28530480881E+03  0.47000000000E+01 0.  1.
<mgrwt>
<rscale>  0 0.27419582E+03</rscale>
<asrwt>0</asrwt>
<pdfrwt beam="1">  1        3 0.14609885E-02 0.27419582E+03</pdfrwt>
<pdfrwt beam="2">  1       -3 0.30450061E+00 0.27419582E+03</pdfrwt>
<totfact> 0.16159260E+02</totfact>
</mgrwt>
</event>
<event>
 9    1  0.8175317E-001  0.2750007E+03  0.7818608E-02  0.1098451E+00
         -3   -1    0    0    0  501 -0.00000000000E+00  0.00000000000E+00  0.71891025918E+03  0.71891025918E+03  0.00000000000E+00 0.  1.
          3   -1    0    0  501    0  0.00000000000E+00 -0.00000000000E+00 -0.26298614996E+02  0.26298614996E+02  0.00000000000E+00 0.  1.
         35    2    1    2    0    0  0.71054273576E-14  0.00000000000E+00  0.69261164419E+03  0.74520887418E+03  0.27500068453E+03 0.  0.
         25    2    3    3    0    0  0.21603859946E+02 -0.41777911001E+02  0.34256837556E+03  0.37013608592E+03  0.13204358960E+03 0.  0.
         25    2    3    3    0    0 -0.21603859946E+02  0.41777911001E+02  0.35004326863E+03  0.37507278826E+03  0.12624256798E+03 0.  0.
          5    1    4    4  502    0  0.32993899267E+02  0.35647563971E+02  0.62463087798E+02  0.79265840960E+02  0.47000000000E+01 0. -1.
         -5    1    4    4    0  502 -0.11390039321E+02 -0.77425474971E+02  0.28010528776E+03  0.29087024496E+03  0.47000000000E+01 0. -1.
          5    1    5    5  503    0 -0.29672230999E+02  0.26050320782E+02  0.19976389441E+02  0.44499512811E+02  0.47000000000E+01 0. -1.
         -5    1    5    5    0  503  0.80683710528E+01  0.15727590219E+02  0.33006687918E+03  0.33057327545E+03  0.47000000000E+01 0. -1.
<mgrwt>
<rscale>  0 0.27500068E+03</rscale>
<asrwt>0</asrwt>
<pdfrwt beam="1">  1        3 0.40459413E-02 0.27500068E+03</pdfrwt>
<pdfrwt beam="2">  1       -3 0.11060156E+00 0.27500068E+03</pdfrwt>
<totfact> 0.57959149E+02</totfact>
</mgrwt>
</event>
<event>
 9    1  0.8175317E-001  0.2773952E+03  0.7818608E-02  0.1097120E+00
          2   -1    0    0  501    0  0.00000000000E+00  0.00000000000E+00  0.42219563451E+03  0.42219563451E+03  0.00000000000E+00 0. -1.
         -2   -1    0    0    0  501 -0.00000000000E+00 -0.00000000000E+00 -0.45564231150E+02  0.45564231150E+02  0.00000000000E+00 0. -1.
         35    2    1    2    0    0  0.00000000000E+00 -0.22204460493E-15  0.37663140336E+03  0.46775986566E+03  0.27739516565E+03 0.  0.
         25    2    3    3    0    0  0.68610974129E+01  0.15609218855E+01  0.28882194738E+03  0.31487455603E+03  0.12521324856E+03 0.  0.
         25    2    3    3    0    0 -0.68610974129E+01 -0.15609218855E+01  0.87809455986E+02  0.15288530963E+03  0.12495561694E+03 0.  0.
          5    1    4    4  502    0 -0.50102845538E+02  0.84801906158E+01  0.21650211626E+03  0.22243530544E+03  0.47000000000E+01 0. -1.
         -5    1    4    4    0  502  0.56963942950E+02 -0.69192687303E+01  0.72319831120E+02  0.92439250589E+02  0.47000000000E+01 0. -1.
          5    1    5    5  503    0 -0.64831296663E+02 -0.85836574711E+00  0.32737525603E+02  0.72785090516E+02  0.47000000000E+01 0.  1.
         -5    1    5    5    0  503  0.57970199250E+02 -0.70255613843E+00  0.55071930383E+02  0.80100219116E+02  0.47000000000E+01 0.  1.
<mgrwt>
<rscale>  0 0.27739517E+03</rscale>
<asrwt>0</asrwt>
<pdfrwt beam="1">  1        2 0.64953172E-01 0.27739517E+03</pdfrwt>
<pdfrwt beam="2">  1       -2 0.70098820E-02 0.27739517E+03</pdfrwt>
<totfact> 0.86935361E+03</totfact>
</mgrwt>
</event>
<event>
 9    1  0.8175317E-001  0.2737622E+03  0.7818608E-02  0.1099145E+00
         -2   -1    0    0    0  501 -0.00000000000E+00  0.00000000000E+00  0.15691736502E+02  0.15691736502E+02  0.00000000000E+00 0.  1.
          2   -1    0    0  501    0  0.00000000000E+00 -0.00000000000E+00 -0.11940322593E+04  0.11940322593E+04  0.00000000000E+00 0.  1.
         35    2    1    2    0    0  0.14210854715E-13 -0.71054273576E-14 -0.11783405228E+04  0.12097239958E+04  0.27376222959E+03 0.  0.
         25    2    3    3    0    0  0.54740118320E+02 -0.71956406492E+01 -0.57937870494E+03  0.59547790731E+03  0.12596029753E+03 0.  0.
         25    2    3    3    0    0 -0.54740118320E+02  0.71956406492E+01 -0.59896181783E+03  0.61424608847E+03  0.12447787025E+03 0.  0.
          5    1    4    4  502    0 -0.15222524718E+02  0.30497076909E+02 -0.36799970662E+03  0.36960474974E+03  0.47000000000E+01 0.  1.
         -5    1    4    4    0  502  0.69962643038E+02 -0.37692717558E+02 -0.21137899833E+03  0.22587315757E+03  0.47000000000E+01 0.  1.
          5    1    5    5  503    0  0.20617250535E+02 -0.25549513165E+02 -0.35970062051E+03  0.36122634876E+03  0.47000000000E+01 0.  1.
         -5    1    5    5    0  503 -0.75357368855E+02  0.32745153814E+02 -0.23926119732E+03  0.25301973971E+03  0.47000000000E+01 0.  1.
<mgrwt>
<rscale>  0 0.27376223E+03</rscale>
<asrwt>0</asrwt>
<pdfrwt beam="1">  1        2 0.18369735E+00 0.27376223E+03</pdfrwt>
<pdfrwt beam="2">  1       -2 0.24141123E-02 0.27376223E+03</pdfrwt>
<totfact> 0.11769892E+04</totfact>
</mgrwt>
</event>
<event>
 9    1  0.8175317E-001  0.2762908E+03  0.7818608E-02  0.1097732E+00
          2   -1    0    0  501    0  0.00000000000E+00  0.00000000000E+00  0.13834729743E+04  0.13834729743E+04  0.00000000000E+00 0.  1.
         -2   -1    0    0    0  501 -0.00000000000E+00 -0.00000000000E+00 -0.13794376435E+02  0.13794376435E+02  0.00000000000E+00 0.  1.
         35    2    1    2    0    0  0.71054273576E-14  0.71054273576E-14  0.13696785979E+04  0.13972673507E+04  0.27629076709E+03 0.  0.
         25    2    3    3    0    0  0.10033547887E+02  0.57645120626E+02  0.69649198141E+03  0.71004891397E+03  0.12507896720E+03 0.  0.
         25    2    3    3    0    0 -0.10033547887E+02 -0.57645120626E+02  0.67318661645E+03  0.68721843676E+03  0.12516120506E+03 0.  0.
          5    1    4    4  502    0  0.64449543427E+02  0.28235165683E+02  0.46811063400E+03  0.47339267410E+03  0.47000000000E+01 0. -1.
         -5    1    4    4    0  502 -0.54415995540E+02  0.29409954943E+02  0.22838134742E+03  0.23665623987E+03  0.47000000000E+01 0. -1.
          5    1    5    5  503    0 -0.41307654049E+02 -0.12440571730E+02  0.76218809584E+02  0.87706824378E+02  0.47000000000E+01 0.  1.
         -5    1    5    5    0  503  0.31274106161E+02 -0.45204548895E+02  0.59696780686E+03  0.59951161239E+03  0.47000000000E+01 0.  1.
<mgrwt>
<rscale>  0 0.27629077E+03</rscale>
<asrwt>0</asrwt>
<pdfrwt beam="1">  1        2 0.21284189E+00 0.27629077E+03</pdfrwt>
<pdfrwt beam="2">  1       -2 0.21222129E-02 0.27629077E+03</pdfrwt>
<totfact> 0.11173473E+04</totfact>
</mgrwt>
</event>
<event>
 9    1  0.8175317E-001  0.2736799E+03  0.7818608E-02  0.1099192E+00
          2   -1    0    0  501    0  0.00000000000E+00  0.00000000000E+00  0.50013995832E+03  0.50013995832E+03  0.00000000000E+00 0. -1.
         -2   -1    0    0    0  501 -0.00000000000E+00 -0.00000000000E+00 -0.37439851261E+02  0.37439851261E+02  0.00000000000E+00 0. -1.
         35    2    1    2    0    0  0.00000000000E+00  0.71054273576E-14  0.46270010706E+03  0.53757980958E+03  0.27367985420E+03 0.  0.
         25    2    3    3    0    0  0.53176803760E+02  0.19130283444E+02  0.23252702893E+03  0.27007064796E+03  0.12520221844E+03 0.  0.
         25    2    3    3    0    0 -0.53176803760E+02 -0.19130283444E+02  0.23017307813E+03  0.26750916162E+03  0.12404743227E+03 0.  0.
          5    1    4    4  502    0  0.19216146887E+02  0.67029780988E+02  0.78172627292E+02  0.10485848320E+03  0.47000000000E+01 0. -1.
         -5    1    4    4    0  502  0.33960656873E+02 -0.47899497545E+02  0.15435440164E+03  0.16521216476E+03  0.47000000000E+01 0. -1.
          5    1    5    5  503    0 -0.37653378997E+02 -0.70497464876E+00  0.23856675293E+03  0.24156667721E+03  0.47000000000E+01 0.  1.
         -5    1    5    5    0  503 -0.15523424763E+02 -0.18425308795E+02 -0.83936747974E+01  0.25942484406E+02  0.47000000000E+01 0.  1.
<mgrwt>
<rscale>  0 0.27367985E+03</rscale>
<asrwt>0</asrwt>
<pdfrwt beam="1">  1        2 0.76944604E-01 0.27367985E+03</pdfrwt>
<pdfrwt beam="2">  1       -2 0.57599775E-02 0.27367985E+03</pdfrwt>
<totfact> 0.97497137E+03</totfact>
</mgrwt>
</event>
<event>
 9    1  0.8175317E-001  0.2768692E+03  0.7818608E-02  0.1097411E+00
          2   -1    0    0  501    0  0.00000000000E+00  0.00000000000E+00  0.10020924768E+04  0.10020924768E+04  0.00000000000E+00 0. -1.
         -2   -1    0    0    0  501 -0.00000000000E+00 -0.00000000000E+00 -0.19124125958E+02  0.19124125958E+02  0.00000000000E+00 0. -1.
         35    2    1    2    0    0 -0.13322676296E-14  0.00000000000E+00  0.98296835085E+03  0.10212166028E+04  0.27686923085E+03 0.  0.
         25    2    3    3    0    0 -0.15538540148E+01  0.14704207600E+02  0.67090509804E+03  0.68266010786E+03  0.12526988503E+03 0.  0.
         25    2    3    3    0    0  0.15538540148E+01 -0.14704207600E+02  0.31206325281E+03  0.33855649491E+03  0.13045458332E+03 0.  0.
          5    1    4    4  502    0  0.30493984745E+02  0.41623851500E+02  0.12750205221E+03  0.13762736442E+03  0.47000000000E+01 0. -1.
         -5    1    4    4    0  502 -0.32047838760E+02 -0.26919643899E+02  0.54340304584E+03  0.54503274344E+03  0.47000000000E+01 0. -1.
          5    1    5    5  503    0  0.11585389301E+01 -0.62714940154E+02  0.26032550090E+03  0.26781703148E+03  0.47000000000E+01 0.  1.
         -5    1    5    5    0  503  0.39531508472E+00  0.48010732554E+02  0.51737751911E+02  0.70739463436E+02  0.47000000000E+01 0.  1.
<mgrwt>
<rscale>  0 0.27686923E+03</rscale>
<asrwt>0</asrwt>
<pdfrwt beam="1">  1        2 0.15416803E+00 0.27686923E+03</pdfrwt>
<pdfrwt beam="2">  1       -2 0.29421740E-02 0.27686923E+03</pdfrwt>
<totfact> 0.11390436E+04</totfact>
</mgrwt>
</event>
<event>
 9    1  0.8175317E-001  0.2789615E+03  0.7818608E-02  0.1096257E+00
          2   -1    0    0  501    0  0.00000000000E+00  0.00000000000E+00  0.66214931087E+03  0.66214931087E+03  0.00000000000E+00 0.  1.
         -2   -1    0    0    0  501 -0.00000000000E+00 -0.00000000000E+00 -0.29381415197E+02  0.29381415197E+02  0.00000000000E+00 0.  1.
         35    2    1    2    0    0  0.00000000000E+00  0.00000000000E+00  0.63276789567E+03  0.69153072606E+03  0.27896153014E+03 0.  0.
         25    2    3    3    0    0  0.13117826804E+02  0.53985574224E+02  0.37829461239E+03  0.40249938174E+03  0.12574744106E+03 0.  0.
         25    2    3    3    0    0 -0.13117826804E+02 -0.53985574224E+02  0.25447328327E+03  0.28903134432E+03  0.12528346457E+03 0.  0.
          5    1    4    4  502    0  0.57146482534E+01  0.93226035179E+02  0.21749007061E+03  0.23674410585E+03  0.47000000000E+01 0.  1.
         -5    1    4    4    0  502  0.74031785507E+01 -0.39240460955E+02  0.16080454179E+03  0.16575527590E+03  0.47000000000E+01 0.  1.
          5    1    5    5  503    0 -0.30933974646E+02 -0.17269272016E+02  0.48682635844E+01  0.36068386901E+02  0.47000000000E+01 0.  1.
         -5    1    5    5    0  503  0.17816147841E+02 -0.36716302209E+02  0.24960501969E+03  0.25296295742E+03  0.47000000000E+01 0.  1.
<mgrwt>
<rscale>  0 0.27896153E+03</rscale>
<asrwt>0</asrwt>
<pdfrwt beam="1">  1        2 0.10186911E+00 0.27896153E+03</pdfrwt>
<pdfrwt beam="2">  1       -2 0.45202182E-02 0.27896153E+03</pdfrwt>
<totfact> 0.10210306E+04</totfact>
</mgrwt>
</event>
<event>
 9    1  0.8175317E-001  0.2757681E+03  0.7818608E-02  0.1098023E+00
         -1   -1    0    0    0  501 -0.00000000000E+00  0.00000000000E+00  0.15321933404E+02  0.15321933404E+02  0.00000000000E+00 0. -1.
          1   -1    0    0  501    0  0.00000000000E+00 -0.00000000000E+00 -0.12408363393E+04  0.12408363393E+04  0.00000000000E+00 0. -1.
         35    2    1    2    0    0  0.00000000000E+00  0.00000000000E+00 -0.12255144059E+04  0.12561582727E+04  0.27576810371E+03 0.  0.
         25    2    3    3    0    0 -0.25341484631E+02  0.47822566586E+02 -0.70870786388E+03  0.72169069185E+03  0.12506570134E+03 0.  0.
         25    2    3    3    0    0  0.25341484631E+02 -0.47822566586E+02 -0.51680654198E+03  0.53446758082E+03  0.12504960776E+03 0.  0.
          5    1    4    4  502    0 -0.73061063991E+02  0.39277179226E+02 -0.52965094259E+03  0.53612762181E+03  0.47000000000E+01 0. -1.
         -5    1    4    4    0  502  0.47719579359E+02  0.85453873606E+01 -0.17905692129E+03  0.18556307004E+03  0.47000000000E+01 0. -1.
          5    1    5    5  503    0  0.58863678637E+02  0.67344576781E+01 -0.13794027757E+03  0.15019951984E+03  0.47000000000E+01 0.  1.
         -5    1    5    5    0  503 -0.33522194005E+02 -0.54557024264E+02 -0.37886626441E+03  0.38426806099E+03  0.47000000000E+01 0.  1.
<mgrwt>
<rscale>  0 0.27576810E+03</rscale>
<asrwt>0</asrwt>
<pdfrwt beam="1">  1        1 0.19089791E+00 0.27576810E+03</pdfrwt>
<pdfrwt beam="2">  1       -1 0.23572204E-02 0.27576810E+03</pdfrwt>
<totfact> 0.57742502E+03</totfact>
</mgrwt>
</event>
<event>
 9    1  0.8175317E-001  0.2753832E+03  0.7818608E-02  0.1098238E+00
         -2   -1    0    0    0  501 -0.00000000000E+00  0.00000000000E+00  0.39152591381E+02  0.39152591381E+02  0.00000000000E+00 0. -1.
          2   -1    0    0  501    0  0.00000000000E+00 -0.00000000000E+00 -0.48423314098E+03  0.48423314098E+03  0.00000000000E+00 0. -1.
         35    2    1    2    0    0 -0.71054273576E-14  0.00000000000E+00 -0.44508054960E+03  0.52338573236E+03  0.27538324061E+03 0.  0.
         25    2    3    3    0    0  0.45757020158E+02  0.18104813392E+02 -0.27218667151E+03  0.30360163505E+03  0.12516740589E+03 0.  0.
         25    2    3    3    0    0 -0.45757020158E+02 -0.18104813392E+02 -0.17289387809E+03  0.21978409731E+03  0.12645658222E+03 0.  0.
          5    1    4    4  502    0  0.24384456478E+02 -0.51052037736E+02 -0.16221126391E+03  0.17185894337E+03  0.47000000000E+01 0. -1.
         -5    1    4    4    0  502  0.21372563680E+02  0.69156851128E+02 -0.10997540759E+03  0.13174269168E+03  0.47000000000E+01 0. -1.
          5    1    5    5  503    0 -0.22157394047E+01 -0.63880348983E+02 -0.49154097500E+02  0.80770191212E+02  0.47000000000E+01 0.  1.
         -5    1    5    5    0  503 -0.43541280754E+02  0.45775535591E+02 -0.12373978059E+03  0.13901390610E+03  0.47000000000E+01 0.  1.
<mgrwt>
<rscale>  0 0.27538324E+03</rscale>
<asrwt>0</asrwt>
<pdfrwt beam="1">  1        2 0.74497410E-01 0.27538324E+03</pdfrwt>
<pdfrwt beam="2">  1       -2 0.60234753E-02 0.27538324E+03</pdfrwt>
<totfact> 0.94403428E+03</totfact>
</mgrwt>
</event>
<event>
 9    1  0.8175317E-001  0.2749932E+03  0.7818608E-02  0.1098455E+00
          2   -1    0    0  501    0  0.00000000000E+00  0.00000000000E+00  0.10440004403E+03  0.10440004403E+03  0.00000000000E+00 0.  1.
         -2   -1    0    0    0  501 -0.00000000000E+00 -0.00000000000E+00 -0.18108527960E+03  0.18108527960E+03  0.00000000000E+00 0.  1.
         35    2    1    2    0    0  0.00000000000E+00  0.14210854715E-13 -0.76685235568E+02  0.28548532364E+03  0.27499317202E+03 0.  0.
         25    2    3    3    0    0 -0.21331234653E+02  0.51859106148E+02 -0.44667093944E+02  0.14467952594E+03  0.12566872118E+03 0.  0.
         25    2    3    3    0    0  0.21331234653E+02 -0.51859106148E+02 -0.32018141625E+02  0.14080579770E+03  0.12512682690E+03 0.  0.
          5    1    4    4  502    0  0.37045239592E+02  0.49048424202E+02  0.12377021590E+02  0.62875896467E+02  0.47000000000E+01 0.  1.
         -5    1    4    4    0  502 -0.58376474245E+02  0.28106819457E+01 -0.57044115534E+02  0.81803629475E+02  0.47000000000E+01 0.  1.
          5    1    5    5  503    0  0.59227874137E+02 -0.47008849054E+02  0.17823237944E+02  0.77830140531E+02  0.47000000000E+01 0.  1.
         -5    1    5    5    0  503 -0.37896639484E+02 -0.48502570931E+01 -0.49841379568E+02  0.62975657165E+02  0.47000000000E+01 0.  1.
<mgrwt>
<rscale>  0 0.27499317E+03</rscale>
<asrwt>0</asrwt>
<pdfrwt beam="1">  1        2 0.16061545E-01 0.27499317E+03</pdfrwt>
<pdfrwt beam="2">  1       -2 0.27859274E-01 0.27499317E+03</pdfrwt>
<totfact> 0.41788779E+03</totfact>
</mgrwt>
</event>
<event>
 9    1  0.8175317E-001  0.2718464E+03  0.7818608E-02  0.1100227E+00
          2   -1    0    0  501    0  0.00000000000E+00  0.00000000000E+00  0.24247476113E+04  0.24247476113E+04  0.00000000000E+00 0. -1.
         -2   -1    0    0    0  501 -0.00000000000E+00 -0.00000000000E+00 -0.76194004227E+01  0.76194004227E+01  0.00000000000E+00 0. -1.
         35    2    1    2    0    0  0.71054273576E-14 -0.71054273576E-14  0.24171282108E+04  0.24323670117E+04  0.27184644912E+03 0.  0.
         25    2    3    3    0    0  0.27097386888E+02  0.37603803724E+02  0.98091583472E+03  0.98993014637E+03  0.12497001824E+03 0.  0.
         25    2    3    3    0    0 -0.27097386888E+02 -0.37603803724E+02  0.14362123761E+04  0.14424368653E+04  0.12557789085E+03 0.  0.
          5    1    4    4  502    0  0.38548706646E+02  0.45516712942E+02  0.19720732348E+03  0.20608394497E+03  0.47000000000E+01 0.  1.
         -5    1    4    4    0  502 -0.11451319758E+02 -0.79129092179E+01  0.78370851124E+03  0.78384620140E+03  0.47000000000E+01 0.  1.
          5    1    5    5  503    0  0.48758435165E+02 -0.26825128191E+01  0.62573724945E+03  0.62765737168E+03  0.47000000000E+01 0. -1.
         -5    1    5    5    0  503 -0.75855822053E+02 -0.34921290905E+02  0.81047512667E+03  0.81477949363E+03  0.47000000000E+01 0. -1.
<mgrwt>
<rscale>  0 0.27184645E+03</rscale>
<asrwt>0</asrwt>
<pdfrwt beam="1">  1        2 0.37303748E+00 0.27184645E+03</pdfrwt>
<pdfrwt beam="2">  1       -2 0.11722174E-02 0.27184645E+03</pdfrwt>
<totfact> 0.74579031E+03</totfact>
</mgrwt>
</event>
<event>
 9    1  0.8175317E-001  0.2800659E+03  0.7818608E-02  0.1095653E+00
         -1   -1    0    0    0  501 -0.00000000000E+00  0.00000000000E+00  0.27737933814E+02  0.27737933814E+02  0.00000000000E+00 0.  1.
          1   -1    0    0  501    0  0.00000000000E+00 -0.00000000000E+00 -0.70694610428E+03  0.70694610428E+03  0.00000000000E+00 0.  1.
         35    2    1    2    0    0 -0.71054273576E-14 -0.71054273576E-14 -0.67920817047E+03  0.73468403810E+03  0.28006587976E+03 0.  0.
         25    2    3    3    0    0  0.19866343245E+02  0.52921442638E+02 -0.41115727519E+03  0.43333081547E+03  0.12461917996E+03 0.  0.
         25    2    3    3    0    0 -0.19866343245E+02 -0.52921442638E+02 -0.26805089528E+03  0.30135322262E+03  0.12556723952E+03 0.  0.
          5    1    4    4  502    0  0.51789899213E+02  0.77684287183E+02 -0.24397473796E+03  0.26127151566E+03  0.47000000000E+01 0.  1.
         -5    1    4    4    0  502 -0.31923555968E+02 -0.24762844546E+02 -0.16718253723E+03  0.17205929981E+03  0.47000000000E+01 0.  1.
          5    1    5    5  503    0  0.24098540007E+02  0.14076999593E+02 -0.17996665989E+03  0.18217845707E+03  0.47000000000E+01 0.  1.
         -5    1    5    5    0  503 -0.43964883253E+02 -0.66998442231E+02 -0.88084235385E+02  0.11917476555E+03  0.47000000000E+01 0.  1.
<mgrwt>
<rscale>  0 0.28006588E+03</rscale>
<asrwt>0</asrwt>
<pdfrwt beam="1">  1        1 0.10876093E+00 0.28006588E+03</pdfrwt>
<pdfrwt beam="2">  1       -1 0.42673750E-02 0.28006588E+03</pdfrwt>
<totfact> 0.61901225E+03</totfact>
</mgrwt>
</event>
<event>
 9    1  0.8175317E-001  0.2742504E+03  0.7818608E-02  0.1098871E+00
          2   -1    0    0  501    0  0.00000000000E+00  0.00000000000E+00  0.28549514464E+04  0.28549514464E+04  0.00000000000E+00 0.  1.
         -2   -1    0    0    0  501 -0.00000000000E+00 -0.00000000000E+00 -0.65862151701E+01  0.65862151701E+01  0.00000000000E+00 0.  1.
         35    2    1    2    0    0  0.00000000000E+00 -0.17763568394E-14  0.28483652313E+04  0.28615376616E+04  0.27425042955E+03 0.  0.
         25    2    3    3    0    0  0.24997374334E+02 -0.87603476647E+01  0.19422714698E+04  0.19465582577E+04  0.12636841284E+03 0.  0.
         25    2    3    3    0    0 -0.24997374334E+02  0.87603476647E+01  0.90609376141E+03  0.91497940386E+03  0.12441781468E+03 0.  0.
          5    1    4    4  502    0  0.95342831568E+01 -0.25259525070E+01  0.19091433123E+04  0.19091745756E+04  0.47000000000E+01 0. -1.
         -5    1    4    4    0  502  0.15463091178E+02 -0.62343951577E+01  0.33128157514E+02  0.37383682162E+02  0.47000000000E+01 0. -1.
          5    1    5    5  503    0 -0.16506466613E+02 -0.16020269244E+01  0.89889688324E+03  0.89906213725E+03  0.47000000000E+01 0. -1.
         -5    1    5    5    0  503 -0.84909077209E+01  0.10362374589E+02  0.71968781667E+01  0.15917266612E+02  0.47000000000E+01 0. -1.
<mgrwt>
<rscale>  0 0.27425043E+03</rscale>
<asrwt>0</asrwt>
<pdfrwt beam="1">  1        2 0.43922231E+00 0.27425043E+03</pdfrwt>
<pdfrwt beam="2">  1       -2 0.10132662E-02 0.27425043E+03</pdfrwt>
<totfact> 0.52990314E+03</totfact>
</mgrwt>
</event>
<event>
 9    1  0.8175317E-001  0.2742279E+03  0.7818608E-02  0.1098884E+00
          1   -1    0    0  501    0  0.00000000000E+00  0.00000000000E+00  0.62016378644E+02  0.62016378644E+02  0.00000000000E+00 0. -1.
         -1   -1    0    0    0  501 -0.00000000000E+00 -0.00000000000E+00 -0.30314960608E+03  0.30314960608E+03  0.00000000000E+00 0. -1.
         35    2    1    2    0    0  0.14210854715E-13  0.71054273576E-14 -0.24113322744E+03  0.36516598473E+03  0.27422793991E+03 0.  0.
         25    2    3    3    0    0  0.52558918856E+02 -0.42472250182E+01 -0.98289176248E+02  0.16797651365E+03  0.12559804178E+03 0.  0.
         25    2    3    3    0    0 -0.52558918856E+02  0.42472250182E+01 -0.14284405119E+03  0.19718947108E+03  0.12529479507E+03 0.  0.
          5    1    4    4  502    0  0.35692794156E+02 -0.61638780410E+02 -0.75200535764E+02  0.10368474036E+03  0.47000000000E+01 0.  1.
         -5    1    4    4    0  502  0.16866124700E+02  0.57391555392E+02 -0.23088640483E+02  0.64291773284E+02  0.47000000000E+01 0.  1.
          5    1    5    5  503    0 -0.48529976846E+02  0.50407471321E+02 -0.32251242371E+02  0.77190054101E+02  0.47000000000E+01 0. -1.
         -5    1    5    5    0  503 -0.40289420100E+01 -0.46160246303E+02 -0.11059280882E+03  0.11999941698E+03  0.47000000000E+01 0. -1.
<mgrwt>
<rscale>  0 0.27422794E+03</rscale>
<asrwt>0</asrwt>
<pdfrwt beam="1">  1        1 0.95409811E-02 0.27422794E+03</pdfrwt>
<pdfrwt beam="2">  1       -1 0.46638402E-01 0.27422794E+03</pdfrwt>
<totfact> 0.31823051E+03</totfact>
</mgrwt>
</event>
<event>
 9    1  0.8175317E-001  0.2779155E+03  0.7818608E-02  0.1096833E+00
         -1   -1    0    0    0  501 -0.00000000000E+00  0.00000000000E+00  0.16706030393E+03  0.16706030393E+03  0.00000000000E+00 0.  1.
          1   -1    0    0  501    0  0.00000000000E+00 -0.00000000000E+00 -0.11558255544E+03  0.11558255544E+03  0.00000000000E+00 0.  1.
         35    2    1    2    0    0  0.71054273576E-14  0.00000000000E+00  0.51477748490E+02  0.28264285938E+03  0.27791550401E+03 0.  0.
         25    2    3    3    0    0 -0.12544901571E+02  0.53035758505E+02  0.42907610618E+01  0.13618545309E+03  0.12473131430E+03 0.  0.
         25    2    3    3    0    0  0.12544901571E+02 -0.53035758505E+02  0.47186987428E+02  0.14645740628E+03  0.12748723009E+03 0.  0.
          5    1    4    4  502    0  0.37199499788E+02 -0.20901836443E+00 -0.36684281273E+02  0.52456391085E+02  0.47000000000E+01 0.  1.
         -5    1    4    4    0  502 -0.49744401358E+02  0.53244776870E+02  0.40975042335E+02  0.83729062008E+02  0.47000000000E+01 0.  1.
          5    1    5    5  503    0 -0.55711208506E+02 -0.40620334707E+02  0.24146465907E+02  0.73204454514E+02  0.47000000000E+01 0.  1.
         -5    1    5    5    0  503  0.68256110077E+02 -0.12415423798E+02  0.23040521521E+02  0.73252951769E+02  0.47000000000E+01 0.  1.
<mgrwt>
<rscale>  0 0.27791550E+03</rscale>
<asrwt>0</asrwt>
<pdfrwt beam="1">  1        1 0.17781932E-01 0.27791550E+03</pdfrwt>
<pdfrwt beam="2">  1       -1 0.25701585E-01 0.27791550E+03</pdfrwt>
<totfact> 0.39366322E+03</totfact>
</mgrwt>
</event>
<event>
 9    1  0.8175317E-001  0.2747632E+03  0.7818608E-02  0.1098584E+00
         -2   -1    0    0    0  501 -0.00000000000E+00  0.00000000000E+00  0.91925610866E+01  0.91925610866E+01  0.00000000000E+00 0.  1.
          2   -1    0    0  501    0  0.00000000000E+00 -0.00000000000E+00 -0.20531503845E+04  0.20531503845E+04  0.00000000000E+00 0.  1.
         35    2    1    2    0    0  0.71054273576E-14  0.00000000000E+00 -0.20439578234E+04  0.20623429456E+04  0.27476324594E+03 0.  0.
         25    2    3    3    0    0 -0.22458557670E+01  0.54065090307E+02 -0.11686988047E+04  0.11766620252E+04  0.12549321754E+03 0.  0.
         25    2    3    3    0    0  0.22458557670E+01 -0.54065090307E+02 -0.87525901871E+03  0.88568092035E+03  0.12419446441E+03 0.  0.
          5    1    4    4  502    0 -0.24440723246E+02 -0.61281090392E+01 -0.90020825992E+03  0.90057309748E+03  0.47000000000E+01 0.  1.
         -5    1    4    4    0  502  0.22194867479E+02  0.60193199346E+02 -0.26849054479E+03  0.27608892776E+03  0.47000000000E+01 0.  1.
          5    1    5    5  503    0 -0.42766502418E+02 -0.83423320320E+01 -0.12115753363E+03  0.12884023513E+03  0.47000000000E+01 0. -1.
         -5    1    5    5    0  503  0.45012358185E+02 -0.45722758275E+02 -0.75410148508E+03  0.75684068523E+03  0.47000000000E+01 0. -1.
<mgrwt>
<rscale>  0 0.27476325E+03</rscale>
<asrwt>0</asrwt>
<pdfrwt beam="1">  1        2 0.31586957E+00 0.27476325E+03</pdfrwt>
<pdfrwt beam="2">  1       -2 0.14142389E-02 0.27476325E+03</pdfrwt>
<totfact> 0.89571967E+03</totfact>
</mgrwt>
</event>
<event>
 9    1  0.8175317E-001  0.2766733E+03  0.7818608E-02  0.1097520E+00
          1   -1    0    0  501    0  0.00000000000E+00  0.00000000000E+00  0.11228138871E+04  0.11228138871E+04  0.00000000000E+00 0. -1.
         -1   -1    0    0    0  501 -0.00000000000E+00 -0.00000000000E+00 -0.17043816274E+02  0.17043816274E+02  0.00000000000E+00 0. -1.
         35    2    1    2    0    0 -0.35527136788E-14  0.00000000000E+00  0.11057700708E+04  0.11398577033E+04  0.27667333519E+03 0.  0.
         25    2    3    3    0    0  0.17830857080E+01  0.32044521115E+02  0.74886478306E+03  0.76002293387E+03  0.12572337084E+03 0.  0.
         25    2    3    3    0    0 -0.17830857080E+01 -0.32044521115E+02  0.35690528772E+03  0.37983476946E+03  0.12594854885E+03 0.  0.
          5    1    4    4  502    0  0.13565827258E+02 -0.17361623842E+02  0.22400133168E+02  0.31769696529E+02  0.47000000000E+01 0. -1.
         -5    1    4    4    0  502 -0.11782741550E+02  0.49406144957E+02  0.72646464989E+03  0.72825323734E+03  0.47000000000E+01 0. -1.
          5    1    5    5  503    0  0.36797883327E+02  0.22489455870E+02  0.52276611413E+02  0.67932274682E+02  0.47000000000E+01 0. -1.
         -5    1    5    5    0  503 -0.38580969035E+02 -0.54533976985E+02  0.30462867631E+03  0.31190249477E+03  0.47000000000E+01 0. -1.
<mgrwt>
<rscale>  0 0.27667334E+03</rscale>
<asrwt>0</asrwt>
<pdfrwt beam="1">  1        1 0.17274054E+00 0.27667334E+03</pdfrwt>
<pdfrwt beam="2">  1       -1 0.26221265E-02 0.27667334E+03</pdfrwt>
<totfact> 0.59786623E+03</totfact>
</mgrwt>
</event>
<event>
 9    1  0.8175317E-001  0.2751755E+03  0.7818608E-02  0.1098354E+00
          1   -1    0    0  501    0  0.00000000000E+00  0.00000000000E+00  0.17341803886E+04  0.17341803886E+04  0.00000000000E+00 0. -1.
         -1   -1    0    0    0  501 -0.00000000000E+00 -0.00000000000E+00 -0.10916041220E+02  0.10916041220E+02  0.00000000000E+00 0. -1.
         35    2    1    2    0    0  0.00000000000E+00 -0.35527136788E-14  0.17232643474E+04  0.17450964298E+04  0.27517546842E+03 0.  0.
         25    2    3    3    0    0  0.38340179733E+02  0.26673649951E+02  0.10778980990E+04  0.10859682459E+04  0.12361741857E+03 0.  0.
         25    2    3    3    0    0 -0.38340179733E+02 -0.26673649951E+02  0.64536624836E+03  0.65912818396E+03  0.12558230519E+03 0.  0.
          5    1    4    4  502    0  0.50355759498E+02  0.24338225191E+02  0.10681655834E+04  0.10696391238E+04  0.47000000000E+01 0. -1.
         -5    1    4    4    0  502 -0.12015579765E+02  0.23354247606E+01  0.97325156631E+01  0.16329122054E+02  0.47000000000E+01 0. -1.
          5    1    5    5  503    0  0.34503299171E+02  0.24633805962E+02  0.26691222221E+03  0.27029895748E+03  0.47000000000E+01 0. -1.
         -5    1    5    5    0  503 -0.72843478904E+02 -0.51307455913E+02  0.37845402615E+03  0.38882922647E+03  0.47000000000E+01 0. -1.
<mgrwt>
<rscale>  0 0.27517547E+03</rscale>
<asrwt>0</asrwt>
<pdfrwt beam="1">  1        1 0.26679676E+00 0.27517547E+03</pdfrwt>
<pdfrwt beam="2">  1       -1 0.16793923E-02 0.27517547E+03</pdfrwt>
<totfact> 0.44457114E+03</totfact>
</mgrwt>
</event>
<event>
 9    1  0.8175317E-001  0.2744712E+03  0.7818608E-02  0.1098748E+00
          3   -1    0    0  501    0  0.00000000000E+00  0.00000000000E+00  0.86000444654E+03  0.86000444654E+03  0.00000000000E+00 0.  1.
         -3   -1    0    0    0  501 -0.00000000000E+00 -0.00000000000E+00 -0.21899427235E+02  0.21899427235E+02  0.00000000000E+00 0.  1.
         35    2    1    2    0    0 -0.71054273576E-14  0.00000000000E+00  0.83810501930E+03  0.88190387378E+03  0.27447116278E+03 0.  0.
         25    2    3    3    0    0  0.51520933244E+02  0.25026789222E+02  0.44700446626E+03  0.46758843179E+03  0.12468039917E+03 0.  0.
         25    2    3    3    0    0 -0.51520933244E+02 -0.25026789222E+02  0.39110055304E+03  0.41431544199E+03  0.12416479429E+03 0.  0.
          5    1    4    4  502    0  0.63129562969E+02  0.36607061729E+02  0.12271912953E+03  0.14285479846E+03  0.47000000000E+01 0. -1.
         -5    1    4    4    0  502 -0.11608629724E+02 -0.11580272507E+02  0.32428533673E+03  0.32473363333E+03  0.47000000000E+01 0. -1.
          5    1    5    5  503    0 -0.67688711757E+02 -0.61234533176E+02  0.31969455863E+03  0.33250282791E+03  0.47000000000E+01 0. -1.
         -5    1    5    5    0  503  0.16167778512E+02  0.36207743954E+02  0.71405994411E+02  0.81812614077E+02  0.47000000000E+01 0. -1.
<mgrwt>
<rscale>  0 0.27447116E+03</rscale>
<asrwt>0</asrwt>
<pdfrwt beam="1">  1        3 0.13230835E+00 0.27447116E+03</pdfrwt>
<pdfrwt beam="2">  1       -3 0.33691433E-02 0.27447116E+03</pdfrwt>
<totfact> 0.50495487E+02</totfact>
</mgrwt>
</event>
<event>
 9    1  0.8175317E-001  0.2791423E+03  0.7818608E-02  0.1096158E+00
          1   -1    0    0  501    0  0.00000000000E+00  0.00000000000E+00  0.26180647508E+02  0.26180647508E+02  0.00000000000E+00 0. -1.
         -1   -1    0    0    0  501 -0.00000000000E+00 -0.00000000000E+00 -0.74406520004E+03  0.74406520004E+03  0.00000000000E+00 0. -1.
         35    2    1    2    0    0 -0.17763568394E-14  0.00000000000E+00 -0.71788455253E+03  0.77024584754E+03  0.27914232015E+03 0.  0.
         25    2    3    3    0    0  0.78370510737E+01 -0.60290087030E+02 -0.39957823261E+03  0.42326992767E+03  0.12569150221E+03 0.  0.
         25    2    3    3    0    0 -0.78370510737E+01  0.60290087030E+02 -0.31830631991E+03  0.34697591987E+03  0.12400428102E+03 0.  0.
          5    1    4    4  502    0  0.45323482245E+01  0.39130607404E+02 -0.12809557255E+03  0.13409814437E+03  0.47000000000E+01 0. -1.
         -5    1    4    4    0  502  0.33047028492E+01 -0.99420694434E+02 -0.27148266006E+03  0.28917178330E+03  0.47000000000E+01 0. -1.
          5    1    5    5  503    0 -0.26266666629E+02  0.34215982743E+02 -0.31083453407E+03  0.31384848068E+03  0.47000000000E+01 0. -1.
         -5    1    5    5    0  503  0.18429615555E+02  0.26074104287E+02 -0.74717858390E+01  0.33127439193E+02  0.47000000000E+01 0. -1.
<mgrwt>
<rscale>  0 0.27914232E+03</rscale>
<asrwt>0</asrwt>
<pdfrwt beam="1">  1        1 0.40277914E-02 0.27914232E+03</pdfrwt>
<pdfrwt beam="2">  1       -1 0.11447159E+00 0.27914232E+03</pdfrwt>
<totfact> 0.16646993E+03</totfact>
</mgrwt>
</event>
<event>
 9    1  0.8175317E-001  0.2764449E+03  0.7818608E-02  0.1097647E+00
          1   -1    0    0  501    0  0.00000000000E+00  0.00000000000E+00  0.16306563683E+04  0.16306563683E+04  0.00000000000E+00 0.  1.
         -1   -1    0    0    0  501 -0.00000000000E+00 -0.00000000000E+00 -0.11716414831E+02  0.11716414831E+02  0.00000000000E+00 0.  1.
         35    2    1    2    0    0 -0.71054273576E-14  0.00000000000E+00  0.16189399535E+04  0.16423727831E+04  0.27644490560E+03 0.  0.
         25    2    3    3    0    0 -0.40855280092E+02  0.39194254975E+02  0.89426749406E+03  0.90476027596E+03  0.12518571202E+03 0.  0.
         25    2    3    3    0    0  0.40855280092E+02 -0.39194254975E+02  0.72467245943E+03  0.73761250719E+03  0.12536623856E+03 0.  0.
          5    1    4    4  502    0 -0.43499958557E+02  0.64713436538E+02  0.30266924520E+03  0.31258732740E+03  0.47000000000E+01 0. -1.
         -5    1    4    4    0  502  0.26446784646E+01 -0.25519181563E+02  0.59159824886E+03  0.59217294856E+03  0.47000000000E+01 0. -1.
          5    1    5    5  503    0  0.49979591303E+02  0.31235028064E+02  0.21449710503E+03  0.22249648220E+03  0.47000000000E+01 0. -1.
         -5    1    5    5    0  503 -0.91243112101E+01 -0.70429283039E+02  0.51017535440E+03  0.51511602499E+03  0.47000000000E+01 0. -1.
<mgrwt>
<rscale>  0 0.27644491E+03</rscale>
<asrwt>0</asrwt>
<pdfrwt beam="1">  1        1 0.25087003E+00 0.27644491E+03</pdfrwt>
<pdfrwt beam="2">  1       -1 0.18025267E-02 0.27644491E+03</pdfrwt>
<totfact> 0.46854067E+03</totfact>
</mgrwt>
</event>
<event>
 9    1  0.8175317E-001  0.2755911E+03  0.7818608E-02  0.1098122E+00
         -1   -1    0    0    0  501 -0.00000000000E+00  0.00000000000E+00  0.27778886555E+03  0.27778886555E+03  0.00000000000E+00 0. -1.
          1   -1    0    0  501    0  0.00000000000E+00 -0.00000000000E+00 -0.68352662733E+02  0.68352662733E+02  0.00000000000E+00 0. -1.
         35    2    1    2    0    0  0.00000000000E+00  0.00000000000E+00  0.20943620281E+03  0.34614152828E+03  0.27559106399E+03 0.  0.
         25    2    3    3    0    0  0.33294441758E+01 -0.35180512122E+02  0.16845633010E+03  0.21281313713E+03  0.12515247721E+03 0.  0.
         25    2    3    3    0    0 -0.33294441758E+01  0.35180512122E+02  0.40979872711E+02  0.13332839115E+03  0.12185383165E+03 0.  0.
          5    1    4    4  502    0 -0.57236124818E+02 -0.28285513152E+01  0.51922736391E+02  0.77472803235E+02  0.47000000000E+01 0. -1.
         -5    1    4    4    0  502  0.60565568994E+02 -0.32351960807E+02  0.11653359371E+03  0.13534033389E+03  0.47000000000E+01 0. -1.
          5    1    5    5  503    0  0.22621604175E+02  0.10484028862E+02  0.77745361431E+02  0.81780701028E+02  0.47000000000E+01 0.  1.
         -5    1    5    5    0  503 -0.25951048351E+02  0.24696483261E+02 -0.36765488720E+02  0.51547690121E+02  0.47000000000E+01 0.  1.
<mgrwt>
<rscale>  0 0.27559106E+03</rscale>
<asrwt>0</asrwt>
<pdfrwt beam="1">  1        1 0.10515794E-01 0.27559106E+03</pdfrwt>
<pdfrwt beam="2">  1       -1 0.42736748E-01 0.27559106E+03</pdfrwt>
<totfact> 0.32710745E+03</totfact>
</mgrwt>
</event>
<event>
 9    1  0.8175317E-001  0.2774042E+03  0.7818608E-02  0.1097115E+00
          4   -1    0    0  501    0  0.00000000000E+00  0.00000000000E+00  0.81778562769E+02  0.81778562769E+02  0.00000000000E+00 0. -1.
         -4   -1    0    0    0  501 -0.00000000000E+00 -0.00000000000E+00 -0.23524835656E+03  0.23524835656E+03  0.00000000000E+00 0. -1.
         35    2    1    2    0    0 -0.17763568394E-14 -0.71054273576E-14 -0.15346979380E+03  0.31702691933E+03  0.27740419963E+03 0.  0.
         25    2    3    3    0    0  0.99429736538E+00  0.38708062802E+02 -0.13039005399E+03  0.18481162890E+03  0.12511782146E+03 0.  0.
         25    2    3    3    0    0 -0.99429736538E+00 -0.38708062802E+02 -0.23079739808E+02  0.13221529043E+03  0.12429362768E+03 0.  0.
          5    1    4    4  502    0  0.22394723850E+02  0.80005040674E+02 -0.94206083470E+02  0.12569489390E+03  0.47000000000E+01 0.  1.
         -5    1    4    4    0  502 -0.21400426485E+02 -0.41296977872E+02 -0.36183970518E+02  0.59116735004E+02  0.47000000000E+01 0.  1.
          5    1    5    5  503    0 -0.44453659127E+01  0.44261439270E+02  0.35754062298E+01  0.44874378147E+02  0.47000000000E+01 0.  1.
         -5    1    5    5    0  503  0.34510685473E+01 -0.82969502072E+02 -0.26655146038E+02  0.87340912283E+02  0.47000000000E+01 0.  1.
<mgrwt>
<rscale>  0 0.27740420E+03</rscale>
<asrwt>0</asrwt>
<pdfrwt beam="1">  1        4 0.12581318E-01 0.27740420E+03</pdfrwt>
<pdfrwt beam="2">  1       -4 0.36192054E-01 0.27740420E+03</pdfrwt>
<totfact> 0.71195552E+02</totfact>
</mgrwt>
</event>
<event>
 9    1  0.8175317E-001  0.2761036E+03  0.7818608E-02  0.1097836E+00
         -1   -1    0    0    0  501 -0.00000000000E+00  0.00000000000E+00  0.79545695428E+02  0.79545695428E+02  0.00000000000E+00 0. -1.
          1   -1    0    0  501    0  0.00000000000E+00 -0.00000000000E+00 -0.23958925831E+03  0.23958925831E+03  0.00000000000E+00 0. -1.
         35    2    1    2    0    0  0.00000000000E+00  0.00000000000E+00 -0.16004356289E+03  0.31913495374E+03  0.27610356151E+03 0.  0.
         25    2    3    3    0    0 -0.16713087476E+02 -0.54273536557E+02 -0.91713873429E+02  0.16543285175E+03  0.12542587370E+03 0.  0.
         25    2    3    3    0    0  0.16713087476E+02  0.54273536557E+02 -0.68329689457E+02  0.15370210200E+03  0.12542107332E+03 0.  0.
          5    1    4    4  502    0  0.69913127171E+01 -0.60082265133E+02  0.93245998620E+01  0.61382368801E+02  0.47000000000E+01 0.  1.
         -5    1    4    4    0  502 -0.23704400193E+02  0.58087285757E+01 -0.10103847329E+03  0.10405048295E+03  0.47000000000E+01 0.  1.
          5    1    5    5  503    0  0.13730322687E+02  0.62425007792E+02  0.18190058228E+02  0.66621104594E+02  0.47000000000E+01 0.  1.
         -5    1    5    5    0  503  0.29827647894E+01 -0.81514712350E+01 -0.86519747684E+02  0.87080997402E+02  0.47000000000E+01 0.  1.
<mgrwt>
<rscale>  0 0.27610356E+03</rscale>
<asrwt>0</asrwt>
<pdfrwt beam="1">  1        1 0.36859885E-01 0.27610356E+03</pdfrwt>
<pdfrwt beam="2">  1       -1 0.12237800E-01 0.27610356E+03</pdfrwt>
<totfact> 0.51428758E+03</totfact>
</mgrwt>
</event>
<event>
 9    1  0.8175317E-001  0.2755896E+03  0.7818608E-02  0.1098122E+00
          2   -1    0    0  501    0  0.00000000000E+00  0.00000000000E+00  0.14482998036E+04  0.14482998036E+04  0.00000000000E+00 0. -1.
         -2   -1    0    0    0  501 -0.00000000000E+00 -0.00000000000E+00 -0.13110137753E+02  0.13110137753E+02  0.00000000000E+00 0. -1.
         35    2    1    2    0    0  0.00000000000E+00 -0.71054273576E-14  0.14351896659E+04  0.14614099414E+04  0.27558962196E+03 0.  0.
         25    2    3    3    0    0  0.31963325119E+02 -0.99661449710E+01  0.46520354798E+03  0.48281007041E+03  0.12478078715E+03 0.  0.
         25    2    3    3    0    0 -0.31963325119E+02  0.99661449710E+01  0.96998611788E+03  0.97859987095E+03  0.12515454587E+03 0.  0.
          5    1    4    4  502    0  0.65071504248E+02 -0.75036638406E+00  0.42381766587E+03  0.42881040987E+03  0.47000000000E+01 0. -1.
         -5    1    4    4    0  502 -0.33108179129E+02 -0.92157785869E+01  0.41385882111E+02  0.53999660539E+02  0.47000000000E+01 0. -1.
          5    1    5    5  503    0 -0.24210894243E+02 -0.45026885929E+02  0.19608516580E+03  0.20269452410E+03  0.47000000000E+01 0.  1.
         -5    1    5    5    0  503 -0.77524308762E+01  0.54993030900E+02  0.77390095208E+03  0.77590534685E+03  0.47000000000E+01 0.  1.
<mgrwt>
<rscale>  0 0.27558962E+03</rscale>
<asrwt>0</asrwt>
<pdfrwt beam="1">  1        2 0.22281523E+00 0.27558962E+03</pdfrwt>
<pdfrwt beam="2">  1       -2 0.20169454E-02 0.27558962E+03</pdfrwt>
<totfact> 0.11106627E+04</totfact>
</mgrwt>
</event>
<event>
 9    1  0.8175317E-001  0.2742263E+03  0.7818608E-02  0.1098885E+00
          4   -1    0    0  501    0  0.00000000000E+00  0.00000000000E+00  0.79733232079E+02  0.79733232079E+02  0.00000000000E+00 0. -1.
         -4   -1    0    0    0  501 -0.00000000000E+00 -0.00000000000E+00 -0.23578646281E+03  0.23578646281E+03  0.00000000000E+00 0. -1.
         35    2    1    2    0    0  0.71054273576E-14  0.00000000000E+00 -0.15605323073E+03  0.31551969489E+03  0.27422630625E+03 0.  0.
         25    2    3    3    0    0 -0.27560896788E+02 -0.30792251136E+01 -0.13530587403E+03  0.18618862650E+03  0.12485768070E+03 0.  0.
         25    2    3    3    0    0  0.27560896788E+02  0.30792251136E+01 -0.20747356695E+02  0.12933106839E+03  0.12460733438E+03 0.  0.
          5    1    4    4  502    0 -0.49596335042E+02 -0.41730313186E+02 -0.29611014149E+02  0.71415107976E+02  0.47000000000E+01 0.  1.
         -5    1    4    4    0  502  0.22035438254E+02  0.38651088072E+02 -0.10569485989E+03  0.11477351852E+03  0.47000000000E+01 0.  1.
          5    1    5    5  503    0  0.68671216038E+02 -0.82324647297E+01 -0.42419107264E+02  0.81271028348E+02  0.47000000000E+01 0.  1.
         -5    1    5    5    0  503 -0.41110319250E+02  0.11311689843E+02  0.21671750569E+02  0.48060040040E+02  0.47000000000E+01 0.  1.
<mgrwt>
<rscale>  0 0.27422631E+03</rscale>
<asrwt>0</asrwt>
<pdfrwt beam="1">  1        4 0.12266651E-01 0.27422631E+03</pdfrwt>
<pdfrwt beam="2">  1       -4 0.36274839E-01 0.27422631E+03</pdfrwt>
<totfact> 0.73935452E+02</totfact>
</mgrwt>
</event>
<event>
 9    1  0.8175317E-001  0.2706409E+03  0.7818608E-02  0.1100913E+00
         -1   -1    0    0    0  501 -0.00000000000E+00  0.00000000000E+00  0.82223230517E+01  0.82223230517E+01  0.00000000000E+00 0.  1.
          1   -1    0    0  501    0  0.00000000000E+00 -0.00000000000E+00 -0.22270622472E+04  0.22270622472E+04  0.00000000000E+00 0.  1.
         35    2    1    2    0    0  0.00000000000E+00  0.35527136788E-14 -0.22188399242E+04  0.22352845703E+04  0.27064090787E+03 0.  0.
         25    2    3    3    0    0 -0.45506937041E+02 -0.20958332869E+02 -0.99836547315E+03  0.10073907030E+04  0.12486904161E+03 0.  0.
         25    2    3    3    0    0  0.45506937041E+02  0.20958332869E+02 -0.12204744510E+04  0.12278938673E+04  0.12512126345E+03 0.  0.
          5    1    4    4  502    0 -0.83411018797E+02  0.10995328317E+02 -0.66783052204E+03  0.67312553916E+03  0.47000000000E+01 0.  1.
         -5    1    4    4    0  502  0.37904081756E+02 -0.31953661185E+02 -0.33053495112E+03  0.33426516388E+03  0.47000000000E+01 0.  1.
          5    1    5    5  503    0  0.87854032006E+02  0.17590057360E+02 -0.92556531817E+03  0.92990375268E+03  0.47000000000E+01 0.  1.
         -5    1    5    5    0  503 -0.42347094965E+02  0.33682755089E+01 -0.29490913288E+03  0.29799011458E+03  0.47000000000E+01 0.  1.
<mgrwt>
<rscale>  0 0.27064091E+03</rscale>
<asrwt>0</asrwt>
<pdfrwt beam="1">  1        1 0.34262569E+00 0.27064091E+03</pdfrwt>
<pdfrwt beam="2">  1       -1 0.12649701E-02 0.27064091E+03</pdfrwt>
<totfact> 0.32099869E+03</totfact>
</mgrwt>
</event>
<event>
 9    1  0.8175317E-001  0.2827130E+03  0.7818608E-02  0.1094216E+00
          2   -1    0    0  501    0  0.00000000000E+00  0.00000000000E+00  0.21889240429E+03  0.21889240429E+03  0.00000000000E+00 0.  1.
         -2   -1    0    0    0  501 -0.00000000000E+00 -0.00000000000E+00 -0.91285285872E+02  0.91285285872E+02  0.00000000000E+00 0.  1.
         35    2    1    2    0    0 -0.35527136788E-14 -0.14210854715E-13  0.12760711842E+03  0.31017769016E+03  0.28271296893E+03 0.  0.
         25    2    3    3    0    0 -0.29865784826E+02  0.56559572037E+02  0.60921372148E+02  0.15333343154E+03  0.12533466141E+03 0.  0.
         25    2    3    3    0    0  0.29865784826E+02 -0.56559572037E+02  0.66685746268E+02  0.15684425862E+03  0.12673666563E+03 0.  0.
          5    1    4    4  502    0  0.46774317094E+02  0.33870845931E+02  0.40535980486E+02  0.70712987899E+02  0.47000000000E+01 0. -1.
         -5    1    4    4    0  502 -0.76640101919E+02  0.22688726106E+02  0.20385391662E+02  0.82620443643E+02  0.47000000000E+01 0. -1.
          5    1    5    5  503    0  0.49344229431E+02 -0.90132752226E+02  0.48482189843E+02  0.11371622019E+03  0.47000000000E+01 0. -1.
         -5    1    5    5    0  503 -0.19478444605E+02  0.33573180189E+02  0.18203556426E+02  0.43128038430E+02  0.47000000000E+01 0. -1.
<mgrwt>
<rscale>  0 0.28271297E+03</rscale>
<asrwt>0</asrwt>
<pdfrwt beam="1">  1        2 0.33675754E-01 0.28271297E+03</pdfrwt>
<pdfrwt beam="2">  1       -2 0.14043890E-01 0.28271297E+03</pdfrwt>
<totfact> 0.58588985E+03</totfact>
</mgrwt>
</event>
<event>
 9    1  0.8175317E-001  0.2765830E+03  0.7818608E-02  0.1097570E+00
          1   -1    0    0  501    0  0.00000000000E+00  0.00000000000E+00  0.25845337888E+04  0.25845337888E+04  0.00000000000E+00 0.  1.
         -1   -1    0    0    0  501 -0.00000000000E+00 -0.00000000000E+00 -0.73996085992E+01  0.73996085992E+01  0.00000000000E+00 0.  1.
         35    2    1    2    0    0  0.35527136788E-14  0.17763568394E-14  0.25771341802E+04  0.25919333974E+04  0.27658299621E+03 0.  0.
         25    2    3    3    0    0 -0.28140112461E+02  0.12555075636E+02  0.81582857400E+03  0.82589941316E+03  0.12483622333E+03 0.  0.
         25    2    3    3    0    0  0.28140112461E+02 -0.12555075636E+02  0.17613056062E+04  0.17660339843E+04  0.12541570551E+03 0.  0.
          5    1    4    4  502    0  0.31335713855E+02 -0.29472862055E+02  0.15103379207E+03  0.15711102096E+03  0.47000000000E+01 0. -1.
         -5    1    4    4    0  502 -0.59475826316E+02  0.42027937691E+02  0.66479478193E+03  0.66878839220E+03  0.47000000000E+01 0. -1.
          5    1    5    5  503    0 -0.13463092127E+02  0.63950140922E+01  0.15364770859E+04  0.15365565647E+04  0.47000000000E+01 0. -1.
         -5    1    5    5    0  503  0.41603204588E+02 -0.18950089728E+02  0.22482852036E+03  0.22947741959E+03  0.47000000000E+01 0. -1.
<mgrwt>
<rscale>  0 0.27658300E+03</rscale>
<asrwt>0</asrwt>
<pdfrwt beam="1">  1        1 0.39761986E+00 0.27658300E+03</pdfrwt>
<pdfrwt beam="2">  1       -1 0.11384034E-02 0.27658300E+03</pdfrwt>
<totfact> 0.21703687E+03</totfact>
</mgrwt>
</event>
<event>
 9    1  0.8175317E-001  0.2739887E+03  0.7818608E-02  0.1099018E+00
          4   -1    0    0  501    0  0.00000000000E+00  0.00000000000E+00  0.32550644327E+03  0.32550644327E+03  0.00000000000E+00 0.  1.
         -4   -1    0    0    0  501 -0.00000000000E+00 -0.00000000000E+00 -0.57656173396E+02  0.57656173396E+02  0.00000000000E+00 0.  1.
         35    2    1    2    0    0  0.71054273576E-14 -0.71054273576E-14  0.26785026988E+03  0.38316261667E+03  0.27398872922E+03 0.  0.
         25    2    3    3    0    0 -0.83023912698E+00  0.40470302632E+02  0.19012423320E+03  0.23102303733E+03  0.12484344210E+03 0.  0.
         25    2    3    3    0    0  0.83023912698E+00 -0.40470302632E+02  0.77726036677E+02  0.15213957934E+03  0.12436470613E+03 0.  0.
          5    1    4    4  502    0  0.56711559864E+02  0.45437647276E+02  0.11554520734E+03  0.13657805736E+03  0.47000000000E+01 0. -1.
         -5    1    4    4    0  502 -0.57541798991E+02 -0.49673446441E+01  0.74579025855E+02  0.94444979969E+02  0.47000000000E+01 0. -1.
          5    1    5    5  503    0  0.45196155961E+02  0.85872556111E+01  0.72014124008E+02  0.85583628862E+02  0.47000000000E+01 0. -1.
         -5    1    5    5    0  503 -0.44365916834E+02 -0.49057558243E+02  0.57119126690E+01  0.66555950475E+02  0.47000000000E+01 0. -1.
<mgrwt>
<rscale>  0 0.27398873E+03</rscale>
<asrwt>0</asrwt>
<pdfrwt beam="1">  1        4 0.50077913E-01 0.27398873E+03</pdfrwt>
<pdfrwt beam="2">  1       -4 0.88701807E-02 0.27398873E+03</pdfrwt>
<totfact> 0.67295569E+02</totfact>
</mgrwt>
</event>
<event>
 9    1  0.8175317E-001  0.2730345E+03  0.7818608E-02  0.1099555E+00
         -2   -1    0    0    0  501 -0.00000000000E+00  0.00000000000E+00  0.14454878647E+03  0.14454878647E+03  0.00000000000E+00 0.  1.
          2   -1    0    0  501    0  0.00000000000E+00 -0.00000000000E+00 -0.12893199291E+03  0.12893199291E+03  0.00000000000E+00 0.  1.
         35    2    1    2    0    0  0.00000000000E+00 -0.71054273576E-14  0.15616793564E+02  0.27348077937E+03  0.27303452611E+03 0.  0.
         25    2    3    3    0    0  0.42528248331E+02 -0.34935279715E+02  0.43299724897E+01  0.13673667285E+03  0.12509613649E+03 0.  0.
         25    2    3    3    0    0 -0.42528248331E+02  0.34935279715E+02  0.11286821075E+02  0.13674410653E+03  0.12466929319E+03 0.  0.
          5    1    4    4  502    0  0.22151664283E+02 -0.69757165790E+02 -0.34045013778E+02  0.80857352001E+02  0.47000000000E+01 0.  1.
         -5    1    4    4    0  502  0.20376584049E+02  0.34821886076E+02  0.38374986267E+02  0.55879320847E+02  0.47000000000E+01 0.  1.
          5    1    5    5  503    0  0.18281195030E+02  0.36635665948E+02 -0.39705022019E+02  0.57227204062E+02  0.47000000000E+01 0.  1.
         -5    1    5    5    0  503 -0.60809443362E+02 -0.17003862337E+01  0.50991843094E+02  0.79516902464E+02  0.47000000000E+01 0.  1.
<mgrwt>
<rscale>  0 0.27303453E+03</rscale>
<asrwt>0</asrwt>
<pdfrwt beam="1">  1        2 0.19835691E-01 0.27303453E+03</pdfrwt>
<pdfrwt beam="2">  1       -2 0.22238275E-01 0.27303453E+03</pdfrwt>
<totfact> 0.48657479E+03</totfact>
</mgrwt>
</event>
<event>
 9    1  0.8175317E-001  0.2743112E+03  0.7818608E-02  0.1098837E+00
         -2   -1    0    0    0  501 -0.00000000000E+00  0.00000000000E+00  0.46522374980E+02  0.46522374980E+02  0.00000000000E+00 0.  1.
          2   -1    0    0  501    0  0.00000000000E+00 -0.00000000000E+00 -0.40435737158E+03  0.40435737158E+03  0.00000000000E+00 0.  1.
         35    2    1    2    0    0  0.00000000000E+00 -0.17763568394E-14 -0.35783499660E+03  0.45087974656E+03  0.27431124852E+03 0.  0.
         25    2    3    3    0    0  0.48345754515E+02  0.13537756921E+02 -0.23141913665E+03  0.26544619445E+03  0.11994283013E+03 0.  0.
         25    2    3    3    0    0 -0.48345754515E+02 -0.13537756921E+02 -0.12641585994E+03  0.18543355210E+03  0.12603193944E+03 0.  0.
          5    1    4    4  502    0 -0.37107268289E+02  0.26860629535E+01 -0.11211335909E+03  0.11821869387E+03  0.47000000000E+01 0. -1.
         -5    1    4    4    0  502  0.85453022804E+02  0.10851693967E+02 -0.11930577756E+03  0.14722750058E+03  0.47000000000E+01 0. -1.
          5    1    5    5  503    0 -0.90787977544E+02 -0.41415471552E+00 -0.81738438386E+02  0.12225338728E+03  0.47000000000E+01 0.  1.
         -5    1    5    5    0  503  0.42442223029E+02 -0.13123602205E+02 -0.44677421559E+02  0.63180164827E+02  0.47000000000E+01 0.  1.
<mgrwt>
<rscale>  0 0.27431125E+03</rscale>
<asrwt>0</asrwt>
<pdfrwt beam="1">  1        2 0.62208824E-01 0.27431125E+03</pdfrwt>
<pdfrwt beam="2">  1       -2 0.71572887E-02 0.27431125E+03</pdfrwt>
<totfact> 0.88195510E+03</totfact>
</mgrwt>
</event>
<event>
 8    1  0.8175317E-001  0.3354079E+03  0.7818608E-02  0.1068769E+00
         -3   -1    0    0    0  501 -0.00000000000E+00  0.00000000000E+00  0.13231410903E+04  0.13231410903E+04  0.00000000000E+00 0. -1.
          3   -1    0    0  501    0  0.00000000000E+00 -0.00000000000E+00 -0.21255942453E+02  0.21255942453E+02  0.00000000000E+00 0. -1.
         25    2    1    2    0    0  0.15038232885E+02 -0.96298887272E+02  0.88218465842E+03  0.89633300483E+03  0.12515374489E+03 0.  0.
         25    2    1    2    0    0 -0.15038232885E+02  0.96298887272E+02  0.41970048942E+03  0.44806402791E+03  0.12293595143E+03 0.  0.
          5    1    3    3  502    0  0.61676669977E+02 -0.13241409729E+02  0.35140342920E+03  0.35705154614E+03  0.47000000000E+01 0. -1.
         -5    1    3    3    0  502 -0.46638437092E+02 -0.83057477543E+02  0.53078122922E+03  0.53928145869E+03  0.47000000000E+01 0. -1.
          5    1    4    4  503    0  0.17811515558E+02 -0.16884407924E+00  0.25225950529E+01  0.18593872125E+02  0.47000000000E+01 0.  1.
         -5    1    4    4    0  503 -0.32849748443E+02  0.96467731351E+02  0.41717789436E+03  0.42947015579E+03  0.47000000000E+01 0.  1.
<mgrwt>
<rscale>  0 0.33540788E+03</rscale>
<asrwt>0</asrwt>
<pdfrwt beam="1">  1        3 0.32701460E-02 0.33540788E+03</pdfrwt>
<pdfrwt beam="2">  1       -3 0.20356010E+00 0.33540788E+03</pdfrwt>
<totfact> 0.17276125E+02</totfact>
</mgrwt>
</event>
<event>
 9    1  0.8175317E-001  0.2727373E+03  0.7818608E-02  0.1099723E+00
         -1   -1    0    0    0  501 -0.00000000000E+00  0.00000000000E+00  0.72361107804E+02  0.72361107804E+02  0.00000000000E+00 0.  1.
          1   -1    0    0  501    0  0.00000000000E+00 -0.00000000000E+00 -0.25699460246E+03  0.25699460246E+03  0.00000000000E+00 0.  1.
         35    2    1    2    0    0 -0.71054273576E-14  0.00000000000E+00 -0.18463349465E+03  0.32935571026E+03  0.27273733982E+03 0.  0.
         25    2    3    3    0    0  0.32178881931E+02  0.23360276285E+02 -0.13241362634E+03  0.18767276702E+03  0.12691144981E+03 0.  0.
         25    2    3    3    0    0 -0.32178881931E+02 -0.23360276285E+02 -0.52219868313E+02  0.14168294324E+03  0.12556256929E+03 0.  0.
          5    1    4    4  502    0  0.40412810241E+02 -0.45252663846E+02 -0.42735695868E+02  0.74360127206E+02  0.47000000000E+01 0. -1.
         -5    1    4    4    0  502 -0.82339283101E+01  0.68612940132E+02 -0.89677930472E+02  0.11331263982E+03  0.47000000000E+01 0. -1.
          5    1    5    5  503    0 -0.65220436414E+02 -0.53739835142E+02 -0.22273158795E+02  0.87520619340E+02  0.47000000000E+01 0.  1.
         -5    1    5    5    0  503  0.33041554483E+02  0.30379558856E+02 -0.29946709518E+02  0.54162323897E+02  0.47000000000E+01 0.  1.
<mgrwt>
<rscale>  0 0.27273734E+03</rscale>
<asrwt>0</asrwt>
<pdfrwt beam="1">  1        1 0.39537631E-01 0.27273734E+03</pdfrwt>
<pdfrwt beam="2">  1       -1 0.11132478E-01 0.27273734E+03</pdfrwt>
<totfact> 0.54563420E+03</totfact>
</mgrwt>
</event>
<event>
 9    1  0.8175317E-001  0.2773054E+03  0.7818608E-02  0.1097170E+00
          2   -1    0    0  501    0  0.00000000000E+00  0.00000000000E+00  0.49402099321E+03  0.49402099321E+03  0.00000000000E+00 0.  1.
         -2   -1    0    0    0  501 -0.00000000000E+00 -0.00000000000E+00 -0.38914476032E+02  0.38914476032E+02  0.00000000000E+00 0.  1.
         35    2    1    2    0    0  0.00000000000E+00  0.71054273576E-14  0.45510651717E+03  0.53293546924E+03  0.27730537751E+03 0.  0.
         25    2    3    3    0    0 -0.27494604504E+02 -0.29186642242E+02  0.14792829351E+03  0.19887110560E+03  0.12672459612E+03 0.  0.
         25    2    3    3    0    0  0.27494604504E+02  0.29186642242E+02  0.30717822367E+03  0.33406436364E+03  0.12503089456E+03 0.  0.
          5    1    4    4  502    0 -0.53753748903E+02 -0.50325809738E+01  0.15319772285E+03  0.16250053747E+03  0.47000000000E+01 0. -1.
         -5    1    4    4    0  502  0.26259144398E+02 -0.24154061269E+02 -0.52694293440E+01  0.36370568127E+02  0.47000000000E+01 0. -1.
          5    1    5    5  503    0  0.58807326458E+02 -0.54798273626E+01  0.26301953895E+03  0.26961027062E+03  0.47000000000E+01 0.  1.
         -5    1    5    5    0  503 -0.31312721954E+02  0.34666469605E+02  0.44158684714E+02  0.64454093017E+02  0.47000000000E+01 0.  1.
<mgrwt>
<rscale>  0 0.27730538E+03</rscale>
<asrwt>0</asrwt>
<pdfrwt beam="1">  1        2 0.76003225E-01 0.27730538E+03</pdfrwt>
<pdfrwt beam="2">  1       -2 0.59868428E-02 0.27730538E+03</pdfrwt>
<totfact> 0.93213494E+03</totfact>
</mgrwt>
</event>
<event>
 9    1  0.8175317E-001  0.2751614E+03  0.7818608E-02  0.1098361E+00
         -2   -1    0    0    0  501 -0.00000000000E+00  0.00000000000E+00  0.15400146469E+02  0.15400146469E+02  0.00000000000E+00 0. -1.
          2   -1    0    0  501    0  0.00000000000E+00 -0.00000000000E+00 -0.12291079657E+04  0.12291079657E+04  0.00000000000E+00 0. -1.
         35    2    1    2    0    0  0.00000000000E+00  0.14210854715E-13 -0.12137078192E+04  0.12445081121E+04  0.27516135410E+03 0.  0.
         25    2    3    3    0    0 -0.35034440323E+02  0.40761452260E+02 -0.69214705417E+03  0.70534634548E+03  0.12472776149E+03 0.  0.
         25    2    3    3    0    0  0.35034440323E+02 -0.40761452260E+02 -0.52156076502E+03  0.53916176665E+03  0.12562193681E+03 0.  0.
          5    1    4    4  502    0  0.43560836822E+02  0.25708388011E+02 -0.18268806386E+03  0.18961931968E+03  0.47000000000E+01 0. -1.
         -5    1    4    4    0  502 -0.78595277144E+02  0.15053064249E+02 -0.50945899031E+03  0.51572702580E+03  0.47000000000E+01 0. -1.
          5    1    5    5  503    0  0.45729546493E+02 -0.39714764128E+02 -0.52372339846E+03  0.52723499695E+03  0.47000000000E+01 0. -1.
         -5    1    5    5    0  503 -0.10695106171E+02 -0.10466881317E+01  0.21626334415E+01  0.11926769699E+02  0.47000000000E+01 0. -1.
<mgrwt>
<rscale>  0 0.27516135E+03</rscale>
<asrwt>0</asrwt>
<pdfrwt beam="1">  1        2 0.18909359E+00 0.27516135E+03</pdfrwt>
<pdfrwt beam="2">  1       -2 0.23692526E-02 0.27516135E+03</pdfrwt>
<totfact> 0.11561330E+04</totfact>
</mgrwt>
</event>
<event>
 9    1  0.8175317E-001  0.2784960E+03  0.7818608E-02  0.1096513E+00
          2   -1    0    0  501    0  0.00000000000E+00  0.00000000000E+00  0.49240097917E+03  0.49240097917E+03  0.00000000000E+00 0.  1.
         -2   -1    0    0    0  501 -0.00000000000E+00 -0.00000000000E+00 -0.39378478390E+02  0.39378478390E+02  0.00000000000E+00 0.  1.
         35    2    1    2    0    0  0.00000000000E+00 -0.35527136788E-14  0.45302250078E+03  0.53177945756E+03  0.27849596993E+03 0.  0.
         25    2    3    3    0    0 -0.19024610667E+02  0.22201776138E+02  0.33971237571E+03  0.36303943699E+03  0.12465263705E+03 0.  0.
         25    2    3    3    0    0  0.19024610667E+02 -0.22201776138E+02  0.11331012507E+03  0.16874002057E+03  0.12156954974E+03 0.  0.
          5    1    4    4  502    0  0.22220093520E+01 -0.35099573760E+02  0.26038173032E+03  0.26278822822E+03  0.47000000000E+01 0.  1.
         -5    1    4    4    0  502 -0.21246620019E+02  0.57301349898E+02  0.79330645385E+02  0.10025120877E+03  0.47000000000E+01 0.  1.
          5    1    5    5  503    0  0.63784987257E+02  0.31050219541E+01  0.93738615225E+02  0.11352173248E+03  0.47000000000E+01 0. -1.
         -5    1    5    5    0  503 -0.44760376591E+02 -0.25306798092E+02  0.19571509845E+02  0.55218288092E+02  0.47000000000E+01 0. -1.
<mgrwt>
<rscale>  0 0.27849597E+03</rscale>
<asrwt>0</asrwt>
<pdfrwt beam="1">  1        2 0.75753993E-01 0.27849597E+03</pdfrwt>
<pdfrwt beam="2">  1       -2 0.60582278E-02 0.27849597E+03</pdfrwt>
<totfact> 0.91884281E+03</totfact>
</mgrwt>
</event>
<event>
 9    1  0.8175317E-001  0.2684074E+03  0.7818608E-02  0.1102195E+00
         -2   -1    0    0    0  501 -0.00000000000E+00  0.00000000000E+00  0.10357763779E+02  0.10357763779E+02  0.00000000000E+00 0. -1.
          2   -1    0    0  501    0  0.00000000000E+00 -0.00000000000E+00 -0.17388538249E+04  0.17388538249E+04  0.00000000000E+00 0. -1.
         35    2    1    2    0    0  0.00000000000E+00  0.71054273576E-14 -0.17284960611E+04  0.17492115887E+04  0.26840743034E+03 0.  0.
         25    2    3    3    0    0 -0.13760390982E+02  0.83383463749E+01 -0.56463468977E+03  0.57861863676E+03  0.12541258921E+03 0.  0.
         25    2    3    3    0    0  0.13760390982E+02 -0.83383463749E+01 -0.11638613713E+04  0.11705929519E+04  0.12432091933E+03 0.  0.
          5    1    4    4  502    0 -0.44710170562E+02 -0.45354843534E+02 -0.26234859764E+03  0.27000914405E+03  0.47000000000E+01 0. -1.
         -5    1    4    4    0  502  0.30949779580E+02  0.53693189909E+02 -0.30228609213E+03  0.30860949271E+03  0.47000000000E+01 0. -1.
          5    1    5    5  503    0  0.11986173200E+02 -0.48679115444E+02 -0.10159421344E+04  0.10171891835E+04  0.47000000000E+01 0. -1.
         -5    1    5    5    0  503  0.17742177820E+01  0.40340769069E+02 -0.14791923692E+03  0.15340376836E+03  0.47000000000E+01 0. -1.
<mgrwt>
<rscale>  0 0.26840743E+03</rscale>
<asrwt>0</asrwt>
<pdfrwt beam="1">  1        2 0.26751621E+00 0.26840743E+03</pdfrwt>
<pdfrwt beam="2">  1       -2 0.15935007E-02 0.26840743E+03</pdfrwt>
<totfact> 0.10998135E+04</totfact>
</mgrwt>
</event>
<event>
 9    1  0.8175317E-001  0.2749464E+03  0.7818608E-02  0.1098482E+00
         -2   -1    0    0    0  501 -0.00000000000E+00  0.00000000000E+00  0.41619078595E+02  0.41619078595E+02  0.00000000000E+00 0.  1.
          2   -1    0    0  501    0  0.00000000000E+00 -0.00000000000E+00 -0.45409166253E+03  0.45409166253E+03  0.00000000000E+00 0.  1.
         35    2    1    2    0    0  0.00000000000E+00  0.35527136788E-14 -0.41247258394E+03  0.49571074113E+03  0.27494636999E+03 0.  0.
         25    2    3    3    0    0  0.13178763887E+02 -0.27688457547E+02 -0.12531414022E+03  0.18070128974E+03  0.12652664493E+03 0.  0.
         25    2    3    3    0    0 -0.13178763887E+02  0.27688457547E+02 -0.28715844372E+03  0.31500945138E+03  0.12581991959E+03 0.  0.
          5    1    4    4  502    0  0.53941543195E+02 -0.48740066515E+02 -0.11032600896E+03  0.13220893472E+03  0.47000000000E+01 0. -1.
         -5    1    4    4    0  502 -0.40762779308E+02  0.21051608968E+02 -0.14988131259E+02  0.48492355023E+02  0.47000000000E+01 0. -1.
          5    1    5    5  503    0  0.24881915536E+02 -0.19659661751E+02 -0.13729832698E+02  0.34874207186E+02  0.47000000000E+01 0. -1.
         -5    1    5    5    0  503 -0.38060679423E+02  0.47348119299E+02 -0.27342861102E+03  0.28013524420E+03  0.47000000000E+01 0. -1.
<mgrwt>
<rscale>  0 0.27494637E+03</rscale>
<asrwt>0</asrwt>
<pdfrwt beam="1">  1        2 0.69860257E-01 0.27494637E+03</pdfrwt>
<pdfrwt beam="2">  1       -2 0.64029350E-02 0.27494637E+03</pdfrwt>
<totfact> 0.92274900E+03</totfact>
</mgrwt>
</event>
<event>
 9    1  0.8175317E-001  0.2719687E+03  0.7818608E-02  0.1100158E+00
          4   -1    0    0  501    0  0.00000000000E+00  0.00000000000E+00  0.36241086797E+03  0.36241086797E+03  0.00000000000E+00 0.  1.
         -4   -1    0    0    0  501 -0.00000000000E+00 -0.00000000000E+00 -0.51024261573E+02  0.51024261573E+02  0.00000000000E+00 0.  1.
         35    2    1    2    0    0 -0.14210854715E-13  0.00000000000E+00  0.31138660640E+03  0.41343512955E+03  0.27196872559E+03 0.  0.
         25    2    3    3    0    0  0.34380192282E+02 -0.38063694242E+02  0.12263195730E+03  0.18194471375E+03  0.12423541954E+03 0.  0.
         25    2    3    3    0    0 -0.34380192282E+02  0.38063694242E+02  0.18875464910E+03  0.23149041580E+03  0.12380893590E+03 0.  0.
          5    1    4    4  502    0 -0.45393990670E+02 -0.21841121890E+01  0.31218515779E+02  0.55335978011E+02  0.47000000000E+01 0. -1.
         -5    1    4    4    0  502  0.79774182952E+02 -0.35879582053E+02  0.91413441519E+02  0.12660873573E+03  0.47000000000E+01 0. -1.
          5    1    5    5  503    0  0.36647191453E+02 -0.13093852488E+02  0.27282268299E+02  0.47758536178E+02  0.47000000000E+01 0. -1.
         -5    1    5    5    0  503 -0.71027383734E+02  0.51157546730E+02  0.16147238080E+03  0.18373187962E+03  0.47000000000E+01 0. -1.
<mgrwt>
<rscale>  0 0.27196873E+03</rscale>
<asrwt>0</asrwt>
<pdfrwt beam="1">  1        4 0.55755516E-01 0.27196873E+03</pdfrwt>
<pdfrwt beam="2">  1       -4 0.78498866E-02 0.27196873E+03</pdfrwt>
<totfact> 0.66019398E+02</totfact>
</mgrwt>
</event>
<event>
 9    1  0.8175317E-001  0.2739905E+03  0.7818608E-02  0.1099017E+00
         -1   -1    0    0    0  501 -0.00000000000E+00  0.00000000000E+00  0.68807422562E+03  0.68807422562E+03  0.00000000000E+00 0.  1.
          1   -1    0    0  501    0  0.00000000000E+00 -0.00000000000E+00 -0.27275685221E+02  0.27275685221E+02  0.00000000000E+00 0.  1.
         35    2    1    2    0    0  0.17763568394E-14  0.00000000000E+00  0.66079854040E+03  0.71534991084E+03  0.27399048149E+03 0.  0.
         25    2    3    3    0    0 -0.13929184576E+02  0.43835679811E+02  0.25410012649E+03  0.28711286434E+03  0.12550431698E+03 0.  0.
         25    2    3    3    0    0  0.13929184576E+02 -0.43835679811E+02  0.40669841391E+03  0.42823704650E+03  0.12596737319E+03 0.  0.
          5    1    4    4  502    0  0.43912175871E+02 -0.19000099216E+02  0.95470984688E+02  0.10689285232E+03  0.47000000000E+01 0.  1.
         -5    1    4    4    0  502 -0.57841360447E+02  0.62835779028E+02  0.15862914180E+03  0.18022001202E+03  0.47000000000E+01 0.  1.
          5    1    5    5  503    0 -0.14887200485E+02  0.36806673413E+02  0.20818026150E+03  0.21198460138E+03  0.47000000000E+01 0.  1.
         -5    1    5    5    0  503  0.28816385061E+02 -0.80642353224E+02  0.19851815241E+03  0.21625244511E+03  0.47000000000E+01 0.  1.
<mgrwt>
<rscale>  0 0.27399048E+03</rscale>
<asrwt>0</asrwt>
<pdfrwt beam="1">  1        1 0.41962598E-02 0.27399048E+03</pdfrwt>
<pdfrwt beam="2">  1       -1 0.10585756E+00 0.27399048E+03</pdfrwt>
<totfact> 0.18822173E+03</totfact>
</mgrwt>
</event>
<event>
 9    1  0.8175317E-001  0.2762090E+03  0.7818608E-02  0.1097778E+00
          2   -1    0    0  501    0  0.00000000000E+00  0.00000000000E+00  0.34678465788E+02  0.34678465788E+02  0.00000000000E+00 0.  1.
         -2   -1    0    0    0  501 -0.00000000000E+00 -0.00000000000E+00 -0.54999136642E+03  0.54999136642E+03  0.00000000000E+00 0.  1.
         35    2    1    2    0    0  0.71054273576E-14 -0.71054273576E-14 -0.51531290063E+03  0.58466983221E+03  0.27620902798E+03 0.  0.
         25    2    3    3    0    0  0.41624605691E+02 -0.29891271667E+02 -0.34674135652E+03  0.36789222414E+03  0.11175430346E+03 0.  0.
         25    2    3    3    0    0 -0.41624605691E+02  0.29891271667E+02 -0.16857154412E+03  0.21677760807E+03  0.12629358635E+03 0.  0.
          5    1    4    4  502    0 -0.16713254420E+02 -0.44925271069E+02 -0.24391750720E+03  0.24862713684E+03  0.47000000000E+01 0. -1.
         -5    1    4    4    0  502  0.58337860111E+02  0.15033999401E+02 -0.10282384931E+03  0.11926508730E+03  0.47000000000E+01 0. -1.
          5    1    5    5  503    0  0.38004320409E+02 -0.95287043529E+01 -0.21640363973E+02  0.45005776621E+02  0.47000000000E+01 0. -1.
         -5    1    5    5    0  503 -0.79628926100E+02  0.39419976020E+02 -0.14693118015E+03  0.17177183145E+03  0.47000000000E+01 0. -1.
<mgrwt>
<rscale>  0 0.27620903E+03</rscale>
<asrwt>0</asrwt>
<pdfrwt beam="1">  1        2 0.53351483E-02 0.27620903E+03</pdfrwt>
<pdfrwt beam="2">  1       -2 0.84614060E-01 0.27620903E+03</pdfrwt>
<totfact> 0.18102983E+03</totfact>
</mgrwt>
</event>
<event>
 9    1  0.8175317E-001  0.3027983E+03  0.7818608E-02  0.1083850E+00
         -2   -1    0    0    0  501 -0.00000000000E+00  0.00000000000E+00  0.14376639238E+03  0.14376639238E+03  0.00000000000E+00 0. -1.
          2   -1    0    0  501    0  0.00000000000E+00 -0.00000000000E+00 -0.15943717580E+03  0.15943717580E+03  0.00000000000E+00 0. -1.
         35    2    1    2    0    0  0.00000000000E+00  0.00000000000E+00 -0.15670783429E+02  0.30320356818E+03  0.30279833273E+03 0.  0.
         25    2    3    3    0    0 -0.29007908161E+02  0.76783622961E+02 -0.38603545270E+02  0.15477920986E+03  0.12541605403E+03 0.  0.
         25    2    3    3    0    0  0.29007908161E+02 -0.76783622961E+02  0.22932761840E+02  0.14842435832E+03  0.12151829116E+03 0.  0.
          5    1    4    4  502    0 -0.39701633063E+02 -0.92184452085E+01 -0.52765927111E+02  0.66839602511E+02  0.47000000000E+01 0.  1.
         -5    1    4    4    0  502  0.10693724902E+02  0.86002068170E+02  0.14162381842E+02  0.87939607352E+02  0.47000000000E+01 0.  1.
          5    1    5    5  503    0  0.66504041421E+02 -0.22133725401E+02 -0.15119292537E+02  0.71856609524E+02  0.47000000000E+01 0.  1.
         -5    1    5    5    0  503 -0.37496133261E+02 -0.54649897560E+02  0.38052054377E+02  0.76567748793E+02  0.47000000000E+01 0.  1.
<mgrwt>
<rscale>  0 0.30279833E+03</rscale>
<asrwt>0</asrwt>
<pdfrwt beam="1">  1        2 0.24528796E-01 0.30279833E+03</pdfrwt>
<pdfrwt beam="2">  1       -2 0.22117907E-01 0.30279833E+03</pdfrwt>
<totfact> 0.38725139E+03</totfact>
</mgrwt>
</event>
<event>
 9    1  0.8175317E-001  0.2756746E+03  0.7818608E-02  0.1098075E+00
          2   -1    0    0  501    0  0.00000000000E+00  0.00000000000E+00  0.12174371843E+04  0.12174371843E+04  0.00000000000E+00 0.  1.
         -2   -1    0    0    0  501 -0.00000000000E+00 -0.00000000000E+00 -0.15605827565E+02  0.15605827565E+02  0.00000000000E+00 0.  1.
         35    2    1    2    0    0  0.00000000000E+00  0.00000000000E+00  0.12018313568E+04  0.12330430119E+04  0.27567455283E+03 0.  0.
         25    2    3    3    0    0  0.71204259081E+01  0.56355833408E+02  0.63075814425E+03  0.64558907340E+03  0.12531055314E+03 0.  0.
         25    2    3    3    0    0 -0.71204259081E+01 -0.56355833408E+02  0.57107321251E+03  0.58745393850E+03  0.12550233217E+03 0.  0.
          5    1    4    4  502    0  0.44249127969E+02  0.80956720047E+02  0.44772574025E+03  0.45715687059E+03  0.47000000000E+01 0. -1.
         -5    1    4    4    0  502 -0.37128702060E+02 -0.24600886639E+02  0.18303240400E+03  0.18843220281E+03  0.47000000000E+01 0. -1.
          5    1    5    5  503    0 -0.62433874453E+02 -0.36942649718E+02  0.40005715681E+03  0.40660861619E+03  0.47000000000E+01 0.  1.
         -5    1    5    5    0  503  0.55313448545E+02 -0.19413183690E+02  0.17101605571E+03  0.18084532231E+03  0.47000000000E+01 0.  1.
<mgrwt>
<rscale>  0 0.27567455E+03</rscale>
<asrwt>0</asrwt>
<pdfrwt beam="1">  1        2 0.18729795E+00 0.27567455E+03</pdfrwt>
<pdfrwt beam="2">  1       -2 0.24008975E-02 0.27567455E+03</pdfrwt>
<totfact> 0.11510718E+04</totfact>
</mgrwt>
</event>
<event>
 9    1  0.8175317E-001  0.2755324E+03  0.7818608E-02  0.1098154E+00
         -1   -1    0    0    0  501 -0.00000000000E+00  0.00000000000E+00  0.90474216036E+01  0.90474216036E+01  0.00000000000E+00 0. -1.
          1   -1    0    0  501    0  0.00000000000E+00 -0.00000000000E+00 -0.20977831971E+04  0.20977831971E+04  0.00000000000E+00 0. -1.
         35    2    1    2    0    0  0.17763568394E-14  0.35527136788E-14 -0.20887357755E+04  0.21068306187E+04  0.27553242290E+03 0.  0.
         25    2    3    3    0    0  0.11380418001E+02 -0.85510242691E+01 -0.14715140227E+04  0.14769622408E+04  0.12594168357E+03 0.  0.
         25    2    3    3    0    0 -0.11380418001E+02  0.85510242691E+01 -0.61722175275E+03  0.62986837791E+03  0.12477518781E+03 0.  0.
          5    1    4    4  502    0  0.26302192877E+02 -0.39216280758E+02 -0.13453271786E+04  0.13461638197E+04  0.47000000000E+01 0.  1.
         -5    1    4    4    0  502 -0.14921774876E+02  0.30665256488E+02 -0.12618684412E+03  0.13079842105E+03  0.47000000000E+01 0.  1.
          5    1    5    5  503    0 -0.59845985823E+02 -0.24935314552E+02 -0.27471267711E+03  0.28229852443E+03  0.47000000000E+01 0.  1.
         -5    1    5    5    0  503  0.48465567822E+02  0.33486338822E+02 -0.34250907564E+03  0.34756985348E+03  0.47000000000E+01 0.  1.
<mgrwt>
<rscale>  0 0.27553242E+03</rscale>
<asrwt>0</asrwt>
<pdfrwt beam="1">  1        1 0.32273640E+00 0.27553242E+03</pdfrwt>
<pdfrwt beam="2">  1       -1 0.13919088E-02 0.27553242E+03</pdfrwt>
<totfact> 0.33916406E+03</totfact>
</mgrwt>
</event>
<event>
 9    1  0.8175317E-001  0.2822222E+03  0.7818608E-02  0.1094481E+00
         -2   -1    0    0    0  501 -0.00000000000E+00  0.00000000000E+00  0.11828016906E+03  0.11828016906E+03  0.00000000000E+00 0. -1.
          2   -1    0    0  501    0  0.00000000000E+00 -0.00000000000E+00 -0.16834898629E+03  0.16834898629E+03  0.00000000000E+00 0. -1.
         35    2    1    2    0    0  0.00000000000E+00  0.00000000000E+00 -0.50068817229E+02  0.28662915536E+03  0.28222222847E+03 0.  0.
         25    2    3    3    0    0  0.50242227566E+02 -0.28095774143E+02  0.72026272453E+01  0.13843894528E+03  0.12569729422E+03 0.  0.
         25    2    3    3    0    0 -0.50242227566E+02  0.28095774143E+02 -0.57271444474E+02  0.14819021008E+03  0.12396235741E+03 0.  0.
          5    1    4    4  502    0 -0.48577164333E+01  0.36398101576E+02 -0.28062334334E+02  0.46454319665E+02  0.47000000000E+01 0. -1.
         -5    1    4    4    0  502  0.55099944000E+02 -0.64493875719E+02  0.35264961579E+02  0.91984625613E+02  0.47000000000E+01 0. -1.
          5    1    5    5  503    0 -0.23858667286E+02  0.37910259302E+02 -0.92481904922E+02  0.10286601238E+03  0.47000000000E+01 0.  1.
         -5    1    5    5    0  503 -0.26383560281E+02 -0.98144851592E+01  0.35210460449E+02  0.45324197699E+02  0.47000000000E+01 0.  1.
<mgrwt>
<rscale>  0 0.28222223E+03</rscale>
<asrwt>0</asrwt>
<pdfrwt beam="1">  1        2 0.25899844E-01 0.28222223E+03</pdfrwt>
<pdfrwt beam="2">  1       -2 0.18196949E-01 0.28222223E+03</pdfrwt>
<totfact> 0.50807023E+03</totfact>
</mgrwt>
</event>
<event>
 9    1  0.8175317E-001  0.2750520E+03  0.7818608E-02  0.1098423E+00
          2   -1    0    0  501    0  0.00000000000E+00  0.00000000000E+00  0.95880105877E+02  0.95880105877E+02  0.00000000000E+00 0. -1.
         -2   -1    0    0    0  501 -0.00000000000E+00 -0.00000000000E+00 -0.19726090466E+03  0.19726090466E+03  0.00000000000E+00 0. -1.
         35    2    1    2    0    0  0.14210854715E-13  0.00000000000E+00 -0.10138079878E+03  0.29314101054E+03  0.27505196908E+03 0.  0.
         25    2    3    3    0    0  0.29231818104E+02 -0.36646174651E+02 -0.15290945681E+02  0.13411863792E+03  0.12472591836E+03 0.  0.
         25    2    3    3    0    0 -0.29231818104E+02  0.36646174651E+02 -0.86089853102E+02  0.15902237262E+03  0.12521665576E+03 0.  0.
          5    1    4    4  502    0  0.24534131539E+01  0.34912505806E+02 -0.40304685536E+02  0.53586005392E+02  0.47000000000E+01 0. -1.
         -5    1    4    4    0  502  0.26778404951E+02 -0.71558680456E+02  0.25013739855E+02  0.80532632528E+02  0.47000000000E+01 0. -1.
          5    1    5    5  503    0 -0.41413385401E+02  0.26786955887E+02 -0.11532684360E+03  0.12551884460E+03  0.47000000000E+01 0. -1.
         -5    1    5    5    0  503  0.12181567296E+02  0.98592187633E+01  0.29236990494E+02  0.33503528016E+02  0.47000000000E+01 0. -1.
<mgrwt>
<rscale>  0 0.27505197E+03</rscale>
<asrwt>0</asrwt>
<pdfrwt beam="1">  1        2 0.14750786E-01 0.27505197E+03</pdfrwt>
<pdfrwt beam="2">  1       -2 0.30347831E-01 0.27505197E+03</pdfrwt>
<totfact> 0.39592271E+03</totfact>
</mgrwt>
</event>
<event>
 9    1  0.8175317E-001  0.2772801E+03  0.7818608E-02  0.1097184E+00
         -1   -1    0    0    0  501 -0.00000000000E+00  0.00000000000E+00  0.24956935094E+02  0.24956935094E+02  0.00000000000E+00 0.  1.
          1   -1    0    0  501    0  0.00000000000E+00 -0.00000000000E+00 -0.77016899169E+03  0.77016899169E+03  0.00000000000E+00 0.  1.
         35    2    1    2    0    0  0.00000000000E+00  0.35527136788E-14 -0.74521205660E+03  0.79512592679E+03  0.27728005725E+03 0.  0.
         25    2    3    3    0    0  0.52319461003E+02  0.59155926943E+00 -0.31540387927E+03  0.34317292582E+03  0.12470113879E+03 0.  0.
         25    2    3    3    0    0 -0.52319461003E+02 -0.59155926943E+00 -0.42980817733E+03  0.45195300097E+03  0.12957148545E+03 0.  0.
          5    1    4    4  502    0  0.26411826168E+02 -0.18591345265E+02 -0.30805211701E+03  0.30977640239E+03  0.47000000000E+01 0. -1.
         -5    1    4    4    0  502  0.25907634835E+02  0.19182904535E+02 -0.73517622573E+01  0.33396523433E+02  0.47000000000E+01 0. -1.
          5    1    5    5  503    0 -0.52092405633E+02 -0.30797765638E+02 -0.41225919547E+03  0.41670355811E+03  0.47000000000E+01 0.  1.
         -5    1    5    5    0  503 -0.22705537004E+00  0.30206206369E+02 -0.17548981858E+02  0.35249442855E+02  0.47000000000E+01 0.  1.
<mgrwt>
<rscale>  0 0.27728006E+03</rscale>
<asrwt>0</asrwt>
<pdfrwt beam="1">  1        1 0.11848753E+00 0.27728006E+03</pdfrwt>
<pdfrwt beam="2">  1       -1 0.38395287E-02 0.27728006E+03</pdfrwt>
<totfact> 0.63748265E+03</totfact>
</mgrwt>
</event>
<event>
 9    1  0.8175317E-001  0.2752499E+03  0.7818608E-02  0.1098312E+00
          2   -1    0    0  501    0  0.00000000000E+00  0.00000000000E+00  0.11632003959E+03  0.11632003959E+03  0.00000000000E+00 0. -1.
         -2   -1    0    0    0  501 -0.00000000000E+00 -0.00000000000E+00 -0.16283201088E+03  0.16283201088E+03  0.00000000000E+00 0. -1.
         35    2    1    2    0    0 -0.17763568394E-14  0.00000000000E+00 -0.46511971296E+02  0.27915205047E+03  0.27524989338E+03 0.  0.
         25    2    3    3    0    0 -0.10300651416E+02 -0.57278155903E+02 -0.29122611876E+02  0.14118452126E+03  0.12529186709E+03 0.  0.
         25    2    3    3    0    0  0.10300651416E+02  0.57278155903E+02 -0.17389359421E+02  0.13796752921E+03  0.12387799938E+03 0.  0.
          5    1    4    4  502    0  0.49555333649E+02 -0.31928969303E+02  0.16776836078E+02  0.61471476333E+02  0.47000000000E+01 0. -1.
         -5    1    4    4    0  502 -0.59855985065E+02 -0.25349186600E+02 -0.45899447953E+02  0.79713044928E+02  0.47000000000E+01 0. -1.
          5    1    5    5  503    0  0.10848344216E+02  0.40821321155E+01  0.50251466333E+02  0.51784652586E+02  0.47000000000E+01 0. -1.
         -5    1    5    5    0  503 -0.54769280029E+00  0.53196023787E+02 -0.67640825754E+02  0.86182876622E+02  0.47000000000E+01 0. -1.
<mgrwt>
<rscale>  0 0.27524989E+03</rscale>
<asrwt>0</asrwt>
<pdfrwt beam="1">  1        2 0.17895391E-01 0.27524989E+03</pdfrwt>
<pdfrwt beam="2">  1       -2 0.25051078E-01 0.27524989E+03</pdfrwt>
<totfact> 0.44496296E+03</totfact>
</mgrwt>
</event>
<event>
 9    1  0.8175317E-001  0.2746765E+03  0.7818608E-02  0.1098633E+00
          2   -1    0    0  501    0  0.00000000000E+00  0.00000000000E+00  0.16341304993E+02  0.16341304993E+02  0.00000000000E+00 0. -1.
         -2   -1    0    0    0  501 -0.00000000000E+00 -0.00000000000E+00 -0.11542405232E+04  0.11542405232E+04  0.00000000000E+00 0. -1.
         35    2    1    2    0    0  0.71054273576E-14 -0.71054273576E-14 -0.11378992182E+04  0.11705818282E+04  0.27467651101E+03 0.  0.
         25    2    3    3    0    0  0.25690316702E+02  0.24967619786E+02 -0.75253890961E+03  0.76389585463E+03  0.12624853203E+03 0.  0.
         25    2    3    3    0    0 -0.25690316702E+02 -0.24967619786E+02 -0.38536030863E+03  0.40668597359E+03  0.12493013743E+03 0.  0.
          5    1    4    4  502    0 -0.39228467605E+01  0.71101898554E+02 -0.31936228143E+03  0.32723878973E+03  0.47000000000E+01 0. -1.
         -5    1    4    4    0  502  0.29613163463E+02 -0.46134278768E+02 -0.43317662817E+03  0.43665706490E+03  0.47000000000E+01 0. -1.
          5    1    5    5  503    0  0.45549101949E+02 -0.33901891836E+02 -0.19614358574E+03  0.20425096128E+03  0.47000000000E+01 0.  1.
         -5    1    5    5    0  503 -0.71239418651E+02  0.89342720502E+01 -0.18921672289E+03  0.20243501231E+03  0.47000000000E+01 0.  1.
<mgrwt>
<rscale>  0 0.27467651E+03</rscale>
<asrwt>0</asrwt>
<pdfrwt beam="1">  1        2 0.25140459E-02 0.27467651E+03</pdfrwt>
<pdfrwt beam="2">  1       -2 0.17757553E+00 0.27467651E+03</pdfrwt>
<totfact> 0.80675795E+02</totfact>
</mgrwt>
</event>
<event>
 9    1  0.8175317E-001  0.2727988E+03  0.7818608E-02  0.1099688E+00
          2   -1    0    0  501    0  0.00000000000E+00  0.00000000000E+00  0.35183093818E+03  0.35183093818E+03  0.00000000000E+00 0.  1.
         -2   -1    0    0    0  501 -0.00000000000E+00 -0.00000000000E+00 -0.52879928594E+02  0.52879928594E+02  0.00000000000E+00 0.  1.
         35    2    1    2    0    0  0.00000000000E+00 -0.71054273576E-14  0.29895100958E+03  0.40471086677E+03  0.27279878950E+03 0.  0.
         25    2    3    3    0    0  0.51830550198E+02 -0.18852071083E+02  0.14095546987E+03  0.19599943775E+03  0.12452119737E+03 0.  0.
         25    2    3    3    0    0 -0.51830550198E+02  0.18852071083E+02  0.15799553972E+03  0.20871142902E+03  0.12472394925E+03 0.  0.
          5    1    4    4  502    0  0.17330601061E+02  0.50317110401E+02  0.31826226239E+02  0.62186493782E+02  0.47000000000E+01 0.  1.
         -5    1    4    4    0  502  0.34499949138E+02 -0.69169181484E+02  0.10912924363E+03  0.13381294396E+03  0.47000000000E+01 0.  1.
          5    1    5    5  503    0 -0.25143357182E+02 -0.38794685716E+02  0.13195171237E+03  0.13989481923E+03  0.47000000000E+01 0.  1.
         -5    1    5    5    0  503 -0.26687193016E+02  0.57646756799E+02  0.26043827343E+02  0.68816609792E+02  0.47000000000E+01 0.  1.
<mgrwt>
<rscale>  0 0.27279879E+03</rscale>
<asrwt>0</asrwt>
<pdfrwt beam="1">  1        2 0.54127835E-01 0.27279879E+03</pdfrwt>
<pdfrwt beam="2">  1       -2 0.81353738E-02 0.27279879E+03</pdfrwt>
<totfact> 0.83979310E+03</totfact>
</mgrwt>
</event>
<event>
 9    1  0.8175317E-001  0.2741760E+03  0.7818608E-02  0.1098913E+00
          2   -1    0    0  501    0  0.00000000000E+00  0.00000000000E+00  0.26329221443E+03  0.26329221443E+03  0.00000000000E+00 0.  1.
         -2   -1    0    0    0  501 -0.00000000000E+00 -0.00000000000E+00 -0.71377423747E+02  0.71377423747E+02  0.00000000000E+00 0.  1.
         35    2    1    2    0    0  0.14210854715E-13 -0.35527136788E-14  0.19191479069E+03  0.33466963818E+03  0.27417600157E+03 0.  0.
         25    2    3    3    0    0  0.50138489005E+02 -0.26620880466E+02  0.85126255002E+02  0.16169363290E+03  0.12520308412E+03 0.  0.
         25    2    3    3    0    0 -0.50138489005E+02  0.26620880466E+02  0.10678853568E+03  0.17297600528E+03  0.12367039942E+03 0.  0.
          5    1    4    4  502    0  0.71190337892E+02 -0.48401480100E+01  0.10361510204E+03  0.12589547495E+03  0.47000000000E+01 0. -1.
         -5    1    4    4    0  502 -0.21051848886E+02 -0.21780732456E+02 -0.18488847036E+02  0.35798157949E+02  0.47000000000E+01 0. -1.
          5    1    5    5  503    0 -0.39015333711E+01  0.43161156232E+02  0.11498354633E+03  0.12296915587E+03  0.47000000000E+01 0.  1.
         -5    1    5    5    0  503 -0.46236955634E+02 -0.16540275766E+02 -0.81950106421E+01  0.50006849413E+02  0.47000000000E+01 0.  1.
<mgrwt>
<rscale>  0 0.27417600E+03</rscale>
<asrwt>0</asrwt>
<pdfrwt beam="1">  1        2 0.40506494E-01 0.27417600E+03</pdfrwt>
<pdfrwt beam="2">  1       -2 0.10981142E-01 0.27417600E+03</pdfrwt>
<totfact> 0.71389933E+03</totfact>
</mgrwt>
</event>
<event>
 9    1  0.8175317E-001  0.2801520E+03  0.7818608E-02  0.1095606E+00
          2   -1    0    0  501    0  0.00000000000E+00  0.00000000000E+00  0.41015335877E+04  0.41015335877E+04  0.00000000000E+00 0.  1.
         -2   -1    0    0    0  501 -0.00000000000E+00 -0.00000000000E+00 -0.47838887881E+01  0.47838887881E+01  0.00000000000E+00 0.  1.
         35    2    1    2    0    0  0.00000000000E+00  0.00000000000E+00  0.40967496989E+04  0.41063174765E+04  0.28015196265E+03 0.  0.
         25    2    3    3    0    0  0.46711823733E+02  0.28043178504E+02  0.15432285110E+04  0.15491326361E+04  0.12364979764E+03 0.  0.
         25    2    3    3    0    0 -0.46711823733E+02 -0.28043178504E+02  0.25535211878E+04  0.25571848404E+04  0.12552066329E+03 0.  0.
          5    1    4    4  502    0 -0.34299428725E+02  0.21990491779E+02  0.87613895627E+03  0.87709839427E+03  0.47000000000E+01 0. -1.
         -5    1    4    4    0  502  0.81011252458E+02  0.60526867247E+01  0.66708955477E+03  0.67203424178E+03  0.47000000000E+01 0. -1.
          5    1    5    5  503    0 -0.54745840755E+02 -0.73504030237E+01  0.43201584172E+03  0.43555816259E+03  0.47000000000E+01 0. -1.
         -5    1    5    5    0  503  0.80340170220E+01 -0.20692775480E+02  0.21215053461E+04  0.21216266778E+04  0.47000000000E+01 0. -1.
<mgrwt>
<rscale>  0 0.28015196E+03</rscale>
<asrwt>0</asrwt>
<pdfrwt beam="1">  1        2 0.63100235E+00 0.28015196E+03</pdfrwt>
<pdfrwt beam="2">  1       -2 0.73598617E-03 0.28015196E+03</pdfrwt>
<totfact> 0.12378417E+03</totfact>
</mgrwt>
</event>
<event>
 9    1  0.8175317E-001  0.2765370E+03  0.7818608E-02  0.1097596E+00
          2   -1    0    0  501    0  0.00000000000E+00  0.00000000000E+00  0.10996004529E+03  0.10996004529E+03  0.00000000000E+00 0. -1.
         -2   -1    0    0    0  501 -0.00000000000E+00 -0.00000000000E+00 -0.17386476580E+03  0.17386476580E+03  0.00000000000E+00 0. -1.
         35    2    1    2    0    0  0.00000000000E+00  0.71054273576E-14 -0.63904720506E+02  0.28382481109E+03  0.27653699588E+03 0.  0.
         25    2    3    3    0    0 -0.10488918427E+02  0.54440631029E+02 -0.54917501849E+02  0.14782672488E+03  0.12555082183E+03 0.  0.
         25    2    3    3    0    0  0.10488918427E+02 -0.54440631029E+02 -0.89872186568E+01  0.13599808621E+03  0.12385842578E+03 0.  0.
          5    1    4    4  502    0  0.13245454976E+02  0.65177146560E+02  0.18985952758E+02  0.69325744953E+02  0.47000000000E+01 0.  1.
         -5    1    4    4    0  502 -0.23734373403E+02 -0.10736515531E+02 -0.73903454607E+02  0.78500979927E+02  0.47000000000E+01 0.  1.
          5    1    5    5  503    0  0.19637610080E+02 -0.48829444214E+02  0.51857598547E+02  0.74035470411E+02  0.47000000000E+01 0. -1.
         -5    1    5    5    0  503 -0.91486916529E+01 -0.56111868148E+01 -0.60844817204E+02  0.61962615802E+02  0.47000000000E+01 0. -1.
<mgrwt>
<rscale>  0 0.27653700E+03</rscale>
<asrwt>0</asrwt>
<pdfrwt beam="1">  1        2 0.16916930E-01 0.27653700E+03</pdfrwt>
<pdfrwt beam="2">  1       -2 0.26748426E-01 0.27653700E+03</pdfrwt>
<totfact> 0.42299291E+03</totfact>
</mgrwt>
</event>
<event>
 9    1  0.8175317E-001  0.2757868E+03  0.7818608E-02  0.1098013E+00
         -4   -1    0    0    0  501 -0.00000000000E+00  0.00000000000E+00  0.41392561878E+02  0.41392561878E+02  0.00000000000E+00 0.  1.
          4   -1    0    0  501    0  0.00000000000E+00 -0.00000000000E+00 -0.45937216084E+03  0.45937216084E+03  0.00000000000E+00 0.  1.
         35    2    1    2    0    0  0.00000000000E+00  0.00000000000E+00 -0.41797959896E+03  0.50076472272E+03  0.27578680601E+03 0.  0.
         25    2    3    3    0    0  0.25459977933E+02 -0.51305165330E+02 -0.22147880779E+03  0.26060564168E+03  0.12482791240E+03 0.  0.
         25    2    3    3    0    0 -0.25459977933E+02  0.51305165330E+02 -0.19650079118E+03  0.24015908104E+03  0.12563197366E+03 0.  0.
          5    1    4    4  502    0  0.35132235925E+02  0.34094635395E+02 -0.10323127740E+03  0.11434817356E+03  0.47000000000E+01 0.  1.
         -5    1    4    4    0  502 -0.96722579926E+01 -0.85399800725E+02 -0.11824753039E+03  0.14625746812E+03  0.47000000000E+01 0.  1.
          5    1    5    5  503    0  0.29604492831E+02 -0.28221997652E+02 -0.61820710339E+02  0.74275146409E+02  0.47000000000E+01 0. -1.
         -5    1    5    5    0  503 -0.55064470763E+02  0.79527162982E+02 -0.13468008084E+03  0.16588393463E+03  0.47000000000E+01 0. -1.
<mgrwt>
<rscale>  0 0.27578681E+03</rscale>
<asrwt>0</asrwt>
<pdfrwt beam="1">  1        4 0.70672640E-01 0.27578681E+03</pdfrwt>
<pdfrwt beam="2">  1       -4 0.63680864E-02 0.27578681E+03</pdfrwt>
<totfact> 0.56343363E+02</totfact>
</mgrwt>
</event>
<event>
 9    1  0.8175317E-001  0.2731240E+03  0.7818608E-02  0.1099505E+00
          3   -1    0    0  501    0  0.00000000000E+00  0.00000000000E+00  0.11739012228E+03  0.11739012228E+03  0.00000000000E+00 0.  1.
         -3   -1    0    0    0  501 -0.00000000000E+00 -0.00000000000E+00 -0.15886495510E+03  0.15886495510E+03  0.00000000000E+00 0.  1.
         35    2    1    2    0    0 -0.35527136788E-14 -0.14210854715E-13 -0.41474832816E+02  0.27625507738E+03  0.27312397556E+03 0.  0.
         25    2    3    3    0    0 -0.26239163776E+02 -0.44118488879E+02 -0.27157188742E+02  0.13627937944E+03  0.12328674537E+03 0.  0.
         25    2    3    3    0    0  0.26239163776E+02  0.44118488879E+02 -0.14317644074E+02  0.13997569795E+03  0.12943440928E+03 0.  0.
          5    1    4    4  502    0 -0.14396741108E+02  0.35314366828E+02  0.19699464273E+02  0.43180198605E+02  0.47000000000E+01 0.  1.
         -5    1    4    4    0  502 -0.11842422668E+02 -0.79432855706E+02 -0.46856653014E+02  0.93099180834E+02  0.47000000000E+01 0.  1.
          5    1    5    5  503    0 -0.28706457703E+02 -0.17230422877E+02 -0.41124799548E+02  0.53238025173E+02  0.47000000000E+01 0.  1.
         -5    1    5    5    0  503  0.54945621479E+02  0.61348911756E+02  0.26807155474E+02  0.86737672772E+02  0.47000000000E+01 0.  1.
<mgrwt>
<rscale>  0 0.27312398E+03</rscale>
<asrwt>0</asrwt>
<pdfrwt beam="1">  1        3 0.18060019E-01 0.27312398E+03</pdfrwt>
<pdfrwt beam="2">  1       -3 0.24440762E-01 0.27312398E+03</pdfrwt>
<totfact> 0.10691798E+03</totfact>
</mgrwt>
</event>
<event>
 9    1  0.8175317E-001  0.2708377E+03  0.7818608E-02  0.1100801E+00
          1   -1    0    0  501    0  0.00000000000E+00  0.00000000000E+00  0.98264162294E+03  0.98264162294E+03  0.00000000000E+00 0.  1.
         -1   -1    0    0    0  501 -0.00000000000E+00 -0.00000000000E+00 -0.18662209856E+02  0.18662209856E+02  0.00000000000E+00 0.  1.
         35    2    1    2    0    0  0.00000000000E+00  0.00000000000E+00  0.96397941309E+03  0.10013038328E+04  0.27083769443E+03 0.  0.
         25    2    3    3    0    0 -0.38027152450E+02 -0.28361589353E+02  0.38718042676E+03  0.40948814094E+03  0.12458495347E+03 0.  0.
         25    2    3    3    0    0  0.38027152450E+02  0.28361589353E+02  0.57679898633E+03  0.59181569186E+03  0.12368629038E+03 0.  0.
          5    1    4    4  502    0 -0.37614284754E+02 -0.47888389515E+02  0.38438372005E+03  0.38920568663E+03  0.47000000000E+01 0. -1.
         -5    1    4    4    0  502 -0.41286769552E+00  0.19526800162E+02  0.27967067099E+01  0.20282454307E+02  0.47000000000E+01 0. -1.
          5    1    5    5  503    0  0.46169188086E+01 -0.32215471719E+02  0.46209902892E+02  0.56715056931E+02  0.47000000000E+01 0. -1.
         -5    1    5    5    0  503  0.33410233641E+02  0.60577061072E+02  0.53058908343E+03  0.53510063493E+03  0.47000000000E+01 0. -1.
<mgrwt>
<rscale>  0 0.27083769E+03</rscale>
<asrwt>0</asrwt>
<pdfrwt beam="1">  1        1 0.15117559E+00 0.27083769E+03</pdfrwt>
<pdfrwt beam="2">  1       -1 0.28711100E-02 0.27083769E+03</pdfrwt>
<totfact> 0.66258722E+03</totfact>
</mgrwt>
</event>
<event>
 9    1  0.8175317E-001  0.2759301E+03  0.7818608E-02  0.1097933E+00
         -2   -1    0    0    0  501 -0.00000000000E+00  0.00000000000E+00  0.10492744928E+02  0.10492744928E+02  0.00000000000E+00 0. -1.
          2   -1    0    0  501    0  0.00000000000E+00 -0.00000000000E+00 -0.18140494338E+04  0.18140494338E+04  0.00000000000E+00 0. -1.
         35    2    1    2    0    0  0.00000000000E+00  0.00000000000E+00 -0.18035566889E+04  0.18245421788E+04  0.27593012156E+03 0.  0.
         25    2    3    3    0    0  0.50119314736E+02  0.20255076399E+02 -0.77045758253E+03  0.78219896726E+03  0.12372600403E+03 0.  0.
         25    2    3    3    0    0 -0.50119314736E+02 -0.20255076399E+02 -0.10330991064E+04  0.10423432115E+04  0.12752800924E+03 0.  0.
          5    1    4    4  502    0 -0.60284070822E+01 -0.46559925600E+02 -0.24088357757E+03  0.24546110956E+03  0.47000000000E+01 0.  1.
         -5    1    4    4    0  502  0.56147721818E+02  0.66815001999E+02 -0.52957400497E+03  0.53673785770E+03  0.47000000000E+01 0.  1.
          5    1    5    5  503    0  0.31070135730E+02 -0.35139815747E+02 -0.56800912986E+03  0.56996194749E+03  0.47000000000E+01 0.  1.
         -5    1    5    5    0  503 -0.81189450466E+02  0.14884739348E+02 -0.46508997651E+03  0.47238126400E+03  0.47000000000E+01 0.  1.
<mgrwt>
<rscale>  0 0.27593012E+03</rscale>
<asrwt>0</asrwt>
<pdfrwt beam="1">  1        2 0.27908475E+00 0.27593012E+03</pdfrwt>
<pdfrwt beam="2">  1       -2 0.16142671E-02 0.27593012E+03</pdfrwt>
<totfact> 0.98579915E+03</totfact>
</mgrwt>
</event>
<event>
 9    1  0.8175317E-001  0.2504845E+03  0.7818608E-02  0.1112999E+00
         -2   -1    0    0    0  501 -0.00000000000E+00  0.00000000000E+00  0.97736502984E+01  0.97736502984E+01  0.00000000000E+00 0.  1.
          2   -1    0    0  501    0  0.00000000000E+00 -0.00000000000E+00 -0.16048891662E+04  0.16048891662E+04  0.00000000000E+00 0.  1.
         35    2    1    2    0    0 -0.35527136788E-14  0.35527136788E-14 -0.15951155159E+04  0.16146628165E+04  0.25048453428E+03 0.  0.
         25    2    3    3    0    0  0.13127066078E+02  0.86507107769E+01 -0.91034330838E+03  0.91835728930E+03  0.12003339965E+03 0.  0.
         25    2    3    3    0    0 -0.13127066078E+02 -0.86507107769E+01 -0.68477220749E+03  0.69630552717E+03  0.12522482324E+03 0.  0.
          5    1    4    4  502    0  0.33420392350E+02 -0.40930302040E+02 -0.23676273715E+03  0.24263325401E+03  0.47000000000E+01 0.  1.
         -5    1    4    4    0  502 -0.20293326271E+02  0.49581012817E+02 -0.67358057123E+03  0.67572403529E+03  0.47000000000E+01 0.  1.
          5    1    5    5  503    0  0.41901151102E+02  0.28333104684E+02 -0.17518119500E+03  0.18239795056E+03  0.47000000000E+01 0.  1.
         -5    1    5    5    0  503 -0.55028217181E+02 -0.36983815461E+02 -0.50959101249E+03  0.51390757661E+03  0.47000000000E+01 0.  1.
<mgrwt>
<rscale>  0 0.25048453E+03</rscale>
<asrwt>0</asrwt>
<pdfrwt beam="1">  1        2 0.24690598E+00 0.25048453E+03</pdfrwt>
<pdfrwt beam="2">  1       -2 0.15036388E-02 0.25048453E+03</pdfrwt>
<totfact> 0.14060188E+04</totfact>
</mgrwt>
</event>
<event>
 9    1  0.8175317E-001  0.2740694E+03  0.7818608E-02  0.1098973E+00
         -2   -1    0    0    0  501 -0.00000000000E+00  0.00000000000E+00  0.84508261247E+01  0.84508261247E+01  0.00000000000E+00 0. -1.
          2   -1    0    0  501    0  0.00000000000E+00 -0.00000000000E+00 -0.22220922600E+04  0.22220922600E+04  0.00000000000E+00 0. -1.
         35    2    1    2    0    0  0.00000000000E+00 -0.88817841970E-15 -0.22136414338E+04  0.22305430861E+04  0.27406944611E+03 0.  0.
         25    2    3    3    0    0  0.42210802257E+02 -0.77979459022E+01 -0.81359457193E+03  0.82425652150E+03  0.12498050239E+03 0.  0.
         25    2    3    3    0    0 -0.42210802257E+02  0.77979459022E+01 -0.14000468619E+04  0.14062865646E+04  0.12517238677E+03 0.  0.
          5    1    4    4  502    0  0.74431299826E+02 -0.29183030129E+02 -0.69089893359E+03  0.69552504921E+03  0.47000000000E+01 0.  1.
         -5    1    4    4    0  502 -0.32220497569E+02  0.21385084227E+02 -0.12269563834E+03  0.12873147229E+03  0.47000000000E+01 0.  1.
          5    1    5    5  503    0 -0.42666648336E+02  0.82327726568E+01 -0.14008029385E+04  0.14014846356E+04  0.47000000000E+01 0. -1.
         -5    1    5    5    0  503  0.45584607869E+00 -0.43482675453E+00  0.75607657665E+00  0.48019289607E+01  0.47000000000E+01 0. -1.
<mgrwt>
<rscale>  0 0.27406945E+03</rscale>
<asrwt>0</asrwt>
<pdfrwt beam="1">  1        2 0.34186032E+00 0.27406945E+03</pdfrwt>
<pdfrwt beam="2">  1       -2 0.13001272E-02 0.27406945E+03</pdfrwt>
<totfact> 0.82415942E+03</totfact>
</mgrwt>
</event>
<event>
 9    1  0.8175317E-001  0.2639879E+03  0.7818608E-02  0.1104771E+00
         -1   -1    0    0    0  501 -0.00000000000E+00  0.00000000000E+00  0.11774515126E+02  0.11774515126E+02  0.00000000000E+00 0.  1.
          1   -1    0    0  501    0  0.00000000000E+00 -0.00000000000E+00 -0.14796703686E+04  0.14796703686E+04  0.00000000000E+00 0.  1.
         35    2    1    2    0    0  0.00000000000E+00  0.00000000000E+00 -0.14678958535E+04  0.14914448837E+04  0.26398788712E+03 0.  0.
         25    2    3    3    0    0  0.52170760897E+01 -0.34868235353E+02 -0.88096626825E+03  0.89044828571E+03  0.12471396079E+03 0.  0.
         25    2    3    3    0    0 -0.52170760897E+01  0.34868235353E+02 -0.58692958520E+03  0.60099659799E+03  0.12436864995E+03 0.  0.
          5    1    4    4  502    0  0.59470163029E+02 -0.44143879375E+02 -0.52597962983E+03  0.53118927265E+03  0.47000000000E+01 0. -1.
         -5    1    4    4    0  502 -0.54253086939E+02  0.92756440226E+01 -0.35498663842E+03  0.35925901307E+03  0.47000000000E+01 0. -1.
          5    1    5    5  503    0 -0.62780177827E+02  0.36719875561E+01 -0.25957689112E+03  0.26712747261E+03  0.47000000000E+01 0.  1.
         -5    1    5    5    0  503  0.57563101738E+02  0.31196247796E+02 -0.32735269408E+03  0.33386912538E+03  0.47000000000E+01 0.  1.
<mgrwt>
<rscale>  0 0.26398789E+03</rscale>
<asrwt>0</asrwt>
<pdfrwt beam="1">  1        1 0.22764139E+00 0.26398789E+03</pdfrwt>
<pdfrwt beam="2">  1       -1 0.18114655E-02 0.26398789E+03</pdfrwt>
<totfact> 0.58472319E+03</totfact>
</mgrwt>
</event>
<event>
 9    1  0.8175317E-001  0.2773863E+03  0.7818608E-02  0.1097125E+00
          2   -1    0    0  501    0  0.00000000000E+00  0.00000000000E+00  0.93068178237E+02  0.93068178237E+02  0.00000000000E+00 0.  1.
         -2   -1    0    0    0  501 -0.00000000000E+00 -0.00000000000E+00 -0.20668491234E+03  0.20668491234E+03  0.00000000000E+00 0.  1.
         35    2    1    2    0    0  0.00000000000E+00  0.00000000000E+00 -0.11361673411E+03  0.29975309058E+03  0.27738628849E+03 0.  0.
         25    2    3    3    0    0 -0.19693232849E+02  0.35832189136E+02 -0.62311201100E+01  0.13003680126E+03  0.12328411749E+03 0.  0.
         25    2    3    3    0    0  0.19693232849E+02 -0.35832189136E+02 -0.10738561400E+03  0.16971628932E+03  0.12490067882E+03 0.  0.
          5    1    4    4  502    0  0.11081159547E+02  0.75174554406E+02 -0.18587066795E+02  0.78368200050E+02  0.47000000000E+01 0. -1.
         -5    1    4    4    0  502 -0.30774392396E+02 -0.39342365270E+02  0.12355946685E+02  0.51668601209E+02  0.47000000000E+01 0. -1.
          5    1    5    5  503    0  0.15908681329E+02 -0.78658300204E+02 -0.40367458533E+02  0.89954633238E+02  0.47000000000E+01 0.  1.
         -5    1    5    5    0  503  0.37845515204E+01  0.42826111068E+02 -0.67018155463E+02  0.79761656082E+02  0.47000000000E+01 0.  1.
<mgrwt>
<rscale>  0 0.27738629E+03</rscale>
<asrwt>0</asrwt>
<pdfrwt beam="1">  1        2 0.14318181E-01 0.27738629E+03</pdfrwt>
<pdfrwt beam="2">  1       -2 0.31797679E-01 0.27738629E+03</pdfrwt>
<totfact> 0.37677860E+03</totfact>
</mgrwt>
</event>
<event>
 9    1  0.8175317E-001  0.2806414E+03  0.7818608E-02  0.1095339E+00
         -1   -1    0    0    0  501 -0.00000000000E+00  0.00000000000E+00  0.36055597676E+02  0.36055597676E+02  0.00000000000E+00 0.  1.
          1   -1    0    0  501    0  0.00000000000E+00 -0.00000000000E+00 -0.54609835905E+03  0.54609835905E+03  0.00000000000E+00 0.  1.
         35    2    1    2    0    0  0.53290705182E-14  0.00000000000E+00 -0.51004276137E+03  0.58215395672E+03  0.28064142763E+03 0.  0.
         25    2    3    3    0    0 -0.51188591048E+01 -0.65071233983E+02 -0.27908785491E+03  0.31131875033E+03  0.12152722056E+03 0.  0.
         25    2    3    3    0    0  0.51188591048E+01  0.65071233983E+02 -0.23095490646E+03  0.27083520639E+03  0.12550327483E+03 0.  0.
          5    1    4    4  502    0  0.92092190510E+01 -0.60152735767E+02 -0.42910505912E+02  0.74609401910E+02  0.47000000000E+01 0.  1.
         -5    1    4    4    0  502 -0.14328078156E+02 -0.49184982165E+01 -0.23617734900E+03  0.23670934842E+03  0.47000000000E+01 0.  1.
          5    1    5    5  503    0  0.62247446464E+02  0.33576530292E+02 -0.83515157907E+02  0.10953994512E+03  0.47000000000E+01 0.  1.
         -5    1    5    5    0  503 -0.57128587360E+02  0.31494703691E+02 -0.14743974855E+03  0.16129526127E+03  0.47000000000E+01 0.  1.
<mgrwt>
<rscale>  0 0.28064143E+03</rscale>
<asrwt>0</asrwt>
<pdfrwt beam="1">  1        1 0.84015131E-01 0.28064143E+03</pdfrwt>
<pdfrwt beam="2">  1       -1 0.55470151E-02 0.28064143E+03</pdfrwt>
<totfact> 0.60093834E+03</totfact>
</mgrwt>
</event>
<event>
 9    1  0.8175317E-001  0.2813228E+03  0.7818608E-02  0.1094969E+00
         -2   -1    0    0    0  501 -0.00000000000E+00  0.00000000000E+00  0.10179438947E+02  0.10179438947E+02  0.00000000000E+00 0.  1.
          2   -1    0    0  501    0  0.00000000000E+00 -0.00000000000E+00 -0.19436862690E+04  0.19436862690E+04  0.00000000000E+00 0.  1.
         35    2    1    2    0    0  0.71054273576E-14  0.00000000000E+00 -0.19335068301E+04  0.19538657080E+04  0.28132284449E+03 0.  0.
         25    2    3    3    0    0 -0.24806433559E+02  0.56880071155E+02 -0.81742619573E+03  0.82922821936E+03  0.12483249849E+03 0.  0.
         25    2    3    3    0    0  0.24806433559E+02 -0.56880071155E+02 -0.11160806344E+04  0.11246374886E+04  0.12378528499E+03 0.  0.
          5    1    4    4  502    0  0.24762584734E+02  0.46423156460E+02 -0.13589593744E+03  0.14580154619E+03  0.47000000000E+01 0.  1.
         -5    1    4    4    0  502 -0.49569018292E+02  0.10456914695E+02 -0.68153025829E+03  0.68342667318E+03  0.47000000000E+01 0.  1.
          5    1    5    5  503    0  0.45683653665E+02  0.20399190615E+02 -0.26015265212E+03  0.26496153607E+03  0.47000000000E+01 0. -1.
         -5    1    5    5    0  503 -0.20877220107E+02 -0.77279261769E+02 -0.85592798224E+03  0.85967595255E+03  0.47000000000E+01 0. -1.
<mgrwt>
<rscale>  0 0.28132284E+03</rscale>
<asrwt>0</asrwt>
<pdfrwt beam="1">  1        2 0.29902874E+00 0.28132284E+03</pdfrwt>
<pdfrwt beam="2">  1       -2 0.15660671E-02 0.28132284E+03</pdfrwt>
<totfact> 0.88121436E+03</totfact>
</mgrwt>
</event>
<event>
 9    1  0.8175317E-001  0.2744413E+03  0.7818608E-02  0.1098764E+00
          2   -1    0    0  501    0  0.00000000000E+00  0.00000000000E+00  0.31098279345E+03  0.31098279345E+03  0.00000000000E+00 0. -1.
         -2   -1    0    0    0  501 -0.00000000000E+00 -0.00000000000E+00 -0.60548379665E+02  0.60548379665E+02  0.00000000000E+00 0. -1.
         35    2    1    2    0    0  0.00000000000E+00  0.00000000000E+00  0.25043441378E+03  0.37153117311E+03  0.27444128149E+03 0.  0.
         25    2    3    3    0    0 -0.28977807999E+02 -0.52033747728E+01  0.70081735284E+02  0.14816809572E+03  0.12718312193E+03 0.  0.
         25    2    3    3    0    0  0.28977807999E+02  0.52033747728E+01  0.18035267850E+03  0.22336307739E+03  0.12844137665E+03 0.  0.
          5    1    4    4  502    0  0.47832169861E+02 -0.12943864764E+02  0.11347091607E+02  0.51051998948E+02  0.47000000000E+01 0.  1.
         -5    1    4    4    0  502 -0.76809977860E+02  0.77404899916E+01  0.58734643677E+02  0.97116096771E+02  0.47000000000E+01 0.  1.
          5    1    5    5  503    0 -0.40183947568E+02  0.47266689432E+01  0.13379201695E+03  0.13985522815E+03  0.47000000000E+01 0.  1.
         -5    1    5    5    0  503  0.69161755567E+02  0.47670582962E+00  0.46560661554E+02  0.83507849247E+02  0.47000000000E+01 0.  1.
<mgrwt>
<rscale>  0 0.27444128E+03</rscale>
<asrwt>0</asrwt>
<pdfrwt beam="1">  1        2 0.47843506E-01 0.27444128E+03</pdfrwt>
<pdfrwt beam="2">  1       -2 0.93151356E-02 0.27444128E+03</pdfrwt>
<totfact> 0.77546601E+03</totfact>
</mgrwt>
</event>
<event>
 9    1  0.8175317E-001  0.2787881E+03  0.7818608E-02  0.1096353E+00
          2   -1    0    0  501    0  0.00000000000E+00  0.00000000000E+00  0.20136756798E+04  0.20136756798E+04  0.00000000000E+00 0. -1.
         -2   -1    0    0    0  501 -0.00000000000E+00 -0.00000000000E+00 -0.96493700688E+01  0.96493700688E+01  0.00000000000E+00 0. -1.
         35    2    1    2    0    0  0.00000000000E+00  0.71054273576E-14  0.20040263097E+04  0.20233250498E+04  0.27878810471E+03 0.  0.
         25    2    3    3    0    0 -0.32059364345E+01  0.41622948860E+02  0.68785953448E+03  0.70032078048E+03  0.12472252598E+03 0.  0.
         25    2    3    3    0    0  0.32059364345E+01 -0.41622948860E+02  0.13161667752E+04  0.13230042694E+04  0.12768151261E+03 0.  0.
          5    1    4    4  502    0  0.29738699034E+02  0.57313457357E+02  0.61784857493E+03  0.62123117610E+03  0.47000000000E+01 0. -1.
         -5    1    4    4    0  502 -0.32944635468E+02 -0.15690508497E+02  0.70010959553E+02  0.79089604378E+02  0.47000000000E+01 0. -1.
          5    1    5    5  503    0  0.36770180685E+02 -0.76301465863E+02  0.75667885862E+03  0.76141903375E+03  0.47000000000E+01 0.  1.
         -5    1    5    5    0  503 -0.33564244251E+02  0.34678517003E+02  0.55948791659E+03  0.56158523560E+03  0.47000000000E+01 0.  1.
<mgrwt>
<rscale>  0 0.27878810E+03</rscale>
<asrwt>0</asrwt>
<pdfrwt beam="1">  1        2 0.30979592E+00 0.27878810E+03</pdfrwt>
<pdfrwt beam="2">  1       -2 0.14845201E-02 0.27878810E+03</pdfrwt>
<totfact> 0.87543833E+03</totfact>
</mgrwt>
</event>
<event>
 9    1  0.8175317E-001  0.2774483E+03  0.7818608E-02  0.1097091E+00
         -2   -1    0    0    0  501 -0.00000000000E+00  0.00000000000E+00  0.50810355203E+02  0.50810355203E+02  0.00000000000E+00 0. -1.
          2   -1    0    0  501    0  0.00000000000E+00 -0.00000000000E+00 -0.37874938327E+03  0.37874938327E+03  0.00000000000E+00 0. -1.
         35    2    1    2    0    0  0.14210854715E-13  0.00000000000E+00 -0.32793902807E+03  0.42955973847E+03  0.27744830651E+03 0.  0.
         25    2    3    3    0    0  0.43350398290E+02 -0.29495209599E+02 -0.21008992331E+03  0.25013804161E+03  0.12522795041E+03 0.  0.
         25    2    3    3    0    0 -0.43350398290E+02  0.29495209599E+02 -0.11784910476E+03  0.17942169686E+03  0.12471771883E+03 0.  0.
          5    1    4    4  502    0  0.39886847180E+00  0.47655045279E+01  0.16038278630E+02  0.17383483853E+02  0.47000000000E+01 0. -1.
         -5    1    4    4    0  502  0.42951529818E+02 -0.34260714127E+02 -0.22612820194E+03  0.23275455776E+03  0.47000000000E+01 0. -1.
          5    1    5    5  503    0 -0.86500773835E+02  0.12354459113E+02 -0.87540799706E+02  0.12377599988E+03  0.47000000000E+01 0. -1.
         -5    1    5    5    0  503  0.43150375546E+02  0.17140750486E+02 -0.30308305057E+02  0.55645696980E+02  0.47000000000E+01 0. -1.
<mgrwt>
<rscale>  0 0.27744831E+03</rscale>
<asrwt>0</asrwt>
<pdfrwt beam="1">  1        2 0.58269136E-01 0.27744831E+03</pdfrwt>
<pdfrwt beam="2">  1       -2 0.78169777E-02 0.27744831E+03</pdfrwt>
<totfact> 0.82587630E+03</totfact>
</mgrwt>
</event>
<event>
 9    1  0.8175317E-001  0.2741627E+03  0.7818608E-02  0.1098921E+00
         -1   -1    0    0    0  501 -0.00000000000E+00  0.00000000000E+00  0.22369262333E+02  0.22369262333E+02  0.00000000000E+00 0.  1.
          1   -1    0    0  501    0  0.00000000000E+00 -0.00000000000E+00 -0.84004959747E+03  0.84004959747E+03  0.00000000000E+00 0.  1.
         35    2    1    2    0    0 -0.14210854715E-13  0.35527136788E-14 -0.81768033514E+03  0.86241885980E+03  0.27416265113E+03 0.  0.
         25    2    3    3    0    0 -0.45356314893E+02  0.10518334368E+02 -0.30935541597E+03  0.33690017245E+03  0.12503248437E+03 0.  0.
         25    2    3    3    0    0  0.45356314893E+02 -0.10518334368E+02 -0.50832491916E+03  0.52551868735E+03  0.12493132776E+03 0.  0.
          5    1    4    4  502    0  0.29835869390E+02 -0.28001854212E+01 -0.20647106801E+03  0.20868735483E+03  0.47000000000E+01 0.  1.
         -5    1    4    4    0  502 -0.75192184283E+02  0.13318519789E+02 -0.10288434796E+03  0.12821281762E+03  0.47000000000E+01 0.  1.
          5    1    5    5  503    0 -0.40534293349E+02 -0.20474939944E+01 -0.24464665078E+03  0.24803486631E+03  0.47000000000E+01 0. -1.
         -5    1    5    5    0  503  0.85890608242E+02 -0.84708403735E+01 -0.26367826838E+03  0.27748382104E+03  0.47000000000E+01 0. -1.
<mgrwt>
<rscale>  0 0.27416265E+03</rscale>
<asrwt>0</asrwt>
<pdfrwt beam="1">  1        1 0.12923840E+00 0.27416265E+03</pdfrwt>
<pdfrwt beam="2">  1       -1 0.34414250E-02 0.27416265E+03</pdfrwt>
<totfact> 0.65555362E+03</totfact>
</mgrwt>
</event>
<event>
 9    1  0.8175317E-001  0.2746737E+03  0.7818608E-02  0.1098634E+00
          1   -1    0    0  501    0  0.00000000000E+00  0.00000000000E+00  0.20282452346E+04  0.20282452346E+04  0.00000000000E+00 0. -1.
         -1   -1    0    0    0  501 -0.00000000000E+00 -0.00000000000E+00 -0.92993758680E+01  0.92993758680E+01  0.00000000000E+00 0. -1.
         35    2    1    2    0    0  0.00000000000E+00  0.00000000000E+00  0.20189458588E+04  0.20375446105E+04  0.27467373220E+03 0.  0.
         25    2    3    3    0    0 -0.44856740578E+02  0.11741494687E+02  0.12562746605E+04  0.12633775174E+04  0.12548601099E+03 0.  0.
         25    2    3    3    0    0  0.44856740578E+02 -0.11741494687E+02  0.76267119825E+03  0.77416709310E+03  0.12456862175E+03 0.  0.
          5    1    4    4  502    0 -0.19579796381E+02 -0.20069490652E+02  0.59903746526E+02  0.66307629495E+02  0.47000000000E+01 0.  1.
         -5    1    4    4    0  502 -0.25276944197E+02  0.31810985340E+02  0.11963709140E+04  0.11970698879E+04  0.47000000000E+01 0.  1.
          5    1    5    5  503    0 -0.15190260088E+02  0.29472792387E+00  0.60117128459E+03  0.60138160454E+03  0.47000000000E+01 0. -1.
         -5    1    5    5    0  503  0.60047000666E+02 -0.12036222611E+02  0.16149991367E+03  0.17278548857E+03  0.47000000000E+01 0. -1.
<mgrwt>
<rscale>  0 0.27467373E+03</rscale>
<asrwt>0</asrwt>
<pdfrwt beam="1">  1        1 0.31203738E+00 0.27467373E+03</pdfrwt>
<pdfrwt beam="2">  1       -1 0.14306748E-02 0.27467373E+03</pdfrwt>
<totfact> 0.36164270E+03</totfact>
</mgrwt>
</event>
<event>
 9    1  0.8175317E-001  0.2733373E+03  0.7818608E-02  0.1099385E+00
         -1   -1    0    0    0  501 -0.00000000000E+00  0.00000000000E+00  0.36029417207E+02  0.36029417207E+02  0.00000000000E+00 0.  1.
          1   -1    0    0  501    0  0.00000000000E+00 -0.00000000000E+00 -0.51841861256E+03  0.51841861256E+03  0.00000000000E+00 0.  1.
         35    2    1    2    0    0 -0.44408920985E-15  0.00000000000E+00 -0.48238919535E+03  0.55444802976E+03  0.27333730430E+03 0.  0.
         25    2    3    3    0    0 -0.43412225228E+00  0.10506489509E+02 -0.34960762627E+03  0.37159566286E+03  0.12548812504E+03 0.  0.
         25    2    3    3    0    0  0.43412225228E+00 -0.10506489509E+02 -0.13278156908E+03  0.18285236690E+03  0.12527357348E+03 0.  0.
          5    1    4    4  502    0 -0.39719639375E+01  0.30645198384E+02 -0.12226938231E+02  0.33563264144E+02  0.47000000000E+01 0. -1.
         -5    1    4    4    0  502  0.35378416852E+01 -0.20138708875E+02 -0.33738068804E+03  0.33803239872E+03  0.47000000000E+01 0. -1.
          5    1    5    5  503    0 -0.38863584967E+02  0.20803756484E+02 -0.39707929042E+01  0.44508782466E+02  0.47000000000E+01 0.  1.
         -5    1    5    5    0  503  0.39297707219E+02 -0.31310245992E+02 -0.12881077617E+03  0.13834358444E+03  0.47000000000E+01 0.  1.
<mgrwt>
<rscale>  0 0.27333730E+03</rscale>
<asrwt>0</asrwt>
<pdfrwt beam="1">  1        1 0.79756711E-01 0.27333730E+03</pdfrwt>
<pdfrwt beam="2">  1       -1 0.55429872E-02 0.27333730E+03</pdfrwt>
<totfact> 0.64475514E+03</totfact>
</mgrwt>
</event>
<event>
 9    1  0.8175317E-001  0.2741023E+03  0.7818608E-02  0.1098954E+00
          2   -1    0    0  501    0  0.00000000000E+00  0.00000000000E+00  0.42130056701E+03  0.42130056701E+03  0.00000000000E+00 0.  1.
         -2   -1    0    0    0  501 -0.00000000000E+00 -0.00000000000E+00 -0.44583418972E+02  0.44583418972E+02  0.00000000000E+00 0.  1.
         35    2    1    2    0    0 -0.71054273576E-14  0.00000000000E+00  0.37671714804E+03  0.46588398599E+03  0.27410231442E+03 0.  0.
         25    2    3    3    0    0  0.50066140248E+02  0.41458448387E+01  0.14283097467E+03  0.19577165708E+03  0.12410498766E+03 0.  0.
         25    2    3    3    0    0 -0.50066140248E+02 -0.41458448387E+01  0.23388617337E+03  0.27011232890E+03  0.12543572738E+03 0.  0.
          5    1    4    4  502    0  0.59463231902E+02  0.55282328875E+02  0.93866823953E+02  0.12419775551E+03  0.47000000000E+01 0.  1.
         -5    1    4    4    0  502 -0.93970916536E+01 -0.51136484036E+02  0.48964150721E+02  0.71573901577E+02  0.47000000000E+01 0.  1.
          5    1    5    5  503    0 -0.63006580939E+01 -0.58833909393E+02  0.69712399985E+02  0.91558920366E+02  0.47000000000E+01 0. -1.
         -5    1    5    5    0  503 -0.43765482154E+02  0.54688064554E+02  0.16417377338E+03  0.17855340854E+03  0.47000000000E+01 0. -1.
<mgrwt>
<rscale>  0 0.27410231E+03</rscale>
<asrwt>0</asrwt>
<pdfrwt beam="1">  1        2 0.64815469E-01 0.27410231E+03</pdfrwt>
<pdfrwt beam="2">  1       -2 0.68589878E-02 0.27410231E+03</pdfrwt>
<totfact> 0.90080648E+03</totfact>
</mgrwt>
</event>
<event>
 9    1  0.8175317E-001  0.2730440E+03  0.7818608E-02  0.1099550E+00
          2   -1    0    0  501    0  0.00000000000E+00  0.00000000000E+00  0.26075235239E+03  0.26075235239E+03  0.00000000000E+00 0. -1.
         -2   -1    0    0    0  501 -0.00000000000E+00 -0.00000000000E+00 -0.71478787540E+02  0.71478787540E+02  0.00000000000E+00 0. -1.
         35    2    1    2    0    0 -0.35527136788E-14  0.14210854715E-13  0.18927356485E+03  0.33223113993E+03  0.27304404038E+03 0.  0.
         25    2    3    3    0    0 -0.15342995803E+02  0.49216274015E+02  0.72564512769E+02  0.15272374535E+03  0.12410191269E+03 0.  0.
         25    2    3    3    0    0  0.15342995803E+02 -0.49216274015E+02  0.11670905208E+03  0.17950739458E+03  0.12627055366E+03 0.  0.
          5    1    4    4  502    0  0.32743635675E+02  0.76670546693E+01 -0.20699786456E+02  0.39768084739E+02  0.47000000000E+01 0. -1.
         -5    1    4    4    0  502 -0.48086631478E+02  0.41549219346E+02  0.93264299225E+02  0.11295566062E+03  0.47000000000E+01 0. -1.
          5    1    5    5  503    0  0.34170491865E+02  0.18950620144E+02 -0.39697926880E+01  0.39554996804E+02  0.47000000000E+01 0. -1.
         -5    1    5    5    0  503 -0.18827496063E+02 -0.68166894159E+02  0.12067884477E+03  0.13995239777E+03  0.47000000000E+01 0. -1.
<mgrwt>
<rscale>  0 0.27304404E+03</rscale>
<asrwt>0</asrwt>
<pdfrwt beam="1">  1        2 0.40115746E-01 0.27304404E+03</pdfrwt>
<pdfrwt beam="2">  1       -2 0.10996737E-01 0.27304404E+03</pdfrwt>
<totfact> 0.71964097E+03</totfact>
</mgrwt>
</event>
<event>
 9    1  0.8175317E-001  0.2689938E+03  0.7818608E-02  0.1101857E+00
          4   -1    0    0  501    0  0.00000000000E+00  0.00000000000E+00  0.47482687358E+02  0.47482687358E+02  0.00000000000E+00 0. -1.
         -4   -1    0    0    0  501 -0.00000000000E+00 -0.00000000000E+00 -0.38096862450E+03  0.38096862450E+03  0.00000000000E+00 0. -1.
         35    2    1    2    0    0  0.00000000000E+00 -0.17763568394E-14 -0.33348593714E+03  0.42845131185E+03  0.26899378498E+03 0.  0.
         25    2    3    3    0    0 -0.13794270124E+02  0.22278580964E+01 -0.24392161457E+03  0.27403780338E+03  0.12411171735E+03 0.  0.
         25    2    3    3    0    0  0.13794270124E+02 -0.22278580964E+01 -0.89564322569E+02  0.15441350848E+03  0.12500607379E+03 0.  0.
          5    1    4    4  502    0  0.27743317247E+02 -0.19553785673E+02 -0.21713354969E+03  0.21982063276E+03  0.47000000000E+01 0.  1.
         -5    1    4    4    0  502 -0.41537587371E+02  0.21781643769E+02 -0.26788064885E+02  0.54217170621E+02  0.47000000000E+01 0.  1.
          5    1    5    5  503    0  0.16520356032E+02  0.14616396387E+02  0.27757082987E+02  0.35764603489E+02  0.47000000000E+01 0. -1.
         -5    1    5    5    0  503 -0.27260859082E+01 -0.16844254484E+02 -0.11732140556E+03  0.11864890499E+03  0.47000000000E+01 0. -1.
<mgrwt>
<rscale>  0 0.26899378E+03</rscale>
<asrwt>0</asrwt>
<pdfrwt beam="1">  1        4 0.73050288E-02 0.26899378E+03</pdfrwt>
<pdfrwt beam="2">  1       -4 0.58610557E-01 0.26899378E+03</pdfrwt>
<totfact> 0.66895087E+02</totfact>
</mgrwt>
</event>
<event>
 9    1  0.8175317E-001  0.2761415E+03  0.7818608E-02  0.1097815E+00
         -2   -1    0    0    0  501 -0.00000000000E+00  0.00000000000E+00  0.48705247539E+02  0.48705247539E+02  0.00000000000E+00 0. -1.
          2   -1    0    0  501    0  0.00000000000E+00 -0.00000000000E+00 -0.39140622697E+03  0.39140622697E+03  0.00000000000E+00 0. -1.
         35    2    1    2    0    0  0.00000000000E+00 -0.71054273576E-14 -0.34270097943E+03  0.44011147451E+03  0.27614153742E+03 0.  0.
         25    2    3    3    0    0  0.33446661598E+02 -0.23950124019E+02 -0.10269098583E+03  0.16752807334E+03  0.12580909814E+03 0.  0.
         25    2    3    3    0    0 -0.33446661598E+02  0.23950124019E+02 -0.24000999360E+03  0.27258340117E+03  0.12249337104E+03 0.  0.
          5    1    4    4  502    0  0.25047329894E+01 -0.69983997056E+02 -0.82495455996E+02  0.10831262065E+03  0.47000000000E+01 0. -1.
         -5    1    4    4    0  502  0.30941928608E+02  0.46033873036E+02 -0.20195529830E+02  0.59215452695E+02  0.47000000000E+01 0. -1.
          5    1    5    5  503    0 -0.13224796194E+02  0.37410178868E+02 -0.99232018260E+01  0.41170094144E+02  0.47000000000E+01 0.  1.
         -5    1    5    5    0  503 -0.20221865403E+02 -0.13460054849E+02 -0.23008679178E+03  0.23141330702E+03  0.47000000000E+01 0.  1.
<mgrwt>
<rscale>  0 0.27614154E+03</rscale>
<asrwt>0</asrwt>
<pdfrwt beam="1">  1        2 0.60216343E-01 0.27614154E+03</pdfrwt>
<pdfrwt beam="2">  1       -2 0.74931150E-02 0.27614154E+03</pdfrwt>
<totfact> 0.85111984E+03</totfact>
</mgrwt>
</event>
<event>
 9    1  0.8175317E-001  0.2764183E+03  0.7818608E-02  0.1097661E+00
          2   -1    0    0  501    0  0.00000000000E+00  0.00000000000E+00  0.13106269952E+04  0.13106269952E+04  0.00000000000E+00 0. -1.
         -2   -1    0    0    0  501 -0.00000000000E+00 -0.00000000000E+00 -0.14574530233E+02  0.14574530233E+02  0.00000000000E+00 0. -1.
         35    2    1    2    0    0  0.00000000000E+00  0.17763568394E-14  0.12960524650E+04  0.13252015255E+04  0.27641832621E+03 0.  0.
         25    2    3    3    0    0 -0.57576118019E+02 -0.13141479956E+02  0.57863691200E+03  0.59467527766E+03  0.12381559701E+03 0.  0.
         25    2    3    3    0    0  0.57576118019E+02  0.13141479956E+02  0.71741555301E+03  0.73052624782E+03  0.12448218826E+03 0.  0.
          5    1    4    4  502    0 -0.55741749146E+02  0.10169021099E+02  0.56364316784E+03  0.56650354124E+03  0.47000000000E+01 0.  1.
         -5    1    4    4    0  502 -0.18343688728E+01 -0.23310501055E+02  0.14993744164E+02  0.28171736415E+02  0.47000000000E+01 0.  1.
          5    1    5    5  503    0  0.37480862970E+02 -0.80159794837E+01  0.53645049590E+02  0.66098051118E+02  0.47000000000E+01 0.  1.
         -5    1    5    5    0  503  0.20095255049E+02  0.21157459440E+02  0.66377050342E+03  0.66442819670E+03  0.47000000000E+01 0.  1.
<mgrwt>
<rscale>  0 0.27641833E+03</rscale>
<asrwt>0</asrwt>
<pdfrwt beam="1">  1        2 0.20163483E+00 0.27641833E+03</pdfrwt>
<pdfrwt beam="2">  1       -2 0.22422364E-02 0.27641833E+03</pdfrwt>
<totfact> 0.11295803E+04</totfact>
</mgrwt>
</event>
<event>
 9    1  0.8175317E-001  0.2675187E+03  0.7818608E-02  0.1102708E+00
         -1   -1    0    0    0  501 -0.00000000000E+00  0.00000000000E+00  0.47075963237E+02  0.47075963237E+02  0.00000000000E+00 0.  1.
          1   -1    0    0  501    0  0.00000000000E+00 -0.00000000000E+00 -0.38005740510E+03  0.38005740510E+03  0.00000000000E+00 0.  1.
         35    2    1    2    0    0  0.00000000000E+00  0.00000000000E+00 -0.33298144186E+03  0.42713336833E+03  0.26751873527E+03 0.  0.
         25    2    3    3    0    0  0.22360623056E+02 -0.26648762896E+02 -0.12380936530E+03  0.18093350941E+03  0.12727144951E+03 0.  0.
         25    2    3    3    0    0 -0.22360623056E+02  0.26648762896E+02 -0.20917207655E+03  0.24619985893E+03  0.12510499150E+03 0.  0.
          5    1    4    4  502    0 -0.50263764997E+02 -0.71286348389E+01 -0.25313913349E+02  0.56922295416E+02  0.47000000000E+01 0.  1.
         -5    1    4    4    0  502  0.72624388053E+02 -0.19520128058E+02 -0.98495451955E+02  0.12401121399E+03  0.47000000000E+01 0.  1.
          5    1    5    5  503    0  0.10905787431E+02  0.69364594149E+02 -0.82980147527E+02  0.10880339151E+03  0.47000000000E+01 0. -1.
         -5    1    5    5    0  503 -0.33266410486E+02 -0.42715831253E+02 -0.12619192903E+03  0.13739646741E+03  0.47000000000E+01 0. -1.
<mgrwt>
<rscale>  0 0.26751874E+03</rscale>
<asrwt>0</asrwt>
<pdfrwt beam="1">  1        1 0.58470369E-01 0.26751874E+03</pdfrwt>
<pdfrwt beam="2">  1       -1 0.72424560E-02 0.26751874E+03</pdfrwt>
<totfact> 0.64441866E+03</totfact>
</mgrwt>
</event>
<event>
 9    1  0.8175317E-001  0.2752192E+03  0.7818608E-02  0.1098329E+00
         -1   -1    0    0    0  501 -0.00000000000E+00  0.00000000000E+00  0.30044104495E+02  0.30044104495E+02  0.00000000000E+00 0. -1.
          1   -1    0    0  501    0  0.00000000000E+00 -0.00000000000E+00 -0.63028659139E+03  0.63028659139E+03  0.00000000000E+00 0. -1.
         35    2    1    2    0    0  0.00000000000E+00  0.00000000000E+00 -0.60024248689E+03  0.66033069588E+03  0.27521915786E+03 0.  0.
         25    2    3    3    0    0 -0.52799213285E+02  0.17751059975E+02 -0.27372681472E+03  0.30629676951E+03  0.12565223779E+03 0.  0.
         25    2    3    3    0    0  0.52799213285E+02 -0.17751059975E+02 -0.32651567217E+03  0.35403392637E+03  0.12499871917E+03 0.  0.
          5    1    4    4  502    0 -0.87181282792E+02 -0.13456271834E+02 -0.20497860500E+03  0.22320386607E+03  0.47000000000E+01 0. -1.
         -5    1    4    4    0  502  0.34382069508E+02  0.31207331809E+02 -0.68748209714E+02  0.83092903435E+02  0.47000000000E+01 0. -1.
          5    1    5    5  503    0  0.13359780393E+02 -0.39906748836E+02 -0.29657600353E+03  0.29958379162E+03  0.47000000000E+01 0.  1.
         -5    1    5    5    0  503  0.39439432892E+02  0.22155688861E+02 -0.29939668647E+02  0.54450134751E+02  0.47000000000E+01 0.  1.
<mgrwt>
<rscale>  0 0.27521916E+03</rscale>
<asrwt>0</asrwt>
<pdfrwt beam="1">  1        1 0.96967170E-01 0.27521916E+03</pdfrwt>
<pdfrwt beam="2">  1       -1 0.46221698E-02 0.27521916E+03</pdfrwt>
<totfact> 0.64764511E+03</totfact>
</mgrwt>
</event>
<event>
 9    1  0.8175317E-001  0.2759820E+03  0.7818608E-02  0.1097904E+00
          1   -1    0    0  501    0  0.00000000000E+00  0.00000000000E+00  0.90722542778E+03  0.90722542778E+03  0.00000000000E+00 0.  1.
         -1   -1    0    0    0  501 -0.00000000000E+00 -0.00000000000E+00 -0.20988739027E+02  0.20988739027E+02  0.00000000000E+00 0.  1.
         35    2    1    2    0    0  0.00000000000E+00  0.00000000000E+00  0.88623668875E+03  0.92821416681E+03  0.27598201204E+03 0.  0.
         25    2    3    3    0    0  0.47325909184E+02  0.36607845113E+02  0.43022532124E+03  0.45156177577E+03  0.12342744546E+03 0.  0.
         25    2    3    3    0    0 -0.47325909184E+02 -0.36607845113E+02  0.45601136751E+03  0.47665239104E+03  0.12518489757E+03 0.  0.
          5    1    4    4  502    0 -0.11176612846E+02 -0.37374807103E+02  0.17678932825E+03  0.18110314593E+03  0.47000000000E+01 0.  1.
         -5    1    4    4    0  502  0.58502522030E+02  0.73982652215E+02  0.25343599299E+03  0.27045862984E+03  0.47000000000E+01 0.  1.
          5    1    5    5  503    0 -0.54327322978E+02  0.38630284570E+01  0.41442242140E+03  0.41801245720E+03  0.47000000000E+01 0.  1.
         -5    1    5    5    0  503  0.70014137943E+01 -0.40470873570E+02  0.41588946108E+02  0.58639933842E+02  0.47000000000E+01 0.  1.
<mgrwt>
<rscale>  0 0.27598201E+03</rscale>
<asrwt>0</asrwt>
<pdfrwt beam="1">  1        1 0.13957311E+00 0.27598201E+03</pdfrwt>
<pdfrwt beam="2">  1       -1 0.32290375E-02 0.27598201E+03</pdfrwt>
<totfact> 0.63683383E+03</totfact>
</mgrwt>
</event>
<event>
 9    1  0.8175317E-001  0.2717170E+03  0.7818608E-02  0.1100301E+00
         -2   -1    0    0    0  501 -0.00000000000E+00  0.00000000000E+00  0.11580838809E+02  0.11580838809E+02  0.00000000000E+00 0. -1.
          2   -1    0    0  501    0  0.00000000000E+00 -0.00000000000E+00 -0.15937987168E+04  0.15937987168E+04  0.00000000000E+00 0. -1.
         35    2    1    2    0    0 -0.35527136788E-14  0.00000000000E+00 -0.15822178780E+04  0.16053795557E+04  0.27171695593E+03 0.  0.
         25    2    3    3    0    0  0.12946145328E+02  0.32864711867E+02 -0.10253776926E+04  0.10335902197E+04  0.12514646531E+03 0.  0.
         25    2    3    3    0    0 -0.12946145328E+02 -0.32864711867E+02 -0.55684018543E+03  0.57178933596E+03  0.12499744257E+03 0.  0.
          5    1    4    4  502    0  0.29635860392E+02  0.38791642011E+02 -0.10049594750E+04  0.10061554115E+04  0.47000000000E+01 0.  1.
         -5    1    4    4    0  502 -0.16689715064E+02 -0.59269301437E+01 -0.20418217607E+02  0.27434808184E+02  0.47000000000E+01 0.  1.
          5    1    5    5  503    0 -0.16445850003E+01 -0.79324932006E+02 -0.39727715200E+03  0.40514981797E+03  0.47000000000E+01 0.  1.
         -5    1    5    5    0  503 -0.11301560328E+02  0.46460220139E+02 -0.15956303342E+03  0.16663951799E+03  0.47000000000E+01 0.  1.
<mgrwt>
<rscale>  0 0.27171696E+03</rscale>
<asrwt>0</asrwt>
<pdfrwt beam="1">  1        2 0.24519971E+00 0.27171696E+03</pdfrwt>
<pdfrwt beam="2">  1       -2 0.17816682E-02 0.27171696E+03</pdfrwt>
<totfact> 0.11140104E+04</totfact>
</mgrwt>
</event>
<event>
 9    1  0.8175317E-001  0.2762024E+03  0.7818608E-02  0.1097781E+00
         -1   -1    0    0    0  501 -0.00000000000E+00  0.00000000000E+00  0.29943394129E+02  0.29943394129E+02  0.00000000000E+00 0. -1.
          1   -1    0    0  501    0  0.00000000000E+00 -0.00000000000E+00 -0.63693321397E+03  0.63693321397E+03  0.00000000000E+00 0. -1.
         35    2    1    2    0    0  0.35527136788E-14 -0.71054273576E-14 -0.60698981984E+03  0.66687660810E+03  0.27620240592E+03 0.  0.
         25    2    3    3    0    0 -0.28297724241E+02  0.48103156729E+02 -0.34928680072E+03  0.37512467846E+03  0.12491028918E+03 0.  0.
         25    2    3    3    0    0  0.28297724241E+02 -0.48103156729E+02 -0.25770301911E+03  0.29175192964E+03  0.12487460712E+03 0.  0.
          5    1    4    4  502    0 -0.44751369395E+02  0.60279804312E+02 -0.10091273047E+03  0.12586424846E+03  0.47000000000E+01 0. -1.
         -5    1    4    4    0  502  0.16453645154E+02 -0.12176647583E+02 -0.24837407025E+03  0.24926042999E+03  0.47000000000E+01 0. -1.
          5    1    5    5  503    0  0.71408938100E+01 -0.29111754632E+02  0.20454997092E+01  0.30409878184E+02  0.47000000000E+01 0.  1.
         -5    1    5    5    0  503  0.21156830431E+02 -0.18991402097E+02 -0.25974851882E+03  0.26134205146E+03  0.47000000000E+01 0.  1.
<mgrwt>
<rscale>  0 0.27620241E+03</rscale>
<asrwt>0</asrwt>
<pdfrwt beam="1">  1        1 0.97989730E-01 0.27620241E+03</pdfrwt>
<pdfrwt beam="2">  1       -1 0.46066758E-02 0.27620241E+03</pdfrwt>
<totfact> 0.64140057E+03</totfact>
</mgrwt>
</event>
<event>
 9    1  0.8175317E-001  0.2797806E+03  0.7818608E-02  0.1095809E+00
          3   -1    0    0  501    0  0.00000000000E+00  0.00000000000E+00  0.29783111781E+02  0.29783111781E+02  0.00000000000E+00 0.  1.
         -3   -1    0    0    0  501 -0.00000000000E+00 -0.00000000000E+00 -0.65706005114E+03  0.65706005114E+03  0.00000000000E+00 0.  1.
         35    2    1    2    0    0 -0.71054273576E-14  0.35527136788E-14 -0.62727693936E+03  0.68684316292E+03  0.27978057795E+03 0.  0.
         25    2    3    3    0    0 -0.60932149679E+02 -0.74910471475E+01 -0.27537975058E+03  0.30850063042E+03  0.12477896172E+03 0.  0.
         25    2    3    3    0    0  0.60932149679E+02  0.74910471475E+01 -0.35189718878E+03  0.37834253250E+03  0.12466995539E+03 0.  0.
          5    1    4    4  502    0 -0.26147985012E+02 -0.40989598791E+02 -0.24804890323E+03  0.25281260396E+03  0.47000000000E+01 0. -1.
         -5    1    4    4    0  502 -0.34784164668E+02  0.33498551643E+02 -0.27330847349E+02  0.55688026456E+02  0.47000000000E+01 0. -1.
          5    1    5    5  503    0  0.67256240106E+02  0.29581430251E+02 -0.34655359781E+03  0.35428794646E+03  0.47000000000E+01 0. -1.
         -5    1    5    5    0  503 -0.63240904267E+01 -0.22090383103E+02 -0.53435909701E+01  0.24054586046E+02  0.47000000000E+01 0. -1.
<mgrwt>
<rscale>  0 0.27978058E+03</rscale>
<asrwt>0</asrwt>
<pdfrwt beam="1">  1        3 0.45820177E-02 0.27978058E+03</pdfrwt>
<pdfrwt beam="2">  1       -3 0.10108615E+00 0.27978058E+03</pdfrwt>
<totfact> 0.58767966E+02</totfact>
</mgrwt>
</event>
<event>
 9    1  0.8175317E-001  0.2780945E+03  0.7818608E-02  0.1096734E+00
         -2   -1    0    0    0  501 -0.00000000000E+00  0.00000000000E+00  0.77945243491E+02  0.77945243491E+02  0.00000000000E+00 0.  1.
          2   -1    0    0  501    0  0.00000000000E+00 -0.00000000000E+00 -0.24804762191E+03  0.24804762191E+03  0.00000000000E+00 0.  1.
         35    2    1    2    0    0  0.00000000000E+00  0.17763568394E-14 -0.17010237842E+03  0.32599286540E+03  0.27809446084E+03 0.  0.
         25    2    3    3    0    0 -0.57233912388E+02  0.74945041297E+01 -0.10218175189E+03  0.17214156215E+03  0.12593537502E+03 0.  0.
         25    2    3    3    0    0  0.57233912388E+02 -0.74945041297E+01 -0.67920626528E+02  0.15385130325E+03  0.12539985520E+03 0.  0.
          5    1    4    4  502    0  0.15039924904E+02 -0.21211078165E+02  0.15778505295E+02  0.30775971266E+02  0.47000000000E+01 0. -1.
         -5    1    4    4    0  502 -0.72273837292E+02  0.28705582295E+02 -0.11796025719E+03  0.14136559089E+03  0.47000000000E+01 0. -1.
          5    1    5    5  503    0  0.96657936031E+02 -0.14089373015E+02 -0.48846455558E+02  0.10931300586E+03  0.47000000000E+01 0.  1.
         -5    1    5    5    0  503 -0.39424023643E+02  0.65948688853E+01 -0.19074170970E+02  0.44538297386E+02  0.47000000000E+01 0.  1.
<mgrwt>
<rscale>  0 0.27809446E+03</rscale>
<asrwt>0</asrwt>
<pdfrwt beam="1">  1        2 0.38161173E-01 0.27809446E+03</pdfrwt>
<pdfrwt beam="2">  1       -2 0.11991576E-01 0.27809446E+03</pdfrwt>
<totfact> 0.66121151E+03</totfact>
</mgrwt>
</event>
<event>
 9    1  0.8175317E-001  0.2764942E+03  0.7818608E-02  0.1097619E+00
         -1   -1    0    0    0  501 -0.00000000000E+00  0.00000000000E+00  0.12385570490E+03  0.12385570490E+03  0.00000000000E+00 0. -1.
          1   -1    0    0  501    0  0.00000000000E+00 -0.00000000000E+00 -0.15431071191E+03  0.15431071191E+03  0.00000000000E+00 0. -1.
         35    2    1    2    0    0  0.71054273576E-14  0.00000000000E+00 -0.30455007003E+02  0.27816641681E+03  0.27649420968E+03 0.  0.
         25    2    3    3    0    0  0.22709488790E+02 -0.41980239826E+02  0.20867704894E+02  0.13461934371E+03  0.12413236957E+03 0.  0.
         25    2    3    3    0    0 -0.22709488790E+02  0.41980239826E+02 -0.51322711897E+02  0.14354707310E+03  0.12527441887E+03 0.  0.
          5    1    4    4  502    0 -0.50581313767E+02 -0.11874707762E+02  0.18029297399E+02  0.55196227693E+02  0.47000000000E+01 0. -1.
         -5    1    4    4    0  502  0.73290802558E+02 -0.30105532064E+02  0.28384074953E+01  0.79423116015E+02  0.47000000000E+01 0. -1.
          5    1    5    5  503    0  0.14355390717E+02 -0.26905641246E+02  0.20664275358E+02  0.37136142093E+02  0.47000000000E+01 0.  1.
         -5    1    5    5    0  503 -0.37064879507E+02  0.68885881072E+02 -0.71986987255E+02  0.10641093101E+03  0.47000000000E+01 0.  1.
<mgrwt>
<rscale>  0 0.27649421E+03</rscale>
<asrwt>0</asrwt>
<pdfrwt beam="1">  1        1 0.23740109E-01 0.27649421E+03</pdfrwt>
<pdfrwt beam="2">  1       -1 0.19054724E-01 0.27649421E+03</pdfrwt>
<totfact> 0.44362371E+03</totfact>
</mgrwt>
</event>
<event>
 9    1  0.8175317E-001  0.2773362E+03  0.7818608E-02  0.1097153E+00
         -2   -1    0    0    0  501 -0.00000000000E+00  0.00000000000E+00  0.99936489804E+01  0.99936489804E+01  0.00000000000E+00 0.  1.
          2   -1    0    0  501    0  0.00000000000E+00 -0.00000000000E+00 -0.19241059185E+04  0.19241059185E+04  0.00000000000E+00 0.  1.
         35    2    1    2    0    0  0.71054273576E-14  0.00000000000E+00 -0.19141122695E+04  0.19340995675E+04  0.27733617976E+03 0.  0.
         25    2    3    3    0    0 -0.55318005688E+02  0.83100720338E+01 -0.96963083946E+03  0.97987019741E+03  0.12974012437E+03 0.  0.
         25    2    3    3    0    0  0.55318005688E+02 -0.83100720338E+01 -0.94448143003E+03  0.95422937005E+03  0.12401362805E+03 0.  0.
          5    1    4    4  502    0 -0.89233106050E+02  0.84638559850E+01 -0.43605185972E+03  0.44519377628E+03  0.47000000000E+01 0.  1.
         -5    1    4    4    0  502  0.33915100363E+02 -0.15378395121E+00 -0.53357897975E+03  0.53467642113E+03  0.47000000000E+01 0.  1.
          5    1    5    5  503    0  0.87023148099E+02 -0.22996954990E+02 -0.47842542366E+03  0.48684172402E+03  0.47000000000E+01 0.  1.
         -5    1    5    5    0  503 -0.31705142411E+02  0.14686882956E+02 -0.46605600637E+03  0.46738764603E+03  0.47000000000E+01 0.  1.
<mgrwt>
<rscale>  0 0.27733618E+03</rscale>
<asrwt>0</asrwt>
<pdfrwt beam="1">  1        2 0.29601623E+00 0.27733618E+03</pdfrwt>
<pdfrwt beam="2">  1       -2 0.15374848E-02 0.27733618E+03</pdfrwt>
<totfact> 0.92688836E+03</totfact>
</mgrwt>
</event>
<event>
 9    1  0.8175317E-001  0.2777807E+03  0.7818608E-02  0.1096907E+00
          2   -1    0    0  501    0  0.00000000000E+00  0.00000000000E+00  0.16658084812E+04  0.16658084812E+04  0.00000000000E+00 0. -1.
         -2   -1    0    0    0  501 -0.00000000000E+00 -0.00000000000E+00 -0.11580280460E+02  0.11580280460E+02  0.00000000000E+00 0. -1.
         35    2    1    2    0    0  0.00000000000E+00 -0.71054273576E-14  0.16542282007E+04  0.16773887616E+04  0.27778070059E+03 0.  0.
         25    2    3    3    0    0 -0.39211648947E+02 -0.38486884503E+02  0.96954479095E+03  0.97922981039E+03  0.12591714022E+03 0.  0.
         25    2    3    3    0    0  0.39211648947E+02  0.38486884503E+02  0.68468340977E+03  0.69815895125E+03  0.12496301816E+03 0.  0.
          5    1    4    4  502    0 -0.21388276434E+02  0.43402304582E+02  0.48887223106E+03  0.49128338738E+03  0.47000000000E+01 0. -1.
         -5    1    4    4    0  502 -0.17823372512E+02 -0.81889189086E+02  0.48067255989E+03  0.48794642301E+03  0.47000000000E+01 0. -1.
          5    1    5    5  503    0  0.83339207649E+02  0.38885797522E+02  0.45357824252E+03  0.46283133091E+03  0.47000000000E+01 0. -1.
         -5    1    5    5    0  503 -0.44127558702E+02 -0.39891301855E+00  0.23110516725E+03  0.23532762035E+03  0.47000000000E+01 0. -1.
<mgrwt>
<rscale>  0 0.27778070E+03</rscale>
<asrwt>0</asrwt>
<pdfrwt beam="1">  1        2 0.25627804E+00 0.27778070E+03</pdfrwt>
<pdfrwt beam="2">  1       -2 0.17815829E-02 0.27778070E+03</pdfrwt>
<totfact> 0.10209772E+04</totfact>
</mgrwt>
</event>
<event>
 9    1  0.8175317E-001  0.2746863E+03  0.7818608E-02  0.1098627E+00
         -2   -1    0    0    0  501 -0.00000000000E+00  0.00000000000E+00  0.33113400764E+02  0.33113400764E+02  0.00000000000E+00 0. -1.
          2   -1    0    0  501    0  0.00000000000E+00 -0.00000000000E+00 -0.56965275803E+03  0.56965275803E+03  0.00000000000E+00 0. -1.
         35    2    1    2    0    0 -0.71054273576E-14 -0.10658141036E-13 -0.53653935726E+03  0.60276615879E+03  0.27468629433E+03 0.  0.
         25    2    3    3    0    0 -0.46375095571E+02 -0.13788645629E+02 -0.20048942013E+03  0.24125522838E+03  0.12516909122E+03 0.  0.
         25    2    3    3    0    0  0.46375095571E+02  0.13788645629E+02 -0.33604993713E+03  0.36151093042E+03  0.12417655304E+03 0.  0.
          5    1    4    4  502    0 -0.21241237855E+02 -0.34793766806E+02 -0.20390064394E+03  0.20798884343E+03  0.47000000000E+01 0. -1.
         -5    1    4    4    0  502 -0.25133857716E+02  0.21005121177E+02  0.34112238088E+01  0.33266384944E+02  0.47000000000E+01 0. -1.
          5    1    5    5  503    0  0.49104944130E+02  0.64421638472E+02 -0.22940589883E+03  0.24333228200E+03  0.47000000000E+01 0. -1.
         -5    1    5    5    0  503 -0.27298485595E+01 -0.50632992843E+02 -0.10664403830E+03  0.11817864842E+03  0.47000000000E+01 0. -1.
<mgrwt>
<rscale>  0 0.27468629E+03</rscale>
<asrwt>0</asrwt>
<pdfrwt beam="1">  1        2 0.87638888E-01 0.27468629E+03</pdfrwt>
<pdfrwt beam="2">  1       -2 0.50943692E-02 0.27468629E+03</pdfrwt>
<totfact> 0.10149007E+04</totfact>
</mgrwt>
</event>
<event>
 9    1  0.8175317E-001  0.2766969E+03  0.7818608E-02  0.1097507E+00
         -1   -1    0    0    0  501 -0.00000000000E+00  0.00000000000E+00  0.56392424388E+03  0.56392424388E+03  0.00000000000E+00 0.  1.
          1   -1    0    0  501    0  0.00000000000E+00 -0.00000000000E+00 -0.33941250760E+02  0.33941250760E+02  0.00000000000E+00 0.  1.
         35    2    1    2    0    0  0.00000000000E+00  0.00000000000E+00  0.52998299312E+03  0.59786549464E+03  0.27669690400E+03 0.  0.
         25    2    3    3    0    0 -0.38011240703E+02  0.46006598192E+02  0.23517761154E+03  0.27224870958E+03  0.12348841807E+03 0.  0.
         25    2    3    3    0    0  0.38011240703E+02 -0.46006598192E+02  0.29480538158E+03  0.32561678506E+03  0.12471814708E+03 0.  0.
          5    1    4    4  502    0  0.33091698331E+02 -0.15315517609E+02  0.10806737067E+03  0.11415021762E+03  0.47000000000E+01 0.  1.
         -5    1    4    4    0  502 -0.71102939033E+02  0.61322115801E+02  0.12711024087E+03  0.15809849196E+03  0.47000000000E+01 0.  1.
          5    1    5    5  503    0  0.74599654009E+02  0.49108351932E+01  0.14673675714E+03  0.16475129916E+03  0.47000000000E+01 0. -1.
         -5    1    5    5    0  503 -0.36588413306E+02 -0.50917433385E+02  0.14806862444E+03  0.16086548590E+03  0.47000000000E+01 0. -1.
<mgrwt>
<rscale>  0 0.27669690E+03</rscale>
<asrwt>0</asrwt>
<pdfrwt beam="1">  1        1 0.52217313E-02 0.27669690E+03</pdfrwt>
<pdfrwt beam="2">  1       -1 0.86757569E-01 0.27669690E+03</pdfrwt>
<totfact> 0.21513093E+03</totfact>
</mgrwt>
</event>
<event>
 9    1  0.8175317E-001  0.2721293E+03  0.7818608E-02  0.1100067E+00
          2   -1    0    0  501    0  0.00000000000E+00  0.00000000000E+00  0.18457499176E+04  0.18457499176E+04  0.00000000000E+00 0. -1.
         -2   -1    0    0    0  501 -0.00000000000E+00 -0.00000000000E+00 -0.10030390583E+02  0.10030390583E+02  0.00000000000E+00 0. -1.
         35    2    1    2    0    0  0.00000000000E+00 -0.71054273576E-14  0.18357195270E+04  0.18557803082E+04  0.27212932655E+03 0.  0.
         25    2    3    3    0    0 -0.47063062089E+02 -0.26757016347E+02  0.96185197094E+03  0.97139265247E+03  0.12455360909E+03 0.  0.
         25    2    3    3    0    0  0.47063062089E+02  0.26757016347E+02  0.87386755609E+03  0.88438765572E+03  0.12476437903E+03 0.  0.
          5    1    4    4  502    0 -0.14206366211E+02  0.49097455684E+02  0.29666776789E+03  0.30107513265E+03  0.47000000000E+01 0.  1.
         -5    1    4    4    0  502 -0.32856695878E+02 -0.75854472031E+02  0.66518420305E+03  0.67031751982E+03  0.47000000000E+01 0.  1.
          5    1    5    5  503    0  0.40255958696E+01  0.66357853880E+02  0.28902612075E+03  0.29661044936E+03  0.47000000000E+01 0. -1.
         -5    1    5    5    0  503  0.43037466219E+02 -0.39600837533E+02  0.58484143533E+03  0.58777720636E+03  0.47000000000E+01 0. -1.
<mgrwt>
<rscale>  0 0.27212933E+03</rscale>
<asrwt>0</asrwt>
<pdfrwt beam="1">  1        2 0.28396126E+00 0.27212933E+03</pdfrwt>
<pdfrwt beam="2">  1       -2 0.15431385E-02 0.27212933E+03</pdfrwt>
<totfact> 0.10132616E+04</totfact>
</mgrwt>
</event>
<event>
 9    1  0.8175317E-001  0.2739953E+03  0.7818608E-02  0.1099015E+00
         -4   -1    0    0    0  501 -0.00000000000E+00  0.00000000000E+00  0.22231832996E+03  0.22231832996E+03  0.00000000000E+00 0. -1.
          4   -1    0    0  501    0  0.00000000000E+00 -0.00000000000E+00 -0.84421100960E+02  0.84421100960E+02  0.00000000000E+00 0. -1.
         35    2    1    2    0    0  0.00000000000E+00 -0.71054273576E-14  0.13789722900E+03  0.30673943092E+03  0.27399531514E+03 0.  0.
         25    2    3    3    0    0  0.32783807354E+02  0.17435469925E+02  0.66187720284E+02  0.15753555564E+03  0.13805022035E+03 0.  0.
         25    2    3    3    0    0 -0.32783807354E+02 -0.17435469925E+02  0.71709508721E+02  0.14920387529E+03  0.12546222190E+03 0.  0.
          5    1    4    4  502    0 -0.43580091646E+02  0.22761660386E+02 -0.89206804257E+01  0.50189501996E+02  0.47000000000E+01 0.  1.
         -5    1    4    4    0  502  0.76363899000E+02 -0.53261904606E+01  0.75108400709E+02  0.10734605364E+03  0.47000000000E+01 0.  1.
          5    1    5    5  503    0 -0.49481450541E+02 -0.39156768654E+02  0.94178479823E+02  0.11346075331E+03  0.47000000000E+01 0.  1.
         -5    1    5    5    0  503  0.16697643187E+02  0.21721298728E+02 -0.22468971102E+02  0.35743121980E+02  0.47000000000E+01 0.  1.
<mgrwt>
<rscale>  0 0.27399532E+03</rscale>
<asrwt>0</asrwt>
<pdfrwt beam="1">  1        4 0.12987862E-01 0.27399532E+03</pdfrwt>
<pdfrwt beam="2">  1       -4 0.34202820E-01 0.27399532E+03</pdfrwt>
<totfact> 0.75093866E+02</totfact>
</mgrwt>
</event>
<event>
 9    1  0.8175317E-001  0.2746358E+03  0.7818608E-02  0.1098655E+00
         -2   -1    0    0    0  501 -0.00000000000E+00  0.00000000000E+00  0.43371266913E+02  0.43371266913E+02  0.00000000000E+00 0. -1.
          2   -1    0    0  501    0  0.00000000000E+00 -0.00000000000E+00 -0.43476262361E+03  0.43476262361E+03  0.00000000000E+00 0. -1.
         35    2    1    2    0    0  0.71054273576E-14 -0.71054273576E-14 -0.39139135670E+03  0.47813389052E+03  0.27463580096E+03 0.  0.
         25    2    3    3    0    0 -0.33696060482E+02 -0.44619485501E+02 -0.18483552638E+03  0.23089001271E+03  0.12656896610E+03 0.  0.
         25    2    3    3    0    0  0.33696060482E+02  0.44619485501E+02 -0.20655583032E+03  0.24724387781E+03  0.12384628012E+03 0.  0.
          5    1    4    4  502    0  0.24678366785E+02 -0.67782224885E+02 -0.12275577150E+03  0.14245884049E+03  0.47000000000E+01 0.  1.
         -5    1    4    4    0  502 -0.58374427266E+02  0.23162739384E+02 -0.62079754881E+02  0.88431172222E+02  0.47000000000E+01 0.  1.
          5    1    5    5  503    0 -0.19864847586E+02  0.63627248729E+02 -0.16079246696E+03  0.17412451402E+03  0.47000000000E+01 0. -1.
         -5    1    5    5    0  503  0.53560908068E+02 -0.19007763228E+02 -0.45763363359E+02  0.73119363795E+02  0.47000000000E+01 0. -1.
<mgrwt>
<rscale>  0 0.27463580E+03</rscale>
<asrwt>0</asrwt>
<pdfrwt beam="1">  1        2 0.66886559E-01 0.27463580E+03</pdfrwt>
<pdfrwt beam="2">  1       -2 0.66725025E-02 0.27463580E+03</pdfrwt>
<totfact> 0.90826810E+03</totfact>
</mgrwt>
</event>
<event>
 9    1  0.8175317E-001  0.2738842E+03  0.7818608E-02  0.1099077E+00
         -1   -1    0    0    0  501 -0.00000000000E+00  0.00000000000E+00  0.38383403975E+03  0.38383403975E+03  0.00000000000E+00 0. -1.
          1   -1    0    0  501    0  0.00000000000E+00 -0.00000000000E+00 -0.48857426335E+02  0.48857426335E+02  0.00000000000E+00 0. -1.
         35    2    1    2    0    0 -0.71054273576E-14  0.00000000000E+00  0.33497661342E+03  0.43269146609E+03  0.27388423337E+03 0.  0.
         25    2    3    3    0    0  0.16524308792E+01 -0.47173066413E+02  0.12430309694E+03  0.18308521449E+03  0.12586066555E+03 0.  0.
         25    2    3    3    0    0 -0.16524308792E+01  0.47173066413E+02  0.21067351648E+03  0.24960625160E+03  0.12526740027E+03 0.  0.
          5    1    4    4  502    0 -0.40047810159E+02 -0.36807107323E+01  0.11502130106E+03  0.12194000339E+03  0.47000000000E+01 0. -1.
         -5    1    4    4    0  502  0.41700241038E+02 -0.43492355681E+02  0.92817958870E+01  0.61145211098E+02  0.47000000000E+01 0. -1.
          5    1    5    5  503    0  0.34548394116E+02  0.76509601477E+02  0.15904317474E+03  0.17990033932E+03  0.47000000000E+01 0. -1.
         -5    1    5    5    0  503 -0.36200824995E+02 -0.29336535064E+02  0.51630341733E+02  0.69705912284E+02  0.47000000000E+01 0. -1.
<mgrwt>
<rscale>  0 0.27388423E+03</rscale>
<asrwt>0</asrwt>
<pdfrwt beam="1">  1        1 0.75165274E-02 0.27388423E+03</pdfrwt>
<pdfrwt beam="2">  1       -1 0.59051389E-01 0.27388423E+03</pdfrwt>
<totfact> 0.28292851E+03</totfact>
</mgrwt>
</event>
<event>
 9    1  0.8175317E-001  0.2693135E+03  0.7818608E-02  0.1101673E+00
         -1   -1    0    0    0  501 -0.00000000000E+00  0.00000000000E+00  0.96999785765E+03  0.96999785765E+03  0.00000000000E+00 0. -1.
          1   -1    0    0  501    0  0.00000000000E+00 -0.00000000000E+00 -0.18693278513E+02  0.18693278513E+02  0.00000000000E+00 0. -1.
         35    2    1    2    0    0  0.00000000000E+00  0.71054273576E-14  0.95130457913E+03  0.98869113616E+03  0.26931349844E+03 0.  0.
         25    2    3    3    0    0  0.27269381653E+02 -0.37554281408E+02  0.55351149174E+03  0.56931458635E+03  0.12486065639E+03 0.  0.
         25    2    3    3    0    0 -0.27269381653E+02  0.37554281408E+02  0.39779308740E+03  0.41937654981E+03  0.12443233874E+03 0.  0.
          5    1    4    4  502    0  0.24067540956E+01  0.42967613169E+02  0.11778867903E+03  0.12549211591E+03  0.47000000000E+01 0. -1.
         -5    1    4    4    0  502  0.24862627557E+02 -0.80521894577E+02  0.43572281270E+03  0.44382247044E+03  0.47000000000E+01 0. -1.
          5    1    5    5  503    0  0.20718869533E+02  0.68443210700E+02  0.16983144984E+03  0.18433273177E+03  0.47000000000E+01 0. -1.
         -5    1    5    5    0  503 -0.47988251185E+02 -0.30888929292E+02  0.22796163755E+03  0.23504381805E+03  0.47000000000E+01 0. -1.
<mgrwt>
<rscale>  0 0.26931350E+03</rscale>
<asrwt>0</asrwt>
<pdfrwt beam="1">  1        1 0.28758898E-02 0.26931350E+03</pdfrwt>
<pdfrwt beam="2">  1       -1 0.14923040E+00 0.26931350E+03</pdfrwt>
<totfact> 0.13852018E+03</totfact>
</mgrwt>
</event>
<event>
 9    1  0.8175317E-001  0.2736096E+03  0.7818608E-02  0.1099231E+00
          2   -1    0    0  501    0  0.00000000000E+00  0.00000000000E+00  0.27386817005E+03  0.27386817005E+03  0.00000000000E+00 0.  1.
         -2   -1    0    0    0  501 -0.00000000000E+00 -0.00000000000E+00 -0.68337797968E+02  0.68337797968E+02  0.00000000000E+00 0.  1.
         35    2    1    2    0    0  0.00000000000E+00  0.00000000000E+00  0.20553037208E+03  0.34220596802E+03  0.27360955886E+03 0.  0.
         25    2    3    3    0    0  0.48099220003E+02 -0.13730896130E+02  0.13189823459E+03  0.18851456866E+03  0.12505409164E+03 0.  0.
         25    2    3    3    0    0 -0.48099220003E+02  0.13730896130E+02  0.73632137497E+02  0.15369139936E+03  0.12528879476E+03 0.  0.
          5    1    4    4  502    0  0.16589694130E+02 -0.46258329965E+02  0.13413347374E+03  0.14292980732E+03  0.47000000000E+01 0.  1.
         -5    1    4    4    0  502  0.31509525873E+02  0.32527433834E+02 -0.22352391529E+01  0.45584761343E+02  0.47000000000E+01 0.  1.
          5    1    5    5  503    0 -0.49646290981E+02 -0.36289889125E+02  0.82134361440E+02  0.10271248021E+03  0.47000000000E+01 0. -1.
         -5    1    5    5    0  503  0.15470709778E+01  0.50020785256E+02 -0.85022239422E+01  0.50978919155E+02  0.47000000000E+01 0. -1.
<mgrwt>
<rscale>  0 0.27360956E+03</rscale>
<asrwt>0</asrwt>
<pdfrwt beam="1">  1        2 0.42133564E-01 0.27360956E+03</pdfrwt>
<pdfrwt beam="2">  1       -2 0.10513508E-01 0.27360956E+03</pdfrwt>
<totfact> 0.73351380E+03</totfact>
</mgrwt>
</event>
<event>
 9    1  0.8175317E-001  0.2789574E+03  0.7818608E-02  0.1096260E+00
         -1   -1    0    0    0  501 -0.00000000000E+00  0.00000000000E+00  0.29976214735E+03  0.29976214735E+03  0.00000000000E+00 0.  1.
          1   -1    0    0  501    0  0.00000000000E+00 -0.00000000000E+00 -0.64899149646E+02  0.64899149646E+02  0.00000000000E+00 0.  1.
         35    2    1    2    0    0  0.00000000000E+00  0.00000000000E+00  0.23486299771E+03  0.36466129700E+03  0.27895740506E+03 0.  0.
         25    2    3    3    0    0  0.22686996289E+02 -0.48159377483E+02  0.15832033110E+03  0.20894265828E+03  0.12552960516E+03 0.  0.
         25    2    3    3    0    0 -0.22686996289E+02  0.48159377483E+02  0.76542666609E+02  0.15571863872E+03  0.12472164685E+03 0.  0.
          5    1    4    4  502    0 -0.63056874389E+01 -0.61963824472E+02  0.18121398637E+02  0.65036546078E+02  0.47000000000E+01 0.  1.
         -5    1    4    4    0  502  0.28992683728E+02  0.13804446989E+02  0.14019893246E+03  0.14390611220E+03  0.47000000000E+01 0.  1.
          5    1    5    5  503    0 -0.58849899334E+02  0.23042352095E+02 -0.43245012044E+01  0.63522058785E+02  0.47000000000E+01 0.  1.
         -5    1    5    5    0  503  0.36162903045E+02  0.25117025388E+02  0.80867167813E+02  0.92196579932E+02  0.47000000000E+01 0.  1.
<mgrwt>
<rscale>  0 0.27895741E+03</rscale>
<asrwt>0</asrwt>
<pdfrwt beam="1">  1        1 0.99844847E-02 0.27895741E+03</pdfrwt>
<pdfrwt beam="2">  1       -1 0.46117253E-01 0.27895741E+03</pdfrwt>
<totfact> 0.30568383E+03</totfact>
</mgrwt>
</event>
<event>
 9    1  0.8175317E-001  0.2743726E+03  0.7818608E-02  0.1098803E+00
         -2   -1    0    0    0  501 -0.00000000000E+00  0.00000000000E+00  0.40697338682E+02  0.40697338682E+02  0.00000000000E+00 0.  1.
          2   -1    0    0  501    0  0.00000000000E+00 -0.00000000000E+00 -0.46243993958E+03  0.46243993958E+03  0.00000000000E+00 0.  1.
         35    2    1    2    0    0 -0.71054273576E-14  0.71054273576E-14 -0.42174260090E+03  0.50313727826E+03  0.27437255578E+03 0.  0.
         25    2    3    3    0    0 -0.31978895722E+02  0.44839729047E+02 -0.22993423533E+03  0.26777632241E+03  0.12570264592E+03 0.  0.
         25    2    3    3    0    0  0.31978895722E+02 -0.44839729047E+02 -0.19180836556E+03  0.23536095585E+03  0.12478413107E+03 0.  0.
          5    1    4    4  502    0 -0.77768157972E+02  0.39546471345E+02 -0.17726451860E+03  0.19762745089E+03  0.47000000000E+01 0.  1.
         -5    1    4    4    0  502  0.45789262250E+02  0.52932577024E+01 -0.52669716735E+02  0.70148871519E+02  0.47000000000E+01 0.  1.
          5    1    5    5  503    0  0.25134537351E+01  0.21553293969E+02 -0.14955963696E+03  0.15119866712E+03  0.47000000000E+01 0.  1.
         -5    1    5    5    0  503  0.29465441987E+02 -0.66393023017E+02 -0.42248728604E+02  0.84162288737E+02  0.47000000000E+01 0.  1.
<mgrwt>
<rscale>  0 0.27437256E+03</rscale>
<asrwt>0</asrwt>
<pdfrwt beam="1">  1        2 0.71144604E-01 0.27437256E+03</pdfrwt>
<pdfrwt beam="2">  1       -2 0.62611292E-02 0.27437256E+03</pdfrwt>
<totfact> 0.93602237E+03</totfact>
</mgrwt>
</event>
<event>
 9    1  0.8175317E-001  0.2727833E+03  0.7818608E-02  0.1099697E+00
         -2   -1    0    0    0  501 -0.00000000000E+00  0.00000000000E+00  0.18859737989E+03  0.18859737989E+03  0.00000000000E+00 0.  1.
          2   -1    0    0  501    0  0.00000000000E+00 -0.00000000000E+00 -0.98636992313E+02  0.98636992313E+02  0.00000000000E+00 0.  1.
         35    2    1    2    0    0 -0.71054273576E-14 -0.35527136788E-14  0.89960387580E+02  0.28723437221E+03  0.27278327156E+03 0.  0.
         25    2    3    3    0    0  0.37814472431E+02  0.20008071959E+02  0.17590231612E+02  0.13319602187E+03  0.12490599155E+03 0.  0.
         25    2    3    3    0    0 -0.37814472431E+02 -0.20008071959E+02  0.72370155968E+02  0.15403835034E+03  0.12907407420E+03 0.  0.
          5    1    4    4  502    0 -0.44310956810E+02  0.19574507938E+01 -0.77030925497E+01  0.45262789815E+02  0.47000000000E+01 0. -1.
         -5    1    4    4    0  502  0.82125429241E+02  0.18050621165E+02  0.25293324161E+02  0.87933232054E+02  0.47000000000E+01 0. -1.
          5    1    5    5  503    0  0.45137593432E+02 -0.18727965846E+02  0.44873558860E+02  0.66512144231E+02  0.47000000000E+01 0.  1.
         -5    1    5    5    0  503 -0.82952065863E+02 -0.12801061132E+01  0.27496597109E+02  0.87526206105E+02  0.47000000000E+01 0.  1.
<mgrwt>
<rscale>  0 0.27278327E+03</rscale>
<asrwt>0</asrwt>
<pdfrwt beam="1">  1        2 0.15174922E-01 0.27278327E+03</pdfrwt>
<pdfrwt beam="2">  1       -2 0.29014982E-01 0.27278327E+03</pdfrwt>
<totfact> 0.41519786E+03</totfact>
</mgrwt>
</event>
<event>
 9    1  0.8175317E-001  0.2798379E+03  0.7818608E-02  0.1095778E+00
          2   -1    0    0  501    0  0.00000000000E+00  0.00000000000E+00  0.47240376897E+03  0.47240376897E+03  0.00000000000E+00 0. -1.
         -2   -1    0    0    0  501 -0.00000000000E+00 -0.00000000000E+00 -0.41441893212E+02  0.41441893212E+02  0.00000000000E+00 0. -1.
         35    2    1    2    0    0 -0.71054273576E-14  0.35527136788E-14  0.43096187576E+03  0.51384566218E+03  0.27983785696E+03 0.  0.
         25    2    3    3    0    0  0.30852388035E+02  0.66645931768E+01  0.11714772273E+03  0.17436272659E+03  0.12522972823E+03 0.  0.
         25    2    3    3    0    0 -0.30852388035E+02 -0.66645931768E+01  0.31381415302E+03  0.33948293559E+03  0.12559082080E+03 0.  0.
          5    1    4    4  502    0  0.42952548331E+00 -0.38348047164E+02 -0.65401825112E+01  0.39187002957E+02  0.47000000000E+01 0.  1.
         -5    1    4    4    0  502  0.30422862552E+02  0.45012640341E+02  0.12368790525E+03  0.13517572364E+03  0.47000000000E+01 0.  1.
          5    1    5    5  503    0  0.42006730600E+02  0.25854494789E+02  0.12316648844E+03  0.13275953522E+03  0.47000000000E+01 0. -1.
         -5    1    5    5    0  503 -0.72859118635E+02 -0.32519087965E+02  0.19064766458E+03  0.20672340037E+03  0.47000000000E+01 0. -1.
<mgrwt>
<rscale>  0 0.27983786E+03</rscale>
<asrwt>0</asrwt>
<pdfrwt beam="1">  1        2 0.72677499E-01 0.27983786E+03</pdfrwt>
<pdfrwt beam="2">  1       -2 0.63756762E-02 0.27983786E+03</pdfrwt>
<totfact> 0.88969651E+03</totfact>
</mgrwt>
</event>
<event>
 9    1  0.8175317E-001  0.2748703E+03  0.7818608E-02  0.1098524E+00
          2   -1    0    0  501    0  0.00000000000E+00  0.00000000000E+00  0.73982498530E+02  0.73982498530E+02  0.00000000000E+00 0. -1.
         -2   -1    0    0    0  501 -0.00000000000E+00 -0.00000000000E+00 -0.25530933893E+03  0.25530933893E+03  0.00000000000E+00 0. -1.
         35    2    1    2    0    0  0.00000000000E+00  0.35527136788E-14 -0.18132684040E+03  0.32929183746E+03  0.27487031700E+03 0.  0.
         25    2    3    3    0    0  0.29496958854E+02 -0.86854233239E+01 -0.14942870594E+03  0.19663972460E+03  0.12406746541E+03 0.  0.
         25    2    3    3    0    0 -0.29496958854E+02  0.86854233239E+01 -0.31898134462E+02  0.13265211286E+03  0.12503433490E+03 0.  0.
          5    1    4    4  502    0 -0.10316772529E+02  0.50296859700E+02 -0.36853667681E+02  0.63375805421E+02  0.47000000000E+01 0. -1.
         -5    1    4    4    0  502  0.39813731383E+02 -0.58982283024E+02 -0.11257503826E+03  0.13326391918E+03  0.47000000000E+01 0. -1.
          5    1    5    5  503    0 -0.72553612508E+02  0.32133893288E+02 -0.18641013231E+02  0.81646746170E+02  0.47000000000E+01 0. -1.
         -5    1    5    5    0  503  0.43056653655E+02 -0.23448469964E+02 -0.13257121231E+02  0.51005366688E+02  0.47000000000E+01 0. -1.
<mgrwt>
<rscale>  0 0.27487032E+03</rscale>
<asrwt>0</asrwt>
<pdfrwt beam="1">  1        2 0.11381923E-01 0.27487032E+03</pdfrwt>
<pdfrwt beam="2">  1       -2 0.39278361E-01 0.27487032E+03</pdfrwt>
<totfact> 0.33498383E+03</totfact>
</mgrwt>
</event>
<event>
 9    1  0.8175317E-001  0.2730054E+03  0.7818608E-02  0.1099572E+00
         -2   -1    0    0    0  501 -0.00000000000E+00  0.00000000000E+00  0.28778867655E+02  0.28778867655E+02  0.00000000000E+00 0. -1.
          2   -1    0    0  501    0  0.00000000000E+00 -0.00000000000E+00 -0.64745390049E+03  0.64745390049E+03  0.00000000000E+00 0. -1.
         35    2    1    2    0    0 -0.35527136788E-14  0.00000000000E+00 -0.61867503283E+03  0.67623276814E+03  0.27300542203E+03 0.  0.
         25    2    3    3    0    0  0.23591904191E+02 -0.43566713729E+01 -0.43525699728E+03  0.45333158092E+03  0.12443998575E+03 0.  0.
         25    2    3    3    0    0 -0.23591904191E+02  0.43566713729E+01 -0.18341803555E+03  0.22290118722E+03  0.12436721822E+03 0.  0.
          5    1    4    4  502    0 -0.30005082086E+02 -0.30988444371E+02 -0.32416900570E+03  0.32705996834E+03  0.47000000000E+01 0. -1.
         -5    1    4    4    0  502  0.53596986277E+02  0.26631772998E+02 -0.11108799158E+03  0.12627161258E+03  0.47000000000E+01 0. -1.
          5    1    5    5  503    0 -0.12239158285E+02 -0.58529520549E+02 -0.66330148279E+02  0.89427514456E+02  0.47000000000E+01 0.  1.
         -5    1    5    5    0  503 -0.11352745906E+02  0.62886191922E+02 -0.11708788727E+03  0.13347367276E+03  0.47000000000E+01 0.  1.
<mgrwt>
<rscale>  0 0.27300542E+03</rscale>
<asrwt>0</asrwt>
<pdfrwt beam="1">  1        2 0.99608294E-01 0.27300542E+03</pdfrwt>
<pdfrwt beam="2">  1       -2 0.44275180E-02 0.27300542E+03</pdfrwt>
<totfact> 0.10811627E+04</totfact>
</mgrwt>
</event>
<event>
 9    1  0.8175317E-001  0.2748161E+03  0.7818608E-02  0.1098554E+00
         -1   -1    0    0    0  501 -0.00000000000E+00  0.00000000000E+00  0.72427332838E+02  0.72427332838E+02  0.00000000000E+00 0.  1.
          1   -1    0    0  501    0  0.00000000000E+00 -0.00000000000E+00 -0.26068841776E+03  0.26068841776E+03  0.00000000000E+00 0.  1.
         35    2    1    2    0    0 -0.71054273576E-14  0.00000000000E+00 -0.18826108493E+03  0.33311575060E+03  0.27481606067E+03 0.  0.
         25    2    3    3    0    0  0.27142448547E+02 -0.35972833411E+02 -0.56582532266E+02  0.14562610098E+03  0.12639074758E+03 0.  0.
         25    2    3    3    0    0 -0.27142448547E+02  0.35972833411E+02 -0.13167855266E+03  0.18748964962E+03  0.12562790385E+03 0.  0.
          5    1    4    4  502    0  0.78020220490E+02 -0.22513343009E+02 -0.35042036475E+02  0.88566583648E+02  0.47000000000E+01 0. -1.
         -5    1    4    4    0  502 -0.50877771943E+02 -0.13459490402E+02 -0.21540495791E+02  0.57059517337E+02  0.47000000000E+01 0. -1.
          5    1    5    5  503    0  0.20765065170E+02  0.19865183934E+02 -0.13355647933E+03  0.13669395245E+03  0.47000000000E+01 0. -1.
         -5    1    5    5    0  503 -0.47907513717E+02  0.16107649477E+02  0.18779266722E+01  0.50795697168E+02  0.47000000000E+01 0. -1.
<mgrwt>
<rscale>  0 0.27481606E+03</rscale>
<asrwt>0</asrwt>
<pdfrwt beam="1">  1        1 0.40105910E-01 0.27481606E+03</pdfrwt>
<pdfrwt beam="2">  1       -1 0.11142667E-01 0.27481606E+03</pdfrwt>
<totfact> 0.53532816E+03</totfact>
</mgrwt>
</event>
<event>
 9    1  0.8175317E-001  0.2686805E+03  0.7818608E-02  0.1102037E+00
         -3   -1    0    0    0  501 -0.00000000000E+00  0.00000000000E+00  0.28458296331E+03  0.28458296331E+03  0.00000000000E+00 0. -1.
          3   -1    0    0  501    0  0.00000000000E+00 -0.00000000000E+00 -0.63416665297E+02  0.63416665297E+02  0.00000000000E+00 0. -1.
         35    2    1    2    0    0  0.00000000000E+00  0.00000000000E+00  0.22116629801E+03  0.34799962861E+03  0.26868049824E+03 0.  0.
         25    2    3    3    0    0  0.48002183568E+02  0.40023155839E+01  0.83527712260E+02  0.15600191865E+03  0.12263560556E+03 0.  0.
         25    2    3    3    0    0 -0.48002183568E+02 -0.40023155839E+01  0.13763858575E+03  0.19199770995E+03  0.12489400379E+03 0.  0.
          5    1    4    4  502    0 -0.25355493231E+02 -0.27548343464E+02  0.62968167583E+02  0.73409075688E+02  0.47000000000E+01 0.  1.
         -5    1    4    4    0  502  0.73357676799E+02  0.31550659048E+02  0.20559544677E+02  0.82592842965E+02  0.47000000000E+01 0.  1.
          5    1    5    5  503    0 -0.81997774593E+02  0.16474732960E+02  0.12425056470E+03  0.14985107505E+03  0.47000000000E+01 0.  1.
         -5    1    5    5    0  503  0.33995591025E+02 -0.20477048544E+02  0.13388021054E+02  0.42146634907E+02  0.47000000000E+01 0.  1.
<mgrwt>
<rscale>  0 0.26868050E+03</rscale>
<asrwt>0</asrwt>
<pdfrwt beam="1">  1        3 0.97564102E-02 0.26868050E+03</pdfrwt>
<pdfrwt beam="2">  1       -3 0.43781993E-01 0.26868050E+03</pdfrwt>
<totfact> 0.10147285E+03</totfact>
</mgrwt>
</event>
<event>
 9    1  0.8175317E-001  0.2767530E+03  0.7818608E-02  0.1097476E+00
          1   -1    0    0  501    0  0.00000000000E+00  0.00000000000E+00  0.29885836132E+03  0.29885836132E+03  0.00000000000E+00 0. -1.
         -1   -1    0    0    0  501 -0.00000000000E+00 -0.00000000000E+00 -0.64070677767E+02  0.64070677767E+02  0.00000000000E+00 0. -1.
         35    2    1    2    0    0  0.00000000000E+00 -0.71054273576E-14  0.23478768355E+03  0.36292903908E+03  0.27675301455E+03 0.  0.
         25    2    3    3    0    0  0.17959826596E+02  0.43283722667E+02  0.16253356280E+03  0.21050444621E+03  0.12529535833E+03 0.  0.
         25    2    3    3    0    0 -0.17959826596E+02 -0.43283722667E+02  0.72254120751E+02  0.15242459287E+03  0.12576391584E+03 0.  0.
          5    1    4    4  502    0  0.36154394049E+02  0.57162246439E+02  0.27008869063E+02  0.72981036133E+02  0.47000000000E+01 0.  1.
         -5    1    4    4    0  502 -0.18194567454E+02 -0.13878523772E+02  0.13552469374E+03  0.13752341008E+03  0.47000000000E+01 0.  1.
          5    1    5    5  503    0 -0.18226087776E+02  0.22505737942E+02  0.80756759708E+02  0.85921142651E+02  0.47000000000E+01 0. -1.
         -5    1    5    5    0  503  0.26626118051E+00 -0.65789460609E+02 -0.85026389576E+01  0.66503450222E+02  0.47000000000E+01 0. -1.
<mgrwt>
<rscale>  0 0.27675301E+03</rscale>
<asrwt>0</asrwt>
<pdfrwt beam="1">  1        1 0.45978209E-01 0.27675301E+03</pdfrwt>
<pdfrwt beam="2">  1       -1 0.98570275E-02 0.27675301E+03</pdfrwt>
<totfact> 0.54540500E+03</totfact>
</mgrwt>
</event>
<event>
 9    1  0.8175317E-001  0.2770582E+03  0.7818608E-02  0.1097307E+00
         -2   -1    0    0    0  501 -0.00000000000E+00  0.00000000000E+00  0.13430412757E+02  0.13430412757E+02  0.00000000000E+00 0.  1.
          2   -1    0    0  501    0  0.00000000000E+00 -0.00000000000E+00 -0.14288695295E+04  0.14288695295E+04  0.00000000000E+00 0.  1.
         35    2    1    2    0    0 -0.14210854715E-13  0.00000000000E+00 -0.14154391167E+04  0.14422999422E+04  0.27705817119E+03 0.  0.
         25    2    3    3    0    0  0.17624505582E+02  0.37400397859E+01 -0.41347397238E+03  0.43236100613E+03  0.12510276852E+03 0.  0.
         25    2    3    3    0    0 -0.17624505582E+02 -0.37400397859E+01 -0.10019651443E+04  0.10099389361E+04  0.12537102173E+03 0.  0.
          5    1    4    4  502    0  0.70429508192E+02  0.14252468084E+02 -0.25165421207E+03  0.26175442866E+03  0.47000000000E+01 0. -1.
         -5    1    4    4    0  502 -0.52805002610E+02 -0.10512428298E+02 -0.16181976031E+03  0.17060657747E+03  0.47000000000E+01 0. -1.
          5    1    5    5  503    0 -0.39907987320E+02  0.45786749417E+02 -0.31648872479E+03  0.32229842816E+03  0.47000000000E+01 0.  1.
         -5    1    5    5    0  503  0.22283481739E+02 -0.49526789203E+02 -0.68547641954E+03  0.68764050794E+03  0.47000000000E+01 0.  1.
<mgrwt>
<rscale>  0 0.27705817E+03</rscale>
<asrwt>0</asrwt>
<pdfrwt beam="1">  1        2 0.21982621E+00 0.27705817E+03</pdfrwt>
<pdfrwt beam="2">  1       -2 0.20662161E-02 0.27705817E+03</pdfrwt>
<totfact> 0.10982197E+04</totfact>
</mgrwt>
</event>
<event>
 9    1  0.8175317E-001  0.2798810E+03  0.7818608E-02  0.1095754E+00
          1   -1    0    0  501    0  0.00000000000E+00  0.00000000000E+00  0.59238235158E+02  0.59238235158E+02  0.00000000000E+00 0.  1.
         -1   -1    0    0    0  501 -0.00000000000E+00 -0.00000000000E+00 -0.33058622299E+03  0.33058622299E+03  0.00000000000E+00 0.  1.
         35    2    1    2    0    0  0.00000000000E+00  0.00000000000E+00 -0.27134798783E+03  0.38982445815E+03  0.27988100627E+03 0.  0.
         25    2    3    3    0    0 -0.36343673853E+01  0.32734517960E+02 -0.59807182974E+02  0.14189655753E+03  0.12439042009E+03 0.  0.
         25    2    3    3    0    0  0.36343673853E+01 -0.32734517960E+02 -0.21154080486E+03  0.24792790062E+03  0.12503589283E+03 0.  0.
          5    1    4    4  502    0  0.25524966709E+02  0.73007070522E+02 -0.26599963081E+02  0.81921940331E+02  0.47000000000E+01 0. -1.
         -5    1    4    4    0  502 -0.29159334094E+02 -0.40272552563E+02 -0.33207219893E+02  0.59974617195E+02  0.47000000000E+01 0. -1.
          5    1    5    5  503    0  0.55233650943E+01 -0.49419866883E+02 -0.17231741590E+02  0.52837995069E+02  0.47000000000E+01 0.  1.
         -5    1    5    5    0  503 -0.18889977090E+01  0.16685348923E+02 -0.19430906326E+03  0.19508990555E+03  0.47000000000E+01 0.  1.
<mgrwt>
<rscale>  0 0.27988101E+03</rscale>
<asrwt>0</asrwt>
<pdfrwt beam="1">  1        1 0.91135747E-02 0.27988101E+03</pdfrwt>
<pdfrwt beam="2">  1       -1 0.50859419E-01 0.27988101E+03</pdfrwt>
<totfact> 0.28880250E+03</totfact>
</mgrwt>
</event>
<event>
 9    1  0.8175317E-001  0.2741176E+03  0.7818608E-02  0.1098946E+00
          4   -1    0    0  501    0  0.00000000000E+00  0.00000000000E+00  0.27017898513E+03  0.27017898513E+03  0.00000000000E+00 0.  1.
         -4   -1    0    0    0  501 -0.00000000000E+00 -0.00000000000E+00 -0.69528401784E+02  0.69528401784E+02  0.00000000000E+00 0.  1.
         35    2    1    2    0    0 -0.35527136788E-14  0.00000000000E+00  0.20065058334E+03  0.33970738691E+03  0.27411758814E+03 0.  0.
         25    2    3    3    0    0  0.20605528389E+02  0.50536562502E+02  0.86068621667E+02  0.16098892896E+03  0.12462381659E+03 0.  0.
         25    2    3    3    0    0 -0.20605528389E+02 -0.50536562502E+02  0.11458196168E+03  0.17871845795E+03  0.12582817380E+03 0.  0.
          5    1    4    4  502    0  0.23315177168E+02  0.26790386855E+02 -0.27294928740E+02  0.45038044464E+02  0.47000000000E+01 0. -1.
         -5    1    4    4    0  502 -0.27096487789E+01  0.23746175647E+02  0.11336355041E+03  0.11595088450E+03  0.47000000000E+01 0. -1.
          5    1    5    5  503    0 -0.18801351302E+02 -0.24516944094E+02  0.13912840918E+03  0.14259514578E+03  0.47000000000E+01 0. -1.
         -5    1    5    5    0  503 -0.18041770864E+01 -0.26019618408E+02 -0.24546447507E+02  0.36123312172E+02  0.47000000000E+01 0. -1.
<mgrwt>
<rscale>  0 0.27411759E+03</rscale>
<asrwt>0</asrwt>
<pdfrwt beam="1">  1        4 0.41565997E-01 0.27411759E+03</pdfrwt>
<pdfrwt beam="2">  1       -4 0.10696677E-01 0.27411759E+03</pdfrwt>
<totfact> 0.71466611E+02</totfact>
</mgrwt>
</event>
<event>
 9    1  0.8175317E-001  0.2714104E+03  0.7818608E-02  0.1100475E+00
          1   -1    0    0  501    0  0.00000000000E+00  0.00000000000E+00  0.85743286692E+03  0.85743286692E+03  0.00000000000E+00 0.  1.
         -1   -1    0    0    0  501 -0.00000000000E+00 -0.00000000000E+00 -0.21477945070E+02  0.21477945070E+02  0.00000000000E+00 0.  1.
         35    2    1    2    0    0  0.35527136788E-14 -0.35527136788E-14  0.83595492185E+03  0.87891081199E+03  0.27141036102E+03 0.  0.
         25    2    3    3    0    0  0.28281449865E+02 -0.29734538710E+02  0.53105846417E+03  0.54709309841E+03  0.12491510221E+03 0.  0.
         25    2    3    3    0    0 -0.28281449865E+02  0.29734538710E+02  0.30489645767E+03  0.33181771358E+03  0.12432683516E+03 0.  0.
          5    1    4    4  502    0 -0.27473173203E+02 -0.26587197959E+02  0.51710576472E+02  0.64480447115E+02  0.47000000000E+01 0. -1.
         -5    1    4    4    0  502  0.55754623068E+02 -0.31473407516E+01  0.47934788770E+03  0.48261265130E+03  0.47000000000E+01 0. -1.
          5    1    5    5  503    0  0.37698434402E+01  0.34135332881E+02  0.11375542036E+02  0.36481853394E+02  0.47000000000E+01 0. -1.
         -5    1    5    5    0  503 -0.32051293305E+02 -0.44007941704E+01  0.29352091564E+03  0.29533586018E+03  0.47000000000E+01 0. -1.
<mgrwt>
<rscale>  0 0.27141036E+03</rscale>
<asrwt>0</asrwt>
<pdfrwt beam="1">  1        1 0.13191272E+00 0.27141036E+03</pdfrwt>
<pdfrwt beam="2">  1       -1 0.33042999E-02 0.27141036E+03</pdfrwt>
<totfact> 0.67385046E+03</totfact>
</mgrwt>
</event>
<event>
 9    1  0.8175317E-001  0.2738986E+03  0.7818608E-02  0.1099069E+00
          2   -1    0    0  501    0  0.00000000000E+00  0.00000000000E+00  0.11501120762E+03  0.11501120762E+03  0.00000000000E+00 0. -1.
         -2   -1    0    0    0  501 -0.00000000000E+00 -0.00000000000E+00 -0.16307205076E+03  0.16307205076E+03  0.00000000000E+00 0. -1.
         35    2    1    2    0    0 -0.71054273576E-14  0.00000000000E+00 -0.48060843146E+02  0.27808325838E+03  0.27389861984E+03 0.  0.
         25    2    3    3    0    0  0.51866006744E+02 -0.19469158752E+02 -0.31249018082E+02  0.14057252199E+03  0.12535949110E+03 0.  0.
         25    2    3    3    0    0 -0.51866006744E+02  0.19469158752E+02 -0.16811825063E+02  0.13751073640E+03  0.12472944466E+03 0.  0.
          5    1    4    4  502    0 -0.20059357186E+02  0.37467954189E+02 -0.22460346556E+02  0.48298887867E+02  0.47000000000E+01 0.  1.
         -5    1    4    4    0  502  0.71925363930E+02 -0.56937112941E+02 -0.87886715267E+01  0.92273634120E+02  0.47000000000E+01 0.  1.
          5    1    5    5  503    0 -0.46551076062E+02 -0.47850533371E+02  0.29623810689E+01  0.66989117982E+02  0.47000000000E+01 0.  1.
         -5    1    5    5    0  503 -0.53149306826E+01  0.67319692122E+02 -0.19774206132E+02  0.70521618414E+02  0.47000000000E+01 0.  1.
<mgrwt>
<rscale>  0 0.27389862E+03</rscale>
<asrwt>0</asrwt>
<pdfrwt beam="1">  1        2 0.17694032E-01 0.27389862E+03</pdfrwt>
<pdfrwt beam="2">  1       -2 0.25088008E-01 0.27389862E+03</pdfrwt>
<totfact> 0.44960483E+03</totfact>
</mgrwt>
</event>
<event>
 9    1  0.8175317E-001  0.2720245E+03  0.7818608E-02  0.1100126E+00
         -2   -1    0    0    0  501 -0.00000000000E+00  0.00000000000E+00  0.54803140461E+02  0.54803140461E+02  0.00000000000E+00 0. -1.
          2   -1    0    0  501    0  0.00000000000E+00 -0.00000000000E+00 -0.33755972739E+03  0.33755972739E+03  0.00000000000E+00 0. -1.
         35    2    1    2    0    0  0.00000000000E+00  0.00000000000E+00 -0.28275658693E+03  0.39236286785E+03  0.27202450738E+03 0.  0.
         25    2    3    3    0    0  0.31307600268E+02  0.91399675341E+01 -0.74971729141E+02  0.14940140367E+03  0.12504524944E+03 0.  0.
         25    2    3    3    0    0 -0.31307600268E+02 -0.91399675341E+01 -0.20778485779E+03  0.24296146418E+03  0.12162245315E+03 0.  0.
          5    1    4    4  502    0 -0.50807226337E+00 -0.16316551496E+02 -0.99946263580E+02  0.10137965079E+03  0.47000000000E+01 0.  1.
         -5    1    4    4    0  502  0.31815672532E+02  0.25456519030E+02  0.24974534438E+02  0.48021752885E+02  0.47000000000E+01 0.  1.
          5    1    5    5  503    0 -0.67136193205E+02  0.77475001470E+00 -0.18983451337E+03  0.20141276311E+03  0.47000000000E+01 0. -1.
         -5    1    5    5    0  503  0.35828592937E+02 -0.99147175488E+01 -0.17950344411E+02  0.41548701067E+02  0.47000000000E+01 0. -1.
<mgrwt>
<rscale>  0 0.27202451E+03</rscale>
<asrwt>0</asrwt>
<pdfrwt beam="1">  1        2 0.51932265E-01 0.27202451E+03</pdfrwt>
<pdfrwt beam="2">  1       -2 0.84312525E-02 0.27202451E+03</pdfrwt>
<totfact> 0.83028066E+03</totfact>
</mgrwt>
</event>
<event>
 9    1  0.8175317E-001  0.2738908E+03  0.7818608E-02  0.1099073E+00
          2   -1    0    0  501    0  0.00000000000E+00  0.00000000000E+00  0.22102773687E+04  0.22102773687E+04  0.00000000000E+00 0. -1.
         -2   -1    0    0    0  501 -0.00000000000E+00 -0.00000000000E+00 -0.84849264415E+01  0.84849264415E+01  0.00000000000E+00 0. -1.
         35    2    1    2    0    0 -0.71054273576E-14  0.00000000000E+00  0.22017924422E+04  0.22187622951E+04  0.27389078764E+03 0.  0.
         25    2    3    3    0    0  0.38367919945E+02 -0.19762903842E+02  0.69048189354E+03  0.70167224329E+03  0.11711542193E+03 0.  0.
         25    2    3    3    0    0 -0.38367919945E+02  0.19762903842E+02  0.15113105487E+04  0.15170900518E+04  0.12505991002E+03 0.  0.
          5    1    4    4  502    0 -0.12649025719E+02  0.65596798718E+01  0.84644301598E+01  0.17226834578E+02  0.47000000000E+01 0.  1.
         -5    1    4    4    0  502  0.51016945664E+02 -0.26322583714E+02  0.68201746338E+03  0.68444540871E+03  0.47000000000E+01 0.  1.
          5    1    5    5  503    0 -0.16572938580E+01  0.61994871759E+02  0.11251855480E+04  0.11269031538E+04  0.47000000000E+01 0.  1.
         -5    1    5    5    0  503 -0.36710626087E+02 -0.42231967917E+02  0.38612500072E+03  0.39018689799E+03  0.47000000000E+01 0.  1.
<mgrwt>
<rscale>  0 0.27389079E+03</rscale>
<asrwt>0</asrwt>
<pdfrwt beam="1">  1        2 0.34004221E+00 0.27389079E+03</pdfrwt>
<pdfrwt beam="2">  1       -2 0.13053751E-02 0.27389079E+03</pdfrwt>
<totfact> 0.83128703E+03</totfact>
</mgrwt>
</event>
<event>
 9    1  0.8175317E-001  0.2763429E+03  0.7818608E-02  0.1097703E+00
          2   -1    0    0  501    0  0.00000000000E+00  0.00000000000E+00  0.70794243457E+03  0.70794243457E+03  0.00000000000E+00 0.  1.
         -2   -1    0    0    0  501 -0.00000000000E+00 -0.00000000000E+00 -0.26967371780E+02  0.26967371780E+02  0.00000000000E+00 0.  1.
         35    2    1    2    0    0  0.00000000000E+00 -0.71054273576E-14  0.68097506279E+03  0.73490980635E+03  0.27634288000E+03 0.  0.
         25    2    3    3    0    0 -0.48135556533E+02 -0.31107613528E+02  0.30369139692E+03  0.33333842404E+03  0.12490526391E+03 0.  0.
         25    2    3    3    0    0  0.48135556533E+02  0.31107613528E+02  0.37728366587E+03  0.40157138231E+03  0.12502757752E+03 0.  0.
          5    1    4    4  502    0 -0.39070137459E+02 -0.40756291456E+02  0.40186556727E+02  0.69459342611E+02  0.47000000000E+01 0. -1.
         -5    1    4    4    0  502 -0.90654190738E+01  0.96486779281E+01  0.26350484020E+03  0.26387908143E+03  0.47000000000E+01 0. -1.
          5    1    5    5  503    0  0.45681477681E+02 -0.13832780966E+02  0.43547623206E+02  0.64781391767E+02  0.47000000000E+01 0.  1.
         -5    1    5    5    0  503  0.24540788523E+01  0.44940394494E+02  0.33373604266E+03  0.33678999055E+03  0.47000000000E+01 0.  1.
<mgrwt>
<rscale>  0 0.27634288E+03</rscale>
<asrwt>0</asrwt>
<pdfrwt beam="1">  1        2 0.10891421E+00 0.27634288E+03</pdfrwt>
<pdfrwt beam="2">  1       -2 0.41488270E-02 0.27634288E+03</pdfrwt>
<totfact> 0.10717530E+04</totfact>
</mgrwt>
</event>
<event>
 9    1  0.8175317E-001  0.2734661E+03  0.7818608E-02  0.1099312E+00
         -3   -1    0    0    0  501 -0.00000000000E+00  0.00000000000E+00  0.38674731496E+03  0.38674731496E+03  0.00000000000E+00 0.  1.
          3   -1    0    0  501    0  0.00000000000E+00 -0.00000000000E+00 -0.48341452911E+02  0.48341452911E+02  0.00000000000E+00 0.  1.
         35    2    1    2    0    0 -0.14210854715E-13 -0.71054273576E-14  0.33840586205E+03  0.43508876787E+03  0.27346610111E+03 0.  0.
         25    2    3    3    0    0  0.23129899275E+02 -0.32278678769E+02  0.22914562643E+03  0.26403646596E+03  0.12502252558E+03 0.  0.
         25    2    3    3    0    0 -0.23129899275E+02  0.32278678769E+02  0.10926023563E+03  0.17105230192E+03  0.12547583655E+03 0.  0.
          5    1    4    4  502    0  0.62049318104E+02 -0.33342337564E+02  0.20763362017E+03  0.21930718086E+03  0.47000000000E+01 0.  1.
         -5    1    4    4    0  502 -0.38919418829E+02  0.10636587950E+01  0.21512006250E+02  0.44729285093E+02  0.47000000000E+01 0.  1.
          5    1    5    5  503    0  0.34851198614E+02  0.56636577277E+02  0.41711505594E+02  0.78639987471E+02  0.47000000000E+01 0. -1.
         -5    1    5    5    0  503 -0.57981097889E+02 -0.24357898508E+02  0.67548730032E+02  0.92412314445E+02  0.47000000000E+01 0. -1.
<mgrwt>
<rscale>  0 0.27346610E+03</rscale>
<asrwt>0</asrwt>
<pdfrwt beam="1">  1        3 0.74371469E-02 0.27346610E+03</pdfrwt>
<pdfrwt beam="2">  1       -3 0.59499585E-01 0.27346610E+03</pdfrwt>
<totfact> 0.85507205E+02</totfact>
</mgrwt>
</event>
<event>
 9    1  0.8175317E-001  0.2763080E+03  0.7818608E-02  0.1097723E+00
          2   -1    0    0  501    0  0.00000000000E+00  0.00000000000E+00  0.15407722498E+04  0.15407722498E+04  0.00000000000E+00 0. -1.
         -2   -1    0    0    0  501 -0.00000000000E+00 -0.00000000000E+00 -0.12387638010E+02  0.12387638010E+02  0.00000000000E+00 0. -1.
         35    2    1    2    0    0  0.00000000000E+00  0.00000000000E+00  0.15283846118E+04  0.15531598878E+04  0.27630800846E+03 0.  0.
         25    2    3    3    0    0 -0.33934915225E+02  0.45805716713E+02  0.67236570081E+03  0.68621936483E+03  0.12478637301E+03 0.  0.
         25    2    3    3    0    0  0.33934915225E+02 -0.45805716713E+02  0.85601891094E+03  0.86694052294E+03  0.12477079895E+03 0.  0.
          5    1    4    4  502    0 -0.69119893190E+02  0.22861699840E+02  0.21781608112E+03  0.22970884212E+03  0.47000000000E+01 0. -1.
         -5    1    4    4    0  502  0.35184977964E+02  0.22944016873E+02  0.45454961969E+03  0.45651052271E+03  0.47000000000E+01 0. -1.
          5    1    5    5  503    0  0.47999465038E+02  0.22414099584E+02  0.57200874235E+03  0.57447578872E+03  0.47000000000E+01 0. -1.
         -5    1    5    5    0  503 -0.14064549812E+02 -0.68219816297E+02  0.28401016860E+03  0.29246473422E+03  0.47000000000E+01 0. -1.
<mgrwt>
<rscale>  0 0.27630801E+03</rscale>
<asrwt>0</asrwt>
<pdfrwt beam="1">  1        2 0.23704173E+00 0.27630801E+03</pdfrwt>
<pdfrwt beam="2">  1       -2 0.19057917E-02 0.27630801E+03</pdfrwt>
<totfact> 0.10771201E+04</totfact>
</mgrwt>
</event>
<event>
 9    1  0.8175317E-001  0.2758949E+03  0.7818608E-02  0.1097952E+00
          2   -1    0    0  501    0  0.00000000000E+00  0.00000000000E+00  0.99618007234E+02  0.99618007234E+02  0.00000000000E+00 0.  1.
         -2   -1    0    0    0  501 -0.00000000000E+00 -0.00000000000E+00 -0.19102467615E+03  0.19102467615E+03  0.00000000000E+00 0.  1.
         35    2    1    2    0    0  0.14210854715E-13 -0.14210854715E-13 -0.91406668916E+02  0.29064268338E+03  0.27589488992E+03 0.  0.
         25    2    3    3    0    0 -0.42883218243E+02 -0.36664178495E+02 -0.52188417854E+02  0.14822027153E+03  0.12673746700E+03 0.  0.
         25    2    3    3    0    0  0.42883218243E+02  0.36664178495E+02 -0.39218251062E+02  0.14242241186E+03  0.12475111138E+03 0.  0.
          5    1    4    4  502    0 -0.72851202356E+02 -0.19447233375E+01 -0.67695037227E+02  0.99578048277E+02  0.47000000000E+01 0.  1.
         -5    1    4    4    0  502  0.29967984112E+02 -0.34719455158E+02  0.15506619373E+02  0.48642223249E+02  0.47000000000E+01 0.  1.
          5    1    5    5  503    0  0.34952655972E+02  0.73962465057E+02  0.70952044274E+01  0.82246983669E+02  0.47000000000E+01 0.  1.
         -5    1    5    5    0  503  0.79305622714E+01 -0.37298286561E+02 -0.46313455490E+02  0.60175428189E+02  0.47000000000E+01 0.  1.
<mgrwt>
<rscale>  0 0.27589489E+03</rscale>
<asrwt>0</asrwt>
<pdfrwt beam="1">  1        2 0.15325847E-01 0.27589489E+03</pdfrwt>
<pdfrwt beam="2">  1       -2 0.29388412E-01 0.27589489E+03</pdfrwt>
<totfact> 0.40113394E+03</totfact>
</mgrwt>
</event>
<event>
 9    1  0.8175317E-001  0.2751463E+03  0.7818608E-02  0.1098370E+00
         -1   -1    0    0    0  501 -0.00000000000E+00  0.00000000000E+00  0.20305818140E+03  0.20305818140E+03  0.00000000000E+00 0. -1.
          1   -1    0    0  501    0  0.00000000000E+00 -0.00000000000E+00 -0.93206656213E+02  0.93206656213E+02  0.00000000000E+00 0. -1.
         35    2    1    2    0    0  0.00000000000E+00  0.00000000000E+00  0.10985152519E+03  0.29626483761E+03  0.27514631820E+03 0.  0.
         25    2    3    3    0    0 -0.42210072234E+02  0.12113016378E+02  0.15838952423E+02  0.13374420366E+03  0.12533245484E+03 0.  0.
         25    2    3    3    0    0  0.42210072234E+02 -0.12113016378E+02  0.94012572766E+02  0.16252063395E+03  0.12508468035E+03 0.  0.
          5    1    4    4  502    0 -0.39017719889E+01 -0.50296690535E+02  0.30183493439E+02  0.58975538824E+02  0.47000000000E+01 0. -1.
         -5    1    4    4    0  502 -0.38308300245E+02  0.62409706913E+02 -0.14344541016E+02  0.74768664838E+02  0.47000000000E+01 0. -1.
          5    1    5    5  503    0 -0.39599593798E+01  0.14312923443E+02  0.10653454491E+03  0.10766726668E+03  0.47000000000E+01 0.  1.
         -5    1    5    5    0  503  0.46170031614E+02 -0.26425939821E+02 -0.12521972143E+02  0.54853367271E+02  0.47000000000E+01 0.  1.
<mgrwt>
<rscale>  0 0.27514632E+03</rscale>
<asrwt>0</asrwt>
<pdfrwt beam="1">  1        1 0.14339486E-01 0.27514632E+03</pdfrwt>
<pdfrwt beam="2">  1       -1 0.31239720E-01 0.27514632E+03</pdfrwt>
<totfact> 0.37497521E+03</totfact>
</mgrwt>
</event>
<event>
 9    1  0.8175317E-001  0.3178845E+03  0.7818608E-02  0.1076627E+00
          2   -1    0    0  501    0  0.00000000000E+00  0.00000000000E+00  0.91765633709E+03  0.91765633709E+03  0.00000000000E+00 0.  1.
         -2   -1    0    0    0  501 -0.00000000000E+00 -0.00000000000E+00 -0.27529520246E+02  0.27529520246E+02  0.00000000000E+00 0.  1.
         35    2    1    2    0    0  0.00000000000E+00  0.35527136788E-14  0.89012681685E+03  0.94518585734E+03  0.31788449922E+03 0.  0.
         25    2    3    3    0    0  0.37872280623E+02  0.23545989543E+02  0.70588707424E+03  0.71825617501E+03  0.12500659218E+03 0.  0.
         25    2    3    3    0    0 -0.37872280623E+02 -0.23545989543E+02  0.18423974260E+03  0.22692968233E+03  0.12475606080E+03 0.  0.
          5    1    4    4  502    0 -0.38550683138E+02  0.19306495921E+02  0.12459223195E+03  0.13192501741E+03  0.47000000000E+01 0.  1.
         -5    1    4    4    0  502  0.76422963761E+02  0.42394936224E+01  0.58129484229E+03  0.58633115760E+03  0.47000000000E+01 0.  1.
          5    1    5    5  503    0 -0.52594238009E+02 -0.42923477202E+02  0.36684568951E+02  0.77307350013E+02  0.47000000000E+01 0.  1.
         -5    1    5    5    0  503  0.14721957386E+02  0.19377487659E+02  0.14755517365E+03  0.14962233232E+03  0.47000000000E+01 0.  1.
<mgrwt>
<rscale>  0 0.31788450E+03</rscale>
<asrwt>0</asrwt>
<pdfrwt beam="1">  1        2 0.14117787E+00 0.31788450E+03</pdfrwt>
<pdfrwt beam="2">  1       -2 0.42353115E-02 0.31788450E+03</pdfrwt>
<totfact> 0.74762640E+03</totfact>
</mgrwt>
</event>
<event>
 9    1  0.8175317E-001  0.2750930E+03  0.7818608E-02  0.1098400E+00
          2   -1    0    0  501    0  0.00000000000E+00  0.00000000000E+00  0.12868369598E+02  0.12868369598E+02  0.00000000000E+00 0.  1.
         -2   -1    0    0    0  501 -0.00000000000E+00 -0.00000000000E+00 -0.14701969467E+04  0.14701969467E+04  0.00000000000E+00 0.  1.
         35    2    1    2    0    0  0.53290705182E-14  0.71054273576E-14 -0.14573285771E+04  0.14830653163E+04  0.27509298568E+03 0.  0.
         25    2    3    3    0    0  0.21973720630E+01 -0.45537272878E+02 -0.83204527612E+03  0.84283789651E+03  0.12648283134E+03 0.  0.
         25    2    3    3    0    0 -0.21973720630E+01  0.45537272878E+02 -0.62528330099E+03  0.64022741979E+03  0.12974386649E+03 0.  0.
          5    1    4    4  502    0  0.83808318812E+01 -0.56966629211E+02 -0.15133021621E+03  0.16198259019E+03  0.47000000000E+01 0. -1.
         -5    1    4    4    0  502 -0.61834598182E+01  0.11429356333E+02 -0.68071505990E+03  0.68085530632E+03  0.47000000000E+01 0. -1.
          5    1    5    5  503    0  0.52083791595E+02  0.61185518052E+02 -0.38893090151E+03  0.39717216055E+03  0.47000000000E+01 0.  1.
         -5    1    5    5    0  503 -0.54281163658E+02 -0.15648245174E+02 -0.23635239947E+03  0.24305525924E+03  0.47000000000E+01 0.  1.
<mgrwt>
<rscale>  0 0.27509299E+03</rscale>
<asrwt>0</asrwt>
<pdfrwt beam="1">  1        2 0.19797503E-02 0.27509299E+03</pdfrwt>
<pdfrwt beam="2">  1       -2 0.22618402E+00 0.27509299E+03</pdfrwt>
<totfact> 0.55216882E+02</totfact>
</mgrwt>
</event>
<event>
 9    1  0.8175317E-001  0.2698430E+03  0.7818608E-02  0.1101370E+00
          1   -1    0    0  501    0  0.00000000000E+00  0.00000000000E+00  0.82543947690E+02  0.82543947690E+02  0.00000000000E+00 0.  1.
         -1   -1    0    0    0  501 -0.00000000000E+00 -0.00000000000E+00 -0.22053470277E+03  0.22053470277E+03  0.00000000000E+00 0.  1.
         35    2    1    2    0    0  0.71054273576E-14 -0.35527136788E-14 -0.13799075508E+03  0.30307865046E+03  0.26984295410E+03 0.  0.
         25    2    3    3    0    0 -0.15676010092E+02  0.31190329484E+02 -0.26403487097E+02  0.13256590842E+03  0.12513193836E+03 0.  0.
         25    2    3    3    0    0  0.15676010092E+02 -0.31190329484E+02 -0.11158726799E+03  0.17051274204E+03  0.12411407204E+03 0.  0.
          5    1    4    4  502    0  0.17808492827E+02  0.13868522191E+02 -0.70609116844E+02  0.74277962452E+02  0.47000000000E+01 0.  1.
         -5    1    4    4    0  502 -0.33484502919E+02  0.17321807294E+02  0.44205629747E+02  0.58287945966E+02  0.47000000000E+01 0.  1.
          5    1    5    5  503    0 -0.35146571270E+02 -0.44909799089E+02 -0.10177569570E+03  0.11675852757E+03  0.47000000000E+01 0.  1.
         -5    1    5    5    0  503  0.50822581362E+02  0.13719469605E+02 -0.98115722869E+01  0.53754214470E+02  0.47000000000E+01 0.  1.
<mgrwt>
<rscale>  0 0.26984295E+03</rscale>
<asrwt>0</asrwt>
<pdfrwt beam="1">  1        1 0.12699069E-01 0.26984295E+03</pdfrwt>
<pdfrwt beam="2">  1       -1 0.33928415E-01 0.26984295E+03</pdfrwt>
<totfact> 0.38173250E+03</totfact>
</mgrwt>
</event>
<event>
 9    1  0.8175317E-001  0.2776050E+03  0.7818608E-02  0.1097004E+00
          1   -1    0    0  501    0  0.00000000000E+00  0.00000000000E+00  0.13476558010E+04  0.13476558010E+04  0.00000000000E+00 0. -1.
         -1   -1    0    0    0  501 -0.00000000000E+00 -0.00000000000E+00 -0.14296031006E+02  0.14296031006E+02  0.00000000000E+00 0. -1.
         35    2    1    2    0    0  0.00000000000E+00 -0.71054273576E-14  0.13333597700E+04  0.13619518320E+04  0.27760496477E+03 0.  0.
         25    2    3    3    0    0 -0.21240602400E+02  0.31454864598E+02  0.89940877178E+03  0.90882235121E+03  0.12482530036E+03 0.  0.
         25    2    3    3    0    0  0.21240602400E+02 -0.31454864598E+02  0.43395099818E+03  0.45312948076E+03  0.12478896512E+03 0.  0.
          5    1    4    4  502    0 -0.77733051681E+01  0.76939093312E+02  0.67335825992E+03  0.67780047548E+03  0.47000000000E+01 0.  1.
         -5    1    4    4    0  502 -0.13467297232E+02 -0.45484228714E+02  0.22605051185E+03  0.23102187573E+03  0.47000000000E+01 0.  1.
          5    1    5    5  503    0  0.70346171017E+01  0.31271430894E+02  0.30291577939E+02  0.44351526715E+02  0.47000000000E+01 0.  1.
         -5    1    5    5    0  503  0.14205985298E+02 -0.62726295492E+02  0.40365942024E+03  0.40877795404E+03  0.47000000000E+01 0.  1.
<mgrwt>
<rscale>  0 0.27760496E+03</rscale>
<asrwt>0</asrwt>
<pdfrwt beam="1">  1        1 0.20733156E+00 0.27760496E+03</pdfrwt>
<pdfrwt beam="2">  1       -1 0.21993904E-02 0.27760496E+03</pdfrwt>
<totfact> 0.54014510E+03</totfact>
</mgrwt>
</event>
<event>
 9    1  0.8175317E-001  0.2759539E+03  0.7818608E-02  0.1097920E+00
          3   -1    0    0  501    0  0.00000000000E+00  0.00000000000E+00  0.47756589077E+03  0.47756589077E+03  0.00000000000E+00 0. -1.
         -3   -1    0    0    0  501 -0.00000000000E+00 -0.00000000000E+00 -0.39863896433E+02  0.39863896433E+02  0.00000000000E+00 0. -1.
         35    2    1    2    0    0  0.71054273576E-14  0.00000000000E+00  0.43770199434E+03  0.51742978720E+03  0.27595388897E+03 0.  0.
         25    2    3    3    0    0  0.60054294409E+02  0.58206758279E+01  0.22765107352E+03  0.26683094566E+03  0.12543262631E+03 0.  0.
         25    2    3    3    0    0 -0.60054294409E+02 -0.58206758279E+01  0.21005092081E+03  0.25059884154E+03  0.12262948871E+03 0.  0.
          5    1    4    4  502    0  0.39144209136E+02 -0.27610085465E+02  0.14870672631E+02  0.50376709230E+02  0.47000000000E+01 0.  1.
         -5    1    4    4    0  502  0.20910085272E+02  0.33430761293E+02  0.21278040089E+03  0.21645423644E+03  0.47000000000E+01 0.  1.
          5    1    5    5  503    0 -0.91933506692E+01  0.54547601216E+02  0.10862079091E+03  0.12198575619E+03  0.47000000000E+01 0. -1.
         -5    1    5    5    0  503 -0.50860943739E+02 -0.60368277044E+02  0.10143012991E+03  0.12861308535E+03  0.47000000000E+01 0. -1.
<mgrwt>
<rscale>  0 0.27595389E+03</rscale>
<asrwt>0</asrwt>
<pdfrwt beam="1">  1        3 0.73471672E-01 0.27595389E+03</pdfrwt>
<pdfrwt beam="2">  1       -3 0.61329075E-02 0.27595389E+03</pdfrwt>
<totfact> 0.74984488E+02</totfact>
</mgrwt>
</event>
<event>
 9    1  0.8175317E-001  0.2744967E+03  0.7818608E-02  0.1098733E+00
         -2   -1    0    0    0  501 -0.00000000000E+00  0.00000000000E+00  0.22742796034E+02  0.22742796034E+02  0.00000000000E+00 0. -1.
          2   -1    0    0  501    0  0.00000000000E+00 -0.00000000000E+00 -0.82826732145E+03  0.82826732145E+03  0.00000000000E+00 0. -1.
         35    2    1    2    0    0  0.00000000000E+00 -0.35527136788E-14 -0.80552452542E+03  0.85101011749E+03  0.27449673771E+03 0.  0.
         25    2    3    3    0    0  0.44061902850E+02 -0.12880591493E+02 -0.51150981428E+03  0.52863886078E+03  0.12533712179E+03 0.  0.
         25    2    3    3    0    0 -0.44061902850E+02  0.12880591493E+02 -0.29401471114E+03  0.32237125671E+03  0.12398070764E+03 0.  0.
          5    1    4    4  502    0 -0.40799238488E+02 -0.19867320729E+02 -0.23061713944E+03  0.23508645919E+03  0.47000000000E+01 0. -1.
         -5    1    4    4    0  502  0.84861141338E+02  0.69867292360E+01 -0.28089267485E+03  0.29355240159E+03  0.47000000000E+01 0. -1.
          5    1    5    5  503    0 -0.55142398165E+02 -0.28651220698E+02 -0.67917033098E+02  0.92175864019E+02  0.47000000000E+01 0. -1.
         -5    1    5    5    0  503  0.11080495315E+02  0.41531812191E+02 -0.22609767804E+03  0.23019539269E+03  0.47000000000E+01 0. -1.
<mgrwt>
<rscale>  0 0.27449674E+03</rscale>
<asrwt>0</asrwt>
<pdfrwt beam="1">  1        2 0.12742574E+00 0.27449674E+03</pdfrwt>
<pdfrwt beam="2">  1       -2 0.34988919E-02 0.27449674E+03</pdfrwt>
<totfact> 0.11367977E+04</totfact>
</mgrwt>
</event>
<event>
 9    1  0.8175317E-001  0.2726552E+03  0.7818608E-02  0.1099770E+00
         -4   -1    0    0    0  501 -0.00000000000E+00  0.00000000000E+00  0.96156058029E+03  0.96156058029E+03  0.00000000000E+00 0.  1.
          4   -1    0    0  501    0  0.00000000000E+00 -0.00000000000E+00 -0.19328176374E+02  0.19328176374E+02  0.00000000000E+00 0.  1.
         35    2    1    2    0    0 -0.35527136788E-14 -0.14210854715E-13  0.94223240391E+03  0.98088875666E+03  0.27265518509E+03 0.  0.
         25    2    3    3    0    0 -0.18827235200E+02 -0.49947586682E+02  0.44555724627E+03  0.46578199376E+03  0.12482940283E+03 0.  0.
         25    2    3    3    0    0  0.18827235200E+02  0.49947586682E+02  0.49667515765E+03  0.51510676290E+03  0.12569621617E+03 0.  0.
          5    1    4    4  502    0  0.41516966412E+02  0.11915579289E+02  0.21874122381E+03  0.22301446707E+03  0.47000000000E+01 0. -1.
         -5    1    4    4    0  502 -0.60344201611E+02 -0.61863165971E+02  0.22681602246E+03  0.24276752669E+03  0.47000000000E+01 0. -1.
          5    1    5    5  503    0 -0.26320582446E+02  0.44948061543E+02  0.43621226915E+03  0.43933624373E+03  0.47000000000E+01 0. -1.
         -5    1    5    5    0  503  0.45147817646E+02  0.49995251384E+01  0.60462888496E+02  0.75770519169E+02  0.47000000000E+01 0. -1.
<mgrwt>
<rscale>  0 0.27265519E+03</rscale>
<asrwt>0</asrwt>
<pdfrwt beam="1">  1        4 0.29735663E-02 0.27265519E+03</pdfrwt>
<pdfrwt beam="2">  1       -4 0.14793236E+00 0.27265519E+03</pdfrwt>
<totfact> 0.33528646E+02</totfact>
</mgrwt>
</event>
<event>
 9    1  0.8175317E-001  0.2752343E+03  0.7818608E-02  0.1098321E+00
          1   -1    0    0  501    0  0.00000000000E+00  0.00000000000E+00  0.17372180411E+04  0.17372180411E+04  0.00000000000E+00 0. -1.
         -1   -1    0    0    0  501 -0.00000000000E+00 -0.00000000000E+00 -0.10901615025E+02  0.10901615025E+02  0.00000000000E+00 0. -1.
         35    2    1    2    0    0  0.00000000000E+00 -0.35527136788E-14  0.17263164260E+04  0.17481196561E+04  0.27523431689E+03 0.  0.
         25    2    3    3    0    0 -0.17771836306E+02 -0.29439357151E+02  0.11538167206E+04  0.11612225357E+04  0.12634175383E+03 0.  0.
         25    2    3    3    0    0  0.17771836306E+02  0.29439357151E+02  0.57249970542E+03  0.58689712037E+03  0.12453836068E+03 0.  0.
          5    1    4    4  502    0 -0.29169893318E+02  0.45901464608E+02  0.47539849836E+03  0.47852236036E+03  0.47000000000E+01 0. -1.
         -5    1    4    4    0  502  0.11398057012E+02 -0.75340821760E+02  0.67841822226E+03  0.68270017535E+03  0.47000000000E+01 0. -1.
          5    1    5    5  503    0  0.64174127348E+02 -0.11736956422E+02  0.24755972973E+03  0.25605465149E+03  0.47000000000E+01 0. -1.
         -5    1    5    5    0  503 -0.46402291041E+02  0.41176313573E+02  0.32493997569E+03  0.33084246888E+03  0.47000000000E+01 0. -1.
<mgrwt>
<rscale>  0 0.27523432E+03</rscale>
<asrwt>0</asrwt>
<pdfrwt beam="1">  1        1 0.26726409E+00 0.27523432E+03</pdfrwt>
<pdfrwt beam="2">  1       -1 0.16771729E-02 0.27523432E+03</pdfrwt>
<totfact> 0.44340434E+03</totfact>
</mgrwt>
</event>
<event>
 9    1  0.8175317E-001  0.2731608E+03  0.7818608E-02  0.1099484E+00
         -2   -1    0    0    0  501 -0.00000000000E+00  0.00000000000E+00  0.17164600124E+02  0.17164600124E+02  0.00000000000E+00 0.  1.
          2   -1    0    0  501    0  0.00000000000E+00 -0.00000000000E+00 -0.10867833230E+04  0.10867833230E+04  0.00000000000E+00 0.  1.
         35    2    1    2    0    0  0.00000000000E+00  0.00000000000E+00 -0.10696187228E+04  0.11039479231E+04  0.27316076702E+03 0.  0.
         25    2    3    3    0    0 -0.29464749530E+01 -0.20032270129E+02 -0.32361678199E+03  0.34732089429E+03  0.12447493105E+03 0.  0.
         25    2    3    3    0    0  0.29464749530E+01  0.20032270129E+02 -0.74600194084E+03  0.75662702880E+03  0.12472205661E+03 0.  0.
          5    1    4    4  502    0  0.46319655523E+02  0.12842434819E+02 -0.23959926044E+03  0.24441835901E+03  0.47000000000E+01 0. -1.
         -5    1    4    4    0  502 -0.49266130476E+02 -0.32874704947E+02 -0.84017521555E+02  0.10290253527E+03  0.47000000000E+01 0. -1.
          5    1    5    5  503    0  0.48682807106E+02 -0.15903461103E+02 -0.16823290211E+03  0.17591854688E+03  0.47000000000E+01 0. -1.
         -5    1    5    5    0  503 -0.45736332153E+02  0.35935731231E+02 -0.57776903873E+03  0.58070848192E+03  0.47000000000E+01 0. -1.
<mgrwt>
<rscale>  0 0.27316077E+03</rscale>
<asrwt>0</asrwt>
<pdfrwt beam="1">  1        2 0.16719749E+00 0.27316077E+03</pdfrwt>
<pdfrwt beam="2">  1       -2 0.26407069E-02 0.27316077E+03</pdfrwt>
<totfact> 0.11890153E+04</totfact>
</mgrwt>
</event>
<event>
 9    1  0.8175317E-001  0.2799645E+03  0.7818608E-02  0.1095708E+00
         -2   -1    0    0    0  501 -0.00000000000E+00  0.00000000000E+00  0.95267030317E+02  0.95267030317E+02  0.00000000000E+00 0.  1.
          2   -1    0    0  501    0  0.00000000000E+00 -0.00000000000E+00 -0.20568537944E+03  0.20568537944E+03  0.00000000000E+00 0.  1.
         35    2    1    2    0    0  0.00000000000E+00  0.71054273576E-14 -0.11041834912E+03  0.30095240975E+03  0.27996453546E+03 0.  0.
         25    2    3    3    0    0  0.44805414356E+02  0.71351871939E+01 -0.87821108018E+01  0.13340021450E+03  0.12514014427E+03 0.  0.
         25    2    3    3    0    0 -0.44805414356E+02 -0.71351871939E+01 -0.10163623832E+03  0.16755219525E+03  0.12524127571E+03 0.  0.
          5    1    4    4  502    0  0.11647183377E+02  0.43660806475E+02 -0.50999402553E+02  0.68300453611E+02  0.47000000000E+01 0.  1.
         -5    1    4    4    0  502  0.33158230979E+02 -0.36525619281E+02  0.42217291751E+02  0.65099760893E+02  0.47000000000E+01 0.  1.
          5    1    5    5  503    0 -0.43798026243E+02 -0.24153369941E+02  0.12731760559E+02  0.51825091502E+02  0.47000000000E+01 0.  1.
         -5    1    5    5    0  503 -0.10073881130E+01  0.17018182747E+02 -0.11436799888E+03  0.11572710375E+03  0.47000000000E+01 0.  1.
<mgrwt>
<rscale>  0 0.27996454E+03</rscale>
<asrwt>0</asrwt>
<pdfrwt beam="1">  1        2 0.31643904E-01 0.27996454E+03</pdfrwt>
<pdfrwt beam="2">  1       -2 0.14656466E-01 0.27996454E+03</pdfrwt>
<totfact> 0.58434087E+03</totfact>
</mgrwt>
</event>
<event>
 9    1  0.8175317E-001  0.2751232E+03  0.7818608E-02  0.1098383E+00
         -2   -1    0    0    0  501 -0.00000000000E+00  0.00000000000E+00  0.23638252781E+02  0.23638252781E+02  0.00000000000E+00 0.  1.
          2   -1    0    0  501    0  0.00000000000E+00 -0.00000000000E+00 -0.80053266765E+03  0.80053266765E+03  0.00000000000E+00 0.  1.
         35    2    1    2    0    0  0.00000000000E+00 -0.71054273576E-14 -0.77689441487E+03  0.82417092044E+03  0.27512319827E+03 0.  0.
         25    2    3    3    0    0  0.26002662595E+02  0.56226571695E+02 -0.40722663881E+03  0.42918354611E+03  0.12052972688E+03 0.  0.
         25    2    3    3    0    0 -0.26002662595E+02 -0.56226571695E+02 -0.36966777606E+03  0.39498737433E+03  0.12459211611E+03 0.  0.
          5    1    4    4  502    0 -0.26126703676E+01 -0.32953011984E+02 -0.52072879093E+02  0.61857916084E+02  0.47000000000E+01 0.  1.
         -5    1    4    4    0  502  0.28615332962E+02  0.89179583679E+02 -0.35515375972E+03  0.36732563002E+03  0.47000000000E+01 0.  1.
          5    1    5    5  503    0  0.23328610600E+02 -0.64731919117E+02 -0.30695561138E+03  0.31460814164E+03  0.47000000000E+01 0.  1.
         -5    1    5    5    0  503 -0.49331273195E+02  0.85053474225E+01 -0.62712164676E+02  0.80379232692E+02  0.47000000000E+01 0.  1.
<mgrwt>
<rscale>  0 0.27512320E+03</rscale>
<asrwt>0</asrwt>
<pdfrwt beam="1">  1        2 0.12315888E+00 0.27512320E+03</pdfrwt>
<pdfrwt beam="2">  1       -2 0.36366540E-02 0.27512320E+03</pdfrwt>
<totfact> 0.11208982E+04</totfact>
</mgrwt>
</event>
<event>
 9    1  0.8175317E-001  0.2777195E+03  0.7818608E-02  0.1096941E+00
          2   -1    0    0  501    0  0.00000000000E+00  0.00000000000E+00  0.88891353115E+03  0.88891353115E+03  0.00000000000E+00 0. -1.
         -2   -1    0    0    0  501 -0.00000000000E+00 -0.00000000000E+00 -0.21691689622E+02  0.21691689622E+02  0.00000000000E+00 0. -1.
         35    2    1    2    0    0  0.00000000000E+00  0.35527136788E-14  0.86722184152E+03  0.91060522077E+03  0.27771954500E+03 0.  0.
         25    2    3    3    0    0 -0.43262622433E+02  0.15349093027E+02  0.56759422894E+03  0.58293920125E+03  0.12469023407E+03 0.  0.
         25    2    3    3    0    0  0.43262622433E+02 -0.15349093027E+02  0.29962761258E+03  0.32766601951E+03  0.12442292782E+03 0.  0.
          5    1    4    4  502    0 -0.69942715084E+02  0.28737154191E+01  0.53152766194E+03  0.53613802984E+03  0.47000000000E+01 0. -1.
         -5    1    4    4    0  502  0.26680092651E+02  0.12475377608E+02  0.36066567006E+02  0.46801171416E+02  0.47000000000E+01 0. -1.
          5    1    5    5  503    0 -0.24515416587E+02 -0.43256217008E+02  0.66007280708E+02  0.82771716587E+02  0.47000000000E+01 0.  1.
         -5    1    5    5    0  503  0.67778039020E+02  0.27907123980E+02  0.23362033187E+03  0.24489430293E+03  0.47000000000E+01 0.  1.
<mgrwt>
<rscale>  0 0.27771954E+03</rscale>
<asrwt>0</asrwt>
<pdfrwt beam="1">  1        2 0.13675590E+00 0.27771954E+03</pdfrwt>
<pdfrwt beam="2">  1       -2 0.33371837E-02 0.27771954E+03</pdfrwt>
<totfact> 0.11126405E+04</totfact>
</mgrwt>
</event>
<event>
 9    1  0.8175317E-001  0.2699539E+03  0.7818608E-02  0.1101306E+00
         -1   -1    0    0    0  501 -0.00000000000E+00  0.00000000000E+00  0.10573283275E+03  0.10573283275E+03  0.00000000000E+00 0. -1.
          1   -1    0    0  501    0  0.00000000000E+00 -0.00000000000E+00 -0.17230953671E+03  0.17230953671E+03  0.00000000000E+00 0. -1.
         35    2    1    2    0    0  0.71054273576E-14 -0.35527136788E-14 -0.66576703960E+02  0.27804236947E+03  0.26995388811E+03 0.  0.
         25    2    3    3    0    0  0.39881449080E+02  0.81592887914E+01 -0.66192532687E+02  0.14692179488E+03  0.12468944804E+03 0.  0.
         25    2    3    3    0    0 -0.39881449080E+02 -0.81592887914E+01 -0.38417127304E+00  0.13112057459E+03  0.12464089826E+03 0.  0.
          5    1    4    4  502    0 -0.30147979109E+02  0.55034480645E+01 -0.70023211533E+02  0.76580211140E+02  0.47000000000E+01 0.  1.
         -5    1    4    4    0  502  0.70029428189E+02  0.26558407269E+01  0.38306788460E+01  0.70341583739E+02  0.47000000000E+01 0.  1.
          5    1    5    5  503    0 -0.22519431689E+02  0.32307984201E+02 -0.50519163192E+02  0.64227770445E+02  0.47000000000E+01 0. -1.
         -5    1    5    5    0  503 -0.17362017391E+02 -0.40467272992E+02  0.50134991919E+02  0.66892804142E+02  0.47000000000E+01 0. -1.
<mgrwt>
<rscale>  0 0.26995389E+03</rscale>
<asrwt>0</asrwt>
<pdfrwt beam="1">  1        1 0.26509159E-01 0.26995389E+03</pdfrwt>
<pdfrwt beam="2">  1       -1 0.16266590E-01 0.26995389E+03</pdfrwt>
<totfact> 0.49673201E+03</totfact>
</mgrwt>
</event>
<event>
 9    1  0.8175317E-001  0.2751141E+03  0.7818608E-02  0.1098388E+00
          1   -1    0    0  501    0  0.00000000000E+00  0.00000000000E+00  0.14062041313E+03  0.14062041313E+03  0.00000000000E+00 0. -1.
         -1   -1    0    0    0  501 -0.00000000000E+00 -0.00000000000E+00 -0.13456041683E+03  0.13456041683E+03  0.00000000000E+00 0. -1.
         35    2    1    2    0    0  0.00000000000E+00  0.00000000000E+00  0.60599963071E+01  0.27518082996E+03  0.27511409565E+03 0.  0.
         25    2    3    3    0    0  0.50616629466E+02 -0.31334895227E+02  0.10343846183E+02  0.13690769736E+03  0.12285277206E+03 0.  0.
         25    2    3    3    0    0 -0.50616629466E+02  0.31334895227E+02 -0.42838498758E+01  0.13827313261E+03  0.12472846104E+03 0.  0.
          5    1    4    4  502    0  0.31614395280E+02  0.44317834194E+02 -0.11351882112E+02  0.55807666534E+02  0.47000000000E+01 0. -1.
         -5    1    4    4    0  502  0.19002234186E+02 -0.75652729421E+02  0.21695728295E+02  0.81100030821E+02  0.47000000000E+01 0. -1.
          5    1    5    5  503    0 -0.26965795677E+01  0.51188156065E+02 -0.47919793269E+02  0.70327060579E+02  0.47000000000E+01 0.  1.
         -5    1    5    5    0  503 -0.47920049898E+02 -0.19853260838E+02  0.43635943393E+02  0.67946072028E+02  0.47000000000E+01 0.  1.
<mgrwt>
<rscale>  0 0.27511410E+03</rscale>
<asrwt>0</asrwt>
<pdfrwt beam="1">  1        1 0.21633910E-01 0.27511410E+03</pdfrwt>
<pdfrwt beam="2">  1       -1 0.20701603E-01 0.27511410E+03</pdfrwt>
<totfact> 0.43659055E+03</totfact>
</mgrwt>
</event>
<event>
 9    1  0.8175317E-001  0.2744556E+03  0.7818608E-02  0.1098756E+00
         -2   -1    0    0    0  501 -0.00000000000E+00  0.00000000000E+00  0.86629206483E+03  0.86629206483E+03  0.00000000000E+00 0.  1.
          2   -1    0    0  501    0  0.00000000000E+00 -0.00000000000E+00 -0.21738018091E+02  0.21738018091E+02  0.00000000000E+00 0.  1.
         35    2    1    2    0    0  0.00000000000E+00  0.00000000000E+00  0.84455404674E+03  0.88803008292E+03  0.27445562539E+03 0.  0.
         25    2    3    3    0    0 -0.35493537424E+02 -0.94871583968E+00  0.56965004994E+03  0.58398379983E+03  0.12359291162E+03 0.  0.
         25    2    3    3    0    0  0.35493537424E+02  0.94871583968E+00  0.27490399680E+03  0.30404628309E+03  0.12494496207E+03 0.  0.
          5    1    4    4  502    0  0.20014265741E+02  0.25633907827E+02  0.43057378512E+03  0.43182582426E+03  0.47000000000E+01 0.  1.
         -5    1    4    4    0  502 -0.55507803165E+02 -0.26582623666E+02  0.13907626482E+03  0.15215797557E+03  0.47000000000E+01 0.  1.
          5    1    5    5  503    0  0.20283936821E+02  0.42083575612E+02  0.31178599053E+02  0.56361870695E+02  0.47000000000E+01 0.  1.
         -5    1    5    5    0  503  0.15209600603E+02 -0.41134859773E+02  0.24372539775E+03  0.24768441240E+03  0.47000000000E+01 0.  1.
<mgrwt>
<rscale>  0 0.27445563E+03</rscale>
<asrwt>0</asrwt>
<pdfrwt beam="1">  1        2 0.33443111E-02 0.27445563E+03</pdfrwt>
<pdfrwt beam="2">  1       -2 0.13327568E+00 0.27445563E+03</pdfrwt>
<totfact> 0.11575982E+03</totfact>
</mgrwt>
</event>
<event>
 9    1  0.8175317E-001  0.2719706E+03  0.7818608E-02  0.1100157E+00
          2   -1    0    0  501    0  0.00000000000E+00  0.00000000000E+00  0.20217475469E+03  0.20217475469E+03  0.00000000000E+00 0.  1.
         -2   -1    0    0    0  501 -0.00000000000E+00 -0.00000000000E+00 -0.91465430875E+02  0.91465430875E+02  0.00000000000E+00 0.  1.
         35    2    1    2    0    0  0.14210854715E-13 -0.71054273576E-14  0.11070932381E+03  0.29364018556E+03  0.27197059436E+03 0.  0.
         25    2    3    3    0    0  0.39146503401E+02 -0.33253013087E+02  0.37079557407E+02  0.13858648713E+03  0.12326033113E+03 0.  0.
         25    2    3    3    0    0 -0.39146503401E+02  0.33253013087E+02  0.73629766406E+02  0.15505369843E+03  0.12642031201E+03 0.  0.
          5    1    4    4  502    0 -0.27676902421E+02  0.54052473884E+01 -0.26106028112E+02  0.38714885132E+02  0.47000000000E+01 0. -1.
         -5    1    4    4    0  502  0.66823405823E+02 -0.38658260475E+02  0.63185585519E+02  0.99871602000E+02  0.47000000000E+01 0. -1.
          5    1    5    5  503    0  0.21695152645E+02  0.59331280221E+02  0.60111672420E+02  0.87329168220E+02  0.47000000000E+01 0. -1.
         -5    1    5    5    0  503 -0.60841656047E+02 -0.26078267134E+02  0.13518093986E+02  0.67724530210E+02  0.47000000000E+01 0. -1.
<mgrwt>
<rscale>  0 0.27197059E+03</rscale>
<asrwt>0</asrwt>
<pdfrwt beam="1">  1        2 0.31103808E-01 0.27197059E+03</pdfrwt>
<pdfrwt beam="2">  1       -2 0.14071605E-01 0.27197059E+03</pdfrwt>
<totfact> 0.63602177E+03</totfact>
</mgrwt>
</event>
<event>
 9    1  0.8175317E-001  0.2747457E+03  0.7818608E-02  0.1098594E+00
          2   -1    0    0  501    0  0.00000000000E+00  0.00000000000E+00  0.42188696246E+03  0.42188696246E+03  0.00000000000E+00 0.  1.
         -2   -1    0    0    0  501 -0.00000000000E+00 -0.00000000000E+00 -0.44730693898E+02  0.44730693898E+02  0.00000000000E+00 0.  1.
         35    2    1    2    0    0 -0.71054273576E-14  0.00000000000E+00  0.37715626856E+03  0.46661765636E+03  0.27474567569E+03 0.  0.
         25    2    3    3    0    0 -0.43487942841E+02  0.50405806074E+02  0.18331482118E+03  0.22728433767E+03  0.11671289572E+03 0.  0.
         25    2    3    3    0    0  0.43487942841E+02 -0.50405806074E+02  0.19384144738E+03  0.23933331869E+03  0.12358796160E+03 0.  0.
          5    1    4    4  502    0 -0.69485209845E+02  0.70110471292E+02  0.15505804157E+03  0.18387158243E+03  0.47000000000E+01 0. -1.
         -5    1    4    4    0  502  0.25997267004E+02 -0.19704665218E+02  0.28256779610E+02  0.43412755233E+02  0.47000000000E+01 0. -1.
          5    1    5    5  503    0 -0.42068052874E+02 -0.11997892125E+02  0.42139349641E+02  0.60921960542E+02  0.47000000000E+01 0. -1.
         -5    1    5    5    0  503  0.85555995715E+02 -0.38407913949E+02  0.15170209774E+03  0.17841135815E+03  0.47000000000E+01 0. -1.
<mgrwt>
<rscale>  0 0.27474568E+03</rscale>
<asrwt>0</asrwt>
<pdfrwt beam="1">  1        2 0.64905684E-01 0.27474568E+03</pdfrwt>
<pdfrwt beam="2">  1       -2 0.68816455E-02 0.27474568E+03</pdfrwt>
<totfact> 0.89494386E+03</totfact>
</mgrwt>
</event>
<event>
 9    1  0.8175317E-001  0.2760066E+03  0.7818608E-02  0.1097890E+00
          1   -1    0    0  501    0  0.00000000000E+00  0.00000000000E+00  0.79978285372E+02  0.79978285372E+02  0.00000000000E+00 0.  1.
         -1   -1    0    0    0  501 -0.00000000000E+00 -0.00000000000E+00 -0.23812604015E+03  0.23812604015E+03  0.00000000000E+00 0.  1.
         35    2    1    2    0    0 -0.35527136788E-14 -0.53290705182E-14 -0.15814775477E+03  0.31810432552E+03  0.27600661147E+03 0.  0.
         25    2    3    3    0    0  0.17320583030E+02  0.11620760942E+02 -0.15780933238E+02  0.12761052658E+03  0.12490141696E+03 0.  0.
         25    2    3    3    0    0 -0.17320583030E+02 -0.11620760942E+02 -0.14236682154E+03  0.19049379894E+03  0.12483801856E+03 0.  0.
          5    1    4    4  502    0 -0.41737506385E+02  0.34463077069E+00  0.30233803905E+02  0.51752401956E+02  0.47000000000E+01 0. -1.
         -5    1    4    4    0  502  0.59058089415E+02  0.11276130171E+02 -0.46014737143E+02  0.75858124623E+02  0.47000000000E+01 0. -1.
          5    1    5    5  503    0 -0.21746877189E+02  0.38467580681E+02 -0.13153999697E+03  0.13884358910E+03  0.47000000000E+01 0. -1.
         -5    1    5    5    0  503  0.44262941596E+01 -0.50088341623E+02 -0.10826824570E+02  0.51650209843E+02  0.47000000000E+01 0. -1.
<mgrwt>
<rscale>  0 0.27600661E+03</rscale>
<asrwt>0</asrwt>
<pdfrwt beam="1">  1        1 0.12304352E-01 0.27600661E+03</pdfrwt>
<pdfrwt beam="2">  1       -1 0.36634775E-01 0.27600661E+03</pdfrwt>
<totfact> 0.34854639E+03</totfact>
</mgrwt>
</event>
<event>
 9    1  0.8175317E-001  0.2753709E+03  0.7818608E-02  0.1098244E+00
         -2   -1    0    0    0  501 -0.00000000000E+00  0.00000000000E+00  0.65087269338E+02  0.65087269338E+02  0.00000000000E+00 0. -1.
          2   -1    0    0  501    0  0.00000000000E+00 -0.00000000000E+00 -0.29125947136E+03  0.29125947136E+03  0.00000000000E+00 0. -1.
         35    2    1    2    0    0 -0.14210854715E-13  0.00000000000E+00 -0.22617220202E+03  0.35634674069E+03  0.27537090376E+03 0.  0.
         25    2    3    3    0    0  0.43205557172E+02  0.20398471992E+02 -0.66215986290E+02  0.14760233981E+03  0.12295965212E+03 0.  0.
         25    2    3    3    0    0 -0.43205557172E+02 -0.20398471992E+02 -0.15995621573E+03  0.20874440088E+03  0.12532125166E+03 0.  0.
          5    1    4    4  502    0  0.63493986393E+02 -0.32718044349E+02 -0.20407053283E+02  0.74434498438E+02  0.47000000000E+01 0. -1.
         -5    1    4    4    0  502 -0.20288429221E+02  0.53116516341E+02 -0.45808933007E+02  0.73167841376E+02  0.47000000000E+01 0. -1.
          5    1    5    5  503    0  0.11143801729E+02 -0.42639231308E+02 -0.70455790898E+01  0.44877817998E+02  0.47000000000E+01 0. -1.
         -5    1    5    5    0  503 -0.54349358900E+02  0.22240759317E+02 -0.15291063664E+03  0.16386658288E+03  0.47000000000E+01 0. -1.
<mgrwt>
<rscale>  0 0.27537090E+03</rscale>
<asrwt>0</asrwt>
<pdfrwt beam="1">  1        2 0.44809149E-01 0.27537090E+03</pdfrwt>
<pdfrwt beam="2">  1       -2 0.10013426E-01 0.27537090E+03</pdfrwt>
<totfact> 0.74210306E+03</totfact>
</mgrwt>
</event>
<event>
 9    1  0.8175317E-001  0.2769726E+03  0.7818608E-02  0.1097354E+00
          2   -1    0    0  501    0  0.00000000000E+00  0.00000000000E+00  0.15251110370E+03  0.15251110370E+03  0.00000000000E+00 0. -1.
         -2   -1    0    0    0  501 -0.00000000000E+00 -0.00000000000E+00 -0.12575118147E+03  0.12575118147E+03  0.00000000000E+00 0. -1.
         35    2    1    2    0    0 -0.17763568394E-14  0.00000000000E+00  0.26759922233E+02  0.27826228517E+03  0.27697257249E+03 0.  0.
         25    2    3    3    0    0 -0.15595507603E+02 -0.46680370178E+02 -0.18915330176E+02  0.13633096101E+03  0.12572217146E+03 0.  0.
         25    2    3    3    0    0  0.15595507603E+02  0.46680370178E+02  0.45675252409E+02  0.14193132416E+03  0.12504397338E+03 0.  0.
          5    1    4    4  502    0 -0.17491125627E+02  0.15764440224E+02  0.42363175094E+02  0.48694821648E+02  0.47000000000E+01 0.  1.
         -5    1    4    4    0  502  0.18956180233E+01 -0.62444810402E+02 -0.61278505269E+02  0.87636139360E+02  0.47000000000E+01 0.  1.
          5    1    5    5  503    0  0.81685123077E+01  0.35324745931E+02  0.89038504882E+02  0.96252312284E+02  0.47000000000E+01 0. -1.
         -5    1    5    5    0  503  0.74269952956E+01  0.11355624248E+02 -0.43363252473E+02  0.45679011879E+02  0.47000000000E+01 0. -1.
<mgrwt>
<rscale>  0 0.27697257E+03</rscale>
<asrwt>0</asrwt>
<pdfrwt beam="1">  1        2 0.23463247E-01 0.27697257E+03</pdfrwt>
<pdfrwt beam="2">  1       -2 0.19346336E-01 0.27697257E+03</pdfrwt>
<totfact> 0.51115853E+03</totfact>
</mgrwt>
</event>
<event>
 9    1  0.8175317E-001  0.2798424E+03  0.7818608E-02  0.1095775E+00
         -1   -1    0    0    0  501 -0.00000000000E+00  0.00000000000E+00  0.17178301627E+03  0.17178301627E+03  0.00000000000E+00 0.  1.
          1   -1    0    0  501    0  0.00000000000E+00 -0.00000000000E+00 -0.11396902720E+03  0.11396902720E+03  0.00000000000E+00 0.  1.
         35    2    1    2    0    0 -0.71054273576E-14 -0.71054273576E-14  0.57813989071E+02  0.28575204347E+03  0.27984240746E+03 0.  0.
         25    2    3    3    0    0 -0.41022069340E+02 -0.24944698042E+02  0.69747243462E+02  0.15091711484E+03  0.12492497527E+03 0.  0.
         25    2    3    3    0    0  0.41022069340E+02  0.24944698042E+02 -0.11933254391E+02  0.13483492863E+03  0.12543128511E+03 0.  0.
          5    1    4    4  502    0 -0.73091744939E+02 -0.46002934961E+02  0.21550442353E+02  0.89135765935E+02  0.47000000000E+01 0.  1.
         -5    1    4    4    0  502  0.32069675599E+02  0.21058236919E+02  0.48196801109E+02  0.61781348903E+02  0.47000000000E+01 0.  1.
          5    1    5    5  503    0 -0.28219796146E+02  0.47285627772E+02 -0.25180945184E+02  0.60732672333E+02  0.47000000000E+01 0.  1.
         -5    1    5    5    0  503  0.69241865486E+02 -0.22340929730E+02  0.13247690793E+02  0.74102256298E+02  0.47000000000E+01 0.  1.
<mgrwt>
<rscale>  0 0.27984241E+03</rscale>
<asrwt>0</asrwt>
<pdfrwt beam="1">  1        1 0.17533697E-01 0.27984241E+03</pdfrwt>
<pdfrwt beam="2">  1       -1 0.26428156E-01 0.27984241E+03</pdfrwt>
<totfact> 0.38274107E+03</totfact>
</mgrwt>
</event>
<event>
 9    1  0.8175317E-001  0.2754301E+03  0.7818608E-02  0.1098211E+00
          1   -1    0    0  501    0  0.00000000000E+00  0.00000000000E+00  0.20510910530E+04  0.20510910530E+04  0.00000000000E+00 0. -1.
         -1   -1    0    0    0  501 -0.00000000000E+00 -0.00000000000E+00 -0.92465117695E+01  0.92465117695E+01  0.00000000000E+00 0. -1.
         35    2    1    2    0    0  0.00000000000E+00  0.00000000000E+00  0.20418445412E+04  0.20603375648E+04  0.27543011863E+03 0.  0.
         25    2    3    3    0    0  0.20199247405E+02 -0.43150042786E+02  0.81181085516E+03  0.82274022686E+03  0.12487866333E+03 0.  0.
         25    2    3    3    0    0 -0.20199247405E+02  0.43150042786E+02  0.12300336860E+04  0.12375973379E+04  0.12804048632E+03 0.  0.
          5    1    4    4  502    0 -0.30446033970E+02 -0.57298782211E+02  0.24548247718E+03  0.25395639001E+03  0.47000000000E+01 0. -1.
         -5    1    4    4    0  502  0.50645281375E+02  0.14148739424E+02  0.56632837798E+03  0.56878383685E+03  0.47000000000E+01 0. -1.
          5    1    5    5  503    0 -0.33768349531E+02  0.33217361783E+02  0.12103491788E+04  0.12112848217E+04  0.47000000000E+01 0.  1.
         -5    1    5    5    0  503  0.13569102126E+02  0.99326810031E+01  0.19684507231E+02  0.26312516211E+02  0.47000000000E+01 0.  1.
<mgrwt>
<rscale>  0 0.27543012E+03</rscale>
<asrwt>0</asrwt>
<pdfrwt beam="1">  1        1 0.31555211E+00 0.27543012E+03</pdfrwt>
<pdfrwt beam="2">  1       -1 0.14225419E-02 0.27543012E+03</pdfrwt>
<totfact> 0.35239528E+03</totfact>
</mgrwt>
</event>
<event>
 9    1  0.8175317E-001  0.2766459E+03  0.7818608E-02  0.1097535E+00
         -1   -1    0    0    0  501 -0.00000000000E+00  0.00000000000E+00  0.23162119991E+02  0.23162119991E+02  0.00000000000E+00 0. -1.
          1   -1    0    0  501    0  0.00000000000E+00 -0.00000000000E+00 -0.82605731208E+03  0.82605731208E+03  0.00000000000E+00 0. -1.
         35    2    1    2    0    0  0.71054273576E-14 -0.14210854715E-13 -0.80289519209E+03  0.84921943207E+03  0.27664590061E+03 0.  0.
         25    2    3    3    0    0 -0.27942638570E+02  0.33527849229E+02 -0.51256687630E+03  0.52956420222E+03  0.12573199221E+03 0.  0.
         25    2    3    3    0    0  0.27942638570E+02 -0.33527849229E+02 -0.29032831578E+03  0.31965522985E+03  0.12642795300E+03 0.  0.
          5    1    4    4  502    0 -0.43450692633E+02  0.54977421561E+02 -0.48837461383E+03  0.49339875659E+03  0.47000000000E+01 0.  1.
         -5    1    4    4    0  502  0.15508054063E+02 -0.21449572332E+02 -0.24192262475E+02  0.36165445631E+02  0.47000000000E+01 0.  1.
          5    1    5    5  503    0 -0.16818747302E+02  0.39494404358E+02 -0.60412893315E+02  0.74259584668E+02  0.47000000000E+01 0. -1.
         -5    1    5    5    0  503  0.44761385872E+02 -0.73022253587E+02 -0.22991542247E+03  0.24539564518E+03  0.47000000000E+01 0. -1.
<mgrwt>
<rscale>  0 0.27664590E+03</rscale>
<asrwt>0</asrwt>
<pdfrwt beam="1">  1        1 0.12708574E+00 0.27664590E+03</pdfrwt>
<pdfrwt beam="2">  1       -1 0.35634031E-02 0.27664590E+03</pdfrwt>
<totfact> 0.63934090E+03</totfact>
</mgrwt>
</event>
<event>
 9    1  0.8175317E-001  0.2727533E+03  0.7818608E-02  0.1099714E+00
          2   -1    0    0  501    0  0.00000000000E+00  0.00000000000E+00  0.19506034513E+04  0.19506034513E+04  0.00000000000E+00 0.  1.
         -2   -1    0    0    0  501 -0.00000000000E+00 -0.00000000000E+00 -0.95347893817E+01  0.95347893817E+01  0.00000000000E+00 0.  1.
         35    2    1    2    0    0  0.35527136788E-14  0.14210854715E-13  0.19410686619E+04  0.19601382406E+04  0.27275331767E+03 0.  0.
         25    2    3    3    0    0  0.21381672938E+02  0.44736474497E+02  0.11410532350E+04  0.11489203600E+04  0.12472762535E+03 0.  0.
         25    2    3    3    0    0 -0.21381672938E+02 -0.44736474497E+02  0.80001542693E+03  0.81121788065E+03  0.12486488087E+03 0.  0.
          5    1    4    4  502    0  0.37263754058E+02 -0.15153527109E+02  0.86553185139E+03  0.86647890483E+03  0.47000000000E+01 0.  1.
         -5    1    4    4    0  502 -0.15882081120E+02  0.59890001606E+02  0.27552138356E+03  0.28244145516E+03  0.47000000000E+01 0.  1.
          5    1    5    5  503    0  0.86335332592E+01  0.14238018727E+02  0.13594041735E+02  0.22003341666E+02  0.47000000000E+01 0. -1.
         -5    1    5    5    0  503 -0.30015206197E+02 -0.58974493224E+02  0.78642138520E+03  0.78921453899E+03  0.47000000000E+01 0. -1.
<mgrwt>
<rscale>  0 0.27275332E+03</rscale>
<asrwt>0</asrwt>
<pdfrwt beam="1">  1        2 0.30009252E+00 0.27275332E+03</pdfrwt>
<pdfrwt beam="2">  1       -2 0.14668922E-02 0.27275332E+03</pdfrwt>
<totfact> 0.96137496E+03</totfact>
</mgrwt>
</event>
<event>
 9    1  0.8175317E-001  0.2722968E+03  0.7818608E-02  0.1099972E+00
          2   -1    0    0  501    0  0.00000000000E+00  0.00000000000E+00  0.38976929447E+03  0.38976929447E+03  0.00000000000E+00 0.  1.
         -2   -1    0    0    0  501 -0.00000000000E+00 -0.00000000000E+00 -0.47557335901E+02  0.47557335901E+02  0.00000000000E+00 0.  1.
         35    2    1    2    0    0  0.71054273576E-14  0.00000000000E+00  0.34221195857E+03  0.43732663037E+03  0.27229681791E+03 0.  0.
         25    2    3    3    0    0  0.40285021765E+02  0.37317122539E+02  0.16824096012E+03  0.21612976638E+03  0.12406290598E+03 0.  0.
         25    2    3    3    0    0 -0.40285021765E+02 -0.37317122539E+02  0.17397099845E+03  0.22119686399E+03  0.12508674480E+03 0.  0.
          5    1    4    4  502    0 -0.24696421135E+02  0.24353433629E+02  0.13937128171E+03  0.14369915487E+03  0.47000000000E+01 0. -1.
         -5    1    4    4    0  502  0.64981442900E+02  0.12963688910E+02  0.28869678417E+02  0.72430611508E+02  0.47000000000E+01 0. -1.
          5    1    5    5  503    0 -0.50827983351E+02 -0.64371892412E+02  0.17328634800E+03  0.19177453645E+03  0.47000000000E+01 0. -1.
         -5    1    5    5    0  503  0.10542961585E+02  0.27054769873E+02  0.68465044099E+00  0.29422327544E+02  0.47000000000E+01 0. -1.
<mgrwt>
<rscale>  0 0.27229682E+03</rscale>
<asrwt>0</asrwt>
<pdfrwt beam="1">  1        2 0.59964505E-01 0.27229682E+03</pdfrwt>
<pdfrwt beam="2">  1       -2 0.73165135E-02 0.27229682E+03</pdfrwt>
<totfact> 0.88679982E+03</totfact>
</mgrwt>
</event>
<event>
 9    1  0.8175317E-001  0.2738319E+03  0.7818608E-02  0.1099106E+00
         -3   -1    0    0    0  501 -0.00000000000E+00  0.00000000000E+00  0.70620325626E+02  0.70620325626E+02  0.00000000000E+00 0. -1.
          3   -1    0    0  501    0  0.00000000000E+00 -0.00000000000E+00 -0.26544725754E+03  0.26544725754E+03  0.00000000000E+00 0. -1.
         35    2    1    2    0    0 -0.14210854715E-13  0.00000000000E+00 -0.19482693191E+03  0.33606758316E+03  0.27383185909E+03 0.  0.
         25    2    3    3    0    0  0.52869411435E+02 -0.17089488786E+02 -0.88321433129E+02  0.16288579267E+03  0.12507549964E+03 0.  0.
         25    2    3    3    0    0 -0.52869411435E+02  0.17089488786E+02 -0.10650549878E+03  0.17318179050E+03  0.12474488365E+03 0.  0.
          5    1    4    4  502    0  0.67443050026E+02  0.39339450444E+02 -0.54572526511E+02  0.95375091129E+02  0.47000000000E+01 0. -1.
         -5    1    4    4    0  502 -0.14573638591E+02 -0.56428939230E+02 -0.33748906618E+02  0.67510701539E+02  0.47000000000E+01 0. -1.
          5    1    5    5  503    0 -0.28802051647E+02  0.70645288036E+02 -0.48570730999E+02  0.90562248264E+02  0.47000000000E+01 0. -1.
         -5    1    5    5    0  503 -0.24067359788E+02 -0.53555799250E+02 -0.57934767783E+02  0.82619542232E+02  0.47000000000E+01 0. -1.
<mgrwt>
<rscale>  0 0.27383186E+03</rscale>
<asrwt>0</asrwt>
<pdfrwt beam="1">  1        3 0.40838040E-01 0.27383186E+03</pdfrwt>
<pdfrwt beam="2">  1       -3 0.10864665E-01 0.27383186E+03</pdfrwt>
<totfact> 0.97402734E+02</totfact>
</mgrwt>
</event>
<event>
 9    1  0.8175317E-001  0.2770425E+03  0.7818608E-02  0.1097315E+00
          2   -1    0    0  501    0  0.00000000000E+00  0.00000000000E+00  0.29521899079E+04  0.29521899079E+04  0.00000000000E+00 0.  1.
         -2   -1    0    0    0  501 -0.00000000000E+00 -0.00000000000E+00 -0.64996267028E+01  0.64996267028E+01  0.00000000000E+00 0.  1.
         35    2    1    2    0    0  0.00000000000E+00  0.00000000000E+00  0.29456902812E+04  0.29586895346E+04  0.27704246864E+03 0.  0.
         25    2    3    3    0    0  0.23363873396E+02 -0.46838588041E+02  0.17763655658E+04  0.17815734060E+04  0.12565609183E+03 0.  0.
         25    2    3    3    0    0 -0.23363873396E+02  0.46838588041E+02  0.11693247154E+04  0.11771161286E+04  0.12466902765E+03 0.  0.
          5    1    4    4  502    0 -0.41838130607E+02 -0.55284019134E+01  0.27904741066E+03  0.28225970275E+03  0.47000000000E+01 0. -1.
         -5    1    4    4    0  502  0.65202004003E+02 -0.41310186127E+02  0.14973181552E+04  0.14993137032E+04  0.47000000000E+01 0. -1.
          5    1    5    5  503    0  0.13919859167E+01  0.19074391383E+02  0.23427533037E+02  0.30605707566E+02  0.47000000000E+01 0. -1.
         -5    1    5    5    0  503 -0.24755859312E+02  0.27764196657E+02  0.11458971823E+04  0.11465104211E+04  0.47000000000E+01 0. -1.
<mgrwt>
<rscale>  0 0.27704247E+03</rscale>
<asrwt>0</asrwt>
<pdfrwt beam="1">  1        2 0.45418199E+00 0.27704247E+03</pdfrwt>
<pdfrwt beam="2">  1       -2 0.99994493E-03 0.27704247E+03</pdfrwt>
<totfact> 0.47404817E+03</totfact>
</mgrwt>
</event>
<event>
 9    1  0.8175317E-001  0.2722703E+03  0.7818608E-02  0.1099987E+00
         -2   -1    0    0    0  501 -0.00000000000E+00  0.00000000000E+00  0.15733325981E+02  0.15733325981E+02  0.00000000000E+00 0.  1.
          2   -1    0    0  501    0  0.00000000000E+00 -0.00000000000E+00 -0.11779310089E+04  0.11779310089E+04  0.00000000000E+00 0.  1.
         35    2    1    2    0    0 -0.71054273576E-14  0.14210854715E-13 -0.11621976829E+04  0.11936643349E+04  0.27227025211E+03 0.  0.
         25    2    3    3    0    0 -0.26317951588E+02 -0.41724990975E+02 -0.50900200700E+03  0.52640467704E+03  0.12484082439E+03 0.  0.
         25    2    3    3    0    0  0.26317951588E+02  0.41724990975E+02 -0.65319567591E+03  0.66725965783E+03  0.12703247810E+03 0.  0.
          5    1    4    4  502    0 -0.70255605490E+02 -0.38538276639E+02 -0.22331743212E+03  0.23730531886E+03  0.47000000000E+01 0.  1.
         -5    1    4    4    0  502  0.43937653902E+02 -0.31867143353E+01 -0.28568457487E+03  0.28909935818E+03  0.47000000000E+01 0.  1.
          5    1    5    5  503    0  0.64009191412E+02  0.53351212201E+02 -0.28621096163E+03  0.29813140221E+03  0.47000000000E+01 0. -1.
         -5    1    5    5    0  503 -0.37691239824E+02 -0.11626221226E+02 -0.36698471429E+03  0.36912825562E+03  0.47000000000E+01 0. -1.
<mgrwt>
<rscale>  0 0.27227025E+03</rscale>
<asrwt>0</asrwt>
<pdfrwt beam="1">  1        2 0.18122018E+00 0.27227025E+03</pdfrwt>
<pdfrwt beam="2">  1       -2 0.24205114E-02 0.27227025E+03</pdfrwt>
<totfact> 0.11972668E+04</totfact>
</mgrwt>
</event>
<event>
 9    1  0.8175317E-001  0.2767070E+03  0.7818608E-02  0.1097501E+00
          2   -1    0    0  501    0  0.00000000000E+00  0.00000000000E+00  0.12211801586E+03  0.12211801586E+03  0.00000000000E+00 0. -1.
         -2   -1    0    0    0  501 -0.00000000000E+00 -0.00000000000E+00 -0.15674743122E+03  0.15674743122E+03  0.00000000000E+00 0. -1.
         35    2    1    2    0    0  0.00000000000E+00  0.00000000000E+00 -0.34629415354E+02  0.27886544708E+03  0.27670695901E+03 0.  0.
         25    2    3    3    0    0 -0.53808841397E+02 -0.76634321248E+01  0.66067508561E+01  0.13637270676E+03  0.12489894470E+03 0.  0.
         25    2    3    3    0    0  0.53808841397E+02  0.76634321248E+01 -0.41236166210E+02  0.14249274032E+03  0.12509852132E+03 0.  0.
          5    1    4    4  502    0 -0.89207141761E+01  0.55618608760E+02  0.14179717102E+02  0.58276609020E+02  0.47000000000E+01 0.  1.
         -5    1    4    4    0  502 -0.44888127220E+02 -0.63282040885E+02 -0.75729662458E+01  0.78096097736E+02  0.47000000000E+01 0.  1.
          5    1    5    5  503    0  0.49904587011E+02 -0.44719647835E+02 -0.56297559157E+02  0.87645991775E+02  0.47000000000E+01 0. -1.
         -5    1    5    5    0  503  0.39042543857E+01  0.52383079960E+02  0.15061392947E+02  0.54846748544E+02  0.47000000000E+01 0. -1.
<mgrwt>
<rscale>  0 0.27670696E+03</rscale>
<asrwt>0</asrwt>
<pdfrwt beam="1">  1        2 0.18787387E-01 0.27670696E+03</pdfrwt>
<pdfrwt beam="2">  1       -2 0.24114989E-01 0.27670696E+03</pdfrwt>
<totfact> 0.44984092E+03</totfact>
</mgrwt>
</event>
<event>
 9    1  0.8175317E-001  0.2760700E+03  0.7818608E-02  0.1097855E+00
          2   -1    0    0  501    0  0.00000000000E+00  0.00000000000E+00  0.99294449919E+02  0.99294449919E+02  0.00000000000E+00 0.  1.
         -2   -1    0    0    0  501 -0.00000000000E+00 -0.00000000000E+00 -0.19189046609E+03  0.19189046609E+03  0.00000000000E+00 0.  1.
         35    2    1    2    0    0  0.71054273576E-14 -0.71054273576E-14 -0.92596016169E+02  0.29118491601E+03  0.27606997863E+03 0.  0.
         25    2    3    3    0    0 -0.47554000218E+02 -0.49546237089E+01 -0.82508046373E+02  0.15684484104E+03  0.12452628322E+03 0.  0.
         25    2    3    3    0    0  0.47554000218E+02  0.49546237089E+01 -0.10087969796E+02  0.13434007497E+03  0.12513815315E+03 0.  0.
          5    1    4    4  502    0 -0.32281210506E+01 -0.50223524024E+02 -0.78270660293E+02  0.93173007860E+02  0.47000000000E+01 0. -1.
         -5    1    4    4    0  502 -0.44325879168E+02  0.45268900315E+02 -0.42373860800E+01  0.63671833180E+02  0.47000000000E+01 0. -1.
          5    1    5    5  503    0  0.72256571008E+02  0.45850651497E+02 -0.10375499732E+02  0.86330963687E+02  0.47000000000E+01 0. -1.
         -5    1    5    5    0  503 -0.24702570789E+02 -0.40896027788E+02  0.28752993611E+00  0.48009111280E+02  0.47000000000E+01 0. -1.
<mgrwt>
<rscale>  0 0.27606998E+03</rscale>
<asrwt>0</asrwt>
<pdfrwt beam="1">  1        2 0.15276069E-01 0.27606998E+03</pdfrwt>
<pdfrwt beam="2">  1       -2 0.29521610E-01 0.27606998E+03</pdfrwt>
<totfact> 0.39940446E+03</totfact>
</mgrwt>
</event>
<event>
 9    1  0.8175317E-001  0.2739900E+03  0.7818608E-02  0.1099017E+00
         -2   -1    0    0    0  501 -0.00000000000E+00  0.00000000000E+00  0.12440327396E+02  0.12440327396E+02  0.00000000000E+00 0. -1.
          2   -1    0    0  501    0  0.00000000000E+00 -0.00000000000E+00 -0.15086124513E+04  0.15086124513E+04  0.00000000000E+00 0. -1.
         35    2    1    2    0    0  0.35527136788E-14  0.17763568394E-14 -0.14961721239E+04  0.15210527787E+04  0.27399002031E+03 0.  0.
         25    2    3    3    0    0 -0.13846071334E+02  0.89663528403E+01 -0.46062661669E+03  0.47784030155E+03  0.12602525388E+03 0.  0.
         25    2    3    3    0    0  0.13846071334E+02 -0.89663528403E+01 -0.10355455072E+04  0.10432124772E+04  0.12516255738E+03 0.  0.
          5    1    4    4  502    0 -0.30444319709E+02  0.52568644865E+02 -0.37762762116E+03  0.38251147602E+03  0.47000000000E+01 0.  1.
         -5    1    4    4    0  502  0.16598248375E+02 -0.43602292024E+02 -0.82998995527E+02  0.95328825533E+02  0.47000000000E+01 0.  1.
          5    1    5    5  503    0 -0.39453357604E+02 -0.19427209119E+01 -0.12742498570E+03  0.13348991936E+03  0.47000000000E+01 0. -1.
         -5    1    5    5    0  503  0.53299428937E+02 -0.70236319285E+01 -0.90812052154E+03  0.90972255780E+03  0.47000000000E+01 0. -1.
<mgrwt>
<rscale>  0 0.27399002E+03</rscale>
<asrwt>0</asrwt>
<pdfrwt beam="1">  1        2 0.23209418E+00 0.27399002E+03</pdfrwt>
<pdfrwt beam="2">  1       -2 0.19138969E-02 0.27399002E+03</pdfrwt>
<totfact> 0.11133884E+04</totfact>
</mgrwt>
</event>
<event>
 9    1  0.8175317E-001  0.2778431E+03  0.7818608E-02  0.1096873E+00
         -1   -1    0    0    0  501 -0.00000000000E+00  0.00000000000E+00  0.33653696191E+02  0.33653696191E+02  0.00000000000E+00 0. -1.
          1   -1    0    0  501    0  0.00000000000E+00 -0.00000000000E+00 -0.57346428046E+03  0.57346428046E+03  0.00000000000E+00 0. -1.
         35    2    1    2    0    0  0.00000000000E+00 -0.71054273576E-14 -0.53981058427E+03  0.60711797665E+03  0.27784306845E+03 0.  0.
         25    2    3    3    0    0 -0.45655888440E+02  0.33518276122E+02 -0.26484346444E+03  0.29947119893E+03  0.12780063909E+03 0.  0.
         25    2    3    3    0    0  0.45655888440E+02 -0.33518276122E+02 -0.27496711983E+03  0.30764677772E+03  0.12582403534E+03 0.  0.
          5    1    4    4  502    0 -0.70293931406E+02  0.46804257386E+02 -0.94684234364E+02  0.12696089768E+03  0.47000000000E+01 0. -1.
         -5    1    4    4    0  502  0.24638042966E+02 -0.13285981264E+02 -0.17015923008E+03  0.17251030126E+03  0.47000000000E+01 0. -1.
          5    1    5    5  503    0  0.72833707464E+02  0.30406080031E+01 -0.23749059412E+03  0.24847105775E+03  0.47000000000E+01 0.  1.
         -5    1    5    5    0  503 -0.27177819024E+02 -0.36558884125E+02 -0.37476525706E+02  0.59175719973E+02  0.47000000000E+01 0.  1.
<mgrwt>
<rscale>  0 0.27784307E+03</rscale>
<asrwt>0</asrwt>
<pdfrwt beam="1">  1        1 0.88225271E-01 0.27784307E+03</pdfrwt>
<pdfrwt beam="2">  1       -1 0.51774919E-02 0.27784307E+03</pdfrwt>
<totfact> 0.62333261E+03</totfact>
</mgrwt>
</event>
<event>
 9    1  0.8175317E-001  0.2782397E+03  0.7818608E-02  0.1096654E+00
         -1   -1    0    0    0  501 -0.00000000000E+00  0.00000000000E+00  0.21196119102E+02  0.21196119102E+02  0.00000000000E+00 0. -1.
          1   -1    0    0  501    0  0.00000000000E+00 -0.00000000000E+00 -0.91310759273E+03  0.91310759273E+03  0.00000000000E+00 0. -1.
         35    2    1    2    0    0  0.71054273576E-14  0.00000000000E+00 -0.89191147363E+03  0.93430371183E+03  0.27823973324E+03 0.  0.
         25    2    3    3    0    0 -0.29490396127E+02  0.20721470032E+02 -0.27771716886E+03  0.30647755018E+03  0.12450943778E+03 0.  0.
         25    2    3    3    0    0  0.29490396127E+02 -0.20721470032E+02 -0.61419430477E+03  0.62782616166E+03  0.12502792676E+03 0.  0.
          5    1    4    4  502    0  0.53664101727E+01 -0.70302954372E+01 -0.25686526361E+03  0.25706045410E+03  0.47000000000E+01 0.  1.
         -5    1    4    4    0  502 -0.34856806300E+02  0.27751765470E+02 -0.20851905253E+02  0.49417096078E+02  0.47000000000E+01 0.  1.
          5    1    5    5  503    0 -0.42356388659E+02 -0.31413450868E+02 -0.34170970110E+03  0.34578675275E+03  0.47000000000E+01 0.  1.
         -5    1    5    5    0  503  0.71846784786E+02  0.10691980836E+02 -0.27248460367E+03  0.28203940891E+03  0.47000000000E+01 0.  1.
<mgrwt>
<rscale>  0 0.27823973E+03</rscale>
<asrwt>0</asrwt>
<pdfrwt beam="1">  1        1 0.14047808E+00 0.27823973E+03</pdfrwt>
<pdfrwt beam="2">  1       -1 0.32609417E-02 0.27823973E+03</pdfrwt>
<totfact> 0.62114409E+03</totfact>
</mgrwt>
</event>
<event>
 9    1  0.8175317E-001  0.2793600E+03  0.7818608E-02  0.1096039E+00
          2   -1    0    0  501    0  0.00000000000E+00  0.00000000000E+00  0.29249564097E+03  0.29249564097E+03  0.00000000000E+00 0. -1.
         -2   -1    0    0    0  501 -0.00000000000E+00 -0.00000000000E+00 -0.66703567438E+02  0.66703567438E+02  0.00000000000E+00 0. -1.
         35    2    1    2    0    0  0.00000000000E+00  0.00000000000E+00  0.22579207353E+03  0.35919920841E+03  0.27936000224E+03 0.  0.
         25    2    3    3    0    0 -0.35474990746E+02  0.13263202976E+02  0.17586179821E+03  0.21861396606E+03  0.12421878508E+03 0.  0.
         25    2    3    3    0    0  0.35474990746E+02 -0.13263202976E+02  0.49930275317E+02  0.14058524234E+03  0.12584431036E+03 0.  0.
          5    1    4    4  502    0 -0.67617740800E+02  0.36725016167E+02  0.65352575447E+02  0.10106401338E+03  0.47000000000E+01 0.  1.
         -5    1    4    4    0  502  0.32142750054E+02 -0.23461813190E+02  0.11050922277E+03  0.11754995268E+03  0.47000000000E+01 0.  1.
          5    1    5    5  503    0  0.51046482208E+02  0.45629528544E+02  0.15147121174E+02  0.70280313750E+02  0.47000000000E+01 0. -1.
         -5    1    5    5    0  503 -0.15571491461E+02 -0.58892731520E+02  0.34783154143E+02  0.70304928592E+02  0.47000000000E+01 0. -1.
<mgrwt>
<rscale>  0 0.27936000E+03</rscale>
<asrwt>0</asrwt>
<pdfrwt beam="1">  1        2 0.44999329E-01 0.27936000E+03</pdfrwt>
<pdfrwt beam="2">  1       -2 0.10262087E-01 0.27936000E+03</pdfrwt>
<totfact> 0.71083160E+03</totfact>
</mgrwt>
</event>
<event>
 9    1  0.8175317E-001  0.2745753E+03  0.7818608E-02  0.1098689E+00
         -1   -1    0    0    0  501 -0.00000000000E+00  0.00000000000E+00  0.17859901799E+02  0.17859901799E+02  0.00000000000E+00 0. -1.
          1   -1    0    0  501    0  0.00000000000E+00 -0.00000000000E+00 -0.10553190657E+04  0.10553190657E+04  0.00000000000E+00 0. -1.
         35    2    1    2    0    0  0.00000000000E+00  0.00000000000E+00 -0.10374591639E+04  0.10731789675E+04  0.27457527114E+03 0.  0.
         25    2    3    3    0    0  0.39287175863E+02  0.35289376170E+02 -0.43679605127E+03  0.45727114302E+03  0.12456839716E+03 0.  0.
         25    2    3    3    0    0 -0.39287175863E+02 -0.35289376170E+02 -0.60066311265E+03  0.61590782450E+03  0.12552868647E+03 0.  0.
          5    1    4    4  502    0  0.39580898068E+02  0.70578950065E+02 -0.17257980164E+03  0.19066702289E+03  0.47000000000E+01 0. -1.
         -5    1    4    4    0  502 -0.29372220502E+00 -0.35289573895E+02 -0.26421624964E+03  0.26660412013E+03  0.47000000000E+01 0. -1.
          5    1    5    5  503    0  0.90678063766E+01 -0.17362625713E+02 -0.51781647659E+03  0.51820814284E+03  0.47000000000E+01 0. -1.
         -5    1    5    5    0  503 -0.48354982240E+02 -0.17926750457E+02 -0.82846636066E+02  0.97699681662E+02  0.47000000000E+01 0. -1.
<mgrwt>
<rscale>  0 0.27457527E+03</rscale>
<asrwt>0</asrwt>
<pdfrwt beam="1">  1        1 0.16235676E+00 0.27457527E+03</pdfrwt>
<pdfrwt beam="2">  1       -1 0.27476776E-02 0.27457527E+03</pdfrwt>
<totfact> 0.62444813E+03</totfact>
</mgrwt>
</event>
<event>
 9    1  0.8175317E-001  0.2766360E+03  0.7818608E-02  0.1097541E+00
          2   -1    0    0  501    0  0.00000000000E+00  0.00000000000E+00  0.62484070516E+03  0.62484070516E+03  0.00000000000E+00 0. -1.
         -2   -1    0    0    0  501 -0.00000000000E+00 -0.00000000000E+00 -0.30618797947E+02  0.30618797947E+02  0.00000000000E+00 0. -1.
         35    2    1    2    0    0 -0.71054273576E-14  0.00000000000E+00  0.59422190721E+03  0.65545950311E+03  0.27663601573E+03 0.  0.
         25    2    3    3    0    0  0.13804764559E+02  0.43792794037E+02  0.25657602448E+03  0.28945448983E+03  0.12587400451E+03 0.  0.
         25    2    3    3    0    0 -0.13804764559E+02 -0.43792794037E+02  0.33764588273E+03  0.36600501327E+03  0.13359097007E+03 0.  0.
          5    1    4    4  502    0  0.49716557514E+02  0.62795514241E+02  0.10319929878E+03  0.13071800935E+03  0.47000000000E+01 0.  1.
         -5    1    4    4    0  502 -0.35911792955E+02 -0.19002720204E+02  0.15337672570E+03  0.15873648048E+03  0.47000000000E+01 0.  1.
          5    1    5    5  503    0  0.59057339196E+02 -0.13321279369E+02  0.12138414345E+03  0.13572555425E+03  0.47000000000E+01 0. -1.
         -5    1    5    5    0  503 -0.72862103755E+02 -0.30471514668E+02  0.21626173928E+03  0.23027945902E+03  0.47000000000E+01 0. -1.
<mgrwt>
<rscale>  0 0.27663602E+03</rscale>
<asrwt>0</asrwt>
<pdfrwt beam="1">  1        2 0.96129330E-01 0.27663602E+03</pdfrwt>
<pdfrwt beam="2">  1       -2 0.47105848E-02 0.27663602E+03</pdfrwt>
<totfact> 0.10270460E+04</totfact>
</mgrwt>
</event>
<event>
 9    1  0.8175317E-001  0.2873749E+03  0.7818608E-02  0.1091728E+00
         -3   -1    0    0    0  501 -0.00000000000E+00  0.00000000000E+00  0.28337891135E+03  0.28337891135E+03  0.00000000000E+00 0. -1.
          3   -1    0    0  501    0  0.00000000000E+00 -0.00000000000E+00 -0.72856814225E+02  0.72856814225E+02  0.00000000000E+00 0. -1.
         35    2    1    2    0    0  0.00000000000E+00  0.35527136788E-14  0.21052209713E+03  0.35623572558E+03  0.28737490983E+03 0.  0.
         25    2    3    3    0    0  0.64439867552E+02 -0.23618335937E+02  0.88043356877E+02  0.16734457027E+03  0.12466856134E+03 0.  0.
         25    2    3    3    0    0 -0.64439867552E+02  0.23618335937E+02  0.12247874025E+03  0.18889115531E+03  0.12636654785E+03 0.  0.
          5    1    4    4  502    0  0.65973672647E+02  0.33654695781E+02  0.80298140187E+02  0.10933913000E+03  0.47000000000E+01 0. -1.
         -5    1    4    4    0  502 -0.15338050950E+01 -0.57273031718E+02  0.77452166896E+01  0.58005440278E+02  0.47000000000E+01 0. -1.
          5    1    5    5  503    0 -0.35669196522E+02 -0.15180489537E+01 -0.20078172793E+02  0.41228862170E+02  0.47000000000E+01 0.  1.
         -5    1    5    5    0  503 -0.28770671031E+02  0.25136384890E+02  0.14255691305E+03  0.14766229314E+03  0.47000000000E+01 0.  1.
<mgrwt>
<rscale>  0 0.28737491E+03</rscale>
<asrwt>0</asrwt>
<pdfrwt beam="1">  1        3 0.11208741E-01 0.28737491E+03</pdfrwt>
<pdfrwt beam="2">  1       -3 0.43596755E-01 0.28737491E+03</pdfrwt>
<totfact> 0.81665111E+02</totfact>
</mgrwt>
</event>
<event>
 9    1  0.8175317E-001  0.3029852E+03  0.7818608E-02  0.1083758E+00
          2   -1    0    0  501    0  0.00000000000E+00  0.00000000000E+00  0.21498836816E+03  0.21498836816E+03  0.00000000000E+00 0. -1.
         -2   -1    0    0    0  501 -0.00000000000E+00 -0.00000000000E+00 -0.10675002455E+03  0.10675002455E+03  0.00000000000E+00 0. -1.
         35    2    1    2    0    0  0.35527136788E-14 -0.71054273576E-14  0.10823834361E+03  0.32173839270E+03  0.30298523778E+03 0.  0.
         25    2    3    3    0    0  0.16264065060E+02  0.19450816130E+02 -0.32387840897E+02  0.13181854160E+03  0.12523698180E+03 0.  0.
         25    2    3    3    0    0 -0.16264065060E+02 -0.19450816130E+02  0.14062618451E+03  0.18991985110E+03  0.12510384492E+03 0.  0.
          5    1    4    4  502    0 -0.10342055081E+02 -0.43944946541E+02 -0.42484019485E+02  0.62169915083E+02  0.47000000000E+01 0. -1.
         -5    1    4    4    0  502  0.26606120141E+02  0.63395762671E+02  0.10096178588E+02  0.69648626517E+02  0.47000000000E+01 0. -1.
          5    1    5    5  503    0  0.34214671537E+02 -0.45111634717E+02  0.27053452675E+02  0.62926009224E+02  0.47000000000E+01 0.  1.
         -5    1    5    5    0  503 -0.50478736597E+02  0.25660818587E+02  0.11357273183E+03  0.12699384188E+03  0.47000000000E+01 0.  1.
<mgrwt>
<rscale>  0 0.30298524E+03</rscale>
<asrwt>0</asrwt>
<pdfrwt beam="1">  1        2 0.33075133E-01 0.30298524E+03</pdfrwt>
<pdfrwt beam="2">  1       -2 0.16423081E-01 0.30298524E+03</pdfrwt>
<totfact> 0.46199353E+03</totfact>
</mgrwt>
</event>
<event>
 9    1  0.8175317E-001  0.2689447E+03  0.7818608E-02  0.1101885E+00
          2   -1    0    0  501    0  0.00000000000E+00  0.00000000000E+00  0.23683516514E+04  0.23683516514E+04  0.00000000000E+00 0.  1.
         -2   -1    0    0    0  501 -0.00000000000E+00 -0.00000000000E+00 -0.76351894056E+01  0.76351894056E+01  0.00000000000E+00 0.  1.
         35    2    1    2    0    0  0.00000000000E+00  0.00000000000E+00  0.23607164620E+04  0.23759868408E+04  0.26894470389E+03 0.  0.
         25    2    3    3    0    0 -0.47349101334E+02  0.10710682045E+02  0.10891257859E+04  0.10973331303E+04  0.12485337481E+03 0.  0.
         25    2    3    3    0    0  0.47349101334E+02 -0.10710682045E+02  0.12715906761E+04  0.12786537105E+04  0.12512317048E+03 0.  0.
          5    1    4    4  502    0 -0.53044636455E+02  0.16545965815E+02  0.18649983216E+03  0.19465811013E+03  0.47000000000E+01 0.  1.
         -5    1    4    4    0  502  0.56955351208E+01 -0.58352837705E+01  0.90262595376E+03  0.90267502018E+03  0.47000000000E+01 0.  1.
          5    1    5    5  503    0 -0.41172343077E+02 -0.17261574086E+02  0.37964312601E+03  0.38228800256E+03  0.47000000000E+01 0.  1.
         -5    1    5    5    0  503  0.88521444411E+02  0.65508920414E+01  0.89194755005E+03  0.89636570792E+03  0.47000000000E+01 0.  1.
<mgrwt>
<rscale>  0 0.26894470E+03</rscale>
<asrwt>0</asrwt>
<pdfrwt beam="1">  1        2 0.36436121E+00 0.26894470E+03</pdfrwt>
<pdfrwt beam="2">  1       -2 0.11746464E-02 0.26894470E+03</pdfrwt>
<totfact> 0.79769059E+03</totfact>
</mgrwt>
</event>
<event>
 9    1  0.8175317E-001  0.2937840E+03  0.7818608E-02  0.1088390E+00
         -1   -1    0    0    0  501 -0.00000000000E+00  0.00000000000E+00  0.64482914501E+02  0.64482914501E+02  0.00000000000E+00 0.  1.
          1   -1    0    0  501    0  0.00000000000E+00 -0.00000000000E+00 -0.33461984809E+03  0.33461984809E+03  0.00000000000E+00 0.  1.
         35    2    1    2    0    0  0.00000000000E+00  0.00000000000E+00 -0.27013693359E+03  0.39910276259E+03  0.29378402308E+03 0.  0.
         25    2    3    3    0    0 -0.64338519159E+02  0.32113744315E+02 -0.17447165717E+03  0.22622990221E+03  0.12477528553E+03 0.  0.
         25    2    3    3    0    0  0.64338519159E+02 -0.32113744315E+02 -0.95665276425E+02  0.17287286038E+03  0.12474952153E+03 0.  0.
          5    1    4    4  502    0  0.62493940458E+01  0.27137544408E+02  0.89090493211E+01  0.29613550990E+02  0.47000000000E+01 0.  1.
         -5    1    4    4    0  502 -0.70587913205E+02  0.49761999062E+01 -0.18338070649E+03  0.19661635122E+03  0.47000000000E+01 0.  1.
          5    1    5    5  503    0  0.13494800129E+02 -0.30395257372E+02 -0.11380576481E+03  0.11865843166E+03  0.47000000000E+01 0.  1.
         -5    1    5    5    0  503  0.50843719030E+02 -0.17184869421E+01  0.18140488384E+02  0.54214428716E+02  0.47000000000E+01 0.  1.
<mgrwt>
<rscale>  0 0.29378402E+03</rscale>
<asrwt>0</asrwt>
<pdfrwt beam="1">  1        1 0.51479977E-01 0.29378402E+03</pdfrwt>
<pdfrwt beam="2">  1       -1 0.99204484E-02 0.29378402E+03</pdfrwt>
<totfact> 0.46902834E+03</totfact>
</mgrwt>
</event>
<event>
 9    1  0.8175317E-001  0.2750795E+03  0.7818608E-02  0.1098407E+00
          1   -1    0    0  501    0  0.00000000000E+00  0.00000000000E+00  0.40968570034E+02  0.40968570034E+02  0.00000000000E+00 0.  1.
         -1   -1    0    0    0  501 -0.00000000000E+00 -0.00000000000E+00 -0.46174881460E+03  0.46174881460E+03  0.00000000000E+00 0.  1.
         35    2    1    2    0    0  0.00000000000E+00  0.71054273576E-14 -0.42078024457E+03  0.50271738464E+03  0.27507954231E+03 0.  0.
         25    2    3    3    0    0  0.36856159764E+02  0.12872428327E+02 -0.13079941275E+03  0.18468740610E+03  0.12440609179E+03 0.  0.
         25    2    3    3    0    0 -0.36856159764E+02 -0.12872428327E+02 -0.28998083182E+03  0.31802997853E+03  0.12461985595E+03 0.  0.
          5    1    4    4  502    0 -0.62535189454E+01  0.52438433672E+02 -0.11052242948E+03  0.12258137397E+03  0.47000000000E+01 0.  1.
         -5    1    4    4    0  502  0.43109678709E+02 -0.39566005345E+02 -0.20276983264E+02  0.62106032136E+02  0.47000000000E+01 0.  1.
          5    1    5    5  503    0 -0.43042127566E+01  0.51363656613E+02 -0.73943297465E+02  0.90257701656E+02  0.47000000000E+01 0. -1.
         -5    1    5    5    0  503 -0.32551947007E+02 -0.64236084940E+02 -0.21603753436E+03  0.22777227688E+03  0.47000000000E+01 0. -1.
<mgrwt>
<rscale>  0 0.27507954E+03</rscale>
<asrwt>0</asrwt>
<pdfrwt beam="1">  1        1 0.63028572E-02 0.27507954E+03</pdfrwt>
<pdfrwt beam="2">  1       -1 0.71038277E-01 0.27507954E+03</pdfrwt>
<totfact> 0.25065186E+03</totfact>
</mgrwt>
</event>
<event>
 9    1  0.8175317E-001  0.2740774E+03  0.7818608E-02  0.1098968E+00
         -3   -1    0    0    0  501 -0.00000000000E+00  0.00000000000E+00  0.14362404604E+03  0.14362404604E+03  0.00000000000E+00 0.  1.
          3   -1    0    0  501    0  0.00000000000E+00 -0.00000000000E+00 -0.13075530559E+03  0.13075530559E+03  0.00000000000E+00 0.  1.
         35    2    1    2    0    0  0.35527136788E-14  0.00000000000E+00  0.12868740445E+02  0.27437935163E+03  0.27407740534E+03 0.  0.
         25    2    3    3    0    0  0.14365739165E+02 -0.19929257964E+02 -0.46176933066E+02  0.13424401987E+03  0.12363493818E+03 0.  0.
         25    2    3    3    0    0 -0.14365739165E+02  0.19929257964E+02  0.59045673511E+02  0.14013533175E+03  0.12469149875E+03 0.  0.
          5    1    4    4  502    0 -0.26339514381E+02 -0.37304008939E+02  0.23494659522E+02  0.51569837375E+02  0.47000000000E+01 0.  1.
         -5    1    4    4    0  502  0.40705253546E+02  0.17374750976E+02 -0.69671592589E+02  0.82674182497E+02  0.47000000000E+01 0.  1.
          5    1    5    5  503    0 -0.36384161372E+02 -0.42913037109E+02  0.44323612493E+02  0.71777493527E+02  0.47000000000E+01 0.  1.
         -5    1    5    5    0  503  0.22018422207E+02  0.62842295073E+02  0.14722061018E+02  0.68357838227E+02  0.47000000000E+01 0.  1.
<mgrwt>
<rscale>  0 0.27407741E+03</rscale>
<asrwt>0</asrwt>
<pdfrwt beam="1">  1        3 0.20116201E-01 0.27407741E+03</pdfrwt>
<pdfrwt beam="2">  1       -3 0.22096007E-01 0.27407741E+03</pdfrwt>
<totfact> 0.10607272E+03</totfact>
</mgrwt>
</event>
<event>
 9    1  0.8175317E-001  0.2726310E+03  0.7818608E-02  0.1099783E+00
          1   -1    0    0  501    0  0.00000000000E+00  0.00000000000E+00  0.34548400899E+03  0.34548400899E+03  0.00000000000E+00 0. -1.
         -1   -1    0    0    0  501 -0.00000000000E+00 -0.00000000000E+00 -0.53785183587E+02  0.53785183587E+02  0.00000000000E+00 0. -1.
         35    2    1    2    0    0 -0.17763568394E-14  0.00000000000E+00  0.29169882540E+03  0.39926919257E+03  0.27263103895E+03 0.  0.
         25    2    3    3    0    0 -0.88853014291E+01 -0.17885212179E+02  0.22014241206E+03  0.25389671439E+03  0.12490808860E+03 0.  0.
         25    2    3    3    0    0  0.88853014291E+01  0.17885212179E+02  0.71556413344E+02  0.14537247818E+03  0.12495602317E+03 0.  0.
          5    1    4    4  502    0 -0.17681521933E+01 -0.26073607151E+02 -0.61826236441E+01  0.27263055353E+02  0.47000000000E+01 0.  1.
         -5    1    4    4    0  502 -0.71171492358E+01  0.81883949724E+01  0.22632503570E+03  0.22663365904E+03  0.47000000000E+01 0.  1.
          5    1    5    5  503    0  0.54658114807E+02 -0.27950344846E+02  0.36267513192E+02  0.71457356545E+02  0.47000000000E+01 0. -1.
         -5    1    5    5    0  503 -0.45772813378E+02  0.45835557025E+02  0.35288900151E+02  0.73915121634E+02  0.47000000000E+01 0. -1.
<mgrwt>
<rscale>  0 0.27263104E+03</rscale>
<asrwt>0</asrwt>
<pdfrwt beam="1">  1        1 0.53151385E-01 0.27263104E+03</pdfrwt>
<pdfrwt beam="2">  1       -1 0.82746438E-02 0.27263104E+03</pdfrwt>
<totfact> 0.59411486E+03</totfact>
</mgrwt>
</event>
<event>
 9    1  0.8175317E-001  0.2748358E+03  0.7818608E-02  0.1098543E+00
         -1   -1    0    0    0  501 -0.00000000000E+00  0.00000000000E+00  0.34623881357E+02  0.34623881357E+02  0.00000000000E+00 0. -1.
          1   -1    0    0  501    0  0.00000000000E+00 -0.00000000000E+00 -0.54539464445E+03  0.54539464445E+03  0.00000000000E+00 0. -1.
         35    2    1    2    0    0  0.35527136788E-14  0.00000000000E+00 -0.51077076309E+03  0.58001852580E+03  0.27483580161E+03 0.  0.
         25    2    3    3    0    0 -0.23342040984E+02 -0.50154896327E+02 -0.22382449274E+03  0.26245737121E+03  0.12540376251E+03 0.  0.
         25    2    3    3    0    0  0.23342040984E+02  0.50154896327E+02 -0.28694627035E+03  0.31756115459E+03  0.12428419181E+03 0.  0.
          5    1    4    4  502    0 -0.70115732791E+02 -0.33480045118E+02 -0.86565824486E+02  0.11641675728E+03  0.47000000000E+01 0.  1.
         -5    1    4    4    0  502  0.46773691807E+02 -0.16674851209E+02 -0.13725866825E+03  0.14604061394E+03  0.47000000000E+01 0.  1.
          5    1    5    5  503    0 -0.71742919629E+01  0.38544915259E+01  0.10994733998E+02  0.14467264627E+02  0.47000000000E+01 0. -1.
         -5    1    5    5    0  503  0.30516332947E+02  0.46300404801E+02 -0.29794100435E+03  0.30309388996E+03  0.47000000000E+01 0. -1.
<mgrwt>
<rscale>  0 0.27483580E+03</rscale>
<asrwt>0</asrwt>
<pdfrwt beam="1">  1        1 0.83906864E-01 0.27483580E+03</pdfrwt>
<pdfrwt beam="2">  1       -1 0.53267512E-02 0.27483580E+03</pdfrwt>
<totfact> 0.63939814E+03</totfact>
</mgrwt>
</event>
<event>
 9    1  0.8175317E-001  0.2752447E+03  0.7818608E-02  0.1098315E+00
         -2   -1    0    0    0  501 -0.00000000000E+00  0.00000000000E+00  0.23463176781E+02  0.23463176781E+02  0.00000000000E+00 0. -1.
          2   -1    0    0  501    0  0.00000000000E+00 -0.00000000000E+00 -0.80721829361E+03  0.80721829361E+03  0.00000000000E+00 0. -1.
         35    2    1    2    0    0 -0.71054273576E-14  0.00000000000E+00 -0.78375511683E+03  0.83068147039E+03  0.27524465861E+03 0.  0.
         25    2    3    3    0    0  0.15968859359E+02 -0.49562485001E+02 -0.31454672314E+03  0.34234624836E+03  0.12469911123E+03 0.  0.
         25    2    3    3    0    0 -0.15968859359E+02  0.49562485001E+02 -0.46920839368E+03  0.48833522202E+03  0.12491328182E+03 0.  0.
          5    1    4    4  502    0  0.69962303287E+02 -0.20235583621E+02 -0.18552533147E+03  0.19936384161E+03  0.47000000000E+01 0.  1.
         -5    1    4    4    0  502 -0.53993443928E+02 -0.29326901379E+02 -0.12902139168E+03  0.14298240676E+03  0.47000000000E+01 0.  1.
          5    1    5    5  503    0  0.38345668039E+02 -0.22030417320E+02 -0.18227495550E+03  0.18762190423E+03  0.47000000000E+01 0. -1.
         -5    1    5    5    0  503 -0.54314527398E+02  0.71592902321E+02 -0.28693343819E+03  0.30071331779E+03  0.47000000000E+01 0. -1.
<mgrwt>
<rscale>  0 0.27524466E+03</rscale>
<asrwt>0</asrwt>
<pdfrwt beam="1">  1        2 0.12418744E+00 0.27524466E+03</pdfrwt>
<pdfrwt beam="2">  1       -2 0.36097193E-02 0.27524466E+03</pdfrwt>
<totfact> 0.11215112E+04</totfact>
</mgrwt>
</event>
<event>
 9    1  0.8175317E-001  0.2749764E+03  0.7818608E-02  0.1098465E+00
         -2   -1    0    0    0  501 -0.00000000000E+00  0.00000000000E+00  0.10408565897E+03  0.10408565897E+03  0.00000000000E+00 0. -1.
          2   -1    0    0  501    0  0.00000000000E+00 -0.00000000000E+00 -0.18161007906E+03  0.18161007906E+03  0.00000000000E+00 0. -1.
         35    2    1    2    0    0 -0.71054273576E-14 -0.35527136788E-14 -0.77524420087E+02  0.28569573803E+03  0.27497639720E+03 0.  0.
         25    2    3    3    0    0 -0.32348268897E+01 -0.29404254458E+02 -0.90124721951E+02  0.15681660043E+03  0.12487556357E+03 0.  0.
         25    2    3    3    0    0  0.32348268897E+01  0.29404254458E+02  0.12600301864E+02  0.12887913760E+03  0.12480380690E+03 0.  0.
          5    1    4    4  502    0 -0.51698688791E+02  0.18101661475E+02 -0.62911320925E+02  0.83548482161E+02  0.47000000000E+01 0. -1.
         -5    1    4    4    0  502  0.48463861901E+02 -0.47505915934E+02 -0.27213401026E+02  0.73268118267E+02  0.47000000000E+01 0. -1.
          5    1    5    5  503    0 -0.46042553770E+02  0.49534578467E+02 -0.13945896571E+02  0.69211048632E+02  0.47000000000E+01 0.  1.
         -5    1    5    5    0  503  0.49277380660E+02 -0.20130324009E+02  0.26546198435E+02  0.59668088965E+02  0.47000000000E+01 0.  1.
<mgrwt>
<rscale>  0 0.27497640E+03</rscale>
<asrwt>0</asrwt>
<pdfrwt beam="1">  1        2 0.27940012E-01 0.27497640E+03</pdfrwt>
<pdfrwt beam="2">  1       -2 0.16013178E-01 0.27497640E+03</pdfrwt>
<totfact> 0.57823704E+03</totfact>
</mgrwt>
</event>
<event>
 9    1  0.8175317E-001  0.2733227E+03  0.7818608E-02  0.1099393E+00
         -2   -1    0    0    0  501 -0.00000000000E+00  0.00000000000E+00  0.46756189510E+01  0.46756189510E+01  0.00000000000E+00 0.  1.
          2   -1    0    0  501    0  0.00000000000E+00 -0.00000000000E+00 -0.39944063999E+04  0.39944063999E+04  0.00000000000E+00 0.  1.
         35    2    1    2    0    0  0.35527136788E-14  0.00000000000E+00 -0.39897307810E+04  0.39990820189E+04  0.27332268301E+03 0.  0.
         25    2    3    3    0    0 -0.21546360166E+02 -0.48545939953E+02 -0.20824581422E+04  0.20868956709E+04  0.12522249507E+03 0.  0.
         25    2    3    3    0    0  0.21546360166E+02  0.48545939953E+02 -0.19072726387E+04  0.19121863479E+04  0.12628046903E+03 0.  0.
          5    1    4    4  502    0  0.11201522829E+02 -0.24775470824E+02 -0.92676671243E+02  0.96697225714E+02  0.47000000000E+01 0. -1.
         -5    1    4    4    0  502 -0.32747882996E+02 -0.23770469130E+02 -0.19897814710E+04  0.19901984452E+04  0.47000000000E+01 0. -1.
          5    1    5    5  503    0  0.56187224106E+02  0.42128018308E+01 -0.14946591708E+04  0.14957282102E+04  0.47000000000E+01 0. -1.
         -5    1    5    5    0  503 -0.34640863939E+02  0.44333138122E+02 -0.41261346790E+03  0.41645813773E+03  0.47000000000E+01 0. -1.
<mgrwt>
<rscale>  0 0.27332268E+03</rscale>
<asrwt>0</asrwt>
<pdfrwt beam="1">  1        2 0.61452390E+00 0.27332268E+03</pdfrwt>
<pdfrwt beam="2">  1       -2 0.71932618E-03 0.27332268E+03</pdfrwt>
<totfact> 0.15532124E+03</totfact>
</mgrwt>
</event>
<event>
 9    1  0.8175317E-001  0.2660048E+03  0.7818608E-02  0.1103588E+00
         -2   -1    0    0    0  501 -0.00000000000E+00  0.00000000000E+00  0.22507190578E+02  0.22507190578E+02  0.00000000000E+00 0.  1.
          2   -1    0    0  501    0  0.00000000000E+00 -0.00000000000E+00 -0.78595480431E+03  0.78595480431E+03  0.00000000000E+00 0.  1.
         35    2    1    2    0    0  0.00000000000E+00 -0.35527136788E-14 -0.76344761373E+03  0.80846199489E+03  0.26600477113E+03 0.  0.
         25    2    3    3    0    0  0.34325691293E+02 -0.29835781317E+02 -0.40132022786E+03  0.42274921959E+03  0.12486212574E+03 0.  0.
         25    2    3    3    0    0 -0.34325691293E+02  0.29835781317E+02 -0.36212738587E+03  0.38571277529E+03  0.12477850175E+03 0.  0.
          5    1    4    4  502    0  0.99259842258E+01 -0.33847065169E+02 -0.20437456498E+02  0.41035699233E+02  0.47000000000E+01 0. -1.
         -5    1    4    4    0  502  0.24399707067E+02  0.40112838526E+01 -0.38088277136E+03  0.38171352036E+03  0.47000000000E+01 0. -1.
          5    1    5    5  503    0  0.31285528705E+02  0.10500152029E+02 -0.26347372537E+03  0.26557396608E+03  0.47000000000E+01 0.  1.
         -5    1    5    5    0  503 -0.65611219998E+02  0.19335629288E+02 -0.98653660492E+02  0.12013880921E+03  0.47000000000E+01 0.  1.
<mgrwt>
<rscale>  0 0.26600477E+03</rscale>
<asrwt>0</asrwt>
<pdfrwt beam="1">  1        2 0.12091611E+00 0.26600477E+03</pdfrwt>
<pdfrwt beam="2">  1       -2 0.34626450E-02 0.26600477E+03</pdfrwt>
<totfact> 0.12331641E+04</totfact>
</mgrwt>
</event>
<event>
 9    1  0.8175317E-001  0.2758400E+03  0.7818608E-02  0.1097983E+00
          1   -1    0    0  501    0  0.00000000000E+00  0.00000000000E+00  0.64985511011E+03  0.64985511011E+03  0.00000000000E+00 0.  1.
         -1   -1    0    0    0  501 -0.00000000000E+00 -0.00000000000E+00 -0.29271034429E+02  0.29271034429E+02  0.00000000000E+00 0.  1.
         35    2    1    2    0    0  0.71054273576E-14 -0.71054273576E-14  0.62058407568E+03  0.67912614454E+03  0.27584003554E+03 0.  0.
         25    2    3    3    0    0 -0.27773212510E+02  0.39861857431E+02  0.40033531266E+03  0.42160052154E+03  0.12295657037E+03 0.  0.
         25    2    3    3    0    0  0.27773212510E+02 -0.39861857431E+02  0.22024876302E+03  0.25752562299E+03  0.12429645962E+03 0.  0.
          5    1    4    4  502    0 -0.74190607383E+02  0.75218955086E+01  0.20542493468E+03  0.21859167167E+03  0.47000000000E+01 0.  1.
         -5    1    4    4    0  502  0.46417394874E+02  0.32339961923E+02  0.19491037798E+03  0.20300884987E+03  0.47000000000E+01 0.  1.
          5    1    5    5  503    0  0.33009621993E+01  0.35777068742E+02  0.13943364158E+03  0.14406500409E+03  0.47000000000E+01 0.  1.
         -5    1    5    5    0  503  0.24472250310E+02 -0.75638926173E+02  0.80815121444E+02  0.11346061890E+03  0.47000000000E+01 0.  1.
<mgrwt>
<rscale>  0 0.27584004E+03</rscale>
<asrwt>0</asrwt>
<pdfrwt beam="1">  1        1 0.99977698E-01 0.27584004E+03</pdfrwt>
<pdfrwt beam="2">  1       -1 0.45032366E-02 0.27584004E+03</pdfrwt>
<totfact> 0.64487188E+03</totfact>
</mgrwt>
</event>
<event>
 9    1  0.8175317E-001  0.2746574E+03  0.7818608E-02  0.1098643E+00
         -2   -1    0    0    0  501 -0.00000000000E+00  0.00000000000E+00  0.11231888826E+02  0.11231888826E+02  0.00000000000E+00 0.  1.
          2   -1    0    0  501    0  0.00000000000E+00 -0.00000000000E+00 -0.16790733373E+04  0.16790733373E+04  0.00000000000E+00 0.  1.
         35    2    1    2    0    0  0.00000000000E+00 -0.71054273576E-14 -0.16678414485E+04  0.16903052261E+04  0.27465735056E+03 0.  0.
         25    2    3    3    0    0  0.88456633156E+01 -0.32467966775E+02 -0.55668468171E+03  0.57145553669E+03  0.12462415870E+03 0.  0.
         25    2    3    3    0    0 -0.88456633156E+01  0.32467966775E+02 -0.11111567667E+04  0.11188496894E+04  0.12658140704E+03 0.  0.
          5    1    4    4  502    0 -0.33983965009E+02 -0.27096333510E+02 -0.48958196817E+03  0.49152997337E+03  0.47000000000E+01 0.  1.
         -5    1    4    4    0  502  0.42829628325E+02 -0.53716332651E+01 -0.67102713548E+02  0.79925563319E+02  0.47000000000E+01 0.  1.
          5    1    5    5  503    0  0.23577319667E+02 -0.31884103001E+02 -0.15823871196E+03  0.16319946688E+03  0.47000000000E+01 0. -1.
         -5    1    5    5    0  503 -0.32422982982E+02  0.64352069777E+02 -0.95291805478E+03  0.95565022254E+03  0.47000000000E+01 0. -1.
<mgrwt>
<rscale>  0 0.27465735E+03</rscale>
<asrwt>0</asrwt>
<pdfrwt beam="1">  1        2 0.25831889E+00 0.27465735E+03</pdfrwt>
<pdfrwt beam="2">  1       -2 0.17279835E-02 0.27465735E+03</pdfrwt>
<totfact> 0.10505150E+04</totfact>
</mgrwt>
</event>
<event>
 9    1  0.8175317E-001  0.2731314E+03  0.7818608E-02  0.1099501E+00
          2   -1    0    0  501    0  0.00000000000E+00  0.00000000000E+00  0.21414913277E+03  0.21414913277E+03  0.00000000000E+00 0. -1.
         -2   -1    0    0    0  501 -0.00000000000E+00 -0.00000000000E+00 -0.87089717632E+02  0.87089717632E+02  0.00000000000E+00 0. -1.
         35    2    1    2    0    0 -0.35527136788E-14  0.71054273576E-14  0.12705941514E+03  0.30123885040E+03  0.27313137867E+03 0.  0.
         25    2    3    3    0    0  0.14463422614E+02 -0.50011525821E+02  0.42948855372E+02  0.14186369683E+03  0.12478125256E+03 0.  0.
         25    2    3    3    0    0 -0.14463422614E+02  0.50011525821E+02  0.84110559767E+02  0.15937515357E+03  0.12496203425E+03 0.  0.
          5    1    4    4  502    0 -0.27338234155E+02 -0.77559574900E+02  0.39800381702E+02  0.91482386770E+02  0.47000000000E+01 0. -1.
         -5    1    4    4    0  502  0.41801656770E+02  0.27548049079E+02  0.31484736701E+01  0.50381310059E+02  0.47000000000E+01 0. -1.
          5    1    5    5  503    0  0.19724358026E+02  0.68493420104E+02  0.94890103088E+02  0.11877129519E+03  0.47000000000E+01 0.  1.
         -5    1    5    5    0  503 -0.34187780640E+02 -0.18481894283E+02 -0.10779543321E+02  0.40603858384E+02  0.47000000000E+01 0.  1.
<mgrwt>
<rscale>  0 0.27313138E+03</rscale>
<asrwt>0</asrwt>
<pdfrwt beam="1">  1        2 0.32946020E-01 0.27313138E+03</pdfrwt>
<pdfrwt beam="2">  1       -2 0.13398418E-01 0.27313138E+03</pdfrwt>
<totfact> 0.64728881E+03</totfact>
</mgrwt>
</event>
<event>
 9    1  0.8175317E-001  0.2702701E+03  0.7818608E-02  0.1101125E+00
         -2   -1    0    0    0  501 -0.00000000000E+00  0.00000000000E+00  0.18480219233E+03  0.18480219233E+03  0.00000000000E+00 0.  1.
          2   -1    0    0  501    0  0.00000000000E+00 -0.00000000000E+00 -0.98816391707E+02  0.98816391707E+02  0.00000000000E+00 0.  1.
         35    2    1    2    0    0 -0.35527136788E-14  0.00000000000E+00  0.85985800624E+02  0.28361858404E+03  0.27027013025E+03 0.  0.
         25    2    3    3    0    0  0.11324747041E+02  0.21878106421E+02  0.97713161214E+02  0.15974995932E+03  0.12395679164E+03 0.  0.
         25    2    3    3    0    0 -0.11324747041E+02 -0.21878106421E+02 -0.11727360590E+02  0.12386862471E+03  0.12082633722E+03 0.  0.
          5    1    4    4  502    0  0.77120637504E+01  0.77338750471E+01  0.12654001557E+03  0.12709742047E+03  0.47000000000E+01 0.  1.
         -5    1    4    4    0  502  0.36126832908E+01  0.14144231373E+02 -0.28826854353E+02  0.32652538854E+02  0.47000000000E+01 0.  1.
          5    1    5    5  503    0 -0.54789002201E+02 -0.46806909218E+02 -0.13711346327E+02  0.73503826641E+02  0.47000000000E+01 0. -1.
         -5    1    5    5    0  503  0.43464255160E+02  0.24928802798E+02  0.19839857370E+01  0.50364798073E+02  0.47000000000E+01 0. -1.
<mgrwt>
<rscale>  0 0.27027013E+03</rscale>
<asrwt>0</asrwt>
<pdfrwt beam="1">  1        2 0.15202522E-01 0.27027013E+03</pdfrwt>
<pdfrwt beam="2">  1       -2 0.28431106E-01 0.27027013E+03</pdfrwt>
<totfact> 0.42963986E+03</totfact>
</mgrwt>
</event>
<event>
 9    1  0.8175317E-001  0.2725814E+03  0.7818608E-02  0.1099811E+00
         -3   -1    0    0    0  501 -0.00000000000E+00  0.00000000000E+00  0.36372687895E+03  0.36372687895E+03  0.00000000000E+00 0.  1.
          3   -1    0    0  501    0  0.00000000000E+00 -0.00000000000E+00 -0.51068977635E+02  0.51068977635E+02  0.00000000000E+00 0.  1.
         35    2    1    2    0    0  0.00000000000E+00  0.71054273576E-14  0.31265790132E+03  0.41479585659E+03  0.27258143625E+03 0.  0.
         25    2    3    3    0    0 -0.43233407754E+02 -0.33369700344E+02  0.15911901598E+03  0.20944321758E+03  0.12475951144E+03 0.  0.
         25    2    3    3    0    0  0.43233407754E+02  0.33369700344E+02  0.15353888534E+03  0.20535263901E+03  0.12495140092E+03 0.  0.
          5    1    4    4  502    0 -0.36948931239E+02 -0.80514710890E+01 -0.90755945522E+01  0.39172772724E+02  0.47000000000E+01 0.  1.
         -5    1    4    4    0  502 -0.62844765155E+01 -0.25318229255E+02  0.16819461053E+03  0.17027044485E+03  0.47000000000E+01 0.  1.
          5    1    5    5  503    0 -0.43132402926E+02  0.18608840658E+02  0.40118303099E+02  0.61953703492E+02  0.47000000000E+01 0. -1.
         -5    1    5    5    0  503  0.86365810681E+02  0.14760859686E+02  0.11342058224E+03  0.14339893552E+03  0.47000000000E+01 0. -1.
<mgrwt>
<rscale>  0 0.27258144E+03</rscale>
<asrwt>0</asrwt>
<pdfrwt beam="1">  1        3 0.78567660E-02 0.27258144E+03</pdfrwt>
<pdfrwt beam="2">  1       -3 0.55957980E-01 0.27258144E+03</pdfrwt>
<totfact> 0.88694383E+02</totfact>
</mgrwt>
</event>
<event>
 9    1  0.8175317E-001  0.2692995E+03  0.7818608E-02  0.1101681E+00
         -2   -1    0    0    0  501 -0.00000000000E+00  0.00000000000E+00  0.94055582312E+01  0.94055582312E+01  0.00000000000E+00 0.  1.
          2   -1    0    0  501    0  0.00000000000E+00 -0.00000000000E+00 -0.19276420085E+04  0.19276420085E+04  0.00000000000E+00 0.  1.
         35    2    1    2    0    0  0.88817841970E-15  0.00000000000E+00 -0.19182364503E+04  0.19370475667E+04  0.26929945533E+03 0.  0.
         25    2    3    3    0    0  0.60353646918E+00  0.15137635798E+02 -0.13236988565E+04  0.13296019712E+04  0.12423053900E+03 0.  0.
         25    2    3    3    0    0 -0.60353646918E+00 -0.15137635798E+02 -0.59453759379E+03  0.60744559556E+03  0.12363530590E+03 0.  0.
          5    1    4    4  502    0  0.43717796223E+02  0.17389555514E+00 -0.19187399056E+03  0.19684764210E+03  0.47000000000E+01 0.  1.
         -5    1    4    4    0  502 -0.43114259754E+02  0.14963740243E+02 -0.11318248659E+04  0.11327543291E+04  0.47000000000E+01 0.  1.
          5    1    5    5  503    0  0.43568404552E+01  0.21340954211E+02 -0.15321605965E+02  0.27041819368E+02  0.47000000000E+01 0. -1.
         -5    1    5    5    0  503 -0.49603769244E+01 -0.36478590009E+02 -0.57921598783E+03  0.58040377620E+03  0.47000000000E+01 0. -1.
<mgrwt>
<rscale>  0 0.26929946E+03</rscale>
<asrwt>0</asrwt>
<pdfrwt beam="1">  1        2 0.29656053E+00 0.26929946E+03</pdfrwt>
<pdfrwt beam="2">  1       -2 0.14470079E-02 0.26929946E+03</pdfrwt>
<totfact> 0.10081867E+04</totfact>
</mgrwt>
</event>
<event>
 9    1  0.8175317E-001  0.2692244E+03  0.7818608E-02  0.1101724E+00
          3   -1    0    0  501    0  0.00000000000E+00  0.00000000000E+00  0.13620862531E+04  0.13620862531E+04  0.00000000000E+00 0.  1.
         -3   -1    0    0    0  501 -0.00000000000E+00 -0.00000000000E+00 -0.13303446971E+02  0.13303446971E+02  0.00000000000E+00 0.  1.
         35    2    1    2    0    0  0.35527136788E-14  0.00000000000E+00  0.13487828061E+04  0.13753897000E+04  0.26922438402E+03 0.  0.
         25    2    3    3    0    0 -0.20542499277E+02 -0.38669647332E+02  0.75455937094E+03  0.76654081908E+03  0.12770139837E+03 0.  0.
         25    2    3    3    0    0  0.20542499277E+02  0.38669647332E+02  0.59422343516E+03  0.60884888096E+03  0.12521235183E+03 0.  0.
          5    1    4    4  502    0  0.29625035633E+02 -0.23195089925E+02  0.63188670229E+03  0.63302334038E+03  0.47000000000E+01 0.  1.
         -5    1    4    4    0  502 -0.50167534910E+02 -0.15474557407E+02  0.12267266865E+03  0.13351747870E+03  0.47000000000E+01 0.  1.
          5    1    5    5  503    0  0.36543855633E+02  0.33166062430E+02  0.58819602360E+03  0.59028136787E+03  0.47000000000E+01 0.  1.
         -5    1    5    5    0  503 -0.16001356356E+02  0.55035849020E+01  0.60274115584E+01  0.18567513083E+02  0.47000000000E+01 0.  1.
<mgrwt>
<rscale>  0 0.26922438E+03</rscale>
<asrwt>0</asrwt>
<pdfrwt beam="1">  1        3 0.20955162E+00 0.26922438E+03</pdfrwt>
<pdfrwt beam="2">  1       -3 0.20466852E-02 0.26922438E+03</pdfrwt>
<totfact> 0.32708466E+02</totfact>
</mgrwt>
</event>
<event>
 9    1  0.8175317E-001  0.2812711E+03  0.7818608E-02  0.1094997E+00
          2   -1    0    0  501    0  0.00000000000E+00  0.00000000000E+00  0.61208428271E+03  0.61208428271E+03  0.00000000000E+00 0. -1.
         -2   -1    0    0    0  501 -0.00000000000E+00 -0.00000000000E+00 -0.32313129445E+02  0.32313129445E+02  0.00000000000E+00 0. -1.
         35    2    1    2    0    0 -0.71054273576E-14 -0.71054273576E-14  0.57977115327E+03  0.64439741216E+03  0.28127110522E+03 0.  0.
         25    2    3    3    0    0 -0.45155401039E+02  0.29701391681E+02  0.36974520307E+03  0.39402830700E+03  0.12500243442E+03 0.  0.
         25    2    3    3    0    0  0.45155401039E+02 -0.29701391681E+02  0.21002595020E+03  0.25036910516E+03  0.12511037587E+03 0.  0.
          5    1    4    4  502    0  0.20037014295E+02 -0.15991054583E+02  0.14263375831E+02  0.29710766712E+02  0.47000000000E+01 0. -1.
         -5    1    4    4    0  502 -0.65192415335E+02  0.45692446263E+02  0.35548182724E+03  0.36431754029E+03  0.47000000000E+01 0. -1.
          5    1    5    5  503    0  0.23273660204E+02 -0.77232711038E+02  0.10098271208E+03  0.12932962944E+03  0.47000000000E+01 0. -1.
         -5    1    5    5    0  503  0.21881740836E+02  0.47531319357E+02  0.10904323812E+03  0.12103947572E+03  0.47000000000E+01 0. -1.
<mgrwt>
<rscale>  0 0.28127111E+03</rscale>
<asrwt>0</asrwt>
<pdfrwt beam="1">  1        2 0.94166804E-01 0.28127111E+03</pdfrwt>
<pdfrwt beam="2">  1       -2 0.49712512E-02 0.28127111E+03</pdfrwt>
<totfact> 0.97015849E+03</totfact>
</mgrwt>
</event>
<event>
 9    1  0.8175317E-001  0.2809039E+03  0.7818608E-02  0.1095196E+00
         -3   -1    0    0    0  501 -0.00000000000E+00  0.00000000000E+00  0.65204629055E+03  0.65204629055E+03  0.00000000000E+00 0.  1.
          3   -1    0    0  501    0  0.00000000000E+00 -0.00000000000E+00 -0.30253598907E+02  0.30253598907E+02  0.00000000000E+00 0.  1.
         35    2    1    2    0    0 -0.17763568394E-14  0.71054273576E-14  0.62179269165E+03  0.68229988946E+03  0.28090387640E+03 0.  0.
         25    2    3    3    0    0  0.93622585172E+01 -0.40721085366E+02  0.18902439875E+03  0.23038625717E+03  0.12490694734E+03 0.  0.
         25    2    3    3    0    0 -0.93622585172E+01  0.40721085366E+02  0.43276829290E+03  0.45191363229E+03  0.12325452134E+03 0.  0.
          5    1    4    4  502    0  0.21022398435E+02 -0.53029859781E+00  0.18698847073E+03  0.18822592977E+03  0.47000000000E+01 0.  1.
         -5    1    4    4    0  502 -0.11660139917E+02 -0.40190786769E+02  0.20359280211E+01  0.42160327405E+02  0.47000000000E+01 0.  1.
          5    1    5    5  503    0  0.54933689285E+02  0.30294536381E+02  0.17369708963E+03  0.18473829624E+03  0.47000000000E+01 0. -1.
         -5    1    5    5    0  503 -0.64295947802E+02  0.10426548985E+02  0.25907120327E+03  0.26717533605E+03  0.47000000000E+01 0. -1.
<mgrwt>
<rscale>  0 0.28090388E+03</rscale>
<asrwt>0</asrwt>
<pdfrwt beam="1">  1        3 0.46544003E-02 0.28090388E+03</pdfrwt>
<pdfrwt beam="2">  1       -3 0.10031480E+00 0.28090388E+03</pdfrwt>
<totfact> 0.58365542E+02</totfact>
</mgrwt>
</event>
<event>
 9    1  0.8175317E-001  0.2812953E+03  0.7818608E-02  0.1094984E+00
          2   -1    0    0  501    0  0.00000000000E+00  0.00000000000E+00  0.86067430606E+03  0.86067430606E+03  0.00000000000E+00 0. -1.
         -2   -1    0    0    0  501 -0.00000000000E+00 -0.00000000000E+00 -0.22984028469E+02  0.22984028469E+02  0.00000000000E+00 0. -1.
         35    2    1    2    0    0  0.71054273576E-14 -0.35527136788E-14  0.83769027759E+03  0.88365833453E+03  0.28129530926E+03 0.  0.
         25    2    3    3    0    0 -0.31971074030E+02 -0.16088487746E+02  0.26130368108E+03  0.29279052427E+03  0.12714436025E+03 0.  0.
         25    2    3    3    0    0  0.31971074030E+02  0.16088487746E+02  0.57638659651E+03  0.59086781026E+03  0.12498908573E+03 0.  0.
          5    1    4    4  502    0  0.29991568179E+02  0.28969406014E+02  0.16162327317E+03  0.16698171480E+03  0.47000000000E+01 0. -1.
         -5    1    4    4    0  502 -0.61962642209E+02 -0.45057893759E+02  0.99680407916E+02  0.12580880948E+03  0.47000000000E+01 0. -1.
          5    1    5    5  503    0  0.69907729320E+02  0.65733336881E+01  0.49993706195E+03  0.50486577943E+03  0.47000000000E+01 0.  1.
         -5    1    5    5    0  503 -0.37936655290E+02  0.95151540577E+01  0.76449534565E+02  0.86002030827E+02  0.47000000000E+01 0.  1.
<mgrwt>
<rscale>  0 0.28129531E+03</rscale>
<asrwt>0</asrwt>
<pdfrwt beam="1">  1        2 0.13241141E+00 0.28129531E+03</pdfrwt>
<pdfrwt beam="2">  1       -2 0.35360051E-02 0.28129531E+03</pdfrwt>
<totfact> 0.10653165E+04</totfact>
</mgrwt>
</event>
<event>
 9    1  0.8175317E-001  0.2748432E+03  0.7818608E-02  0.1098539E+00
          2   -1    0    0  501    0  0.00000000000E+00  0.00000000000E+00  0.40912028391E+03  0.40912028391E+03  0.00000000000E+00 0. -1.
         -2   -1    0    0    0  501 -0.00000000000E+00 -0.00000000000E+00 -0.46159272149E+02  0.46159272149E+02  0.00000000000E+00 0. -1.
         35    2    1    2    0    0 -0.71054273576E-14  0.00000000000E+00  0.36296101176E+03  0.45527955606E+03  0.27484318821E+03 0.  0.
         25    2    3    3    0    0 -0.34236819511E+02  0.36033734571E+02  0.12607352450E+03  0.18396784038E+03  0.12441480168E+03 0.  0.
         25    2    3    3    0    0  0.34236819511E+02 -0.36033734571E+02  0.23688748725E+03  0.27131171568E+03  0.12257151222E+03 0.  0.
          5    1    4    4  502    0 -0.77354184934E+02  0.39388764230E+02  0.63055509333E+02  0.10739288585E+03  0.47000000000E+01 0.  1.
         -5    1    4    4    0  502  0.43117365424E+02 -0.33550296585E+01  0.63018015170E+02  0.76574954528E+02  0.47000000000E+01 0.  1.
          5    1    5    5  503    0 -0.36325031723E+02  0.14077617166E+01  0.23821505463E+02  0.43715487476E+02  0.47000000000E+01 0.  1.
         -5    1    5    5    0  503  0.70561851234E+02 -0.37441496288E+02  0.21306598179E+03  0.22759622820E+03  0.47000000000E+01 0.  1.
<mgrwt>
<rscale>  0 0.27484319E+03</rscale>
<asrwt>0</asrwt>
<pdfrwt beam="1">  1        2 0.62941580E-01 0.27484319E+03</pdfrwt>
<pdfrwt beam="2">  1       -2 0.71014268E-02 0.27484319E+03</pdfrwt>
<totfact> 0.88149244E+03</totfact>
</mgrwt>
</event>
<event>
 9    1  0.8175317E-001  0.2765730E+03  0.7818608E-02  0.1097576E+00
         -1   -1    0    0    0  501 -0.00000000000E+00  0.00000000000E+00  0.10822781818E+02  0.10822781818E+02  0.00000000000E+00 0.  1.
          1   -1    0    0  501    0  0.00000000000E+00 -0.00000000000E+00 -0.17669356906E+04  0.17669356906E+04  0.00000000000E+00 0.  1.
         35    2    1    2    0    0  0.00000000000E+00  0.71054273576E-14 -0.17561129087E+04  0.17777584724E+04  0.27657302447E+03 0.  0.
         25    2    3    3    0    0  0.22192584760E+01 -0.49931931840E+02 -0.10831039620E+04  0.10913842893E+04  0.12452851707E+03 0.  0.
         25    2    3    3    0    0 -0.22192584760E+01  0.49931931840E+02 -0.67300894673E+03  0.68637418304E+03  0.12518128390E+03 0.  0.
          5    1    4    4  502    0  0.14396321542E+02  0.39808698147E+02 -0.28961597670E+03  0.29273108902E+03  0.47000000000E+01 0. -1.
         -5    1    4    4    0  502 -0.12177063066E+02 -0.89740629987E+02 -0.79348798532E+03  0.79865320032E+03  0.47000000000E+01 0. -1.
          5    1    5    5  503    0  0.37265221014E+02 -0.21027710099E+02 -0.37503941032E+03  0.37750166964E+03  0.47000000000E+01 0.  1.
         -5    1    5    5    0  503 -0.39484479490E+02  0.70959641939E+02 -0.29796953641E+03  0.30887251340E+03  0.47000000000E+01 0.  1.
<mgrwt>
<rscale>  0 0.27657302E+03</rscale>
<asrwt>0</asrwt>
<pdfrwt beam="1">  1        1 0.27183600E+00 0.27657302E+03</pdfrwt>
<pdfrwt beam="2">  1       -1 0.16650449E-02 0.27657302E+03</pdfrwt>
<totfact> 0.42859778E+03</totfact>
</mgrwt>
</event>
<event>
 9    1  0.8175317E-001  0.2632690E+03  0.7818608E-02  0.1105195E+00
          1   -1    0    0  501    0  0.00000000000E+00  0.00000000000E+00  0.29210893019E+03  0.29210893019E+03  0.00000000000E+00 0. -1.
         -1   -1    0    0    0  501 -0.00000000000E+00 -0.00000000000E+00 -0.59319097254E+02  0.59319097254E+02  0.00000000000E+00 0. -1.
         35    2    1    2    0    0  0.00000000000E+00  0.00000000000E+00  0.23278983294E+03  0.35142802745E+03  0.26326897302E+03 0.  0.
         25    2    3    3    0    0 -0.34603922530E+02  0.24349490899E+02  0.10044503547E+03  0.16519796718E+03  0.12414038041E+03 0.  0.
         25    2    3    3    0    0  0.34603922530E+02 -0.24349490899E+02  0.13234479747E+03  0.18623006027E+03  0.12400064825E+03 0.  0.
          5    1    4    4  502    0 -0.81698444172E+01 -0.11942949293E+02  0.11634508815E+03  0.11733562942E+03  0.47000000000E+01 0.  1.
         -5    1    4    4    0  502 -0.26434078113E+02  0.36292440192E+02 -0.15900052679E+02  0.47862337761E+02  0.47000000000E+01 0.  1.
          5    1    5    5  503    0 -0.34729190285E+02  0.20931057433E+02  0.75015278296E+02  0.85402621745E+02  0.47000000000E+01 0. -1.
         -5    1    5    5    0  503  0.69333112816E+02 -0.45280548332E+02  0.57329519177E+02  0.10082743852E+03  0.47000000000E+01 0. -1.
<mgrwt>
<rscale>  0 0.26326897E+03</rscale>
<asrwt>0</asrwt>
<pdfrwt beam="1">  1        1 0.44939835E-01 0.26326897E+03</pdfrwt>
<pdfrwt beam="2">  1       -1 0.91260151E-02 0.26326897E+03</pdfrwt>
<totfact> 0.63094524E+03</totfact>
</mgrwt>
</event>
<event>
 9    1  0.8175317E-001  0.2773044E+03  0.7818608E-02  0.1097170E+00
          1   -1    0    0  501    0  0.00000000000E+00  0.00000000000E+00  0.36446440796E+02  0.36446440796E+02  0.00000000000E+00 0. -1.
         -1   -1    0    0    0  501 -0.00000000000E+00 -0.00000000000E+00 -0.52747091196E+03  0.52747091196E+03  0.00000000000E+00 0. -1.
         35    2    1    2    0    0  0.10658141036E-13 -0.14210854715E-13 -0.49102447117E+03  0.56391735276E+03  0.27730443462E+03 0.  0.
         25    2    3    3    0    0  0.22835801412E+02 -0.43348606125E+02 -0.32181243869E+03  0.34832003566E+03  0.12394767472E+03 0.  0.
         25    2    3    3    0    0 -0.22835801412E+02  0.43348606125E+02 -0.16921203248E+03  0.21559731710E+03  0.12429366728E+03 0.  0.
          5    1    4    4  502    0  0.47816210264E+02  0.17109881097E+02 -0.22939309583E+03  0.23499451145E+03  0.47000000000E+01 0. -1.
         -5    1    4    4    0  502 -0.24980408852E+02 -0.60458487222E+02 -0.92419342854E+02  0.11332552421E+03  0.47000000000E+01 0. -1.
          5    1    5    5  503    0 -0.35485346139E+02 -0.37354426136E+02 -0.62921120314E+02  0.81459930789E+02  0.47000000000E+01 0. -1.
         -5    1    5    5    0  503  0.12649544727E+02  0.80703032261E+02 -0.10629091216E+03  0.13413738631E+03  0.47000000000E+01 0. -1.
<mgrwt>
<rscale>  0 0.27730443E+03</rscale>
<asrwt>0</asrwt>
<pdfrwt beam="1">  1        1 0.56071446E-02 0.27730443E+03</pdfrwt>
<pdfrwt beam="2">  1       -1 0.81149372E-01 0.27730443E+03</pdfrwt>
<totfact> 0.22439842E+03</totfact>
</mgrwt>
</event>
<event>
 9    1  0.8175317E-001  0.2718173E+03  0.7818608E-02  0.1100244E+00
          2   -1    0    0  501    0  0.00000000000E+00  0.00000000000E+00  0.36444768260E+04  0.36444768260E+04  0.00000000000E+00 0. -1.
         -2   -1    0    0    0  501 -0.00000000000E+00 -0.00000000000E+00 -0.50682625511E+01  0.50682625511E+01  0.00000000000E+00 0. -1.
         35    2    1    2    0    0  0.71054273576E-14  0.00000000000E+00  0.36394085634E+04  0.36495450886E+04  0.27181733142E+03 0.  0.
         25    2    3    3    0    0 -0.41839503588E+02  0.11587368467E+02  0.14103040978E+04  0.14164885177E+04  0.12488899623E+03 0.  0.
         25    2    3    3    0    0  0.41839503588E+02 -0.11587368467E+02  0.22291044656E+04  0.22330565708E+04  0.12549947652E+03 0.  0.
          5    1    4    4  502    0 -0.82677032206E+02 -0.84685834250E+01  0.75087025914E+03  0.75547034662E+03  0.47000000000E+01 0. -1.
         -5    1    4    4    0  502  0.40837528618E+02  0.20055951892E+02  0.65943383869E+03  0.66101817112E+03  0.47000000000E+01 0. -1.
          5    1    5    5  503    0  0.65260969767E+02  0.38591621918E+02  0.14355727910E+04  0.14375811754E+04  0.47000000000E+01 0.  1.
         -5    1    5    5    0  503 -0.23421466179E+02 -0.50178990385E+02  0.79353167459E+03  0.79547539543E+03  0.47000000000E+01 0.  1.
<mgrwt>
<rscale>  0 0.27181733E+03</rscale>
<asrwt>0</asrwt>
<pdfrwt beam="1">  1        2 0.56068665E+00 0.27181733E+03</pdfrwt>
<pdfrwt beam="2">  1       -2 0.77973561E-03 0.27181733E+03</pdfrwt>
<totfact> 0.24793299E+03</totfact>
</mgrwt>
</event>
<event>
 9    1  0.8175317E-001  0.2733146E+03  0.7818608E-02  0.1099397E+00
         -2   -1    0    0    0  501 -0.00000000000E+00  0.00000000000E+00  0.16394012796E+03  0.16394012796E+03  0.00000000000E+00 0.  1.
          2   -1    0    0  501    0  0.00000000000E+00 -0.00000000000E+00 -0.11391483395E+03  0.11391483395E+03  0.00000000000E+00 0.  1.
         35    2    1    2    0    0  0.00000000000E+00  0.00000000000E+00  0.50025294016E+02  0.27785496191E+03  0.27331456203E+03 0.  0.
         25    2    3    3    0    0  0.68833772488E+01  0.64200207269E+01 -0.29473538420E+02  0.12921167217E+03  0.12545265725E+03 0.  0.
         25    2    3    3    0    0 -0.68833772488E+01 -0.64200207269E+01  0.79498832436E+02  0.14864328974E+03  0.12524442374E+03 0.  0.
          5    1    4    4  502    0 -0.26957819580E+02  0.28399214860E+02 -0.64480195556E+02  0.75584555698E+02  0.47000000000E+01 0. -1.
         -5    1    4    4    0  502  0.33841196829E+02 -0.21979194133E+02  0.35006657136E+02  0.53627116475E+02  0.47000000000E+01 0. -1.
          5    1    5    5  503    0  0.57038898715E+02 -0.49811059739E+01  0.56376598471E+02  0.80490112675E+02  0.47000000000E+01 0.  1.
         -5    1    5    5    0  503 -0.63922275964E+02 -0.14389147531E+01  0.23122233966E+02  0.68153177062E+02  0.47000000000E+01 0.  1.
<mgrwt>
<rscale>  0 0.27331456E+03</rscale>
<asrwt>0</asrwt>
<pdfrwt beam="1">  1        2 0.17525359E-01 0.27331456E+03</pdfrwt>
<pdfrwt beam="2">  1       -2 0.25221558E-01 0.27331456E+03</pdfrwt>
<totfact> 0.45036589E+03</totfact>
</mgrwt>
</event>
<event>
 9    1  0.8175317E-001  0.2751233E+03  0.7818608E-02  0.1098383E+00
         -2   -1    0    0    0  501 -0.00000000000E+00  0.00000000000E+00  0.98015626248E+01  0.98015626248E+01  0.00000000000E+00 0.  1.
          2   -1    0    0  501    0  0.00000000000E+00 -0.00000000000E+00 -0.19306318438E+04  0.19306318438E+04  0.00000000000E+00 0.  1.
         35    2    1    2    0    0  0.00000000000E+00  0.00000000000E+00 -0.19208302812E+04  0.19404334065E+04  0.27512330997E+03 0.  0.
         25    2    3    3    0    0 -0.50470185788E+02  0.93930848116E+01 -0.10213708858E+04  0.10302885487E+04  0.12514206916E+03 0.  0.
         25    2    3    3    0    0  0.50470185788E+02 -0.93930848116E+01 -0.89945939537E+03  0.91014485775E+03  0.12923230427E+03 0.  0.
          5    1    4    4  502    0  0.33904753449E+02 -0.26379228562E+02 -0.35884922194E+03  0.36144190418E+03  0.47000000000E+01 0.  1.
         -5    1    4    4    0  502 -0.84374939237E+02  0.35772313374E+02 -0.66252166390E+03  0.66884664454E+03  0.47000000000E+01 0.  1.
          5    1    5    5  503    0  0.57871451851E+02 -0.47399043255E+02 -0.29308243039E+03  0.30251475211E+03  0.47000000000E+01 0.  1.
         -5    1    5    5    0  503 -0.74012660633E+01  0.38005958443E+02 -0.60637696498E+03  0.60763010564E+03  0.47000000000E+01 0.  1.
<mgrwt>
<rscale>  0 0.27512331E+03</rscale>
<asrwt>0</asrwt>
<pdfrwt beam="1">  1        2 0.29702012E+00 0.27512331E+03</pdfrwt>
<pdfrwt beam="2">  1       -2 0.15079336E-02 0.27512331E+03</pdfrwt>
<totfact> 0.94601373E+03</totfact>
</mgrwt>
</event>
<event>
 9    1  0.8175317E-001  0.2808182E+03  0.7818608E-02  0.1095243E+00
          2   -1    0    0  501    0  0.00000000000E+00  0.00000000000E+00  0.13132020747E+03  0.13132020747E+03  0.00000000000E+00 0. -1.
         -2   -1    0    0    0  501 -0.00000000000E+00 -0.00000000000E+00 -0.15012705018E+03  0.15012705018E+03  0.00000000000E+00 0. -1.
         35    2    1    2    0    0  0.00000000000E+00 -0.14210854715E-13 -0.18806842714E+02  0.28144725765E+03  0.28081820010E+03 0.  0.
         25    2    3    3    0    0  0.28915116026E+02 -0.45808481712E+02  0.23959564204E+02  0.13883846323E+03  0.12556893415E+03 0.  0.
         25    2    3    3    0    0 -0.28915116026E+02  0.45808481712E+02 -0.42766406917E+02  0.14260879442E+03  0.12479503897E+03 0.  0.
          5    1    4    4  502    0 -0.61937167357E+01  0.85331165217E+01  0.62385292000E+02  0.63444391892E+02  0.47000000000E+01 0.  1.
         -5    1    4    4    0  502  0.35108832762E+02 -0.54341598234E+02 -0.38425727796E+02  0.75394071340E+02  0.47000000000E+01 0.  1.
          5    1    5    5  503    0  0.15178648994E+02  0.71294099895E+02 -0.53258699829E+02  0.90398114873E+02  0.47000000000E+01 0. -1.
         -5    1    5    5    0  503 -0.44093765021E+02 -0.25485618183E+02  0.10492292912E+02  0.52210679543E+02  0.47000000000E+01 0. -1.
<mgrwt>
<rscale>  0 0.28081820E+03</rscale>
<asrwt>0</asrwt>
<pdfrwt beam="1">  1        2 0.20203109E-01 0.28081820E+03</pdfrwt>
<pdfrwt beam="2">  1       -2 0.23096469E-01 0.28081820E+03</pdfrwt>
<totfact> 0.44650064E+03</totfact>
</mgrwt>
</event>
<event>
 9    1  0.8175317E-001  0.2622060E+03  0.7818608E-02  0.1105825E+00
          2   -1    0    0  501    0  0.00000000000E+00  0.00000000000E+00  0.15592344380E+03  0.15592344380E+03  0.00000000000E+00 0.  1.
         -2   -1    0    0    0  501 -0.00000000000E+00 -0.00000000000E+00 -0.11023356027E+03  0.11023356027E+03  0.00000000000E+00 0.  1.
         35    2    1    2    0    0  0.71054273576E-14 -0.35527136788E-14  0.45689883528E+02  0.26615700407E+03  0.26220599794E+03 0.  0.
         25    2    3    3    0    0  0.10722066356E+02  0.34535400620E+01  0.60432538570E+02  0.13961219275E+03  0.12534984244E+03 0.  0.
         25    2    3    3    0    0 -0.10722066356E+02 -0.34535400620E+01 -0.14742655041E+02  0.12654481132E+03  0.12517728927E+03 0.  0.
          5    1    4    4  502    0  0.49945698230E+02  0.41138149723E+02  0.54433366219E+02  0.84687670249E+02  0.47000000000E+01 0. -1.
         -5    1    4    4    0  502 -0.39223631874E+02 -0.37684609661E+02  0.59991723506E+01  0.54924522497E+02  0.47000000000E+01 0. -1.
          5    1    5    5  503    0 -0.56074739294E+02  0.14051522495E+02  0.25406961049E+02  0.63320023223E+02  0.47000000000E+01 0. -1.
         -5    1    5    5    0  503  0.45352672937E+02 -0.17505062557E+02 -0.40149616090E+02  0.63224788096E+02  0.47000000000E+01 0. -1.
<mgrwt>
<rscale>  0 0.26220600E+03</rscale>
<asrwt>0</asrwt>
<pdfrwt beam="1">  1        2 0.23988222E-01 0.26220600E+03</pdfrwt>
<pdfrwt beam="2">  1       -2 0.16959009E-01 0.26220600E+03</pdfrwt>
<totfact> 0.62149983E+03</totfact>
</mgrwt>
</event>
<event>
 9    1  0.8175317E-001  0.2727517E+03  0.7818608E-02  0.1099715E+00
          1   -1    0    0  501    0  0.00000000000E+00  0.00000000000E+00  0.15757037746E+03  0.15757037746E+03  0.00000000000E+00 0. -1.
         -1   -1    0    0    0  501 -0.00000000000E+00 -0.00000000000E+00 -0.11803219064E+03  0.11803219064E+03  0.00000000000E+00 0. -1.
         35    2    1    2    0    0  0.00000000000E+00  0.00000000000E+00  0.39538186823E+02  0.27560256810E+03  0.27275173203E+03 0.  0.
         25    2    3    3    0    0 -0.42938974822E+02 -0.18160963061E+02  0.20269552500E+02  0.13518984253E+03  0.12526716500E+03 0.  0.
         25    2    3    3    0    0  0.42938974822E+02  0.18160963061E+02  0.19268634323E+02  0.14041272557E+03  0.13103769341E+03 0.  0.
          5    1    4    4  502    0 -0.38468960123E+02  0.43399077227E+02 -0.19789375418E+02  0.61457710472E+02  0.47000000000E+01 0.  1.
         -5    1    4    4    0  502 -0.44700146985E+01 -0.61560040288E+02  0.40058927918E+02  0.73732132056E+02  0.47000000000E+01 0.  1.
          5    1    5    5  503    0 -0.25877230783E+01  0.45473027609E+02  0.58459185808E+02  0.74256709838E+02  0.47000000000E+01 0.  1.
         -5    1    5    5    0  503  0.45526697900E+02 -0.27312064547E+02 -0.39190551484E+02  0.66156015729E+02  0.47000000000E+01 0.  1.
<mgrwt>
<rscale>  0 0.27275173E+03</rscale>
<asrwt>0</asrwt>
<pdfrwt beam="1">  1        1 0.24241596E-01 0.27275173E+03</pdfrwt>
<pdfrwt beam="2">  1       -1 0.18158799E-01 0.27275173E+03</pdfrwt>
<totfact> 0.46668455E+03</totfact>
</mgrwt>
</event>
<event>
 9    1  0.8175317E-001  0.2854307E+03  0.7818608E-02  0.1092759E+00
          2   -1    0    0  501    0  0.00000000000E+00  0.00000000000E+00  0.34415759841E+03  0.34415759841E+03  0.00000000000E+00 0. -1.
         -2   -1    0    0    0  501 -0.00000000000E+00 -0.00000000000E+00 -0.59181221129E+02  0.59181221129E+02  0.00000000000E+00 0. -1.
         35    2    1    2    0    0 -0.35527136788E-14  0.00000000000E+00  0.28497637728E+03  0.40333881954E+03  0.28543067063E+03 0.  0.
         25    2    3    3    0    0  0.14263505961E+02  0.52879706289E+02  0.20062709102E+03  0.24285489531E+03  0.12540956736E+03 0.  0.
         25    2    3    3    0    0 -0.14263505961E+02 -0.52879706289E+02  0.84349286257E+02  0.16048392423E+03  0.12506229209E+03 0.  0.
          5    1    4    4  502    0 -0.22269251421E+02  0.32935318125E+02  0.22430713652E+01  0.40097083535E+02  0.47000000000E+01 0. -1.
         -5    1    4    4    0  502  0.36532757382E+02  0.19944388164E+02  0.19838401965E+03  0.20275781177E+03  0.47000000000E+01 0. -1.
          5    1    5    5  503    0 -0.40693076497E+02 -0.80311192860E+02  0.82264276324E+02  0.12204636550E+03  0.47000000000E+01 0.  1.
         -5    1    5    5    0  503  0.26429570536E+02  0.27431486571E+02  0.20850099330E+01  0.38437558723E+02  0.47000000000E+01 0.  1.
<mgrwt>
<rscale>  0 0.28543067E+03</rscale>
<asrwt>0</asrwt>
<pdfrwt beam="1">  1        2 0.52947322E-01 0.28543067E+03</pdfrwt>
<pdfrwt beam="2">  1       -2 0.91048035E-02 0.28543067E+03</pdfrwt>
<totfact> 0.72179693E+03</totfact>
</mgrwt>
</event>
<event>
 9    1  0.8175317E-001  0.2761548E+03  0.7818608E-02  0.1097808E+00
         -1   -1    0    0    0  501 -0.00000000000E+00  0.00000000000E+00  0.23722984578E+03  0.23722984578E+03  0.00000000000E+00 0. -1.
          1   -1    0    0  501    0  0.00000000000E+00 -0.00000000000E+00 -0.80366677212E+02  0.80366677212E+02  0.00000000000E+00 0. -1.
         35    2    1    2    0    0 -0.35527136788E-14 -0.10658141036E-13  0.15686316857E+03  0.31759652299E+03  0.27615484382E+03 0.  0.
         25    2    3    3    0    0 -0.18345545634E+02 -0.31361829579E+02  0.24143189396E+02  0.13217659017E+03  0.12477032498E+03 0.  0.
         25    2    3    3    0    0  0.18345545634E+02  0.31361829579E+02  0.13271997917E+03  0.18541993283E+03  0.12428127461E+03 0.  0.
          5    1    4    4  502    0 -0.19006710902E+02  0.35141579118E+02 -0.26741209133E+02  0.48304947036E+02  0.47000000000E+01 0.  1.
         -5    1    4    4    0  502  0.66116526887E+00 -0.66503408697E+02  0.50884398529E+02  0.83871643131E+02  0.47000000000E+01 0.  1.
          5    1    5    5  503    0 -0.22694984364E+02  0.43142221350E+02  0.33307355817E+01  0.49086631356E+02  0.47000000000E+01 0.  1.
         -5    1    5    5    0  503  0.41040529998E+02 -0.11780391771E+02  0.12938924359E+03  0.13633330147E+03  0.47000000000E+01 0.  1.
<mgrwt>
<rscale>  0 0.27615484E+03</rscale>
<asrwt>0</asrwt>
<pdfrwt beam="1">  1        1 0.12364104E-01 0.27615484E+03</pdfrwt>
<pdfrwt beam="2">  1       -1 0.36496899E-01 0.27615484E+03</pdfrwt>
<totfact> 0.34860817E+03</totfact>
</mgrwt>
</event>
<event>
 9    1  0.8175317E-001  0.2818890E+03  0.7818608E-02  0.1094662E+00
          3   -1    0    0  501    0  0.00000000000E+00  0.00000000000E+00  0.27585853069E+02  0.27585853069E+02  0.00000000000E+00 0.  1.
         -3   -1    0    0    0  501 -0.00000000000E+00 -0.00000000000E+00 -0.72012820316E+03  0.72012820316E+03  0.00000000000E+00 0.  1.
         35    2    1    2    0    0  0.35527136788E-14  0.71054273576E-14 -0.69254235009E+03  0.74771405623E+03  0.28188899094E+03 0.  0.
         25    2    3    3    0    0  0.27065416010E+02  0.45661758547E+02 -0.24318441170E+03  0.27829263051E+03  0.12446122755E+03 0.  0.
         25    2    3    3    0    0 -0.27065416010E+02 -0.45661758547E+02 -0.44935793839E+03  0.46942142573E+03  0.12496553603E+03 0.  0.
          5    1    4    4  502    0  0.53483896158E+02 -0.19038879491E+02 -0.15831298613E+03  0.16825010448E+03  0.47000000000E+01 0.  1.
         -5    1    4    4    0  502 -0.26418480149E+02  0.64700638037E+02 -0.84871425567E+02  0.11004252602E+03  0.47000000000E+01 0.  1.
          5    1    5    5  503    0  0.13639658566E+02 -0.76997836051E+02 -0.20022862106E+03  0.21500766902E+03  0.47000000000E+01 0. -1.
         -5    1    5    5    0  503 -0.40705074576E+02  0.31336077505E+02 -0.24912931733E+03  0.25441375671E+03  0.47000000000E+01 0. -1.
<mgrwt>
<rscale>  0 0.28188899E+03</rscale>
<asrwt>0</asrwt>
<pdfrwt beam="1">  1        3 0.42439769E-02 0.28188899E+03</pdfrwt>
<pdfrwt beam="2">  1       -3 0.11078897E+00 0.28188899E+03</pdfrwt>
<totfact> 0.53650206E+02</totfact>
</mgrwt>
</event>
<event>
 9    1  0.8175317E-001  0.2728754E+03  0.7818608E-02  0.1099645E+00
          1   -1    0    0  501    0  0.00000000000E+00  0.00000000000E+00  0.89035924359E+03  0.89035924359E+03  0.00000000000E+00 0. -1.
         -1   -1    0    0    0  501 -0.00000000000E+00 -0.00000000000E+00 -0.20907562828E+02  0.20907562828E+02  0.00000000000E+00 0. -1.
         35    2    1    2    0    0  0.00000000000E+00  0.71054273576E-14  0.86945168076E+03  0.91126680642E+03  0.27287536954E+03 0.  0.
         25    2    3    3    0    0 -0.50856257675E+02  0.36067186192E+01  0.39610704570E+03  0.41875189792E+03  0.12590866928E+03 0.  0.
         25    2    3    3    0    0  0.50856257675E+02 -0.36067186192E+01  0.47334463507E+03  0.49251490850E+03  0.12616031144E+03 0.  0.
          5    1    4    4  502    0 -0.36294088740E+02  0.55676720968E+02  0.30915125580E+03  0.31624950134E+03  0.47000000000E+01 0. -1.
         -5    1    4    4    0  502 -0.14562168935E+02 -0.52070002348E+02  0.86955789902E+02  0.10250239659E+03  0.47000000000E+01 0. -1.
          5    1    5    5  503    0  0.35123519357E+02  0.59895268334E+02  0.21549420919E+03  0.22645297299E+03  0.47000000000E+01 0.  1.
         -5    1    5    5    0  503  0.15732738319E+02 -0.63501986953E+02  0.25785042588E+03  0.26606193551E+03  0.47000000000E+01 0.  1.
<mgrwt>
<rscale>  0 0.27287537E+03</rscale>
<asrwt>0</asrwt>
<pdfrwt beam="1">  1        1 0.13697832E+00 0.27287537E+03</pdfrwt>
<pdfrwt beam="2">  1       -1 0.32165488E-02 0.27287537E+03</pdfrwt>
<totfact> 0.66017744E+03</totfact>
</mgrwt>
</event>
<event>
 9    1  0.8175317E-001  0.2767042E+03  0.7818608E-02  0.1097503E+00
          2   -1    0    0  501    0  0.00000000000E+00  0.00000000000E+00  0.17512093595E+03  0.17512093595E+03  0.00000000000E+00 0. -1.
         -2   -1    0    0    0  501 -0.00000000000E+00 -0.00000000000E+00 -0.10930334534E+03  0.10930334534E+03  0.00000000000E+00 0. -1.
         35    2    1    2    0    0 -0.35527136788E-14  0.00000000000E+00  0.65817590610E+02  0.28442428129E+03  0.27670420408E+03 0.  0.
         25    2    3    3    0    0 -0.80349319965E+00  0.34086105298E+02  0.83102270556E+02  0.15354965926E+03  0.12453514489E+03 0.  0.
         25    2    3    3    0    0  0.80349319965E+00 -0.34086105298E+02 -0.17284679946E+02  0.13087462203E+03  0.12516748122E+03 0.  0.
          5    1    4    4  502    0 -0.28718253139E+02 -0.38392300788E+02  0.15883654365E+02  0.50725607923E+02  0.47000000000E+01 0.  1.
         -5    1    4    4    0  502  0.27914759939E+02  0.72478406086E+02  0.67218616191E+02  0.10282405134E+03  0.47000000000E+01 0.  1.
          5    1    5    5  503    0  0.12222716300E+02 -0.74563514362E+02  0.15582063334E+02  0.77291675914E+02  0.47000000000E+01 0. -1.
         -5    1    5    5    0  503 -0.11419223101E+02  0.40477409064E+02 -0.32866743281E+02  0.53582946117E+02  0.47000000000E+01 0. -1.
<mgrwt>
<rscale>  0 0.27670420E+03</rscale>
<asrwt>0</asrwt>
<pdfrwt beam="1">  1        2 0.26941682E-01 0.27670420E+03</pdfrwt>
<pdfrwt beam="2">  1       -2 0.16815899E-01 0.27670420E+03</pdfrwt>
<totfact> 0.55493043E+03</totfact>
</mgrwt>
</event>
<event>
 9    1  0.8175317E-001  0.2757222E+03  0.7818608E-02  0.1098049E+00
         -1   -1    0    0    0  501 -0.00000000000E+00  0.00000000000E+00  0.42117155590E+02  0.42117155590E+02  0.00000000000E+00 0.  1.
          1   -1    0    0  501    0  0.00000000000E+00 -0.00000000000E+00 -0.45125748524E+03  0.45125748524E+03  0.00000000000E+00 0.  1.
         35    2    1    2    0    0  0.00000000000E+00  0.00000000000E+00 -0.40914032965E+03  0.49337464083E+03  0.27572219147E+03 0.  0.
         25    2    3    3    0    0 -0.47965199370E+02  0.20522784250E+02 -0.24634548372E+03  0.28133926543E+03  0.12547445915E+03 0.  0.
         25    2    3    3    0    0  0.47965199370E+02 -0.20522784250E+02 -0.16279484593E+03  0.21203537540E+03  0.12543920255E+03 0.  0.
          5    1    4    4  502    0 -0.16401117028E+02  0.64559141567E+02 -0.69756371618E+02  0.96565629398E+02  0.47000000000E+01 0.  1.
         -5    1    4    4    0  502 -0.31564082342E+02 -0.44036357317E+02 -0.17658911210E+03  0.18477363603E+03  0.47000000000E+01 0.  1.
          5    1    5    5  503    0  0.22024383328E+02 -0.59094217970E+02 -0.15120808760E+03  0.16389989572E+03  0.47000000000E+01 0. -1.
         -5    1    5    5    0  503  0.25940816043E+02  0.38571433719E+02 -0.11586758328E+02  0.48135479687E+02  0.47000000000E+01 0. -1.
<mgrwt>
<rscale>  0 0.27572219E+03</rscale>
<asrwt>0</asrwt>
<pdfrwt beam="1">  1        1 0.69424229E-01 0.27572219E+03</pdfrwt>
<pdfrwt beam="2">  1       -1 0.64795623E-02 0.27572219E+03</pdfrwt>
<totfact> 0.61209076E+03</totfact>
</mgrwt>
</event>
<event>
 9    1  0.8175317E-001  0.2879314E+03  0.7818608E-02  0.1091434E+00
          4   -1    0    0  501    0  0.00000000000E+00  0.00000000000E+00  0.20652337725E+03  0.20652337725E+03  0.00000000000E+00 0.  1.
         -4   -1    0    0    0  501 -0.00000000000E+00 -0.00000000000E+00 -0.10035728693E+03  0.10035728693E+03  0.00000000000E+00 0.  1.
         35    2    1    2    0    0  0.00000000000E+00 -0.35527136788E-14  0.10616609032E+03  0.30688066417E+03  0.28793142119E+03 0.  0.
         25    2    3    3    0    0 -0.71281540128E+02  0.17184477214E+02  0.44093444625E+02  0.14900797592E+03  0.12199500321E+03 0.  0.
         25    2    3    3    0    0  0.71281540128E+02 -0.17184477214E+02  0.62072645697E+02  0.15787268826E+03  0.12527732490E+03 0.  0.
          5    1    4    4  502    0 -0.53816365932E+02 -0.35712324237E+01  0.84355045508E+02  0.10023381987E+03  0.47000000000E+01 0.  1.
         -5    1    4    4    0  502 -0.17465174196E+02  0.20755709638E+02 -0.40261600884E+02  0.48774156046E+02  0.47000000000E+01 0.  1.
          5    1    5    5  503    0  0.92543857031E+02 -0.49991522669E+02  0.39287226895E+02  0.11237924190E+03  0.47000000000E+01 0. -1.
         -5    1    5    5    0  503 -0.21262316903E+02  0.32807045455E+02  0.22785418802E+02  0.45493446358E+02  0.47000000000E+01 0. -1.
<mgrwt>
<rscale>  0 0.28793142E+03</rscale>
<asrwt>0</asrwt>
<pdfrwt beam="1">  1        4 0.31772827E-01 0.28793142E+03</pdfrwt>
<pdfrwt beam="2">  1       -4 0.15439583E-01 0.28793142E+03</pdfrwt>
<totfact> 0.64375508E+02</totfact>
</mgrwt>
</event>
<event>
 9    1  0.8175317E-001  0.3091915E+03  0.7818608E-02  0.1080734E+00
          4   -1    0    0  501    0  0.00000000000E+00  0.00000000000E+00  0.17388629841E+03  0.17388629841E+03  0.00000000000E+00 0.  1.
         -4   -1    0    0    0  501 -0.00000000000E+00 -0.00000000000E+00 -0.13744523058E+03  0.13744523058E+03  0.00000000000E+00 0.  1.
         35    2    1    2    0    0  0.00000000000E+00  0.00000000000E+00  0.36441067832E+02  0.31133152899E+03  0.30919147711E+03 0.  0.
         25    2    3    3    0    0 -0.86986009564E+02  0.12478286464E+02  0.40287139549E+02  0.15819361043E+03  0.12521937261E+03 0.  0.
         25    2    3    3    0    0  0.86986009564E+02 -0.12478286464E+02 -0.38460717172E+01  0.15313791855E+03  0.12535611807E+03 0.  0.
          5    1    4    4  502    0 -0.72131979779E+02  0.11709333585E+02  0.84202711066E+02  0.11158995273E+03  0.47000000000E+01 0.  1.
         -5    1    4    4    0  502 -0.14854029785E+02  0.76895287914E+00 -0.43915571517E+02  0.46603657701E+02  0.47000000000E+01 0.  1.
          5    1    5    5  503    0  0.93513876650E+02  0.28103062213E+02  0.27132712226E+02  0.10145393686E+03  0.47000000000E+01 0. -1.
         -5    1    5    5    0  503 -0.65278670857E+01 -0.40581348677E+02 -0.30978783943E+02  0.51683981694E+02  0.47000000000E+01 0. -1.
<mgrwt>
<rscale>  0 0.30919148E+03</rscale>
<asrwt>0</asrwt>
<pdfrwt beam="1">  1        4 0.26751738E-01 0.30919148E+03</pdfrwt>
<pdfrwt beam="2">  1       -4 0.21145420E-01 0.30919148E+03</pdfrwt>
<totfact> 0.51188678E+02</totfact>
</mgrwt>
</event>
<event>
 9    1  0.8175317E-001  0.2859304E+03  0.7818608E-02  0.1092493E+00
         -1   -1    0    0    0  501 -0.00000000000E+00  0.00000000000E+00  0.32249496287E+02  0.32249496287E+02  0.00000000000E+00 0. -1.
          1   -1    0    0  501    0  0.00000000000E+00 -0.00000000000E+00 -0.63377902076E+03  0.63377902076E+03  0.00000000000E+00 0. -1.
         35    2    1    2    0    0 -0.71054273576E-14  0.00000000000E+00 -0.60152952447E+03  0.66602851705E+03  0.28593044033E+03 0.  0.
         25    2    3    3    0    0 -0.37337563847E+02 -0.26034088895E+02 -0.43265821952E+03  0.45245761820E+03  0.12430966932E+03 0.  0.
         25    2    3    3    0    0  0.37337563847E+02  0.26034088895E+02 -0.16887130495E+03  0.21357089885E+03  0.12256893465E+03 0.  0.
          5    1    4    4  502    0 -0.49993582865E+02 -0.67948987997E+02 -0.22890072726E+03  0.24399601684E+03  0.47000000000E+01 0.  1.
         -5    1    4    4    0  502  0.12656019017E+02  0.41914899102E+02 -0.20375749227E+03  0.20846160135E+03  0.47000000000E+01 0.  1.
          5    1    5    5  503    0  0.47712839598E+02 -0.33832143974E+02 -0.39994950642E+02  0.71012781281E+02  0.47000000000E+01 0. -1.
         -5    1    5    5    0  503 -0.10375275751E+02  0.59866232870E+02 -0.12887635431E+03  0.14255811757E+03  0.47000000000E+01 0. -1.
<mgrwt>
<rscale>  0 0.28593044E+03</rscale>
<asrwt>0</asrwt>
<pdfrwt beam="1">  1        1 0.97504458E-01 0.28593044E+03</pdfrwt>
<pdfrwt beam="2">  1       -1 0.49614613E-02 0.28593044E+03</pdfrwt>
<totfact> 0.57854927E+03</totfact>
</mgrwt>
</event>
<event>
 9    1  0.8175317E-001  0.2751628E+03  0.7818608E-02  0.1098361E+00
          2   -1    0    0  501    0  0.00000000000E+00  0.00000000000E+00  0.27927777668E+04  0.27927777668E+04  0.00000000000E+00 0. -1.
         -2   -1    0    0    0  501 -0.00000000000E+00 -0.00000000000E+00 -0.67777125346E+01  0.67777125346E+01  0.00000000000E+00 0. -1.
         35    2    1    2    0    0 -0.14210854715E-13  0.17763568394E-14  0.27860000543E+04  0.27995554794E+04  0.27516282363E+03 0.  0.
         25    2    3    3    0    0  0.54230957690E+02  0.50101943957E+01  0.10687117344E+04  0.10774317051E+04  0.12549186908E+03 0.  0.
         25    2    3    3    0    0 -0.54230957690E+02 -0.50101943957E+01  0.17172883199E+04  0.17221237742E+04  0.11689748173E+03 0.  0.
          5    1    4    4  502    0  0.37541344129E+02 -0.67326019980E+01  0.82644214049E+02  0.91141848590E+02  0.47000000000E+01 0.  1.
         -5    1    4    4    0  502  0.16689613560E+02  0.11742796394E+02  0.98606752033E+03  0.98628985654E+03  0.47000000000E+01 0.  1.
          5    1    5    5  503    0  0.22994374044E+02  0.29072771323E+02  0.30028074559E+03  0.30259640355E+03  0.47000000000E+01 0. -1.
         -5    1    5    5    0  503 -0.77225331734E+02 -0.34082965719E+02  0.14170075743E+04  0.14195273707E+04  0.47000000000E+01 0. -1.
<mgrwt>
<rscale>  0 0.27516282E+03</rscale>
<asrwt>0</asrwt>
<pdfrwt beam="1">  1        2 0.42965720E+00 0.27516282E+03</pdfrwt>
<pdfrwt beam="2">  1       -2 0.10427272E-02 0.27516282E+03</pdfrwt>
<totfact> 0.55182513E+03</totfact>
</mgrwt>
</event>
<event>
 9    1  0.8175317E-001  0.2808189E+03  0.7818608E-02  0.1095243E+00
         -2   -1    0    0    0  501 -0.00000000000E+00  0.00000000000E+00  0.19543530644E+03  0.19543530644E+03  0.00000000000E+00 0. -1.
          2   -1    0    0  501    0  0.00000000000E+00 -0.00000000000E+00 -0.10087642222E+03  0.10087642222E+03  0.00000000000E+00 0. -1.
         35    2    1    2    0    0  0.00000000000E+00  0.00000000000E+00  0.94558884218E+02  0.29631172867E+03  0.28081890599E+03 0.  0.
         25    2    3    3    0    0 -0.81994635124E+01 -0.55911404356E+02  0.80890482470E+02  0.15928526216E+03  0.12504082632E+03 0.  0.
         25    2    3    3    0    0  0.81994635124E+01  0.55911404356E+02  0.13668401748E+02  0.13702646651E+03  0.12408106616E+03 0.  0.
          5    1    4    4  502    0 -0.37394402111E+02  0.79513049973E+01 -0.14140921595E+02  0.41031941508E+02  0.47000000000E+01 0. -1.
         -5    1    4    4    0  502  0.29194938598E+02 -0.63862709353E+02  0.95031404064E+02  0.11825332065E+03  0.47000000000E+01 0. -1.
          5    1    5    5  503    0 -0.29966084686E+02  0.82250807545E+02  0.20196225094E+02  0.89961875709E+02  0.47000000000E+01 0. -1.
         -5    1    5    5    0  503  0.38165548198E+02 -0.26339403189E+02 -0.65278233453E+01  0.47064590801E+02  0.47000000000E+01 0. -1.
<mgrwt>
<rscale>  0 0.28081891E+03</rscale>
<asrwt>0</asrwt>
<pdfrwt beam="1">  1        2 0.15519450E-01 0.28081891E+03</pdfrwt>
<pdfrwt beam="2">  1       -2 0.30066970E-01 0.28081891E+03</pdfrwt>
<totfact> 0.37940904E+03</totfact>
</mgrwt>
</event>
<event>
 9    1  0.8175317E-001  0.2699696E+03  0.7818608E-02  0.1101297E+00
          2   -1    0    0  501    0  0.00000000000E+00  0.00000000000E+00  0.10812394468E+03  0.10812394468E+03  0.00000000000E+00 0. -1.
         -2   -1    0    0    0  501 -0.00000000000E+00 -0.00000000000E+00 -0.16851859216E+03  0.16851859216E+03  0.00000000000E+00 0. -1.
         35    2    1    2    0    0 -0.35527136788E-14  0.14210854715E-13 -0.60394647475E+02  0.27664253684E+03  0.26996959041E+03 0.  0.
         25    2    3    3    0    0  0.18852092309E+01  0.54092137660E+02 -0.34367328289E+02  0.13755043428E+03  0.12169426999E+03 0.  0.
         25    2    3    3    0    0 -0.18852092309E+01 -0.54092137660E+02 -0.26027319186E+02  0.13909210256E+03  0.12545787452E+03 0.  0.
          5    1    4    4  502    0  0.58139318319E+02  0.49169959882E+02 -0.23749744533E+02  0.79899972809E+02  0.47000000000E+01 0. -1.
         -5    1    4    4    0  502 -0.56254109089E+02  0.49221777780E+01 -0.10617583757E+02  0.57650461475E+02  0.47000000000E+01 0. -1.
          5    1    5    5  503    0 -0.10963670344E+02 -0.66024214883E+02  0.35279887463E+02  0.75803426557E+02  0.47000000000E+01 0.  1.
         -5    1    5    5    0  503  0.90784611131E+01  0.11932077223E+02 -0.61307206649E+02  0.63288676002E+02  0.47000000000E+01 0.  1.
<mgrwt>
<rscale>  0 0.26996959E+03</rscale>
<asrwt>0</asrwt>
<pdfrwt beam="1">  1        2 0.16634453E-01 0.26996959E+03</pdfrwt>
<pdfrwt beam="2">  1       -2 0.25925937E-01 0.26996959E+03</pdfrwt>
<totfact> 0.45567092E+03</totfact>
</mgrwt>
</event>
<event>
 9    1  0.8175317E-001  0.2728735E+03  0.7818608E-02  0.1099646E+00
         -2   -1    0    0    0  501 -0.00000000000E+00  0.00000000000E+00  0.35706171825E+03  0.35706171825E+03  0.00000000000E+00 0. -1.
          2   -1    0    0  501    0  0.00000000000E+00 -0.00000000000E+00 -0.52133803699E+02  0.52133803699E+02  0.00000000000E+00 0. -1.
         35    2    1    2    0    0 -0.71054273576E-14  0.00000000000E+00  0.30492791455E+03  0.40919552195E+03  0.27287349104E+03 0.  0.
         25    2    3    3    0    0 -0.15278853338E+02 -0.46640169668E+02  0.18045747470E+03  0.22544103552E+03  0.12589682893E+03 0.  0.
         25    2    3    3    0    0  0.15278853338E+02  0.46640169668E+02  0.12447043985E+03  0.18375448643E+03  0.12595265817E+03 0.  0.
          5    1    4    4  502    0 -0.70770380350E+02 -0.29864787552E+02  0.10176070941E+03  0.12758402819E+03  0.47000000000E+01 0.  1.
         -5    1    4    4    0  502  0.55491527012E+02 -0.16775382116E+02  0.78696765292E+02  0.97857007326E+02  0.47000000000E+01 0.  1.
          5    1    5    5  503    0  0.41190619619E+02  0.83193447034E+01  0.13021061548E+03  0.13690424765E+03  0.47000000000E+01 0.  1.
         -5    1    5    5    0  503 -0.25911766281E+02  0.38320824965E+02 -0.57401756277E+01  0.46850238783E+02  0.47000000000E+01 0.  1.
<mgrwt>
<rscale>  0 0.27287349E+03</rscale>
<asrwt>0</asrwt>
<pdfrwt beam="1">  1        2 0.80205854E-02 0.27287349E+03</pdfrwt>
<pdfrwt beam="2">  1       -2 0.54932570E-01 0.27287349E+03</pdfrwt>
<totfact> 0.26800980E+03</totfact>
</mgrwt>
</event>
<event>
 9    1  0.8175317E-001  0.2766917E+03  0.7818608E-02  0.1097510E+00
          1   -1    0    0  501    0  0.00000000000E+00  0.00000000000E+00  0.11754129642E+04  0.11754129642E+04  0.00000000000E+00 0.  1.
         -1   -1    0    0    0  501 -0.00000000000E+00 -0.00000000000E+00 -0.16283278053E+02  0.16283278053E+02  0.00000000000E+00 0.  1.
         35    2    1    2    0    0  0.00000000000E+00 -0.71054273576E-14  0.11591296861E+04  0.11916962422E+04  0.27669171381E+03 0.  0.
         25    2    3    3    0    0  0.84672638453E+01  0.17507996924E+02  0.83452944337E+03  0.84404143192E+03  0.12485320358E+03 0.  0.
         25    2    3    3    0    0 -0.84672638453E+01 -0.17507996924E+02  0.32460024274E+03  0.34765481029E+03  0.12296473079E+03 0.  0.
          5    1    4    4  502    0 -0.16927212089E+02  0.66151065987E+02  0.37193563087E+03  0.37818077364E+03  0.47000000000E+01 0.  1.
         -5    1    4    4    0  502  0.25394475934E+02 -0.48643069064E+02  0.46259381250E+03  0.46586065828E+03  0.47000000000E+01 0.  1.
          5    1    5    5  503    0  0.39312741188E+02  0.17807503869E+02  0.48058753231E+02  0.64763667097E+02  0.47000000000E+01 0. -1.
         -5    1    5    5    0  503 -0.47780005033E+02 -0.35315500792E+02  0.27654148951E+03  0.28289114319E+03  0.47000000000E+01 0. -1.
<mgrwt>
<rscale>  0 0.27669171E+03</rscale>
<asrwt>0</asrwt>
<pdfrwt beam="1">  1        1 0.18083270E+00 0.27669171E+03</pdfrwt>
<pdfrwt beam="2">  1       -1 0.25051206E-02 0.27669171E+03</pdfrwt>
<totfact> 0.58668817E+03</totfact>
</mgrwt>
</event>
<event>
 9    1  0.8175317E-001  0.3254688E+03  0.7818608E-02  0.1073160E+00
          1   -1    0    0  501    0  0.00000000000E+00  0.00000000000E+00  0.22244361787E+04  0.22244361787E+04  0.00000000000E+00 0. -1.
         -1   -1    0    0    0  501 -0.00000000000E+00 -0.00000000000E+00 -0.11905258002E+02  0.11905258002E+02  0.00000000000E+00 0. -1.
         35    2    1    2    0    0  0.00000000000E+00  0.00000000000E+00  0.22125309207E+04  0.22363414367E+04  0.32546881027E+03 0.  0.
         25    2    3    3    0    0 -0.31033129011E+02  0.68915901220E+02  0.59760113487E+03  0.61516063877E+03  0.12483204142E+03 0.  0.
         25    2    3    3    0    0  0.31033129011E+02 -0.68915901220E+02  0.16149297858E+04  0.16211807979E+04  0.12048447977E+03 0.  0.
          5    1    4    4  502    0 -0.48255972689E+02 -0.17605509035E+02  0.14212231636E+03  0.15119337173E+03  0.47000000000E+01 0.  1.
         -5    1    4    4    0  502  0.17222843678E+02  0.86521410255E+02  0.45547881851E+03  0.46396726704E+03  0.47000000000E+01 0.  1.
          5    1    5    5  503    0 -0.90302301309E+01 -0.67413446611E+02  0.14416583576E+04  0.14432695618E+04  0.47000000000E+01 0. -1.
         -5    1    5    5    0  503  0.40063359142E+02 -0.15024546094E+01  0.17327142814E+03  0.17791123608E+03  0.47000000000E+01 0. -1.
<mgrwt>
<rscale>  0 0.32546881E+03</rscale>
<asrwt>0</asrwt>
<pdfrwt beam="1">  1        1 0.34222062E+00 0.32546881E+03</pdfrwt>
<pdfrwt beam="2">  1       -1 0.18315799E-02 0.32546881E+03</pdfrwt>
<totfact> 0.18729923E+03</totfact>
</mgrwt>
</event>
<event>
 9    1  0.8175317E-001  0.2748859E+03  0.7818608E-02  0.1098515E+00
         -1   -1    0    0    0  501 -0.00000000000E+00  0.00000000000E+00  0.12750909271E+03  0.12750909271E+03  0.00000000000E+00 0.  1.
          1   -1    0    0  501    0  0.00000000000E+00 -0.00000000000E+00 -0.14815077691E+03  0.14815077691E+03  0.00000000000E+00 0.  1.
         35    2    1    2    0    0  0.00000000000E+00 -0.35527136788E-14 -0.20641684202E+02  0.27565986961E+03  0.27488594833E+03 0.  0.
         25    2    3    3    0    0 -0.54284882415E+02 -0.14748647134E+02 -0.23492758392E+02  0.13868199684E+03  0.12456490476E+03 0.  0.
         25    2    3    3    0    0  0.54284882415E+02  0.14748647134E+02  0.28510741897E+01  0.13697787278E+03  0.12486167529E+03 0.  0.
          5    1    4    4  502    0  0.24757546897E+02  0.16171994495E+02 -0.42101990684E+02  0.51663692802E+02  0.47000000000E+01 0. -1.
         -5    1    4    4    0  502 -0.79042429313E+02 -0.30920641629E+02  0.18609232292E+02  0.87018304034E+02  0.47000000000E+01 0. -1.
          5    1    5    5  503    0 -0.27534874124E+02  0.41853478471E+02 -0.33845256322E+01  0.50432409886E+02  0.47000000000E+01 0. -1.
         -5    1    5    5    0  503  0.81819756540E+02 -0.27104831336E+02  0.62355998219E+01  0.86545462891E+02  0.47000000000E+01 0. -1.
<mgrwt>
<rscale>  0 0.27488595E+03</rscale>
<asrwt>0</asrwt>
<pdfrwt beam="1">  1        1 0.22792427E-01 0.27488595E+03</pdfrwt>
<pdfrwt beam="2">  1       -1 0.19616783E-01 0.27488595E+03</pdfrwt>
<totfact> 0.44573608E+03</totfact>
</mgrwt>
</event>
<event>
 9    1  0.8175317E-001  0.2744184E+03  0.7818608E-02  0.1098777E+00
         -1   -1    0    0    0  501 -0.00000000000E+00  0.00000000000E+00  0.37550133422E+02  0.37550133422E+02  0.00000000000E+00 0. -1.
          1   -1    0    0  501    0  0.00000000000E+00 -0.00000000000E+00 -0.50136616799E+03  0.50136616799E+03  0.00000000000E+00 0. -1.
         35    2    1    2    0    0 -0.71054273576E-14  0.00000000000E+00 -0.46381603457E+03  0.53891630142E+03  0.27441841412E+03 0.  0.
         25    2    3    3    0    0 -0.34167526160E+02  0.22130698054E+02 -0.15414501544E+03  0.20258476048E+03  0.12499084668E+03 0.  0.
         25    2    3    3    0    0  0.34167526160E+02 -0.22130698054E+02 -0.30967101913E+03  0.33633154094E+03  0.12476208438E+03 0.  0.
          5    1    4    4  502    0  0.30717900914E+02 -0.22849220606E+02 -0.12842643729E+02  0.40653410888E+02  0.47000000000E+01 0.  1.
         -5    1    4    4    0  502 -0.64885427074E+02  0.44979918659E+02 -0.14130237171E+03  0.16193134959E+03  0.47000000000E+01 0.  1.
          5    1    5    5  503    0  0.77635036487E+02 -0.19598249294E+02 -0.14253428735E+03  0.16355244827E+03  0.47000000000E+01 0.  1.
         -5    1    5    5    0  503 -0.43467510327E+02 -0.25324487602E+01 -0.16713673179E+03  0.17277909267E+03  0.47000000000E+01 0.  1.
<mgrwt>
<rscale>  0 0.27441841E+03</rscale>
<asrwt>0</asrwt>
<pdfrwt beam="1">  1        1 0.77133254E-01 0.27441841E+03</pdfrwt>
<pdfrwt beam="2">  1       -1 0.57769438E-02 0.27441841E+03</pdfrwt>
<totfact> 0.63358683E+03</totfact>
</mgrwt>
</event>
<event>
 9    1  0.8175317E-001  0.2689983E+03  0.7818608E-02  0.1101854E+00
          1   -1    0    0  501    0  0.00000000000E+00  0.00000000000E+00  0.36955371821E+03  0.36955371821E+03  0.00000000000E+00 0. -1.
         -1   -1    0    0    0  501 -0.00000000000E+00 -0.00000000000E+00 -0.48950976697E+02  0.48950976697E+02  0.00000000000E+00 0. -1.
         35    2    1    2    0    0  0.00000000000E+00  0.00000000000E+00  0.32060274151E+03  0.41850469491E+03  0.26899825612E+03 0.  0.
         25    2    3    3    0    0  0.25127895331E+01 -0.83970297128E+00  0.23742782208E+03  0.26826158522E+03  0.12484105172E+03 0.  0.
         25    2    3    3    0    0 -0.25127895331E+01  0.83970297128E+00  0.83174919432E+02  0.15024310969E+03  0.12509158874E+03 0.  0.
          5    1    4    4  502    0 -0.46865714185E+02  0.12732423742E+02  0.19670325082E+03  0.20266417706E+03  0.47000000000E+01 0.  1.
         -5    1    4    4    0  502  0.49378503718E+02 -0.13572126713E+02  0.40724571262E+02  0.65597408161E+02  0.47000000000E+01 0.  1.
          5    1    5    5  503    0  0.32126456375E+02 -0.10317618682E+02 -0.20845871656E+02  0.39939990230E+02  0.47000000000E+01 0.  1.
         -5    1    5    5    0  503 -0.34639245908E+02  0.11157321653E+02  0.10402079109E+03  0.11030311946E+03  0.47000000000E+01 0.  1.
<mgrwt>
<rscale>  0 0.26899826E+03</rscale>
<asrwt>0</asrwt>
<pdfrwt beam="1">  1        1 0.56854416E-01 0.26899826E+03</pdfrwt>
<pdfrwt beam="2">  1       -1 0.75309197E-02 0.26899826E+03</pdfrwt>
<totfact> 0.62943666E+03</totfact>
</mgrwt>
</event>
<event>
 9    1  0.8175317E-001  0.2735083E+03  0.7818608E-02  0.1099288E+00
         -2   -1    0    0    0  501 -0.00000000000E+00  0.00000000000E+00  0.18524543871E+02  0.18524543871E+02  0.00000000000E+00 0.  1.
          2   -1    0    0  501    0  0.00000000000E+00 -0.00000000000E+00 -0.10095629978E+04  0.10095629978E+04  0.00000000000E+00 0.  1.
         35    2    1    2    0    0  0.14210854715E-13 -0.71054273576E-14 -0.99103845392E+03  0.10280875417E+04  0.27350827441E+03 0.  0.
         25    2    3    3    0    0 -0.54599624298E+02 -0.61925486811E+01 -0.46589009491E+03  0.48541335416E+03  0.12471197709E+03 0.  0.
         25    2    3    3    0    0  0.54599624298E+02  0.61925486811E+01 -0.52514835900E+03  0.54267418749E+03  0.12527971973E+03 0.  0.
          5    1    4    4  502    0 -0.48864449669E+02 -0.61724949839E+02 -0.30567722299E+03  0.31568712126E+03  0.47000000000E+01 0. -1.
         -5    1    4    4    0  502 -0.57351746292E+01  0.55532401158E+02 -0.16021287192E+03  0.16972623290E+03  0.47000000000E+01 0. -1.
          5    1    5    5  503    0  0.15862419420E+02  0.50316448906E+02 -0.40928133271E+03  0.41269439139E+03  0.47000000000E+01 0.  1.
         -5    1    5    5    0  503  0.38737204878E+02 -0.44123900225E+02 -0.11586702629E+03  0.12997979610E+03  0.47000000000E+01 0.  1.
<mgrwt>
<rscale>  0 0.27350827E+03</rscale>
<asrwt>0</asrwt>
<pdfrwt beam="1">  1        2 0.15531741E+00 0.27350827E+03</pdfrwt>
<pdfrwt beam="2">  1       -2 0.28499293E-02 0.27350827E+03</pdfrwt>
<totfact> 0.11813379E+04</totfact>
</mgrwt>
</event>
<event>
 9    1  0.8175317E-001  0.2742089E+03  0.7818608E-02  0.1098895E+00
         -2   -1    0    0    0  501 -0.00000000000E+00  0.00000000000E+00  0.17228031878E+02  0.17228031878E+02  0.00000000000E+00 0. -1.
          2   -1    0    0  501    0  0.00000000000E+00 -0.00000000000E+00 -0.10911072305E+04  0.10911072305E+04  0.00000000000E+00 0. -1.
         35    2    1    2    0    0  0.00000000000E+00 -0.35527136788E-14 -0.10738791986E+04  0.11083352624E+04  0.27420889956E+03 0.  0.
         25    2    3    3    0    0 -0.50281491784E+02  0.15308710771E+02 -0.59250328552E+03  0.60828073685E+03  0.12721134551E+03 0.  0.
         25    2    3    3    0    0  0.50281491784E+02 -0.15308710771E+02 -0.48137591308E+03  0.50005452551E+03  0.12477649517E+03 0.  0.
          5    1    4    4  502    0 -0.88206217563E+02  0.23791622363E+02 -0.49182299761E+03  0.50025826239E+03  0.47000000000E+01 0. -1.
         -5    1    4    4    0  502  0.37924725778E+02 -0.84829115914E+01 -0.10068028791E+03  0.10802247446E+03  0.47000000000E+01 0. -1.
          5    1    5    5  503    0  0.85324409910E+01  0.35278613907E+02 -0.41677349746E+02  0.55465977232E+02  0.47000000000E+01 0.  1.
         -5    1    5    5    0  503  0.41749050793E+02 -0.50587324679E+02 -0.43969856333E+03  0.44458854828E+03  0.47000000000E+01 0.  1.
<mgrwt>
<rscale>  0 0.27420890E+03</rscale>
<asrwt>0</asrwt>
<pdfrwt beam="1">  1        2 0.16786267E+00 0.27420890E+03</pdfrwt>
<pdfrwt beam="2">  1       -2 0.26504662E-02 0.27420890E+03</pdfrwt>
<totfact> 0.11757461E+04</totfact>
</mgrwt>
</event>
<event>
 9    1  0.8175317E-001  0.2731590E+03  0.7818608E-02  0.1099485E+00
          2   -1    0    0  501    0  0.00000000000E+00  0.00000000000E+00  0.15809296218E+04  0.15809296218E+04  0.00000000000E+00 0. -1.
         -2   -1    0    0    0  501 -0.00000000000E+00 -0.00000000000E+00 -0.11799364845E+02  0.11799364845E+02  0.00000000000E+00 0. -1.
         35    2    1    2    0    0  0.00000000000E+00 -0.17763568394E-14  0.15691302569E+04  0.15927289866E+04  0.27315904086E+03 0.  0.
         25    2    3    3    0    0 -0.49488075409E+02  0.15059436317E+02  0.90767767543E+03  0.91770364196E+03  0.12500142306E+03 0.  0.
         25    2    3    3    0    0  0.49488075409E+02 -0.15059436317E+02  0.66145258151E+03  0.67502534466E+03  0.12435369768E+03 0.  0.
          5    1    4    4  502    0 -0.34101950373E+02  0.14597062642E+02  0.65874814601E+02  0.75746936940E+02  0.47000000000E+01 0. -1.
         -5    1    4    4    0  502 -0.15386125036E+02  0.46237367445E+00  0.84180286082E+03  0.84195670502E+03  0.47000000000E+01 0. -1.
          5    1    5    5  503    0  0.44163010351E+02 -0.22054545290E+02  0.84415809259E+02  0.97902468325E+02  0.47000000000E+01 0.  1.
         -5    1    5    5    0  503  0.53250650584E+01  0.69951089735E+01  0.57703677225E+03  0.57712287634E+03  0.47000000000E+01 0.  1.
<mgrwt>
<rscale>  0 0.27315904E+03</rscale>
<asrwt>0</asrwt>
<pdfrwt beam="1">  1        2 0.24321977E+00 0.27315904E+03</pdfrwt>
<pdfrwt beam="2">  1       -2 0.18152881E-02 0.27315904E+03</pdfrwt>
<totfact> 0.11011498E+04</totfact>
</mgrwt>
</event>
<event>
 9    1  0.8175317E-001  0.2754689E+03  0.7818608E-02  0.1098190E+00
          2   -1    0    0  501    0  0.00000000000E+00  0.00000000000E+00  0.10588140947E+03  0.10588140947E+03  0.00000000000E+00 0. -1.
         -2   -1    0    0    0  501 -0.00000000000E+00 -0.00000000000E+00 -0.17917005686E+03  0.17917005686E+03  0.00000000000E+00 0. -1.
         35    2    1    2    0    0 -0.35527136788E-14 -0.35527136788E-14 -0.73288647392E+02  0.28505146633E+03  0.27546889592E+03 0.  0.
         25    2    3    3    0    0  0.27987302590E+02  0.28510159516E+02 -0.82188622940E+02  0.15483332658E+03  0.12498908343E+03 0.  0.
         25    2    3    3    0    0 -0.27987302590E+02 -0.28510159516E+02  0.88999755485E+01  0.13021813975E+03  0.12361810569E+03 0.  0.
          5    1    4    4  502    0  0.35546794055E+02  0.38145112346E+02 -0.11124797752E+03  0.12295050494E+03  0.47000000000E+01 0.  1.
         -5    1    4    4    0  502 -0.75594914647E+01 -0.96349528299E+01  0.29059354575E+02  0.31882821637E+02  0.47000000000E+01 0.  1.
          5    1    5    5  503    0  0.41998228321E+02 -0.35419550209E+02 -0.12536468800E+02  0.56547756535E+02  0.47000000000E+01 0.  1.
         -5    1    5    5    0  503 -0.69985530912E+02  0.69093906933E+01  0.21436444348E+02  0.73670383215E+02  0.47000000000E+01 0.  1.
<mgrwt>
<rscale>  0 0.27546890E+03</rscale>
<asrwt>0</asrwt>
<pdfrwt beam="1">  1        2 0.16289448E-01 0.27546890E+03</pdfrwt>
<pdfrwt beam="2">  1       -2 0.27564624E-01 0.27546890E+03</pdfrwt>
<totfact> 0.41896336E+03</totfact>
</mgrwt>
</event>
<event>
 9    1  0.8175317E-001  0.2785949E+03  0.7818608E-02  0.1096459E+00
          1   -1    0    0  501    0  0.00000000000E+00  0.00000000000E+00  0.18347356790E+03  0.18347356790E+03  0.00000000000E+00 0. -1.
         -1   -1    0    0    0  501 -0.00000000000E+00 -0.00000000000E+00 -0.10575789215E+03  0.10575789215E+03  0.00000000000E+00 0. -1.
         35    2    1    2    0    0  0.00000000000E+00 -0.35527136788E-14  0.77715675745E+02  0.28923146005E+03  0.27859488729E+03 0.  0.
         25    2    3    3    0    0  0.23768216286E+02  0.21428492874E+02  0.97182111119E+02  0.16114229014E+03  0.12449243566E+03 0.  0.
         25    2    3    3    0    0 -0.23768216286E+02 -0.21428492874E+02 -0.19466435374E+02  0.12808916991E+03  0.12248993808E+03 0.  0.
          5    1    4    4  502    0  0.16928240068E+02 -0.90372737923E+01 -0.26747732438E+02  0.33253102411E+02  0.47000000000E+01 0.  1.
         -5    1    4    4    0  502  0.68399762183E+01  0.30465766667E+02  0.12392984356E+03  0.12788918773E+03  0.47000000000E+01 0.  1.
          5    1    5    5  503    0  0.28184306686E+02 -0.41284624581E+02  0.25593270488E+02  0.56354954214E+02  0.47000000000E+01 0.  1.
         -5    1    5    5    0  503 -0.51952522972E+02  0.19856131707E+02 -0.45059705862E+02  0.71734215699E+02  0.47000000000E+01 0.  1.
<mgrwt>
<rscale>  0 0.27859489E+03</rscale>
<asrwt>0</asrwt>
<pdfrwt beam="1">  1        1 0.28226703E-01 0.27859489E+03</pdfrwt>
<pdfrwt beam="2">  1       -1 0.16270445E-01 0.27859489E+03</pdfrwt>
<totfact> 0.45904767E+03</totfact>
</mgrwt>
</event>
<event>
 9    1  0.8175317E-001  0.2747870E+03  0.7818608E-02  0.1098571E+00
          3   -1    0    0  501    0  0.00000000000E+00  0.00000000000E+00  0.35268191726E+03  0.35268191726E+03  0.00000000000E+00 0. -1.
         -3   -1    0    0    0  501 -0.00000000000E+00 -0.00000000000E+00 -0.53524057011E+02  0.53524057011E+02  0.00000000000E+00 0. -1.
         35    2    1    2    0    0  0.71054273576E-14 -0.35527136788E-14  0.29915786025E+03  0.40620597427E+03  0.27478695053E+03 0.  0.
         25    2    3    3    0    0 -0.48861036507E+02 -0.35704779210E+01  0.19436735206E+03  0.23606521164E+03  0.12469148889E+03 0.  0.
         25    2    3    3    0    0  0.48861036507E+02  0.35704779210E+01  0.10479050818E+03  0.17014076262E+03  0.12476649911E+03 0.  0.
          5    1    4    4  502    0 -0.16701680003E+02 -0.55149879545E+02  0.14973415791E+03  0.16050814114E+03  0.47000000000E+01 0. -1.
         -5    1    4    4    0  502 -0.32159356503E+02  0.51579401624E+02  0.44633194156E+02  0.75557070504E+02  0.47000000000E+01 0. -1.
          5    1    5    5  503    0  0.65069064306E+02  0.30405715273E+02  0.13144043545E+02  0.73166567035E+02  0.47000000000E+01 0.  1.
         -5    1    5    5    0  503 -0.16208027799E+02 -0.26835237352E+02  0.91646464640E+02  0.96974195588E+02  0.47000000000E+01 0.  1.
<mgrwt>
<rscale>  0 0.27478695E+03</rscale>
<asrwt>0</asrwt>
<pdfrwt beam="1">  1        3 0.54258755E-01 0.27478695E+03</pdfrwt>
<pdfrwt beam="2">  1       -3 0.82344705E-02 0.27478695E+03</pdfrwt>
<totfact> 0.87598294E+02</totfact>
</mgrwt>
</event>
<event>
 9    1  0.8175317E-001  0.2760746E+03  0.7818608E-02  0.1097852E+00
          2   -1    0    0  501    0  0.00000000000E+00  0.00000000000E+00  0.12888627464E+04  0.12888627464E+04  0.00000000000E+00 0.  1.
         -2   -1    0    0    0  501 -0.00000000000E+00 -0.00000000000E+00 -0.14783806085E+02  0.14783806085E+02  0.00000000000E+00 0.  1.
         35    2    1    2    0    0  0.00000000000E+00  0.00000000000E+00  0.12740789403E+04  0.13036465525E+04  0.27607460523E+03 0.  0.
         25    2    3    3    0    0 -0.13598305469E+02 -0.40324951341E+02  0.79890638958E+03  0.80977625940E+03  0.12520046076E+03 0.  0.
         25    2    3    3    0    0  0.13598305469E+02  0.40324951341E+02  0.47517255076E+03  0.49387029310E+03  0.12770237979E+03 0.  0.
          5    1    4    4  502    0  0.40500995210E+02 -0.16969065029E+02  0.61542718090E+03  0.61700971206E+03  0.47000000000E+01 0. -1.
         -5    1    4    4    0  502 -0.54099300679E+02 -0.23355886312E+02  0.18347920868E+03  0.19276654735E+03  0.47000000000E+01 0. -1.
          5    1    5    5  503    0 -0.47517739725E+02  0.18770392495E+01  0.30836184894E+03  0.31204259124E+03  0.47000000000E+01 0.  1.
         -5    1    5    5    0  503  0.61116045194E+02  0.38447912092E+02  0.16681070182E+03  0.18182770186E+03  0.47000000000E+01 0.  1.
<mgrwt>
<rscale>  0 0.27607461E+03</rscale>
<asrwt>0</asrwt>
<pdfrwt beam="1">  1        2 0.19828649E+00 0.27607461E+03</pdfrwt>
<pdfrwt beam="2">  1       -2 0.22744327E-02 0.27607461E+03</pdfrwt>
<totfact> 0.11371587E+04</totfact>
</mgrwt>
</event>
<event>
 9    1  0.8175317E-001  0.2751879E+03  0.7818608E-02  0.1098347E+00
         -2   -1    0    0    0  501 -0.00000000000E+00  0.00000000000E+00  0.34287515853E+02  0.34287515853E+02  0.00000000000E+00 0.  1.
          2   -1    0    0  501    0  0.00000000000E+00 -0.00000000000E+00 -0.55215705299E+03  0.55215705299E+03  0.00000000000E+00 0.  1.
         35    2    1    2    0    0  0.00000000000E+00 -0.71054273576E-14 -0.51786953714E+03  0.58644456885E+03  0.27518789005E+03 0.  0.
         25    2    3    3    0    0  0.27817868422E+02 -0.40232006941E+01 -0.14953464261E+03  0.19640247389E+03  0.12419058927E+03 0.  0.
         25    2    3    3    0    0 -0.27817868422E+02  0.40232006941E+01 -0.36833489453E+03  0.39004209495E+03  0.12518874295E+03 0.  0.
          5    1    4    4  502    0  0.12204678937E+02  0.59611962142E+02 -0.81644817520E+02  0.10193383367E+03  0.47000000000E+01 0.  1.
         -5    1    4    4    0  502  0.15613189485E+02 -0.63635162836E+02 -0.67889825094E+02  0.94468640227E+02  0.47000000000E+01 0.  1.
          5    1    5    5  503    0 -0.48771568291E+01 -0.42280486471E+02 -0.30579925242E+03  0.30878260795E+03  0.47000000000E+01 0. -1.
         -5    1    5    5    0  503 -0.22940711593E+02  0.46303687165E+02 -0.62535642112E+02  0.81259487002E+02  0.47000000000E+01 0. -1.
<mgrwt>
<rscale>  0 0.27518789E+03</rscale>
<asrwt>0</asrwt>
<pdfrwt beam="1">  1        2 0.84947237E-01 0.27518789E+03</pdfrwt>
<pdfrwt beam="2">  1       -2 0.52750026E-02 0.27518789E+03</pdfrwt>
<totfact> 0.99748615E+03</totfact>
</mgrwt>
</event>
<event>
 9    1  0.8175317E-001  0.2688443E+03  0.7818608E-02  0.1101943E+00
          4   -1    0    0  501    0  0.00000000000E+00  0.00000000000E+00  0.95819189999E+03  0.95819189999E+03  0.00000000000E+00 0. -1.
         -4   -1    0    0    0  501 -0.00000000000E+00 -0.00000000000E+00 -0.18857721954E+02  0.18857721954E+02  0.00000000000E+00 0. -1.
         35    2    1    2    0    0  0.00000000000E+00  0.00000000000E+00  0.93933417803E+03  0.97704962194E+03  0.26884431501E+03 0.  0.
         25    2    3    3    0    0 -0.33176603149E+02 -0.10130826972E+02  0.59189413469E+03  0.60596118047E+03  0.12508782877E+03 0.  0.
         25    2    3    3    0    0  0.33176603149E+02  0.10130826972E+02  0.34744004335E+03  0.37108844147E+03  0.12565320140E+03 0.  0.
          5    1    4    4  502    0 -0.49975152608E+02  0.44970033037E+02  0.23716612359E+03  0.24655563252E+03  0.47000000000E+01 0. -1.
         -5    1    4    4    0  502  0.16798549459E+02 -0.55100860009E+02  0.35472801110E+03  0.35940554795E+03  0.47000000000E+01 0. -1.
          5    1    5    5  503    0  0.47033365935E+02 -0.39614949289E+02  0.27604287198E+03  0.28284843802E+03  0.47000000000E+01 0. -1.
         -5    1    5    5    0  503 -0.13856762786E+02  0.49745776261E+02  0.71397171368E+02  0.88240003456E+02  0.47000000000E+01 0. -1.
<mgrwt>
<rscale>  0 0.26884432E+03</rscale>
<asrwt>0</asrwt>
<pdfrwt beam="1">  1        4 0.14741410E+00 0.26884432E+03</pdfrwt>
<pdfrwt beam="2">  1       -4 0.29011887E-02 0.26884432E+03</pdfrwt>
<totfact> 0.35116356E+02</totfact>
</mgrwt>
</event>
<event>
 9    1  0.8175317E-001  0.2689345E+03  0.7818608E-02  0.1101891E+00
         -1   -1    0    0    0  501 -0.00000000000E+00  0.00000000000E+00  0.20410006273E+02  0.20410006273E+02  0.00000000000E+00 0.  1.
          1   -1    0    0  501    0  0.00000000000E+00 -0.00000000000E+00 -0.88591055588E+03  0.88591055588E+03  0.00000000000E+00 0.  1.
         35    2    1    2    0    0  0.00000000000E+00  0.00000000000E+00 -0.86550054961E+03  0.90632056215E+03  0.26893449018E+03 0.  0.
         25    2    3    3    0    0 -0.46990423825E+01  0.32867828276E+02 -0.54283052723E+03  0.55890106158E+03  0.12885278504E+03 0.  0.
         25    2    3    3    0    0  0.46990423825E+01 -0.32867828276E+02 -0.32267002238E+03  0.34741950057E+03  0.12442664867E+03 0.  0.
          5    1    4    4  502    0  0.33665419630E+02 -0.38691388574E+02 -0.22665026645E+03  0.23242809062E+03  0.47000000000E+01 0. -1.
         -5    1    4    4    0  502 -0.38364462012E+02  0.71559216850E+02 -0.31618026078E+03  0.32647297096E+03  0.47000000000E+01 0. -1.
          5    1    5    5  503    0  0.59297441934E+01 -0.46180179480E+02 -0.32870314080E+03  0.33201749293E+03  0.47000000000E+01 0. -1.
         -5    1    5    5    0  503 -0.12307018109E+01  0.13312351204E+02  0.60331184163E+01  0.15402007640E+02  0.47000000000E+01 0. -1.
<mgrwt>
<rscale>  0 0.26893449E+03</rscale>
<asrwt>0</asrwt>
<pdfrwt beam="1">  1        1 0.13629390E+00 0.26893449E+03</pdfrwt>
<pdfrwt beam="2">  1       -1 0.31400016E-02 0.26893449E+03</pdfrwt>
<totfact> 0.68940350E+03</totfact>
</mgrwt>
</event>
<event>
 9    1  0.8175317E-001  0.2771754E+03  0.7818608E-02  0.1097242E+00
          2   -1    0    0  501    0  0.00000000000E+00  0.00000000000E+00  0.22379007009E+03  0.22379007009E+03  0.00000000000E+00 0. -1.
         -2   -1    0    0    0  501 -0.00000000000E+00 -0.00000000000E+00 -0.85823967168E+02  0.85823967168E+02  0.00000000000E+00 0. -1.
         35    2    1    2    0    0 -0.71054273576E-14  0.00000000000E+00  0.13796610293E+03  0.30961403726E+03  0.27717540748E+03 0.  0.
         25    2    3    3    0    0 -0.40956439907E+02  0.43194378659E+02  0.73078345033E+02  0.15558888574E+03  0.12379124580E+03 0.  0.
         25    2    3    3    0    0  0.40956439907E+02 -0.43194378659E+02  0.64887757893E+02  0.15402515152E+03  0.12637302662E+03 0.  0.
          5    1    4    4  502    0 -0.71675554995E+02  0.28385396472E+02  0.88847240943E+02  0.11772441607E+03  0.47000000000E+01 0. -1.
         -5    1    4    4    0  502  0.30719115088E+02  0.14808982187E+02 -0.15768895910E+02  0.37864469670E+02  0.47000000000E+01 0. -1.
          5    1    5    5  503    0 -0.34717880942E+01 -0.39544102207E+02  0.92922192887E+02  0.10115539166E+03  0.47000000000E+01 0. -1.
         -5    1    5    5    0  503  0.44428228002E+02 -0.36502764518E+01 -0.28034434993E+02  0.52869759853E+02  0.47000000000E+01 0. -1.
<mgrwt>
<rscale>  0 0.27717541E+03</rscale>
<asrwt>0</asrwt>
<pdfrwt beam="1">  1        2 0.34429241E-01 0.27717541E+03</pdfrwt>
<pdfrwt beam="2">  1       -2 0.13203687E-01 0.27717541E+03</pdfrwt>
<totfact> 0.63225537E+03</totfact>
</mgrwt>
</event>
<event>
 9    1  0.8175317E-001  0.2765569E+03  0.7818608E-02  0.1097584E+00
          2   -1    0    0  501    0  0.00000000000E+00  0.00000000000E+00  0.32841761940E+03  0.32841761940E+03  0.00000000000E+00 0.  1.
         -2   -1    0    0    0  501 -0.00000000000E+00 -0.00000000000E+00 -0.58221397294E+02  0.58221397294E+02  0.00000000000E+00 0.  1.
         35    2    1    2    0    0  0.71054273576E-14  0.00000000000E+00  0.27019622210E+03  0.38663901669E+03  0.27655692143E+03 0.  0.
         25    2    3    3    0    0  0.54667462179E+02 -0.17334612144E+02  0.11447366588E+03  0.17888814893E+03  0.12493089869E+03 0.  0.
         25    2    3    3    0    0 -0.54667462179E+02  0.17334612144E+02  0.15572255623E+03  0.20775086777E+03  0.12498755274E+03 0.  0.
          5    1    4    4  502    0  0.15573030945E+02  0.26796367684E+02 -0.16321901215E+02  0.35342029839E+02  0.47000000000E+01 0. -1.
         -5    1    4    4    0  502  0.39094431235E+02 -0.44130979827E+02  0.13079556709E+03  0.14354611909E+03  0.47000000000E+01 0. -1.
          5    1    5    5  503    0 -0.86466337973E+02  0.37494073162E+02  0.82763953544E+02  0.12551571667E+03  0.47000000000E+01 0.  1.
         -5    1    5    5    0  503  0.31798875794E+02 -0.20159461018E+02  0.72958602684E+02  0.82235151097E+02  0.47000000000E+01 0.  1.
<mgrwt>
<rscale>  0 0.27655692E+03</rscale>
<asrwt>0</asrwt>
<pdfrwt beam="1">  1        2 0.50525787E-01 0.27655692E+03</pdfrwt>
<pdfrwt beam="2">  1       -2 0.89571382E-02 0.27655692E+03</pdfrwt>
<totfact> 0.77813048E+03</totfact>
</mgrwt>
</event>
<event>
 9    1  0.8175317E-001  0.2759312E+03  0.7818608E-02  0.1097932E+00
          2   -1    0    0  501    0  0.00000000000E+00  0.00000000000E+00  0.21960862151E+04  0.21960862151E+04  0.00000000000E+00 0.  1.
         -2   -1    0    0    0  501 -0.00000000000E+00 -0.00000000000E+00 -0.86674680713E+01  0.86674680713E+01  0.00000000000E+00 0.  1.
         35    2    1    2    0    0  0.00000000000E+00  0.35527136788E-14  0.21874187471E+04  0.22047536832E+04  0.27593120267E+03 0.  0.
         25    2    3    3    0    0  0.35727310053E+02 -0.13070374665E+02  0.14438365853E+04  0.14496913222E+04  0.12447316648E+03 0.  0.
         25    2    3    3    0    0 -0.35727310053E+02  0.13070374665E+02  0.74358216172E+03  0.75506236099E+03  0.12552873125E+03 0.  0.
          5    1    4    4  502    0  0.40020005465E+02 -0.42730776877E+02  0.31389383413E+03  0.31934143050E+03  0.47000000000E+01 0.  1.
         -5    1    4    4    0  502 -0.42926954120E+01  0.29660402212E+02  0.11299427512E+04  0.11303498917E+04  0.47000000000E+01 0.  1.
          5    1    5    5  503    0  0.28206543439E+02  0.48012293431E+02  0.25469812468E+03  0.26075661857E+03  0.47000000000E+01 0. -1.
         -5    1    5    5    0  503 -0.63933853492E+02 -0.34941918766E+02  0.48888403704E+03  0.49430574241E+03  0.47000000000E+01 0. -1.
<mgrwt>
<rscale>  0 0.27593120E+03</rscale>
<asrwt>0</asrwt>
<pdfrwt beam="1">  1        2 0.33785897E+00 0.27593120E+03</pdfrwt>
<pdfrwt beam="2">  1       -2 0.13334584E-02 0.27593120E+03</pdfrwt>
<totfact> 0.82001830E+03</totfact>
</mgrwt>
</event>
<event>
 9    1  0.8175317E-001  0.2778487E+03  0.7818608E-02  0.1096870E+00
         -2   -1    0    0    0  501 -0.00000000000E+00  0.00000000000E+00  0.18256520523E+02  0.18256520523E+02  0.00000000000E+00 0.  1.
          2   -1    0    0  501    0  0.00000000000E+00 -0.00000000000E+00 -0.10571547900E+04  0.10571547900E+04  0.00000000000E+00 0.  1.
         35    2    1    2    0    0 -0.71054273576E-14  0.00000000000E+00 -0.10388982695E+04  0.10754113105E+04  0.27784865031E+03 0.  0.
         25    2    3    3    0    0  0.22206401860E+02 -0.51641972822E+02 -0.44450911229E+03  0.46503878907E+03  0.12455001721E+03 0.  0.
         25    2    3    3    0    0 -0.22206401860E+02  0.51641972822E+02 -0.59438915716E+03  0.61037252142E+03  0.12687051322E+03 0.  0.
          5    1    4    4  502    0  0.31079719403E+02  0.17238055517E+02 -0.36596995690E+02  0.51230163085E+02  0.47000000000E+01 0.  1.
         -5    1    4    4    0  502 -0.88733175436E+01 -0.68880028338E+02 -0.40791211661E+03  0.41380862599E+03  0.47000000000E+01 0.  1.
          5    1    5    5  503    0 -0.71904764448E+02  0.40489011676E+02 -0.44101729329E+03  0.44869588609E+03  0.47000000000E+01 0.  1.
         -5    1    5    5    0  503  0.49698362588E+02  0.11152961146E+02 -0.15337186387E+03  0.16167663533E+03  0.47000000000E+01 0.  1.
<mgrwt>
<rscale>  0 0.27784865E+03</rscale>
<asrwt>0</asrwt>
<pdfrwt beam="1">  1        2 0.16263918E+00 0.27784865E+03</pdfrwt>
<pdfrwt beam="2">  1       -2 0.28086958E-02 0.27784865E+03</pdfrwt>
<totfact> 0.11304853E+04</totfact>
</mgrwt>
</event>
<event>
 9    1  0.8175317E-001  0.2746285E+03  0.7818608E-02  0.1098659E+00
         -2   -1    0    0    0  501 -0.00000000000E+00  0.00000000000E+00  0.15528480255E+02  0.15528480255E+02  0.00000000000E+00 0. -1.
          2   -1    0    0  501    0  0.00000000000E+00 -0.00000000000E+00 -0.12142337386E+04  0.12142337386E+04  0.00000000000E+00 0. -1.
         35    2    1    2    0    0  0.00000000000E+00  0.00000000000E+00 -0.11987052583E+04  0.12297622188E+04  0.27462851006E+03 0.  0.
         25    2    3    3    0    0  0.42096755401E+02 -0.31599157265E+02 -0.63683134285E+03  0.65167330336E+03  0.12787998873E+03 0.  0.
         25    2    3    3    0    0 -0.42096755401E+02  0.31599157265E+02 -0.56187391544E+03  0.57808891545E+03  0.12535491115E+03 0.  0.
          5    1    4    4  502    0  0.24050167400E+02 -0.81240649363E+02 -0.41572152511E+03  0.42429344810E+03  0.47000000000E+01 0. -1.
         -5    1    4    4    0  502  0.18046588000E+02  0.49641492098E+02 -0.22110981774E+03  0.22737985526E+03  0.47000000000E+01 0. -1.
          5    1    5    5  503    0 -0.97564172469E+00 -0.29786516331E+02 -0.38718809053E+03  0.38836181053E+03  0.47000000000E+01 0. -1.
         -5    1    5    5    0  503 -0.41121113676E+02  0.61385673596E+02 -0.17468582491E+03  0.18972710491E+03  0.47000000000E+01 0. -1.
<mgrwt>
<rscale>  0 0.27462851E+03</rscale>
<asrwt>0</asrwt>
<pdfrwt beam="1">  1        2 0.18680515E+00 0.27462851E+03</pdfrwt>
<pdfrwt beam="2">  1       -2 0.23889974E-02 0.27462851E+03</pdfrwt>
<totfact> 0.11642853E+04</totfact>
</mgrwt>
</event>
<event>
 9    1  0.8175317E-001  0.2734694E+03  0.7818608E-02  0.1099310E+00
          2   -1    0    0  501    0  0.00000000000E+00  0.00000000000E+00  0.25553885187E+03  0.25553885187E+03  0.00000000000E+00 0. -1.
         -2   -1    0    0    0  501 -0.00000000000E+00 -0.00000000000E+00 -0.73164523308E+02  0.73164523308E+02  0.00000000000E+00 0. -1.
         35    2    1    2    0    0  0.00000000000E+00  0.00000000000E+00  0.18237432856E+03  0.32870337518E+03  0.27346940073E+03 0.  0.
         25    2    3    3    0    0  0.83926755959E+01  0.41782098120E+02  0.13475381853E+03  0.18859991399E+03  0.12488056382E+03 0.  0.
         25    2    3    3    0    0 -0.83926755959E+01 -0.41782098120E+02  0.47620510033E+02  0.14010346119E+03  0.12467993477E+03 0.  0.
          5    1    4    4  502    0  0.50517761843E+02 -0.21835725342E+02  0.62539479238E+02  0.83439317029E+02  0.47000000000E+01 0.  1.
         -5    1    4    4    0  502 -0.42125086247E+02  0.63617823462E+02  0.72214339292E+02  0.10516059696E+03  0.47000000000E+01 0.  1.
          5    1    5    5  503    0 -0.18394674955E+02 -0.45794384788E+01 -0.39867348535E+02  0.44394040171E+02  0.47000000000E+01 0. -1.
         -5    1    5    5    0  503  0.10001999359E+02 -0.37202659641E+02  0.87487858568E+02  0.95709421022E+02  0.47000000000E+01 0. -1.
<mgrwt>
<rscale>  0 0.27346940E+03</rscale>
<asrwt>0</asrwt>
<pdfrwt beam="1">  1        2 0.39313669E-01 0.27346940E+03</pdfrwt>
<pdfrwt beam="2">  1       -2 0.11256081E-01 0.27346940E+03</pdfrwt>
<totfact> 0.70853824E+03</totfact>
</mgrwt>
</event>
<event>
 9    1  0.8175317E-001  0.2739686E+03  0.7818608E-02  0.1099030E+00
         -2   -1    0    0    0  501 -0.00000000000E+00  0.00000000000E+00  0.21383303139E+02  0.21383303139E+02  0.00000000000E+00 0. -1.
          2   -1    0    0  501    0  0.00000000000E+00 -0.00000000000E+00 -0.87753945030E+03  0.87753945030E+03  0.00000000000E+00 0. -1.
         35    2    1    2    0    0  0.00000000000E+00  0.35527136788E-14 -0.85615614716E+03  0.89892275344E+03  0.27396855354E+03 0.  0.
         25    2    3    3    0    0  0.56518347183E+02  0.19403852435E+01 -0.41965918245E+03  0.44150441949E+03  0.12495692999E+03 0.  0.
         25    2    3    3    0    0 -0.56518347183E+02 -0.19403852435E+01 -0.43649696471E+03  0.45741833395E+03  0.12451443036E+03 0.  0.
          5    1    4    4  502    0 -0.36784549822E+02 -0.16889654409E+02 -0.10134159834E+03  0.10922716277E+03  0.47000000000E+01 0.  1.
         -5    1    4    4    0  502  0.93302897005E+02  0.18830039653E+02 -0.31831758410E+03  0.33227725672E+03  0.47000000000E+01 0.  1.
          5    1    5    5  503    0 -0.57732967089E+02  0.47904763148E+02 -0.16464402732E+03  0.18099090461E+03  0.47000000000E+01 0. -1.
         -5    1    5    5    0  503  0.12146199064E+01 -0.49845148391E+02 -0.27185293740E+03  0.27642742934E+03  0.47000000000E+01 0. -1.
<mgrwt>
<rscale>  0 0.27396855E+03</rscale>
<asrwt>0</asrwt>
<pdfrwt beam="1">  1        2 0.13500605E+00 0.27396855E+03</pdfrwt>
<pdfrwt beam="2">  1       -2 0.32897393E-02 0.27396855E+03</pdfrwt>
<totfact> 0.11557637E+04</totfact>
</mgrwt>
</event>
<event>
 9    1  0.8175317E-001  0.2702876E+03  0.7818608E-02  0.1101115E+00
         -3   -1    0    0    0  501 -0.00000000000E+00  0.00000000000E+00  0.36537981187E+02  0.36537981187E+02  0.00000000000E+00 0. -1.
          3   -1    0    0  501    0  0.00000000000E+00 -0.00000000000E+00 -0.49985927816E+03  0.49985927816E+03  0.00000000000E+00 0. -1.
         35    2    1    2    0    0  0.71054273576E-14  0.35527136788E-14 -0.46332129697E+03  0.53639725935E+03  0.27028761645E+03 0.  0.
         25    2    3    3    0    0  0.28543556121E+02  0.91741155951E+01 -0.31488103193E+03  0.34044477308E+03  0.12591139842E+03 0.  0.
         25    2    3    3    0    0 -0.28543556121E+02 -0.91741155951E+01 -0.14844026504E+03  0.19595248627E+03  0.12435419412E+03 0.  0.
          5    1    4    4  502    0  0.55717348847E+02  0.10945118411E+02 -0.55310975518E+02  0.79407887469E+02  0.47000000000E+01 0.  1.
         -5    1    4    4    0  502 -0.27173792726E+02 -0.17710028163E+01 -0.25957005641E+03  0.26103688561E+03  0.47000000000E+01 0.  1.
          5    1    5    5  503    0  0.38709725300E+02  0.30196250670E+02 -0.66266071829E+02  0.82604713322E+02  0.47000000000E+01 0. -1.
         -5    1    5    5    0  503 -0.67253281421E+02 -0.39370366265E+02 -0.82174193211E+02  0.11334777294E+03  0.47000000000E+01 0. -1.
<mgrwt>
<rscale>  0 0.27028762E+03</rscale>
<asrwt>0</asrwt>
<pdfrwt beam="1">  1        3 0.76901433E-01 0.27028762E+03</pdfrwt>
<pdfrwt beam="2">  1       -3 0.56212275E-02 0.27028762E+03</pdfrwt>
<totfact> 0.77995311E+02</totfact>
</mgrwt>
</event>
<event>
 9    1  0.8175317E-001  0.2761943E+03  0.7818608E-02  0.1097786E+00
         -1   -1    0    0    0  501 -0.00000000000E+00  0.00000000000E+00  0.77939432605E+02  0.77939432605E+02  0.00000000000E+00 0. -1.
          1   -1    0    0  501    0  0.00000000000E+00 -0.00000000000E+00 -0.24468778067E+03  0.24468778067E+03  0.00000000000E+00 0. -1.
         35    2    1    2    0    0  0.71054273576E-14  0.35527136788E-14 -0.16674834806E+03  0.32262721327E+03  0.27619432862E+03 0.  0.
         25    2    3    3    0    0  0.20840312482E+01  0.16908253449E+02 -0.14997158418E+03  0.19675050430E+03  0.12621035084E+03 0.  0.
         25    2    3    3    0    0 -0.20840312482E+01 -0.16908253449E+02 -0.16776763885E+02  0.12587670897E+03  0.12358500651E+03 0.  0.
          5    1    4    4  502    0  0.26707225272E+01 -0.43868157254E+02 -0.11829404103E+02  0.45755576503E+02  0.47000000000E+01 0. -1.
         -5    1    4    4    0  502 -0.58669127895E+00  0.60776410703E+02 -0.13814218007E+03  0.15099492779E+03  0.47000000000E+01 0. -1.
          5    1    5    5  503    0  0.48598386779E+02  0.24676504852E+02  0.86813067613E+01  0.55391228333E+02  0.47000000000E+01 0.  1.
         -5    1    5    5    0  503 -0.50682418027E+02 -0.41584758301E+02 -0.25458070646E+02  0.70485480640E+02  0.47000000000E+01 0.  1.
<mgrwt>
<rscale>  0 0.27619433E+03</rscale>
<asrwt>0</asrwt>
<pdfrwt beam="1">  1        1 0.37644274E-01 0.27619433E+03</pdfrwt>
<pdfrwt beam="2">  1       -1 0.11990682E-01 0.27619433E+03</pdfrwt>
<totfact> 0.51709997E+03</totfact>
</mgrwt>
</event>
<event>
 9    1  0.8175317E-001  0.2910875E+03  0.7818608E-02  0.1089783E+00
         -4   -1    0    0    0  501 -0.00000000000E+00  0.00000000000E+00  0.25782291980E+02  0.25782291980E+02  0.00000000000E+00 0.  1.
          4   -1    0    0  501    0  0.00000000000E+00 -0.00000000000E+00 -0.82160989826E+03  0.82160989826E+03  0.00000000000E+00 0.  1.
         35    2    1    2    0    0  0.17763568394E-14  0.00000000000E+00 -0.79582760628E+03  0.84739219024E+03  0.29108752148E+03 0.  0.
         25    2    3    3    0    0 -0.10370219477E+02  0.26179826498E+01 -0.58965459741E+03  0.60288041917E+03  0.12513137214E+03 0.  0.
         25    2    3    3    0    0  0.10370219477E+02 -0.26179826498E+01 -0.20617300888E+03  0.24451177107E+03  0.13101259984E+03 0.  0.
          5    1    4    4  502    0 -0.18933245959E+02  0.76156070980E+01 -0.59139955724E+03  0.59177021857E+03  0.47000000000E+01 0.  1.
         -5    1    4    4    0  502  0.85630264828E+01 -0.49976244482E+01  0.17449598380E+01  0.11110200606E+02  0.47000000000E+01 0.  1.
          5    1    5    5  503    0  0.33679084885E+02  0.36526870838E+02 -0.18919346254E+03  0.19566489036E+03  0.47000000000E+01 0.  1.
         -5    1    5    5    0  503 -0.23308865408E+02 -0.39144853487E+02 -0.16979546335E+02  0.48846880708E+02  0.47000000000E+01 0.  1.
<mgrwt>
<rscale>  0 0.29108752E+03</rscale>
<asrwt>0</asrwt>
<pdfrwt beam="1">  1        4 0.12640152E+00 0.29108752E+03</pdfrwt>
<pdfrwt beam="2">  1       -4 0.39665064E-02 0.29108752E+03</pdfrwt>
<totfact> 0.31774998E+02</totfact>
</mgrwt>
</event>
<event>
 9    1  0.8175317E-001  0.2775168E+03  0.7818608E-02  0.1097053E+00
         -4   -1    0    0    0  501 -0.00000000000E+00  0.00000000000E+00  0.31020991539E+03  0.31020991539E+03  0.00000000000E+00 0.  1.
          4   -1    0    0  501    0  0.00000000000E+00 -0.00000000000E+00 -0.62067308900E+02  0.62067308900E+02  0.00000000000E+00 0.  1.
         35    2    1    2    0    0  0.00000000000E+00 -0.71054273576E-14  0.24814260649E+03  0.37227722429E+03  0.27751680772E+03 0.  0.
         25    2    3    3    0    0  0.41356018497E+02 -0.17168176636E+02  0.64036892188E+02  0.14736138213E+03  0.12493833210E+03 0.  0.
         25    2    3    3    0    0 -0.41356018497E+02  0.17168176636E+02  0.18410571430E+03  0.22491584216E+03  0.12119057497E+03 0.  0.
          5    1    4    4  502    0  0.11959492703E+02 -0.70013040280E+02  0.43006726571E+02  0.83165640774E+02  0.47000000000E+01 0.  1.
         -5    1    4    4    0  502  0.29396525794E+02  0.52844863644E+02  0.21030165617E+02  0.64195741356E+02  0.47000000000E+01 0.  1.
          5    1    5    5  503    0 -0.54584128128E+02 -0.17635768260E+02  0.27335472982E+02  0.63716288724E+02  0.47000000000E+01 0. -1.
         -5    1    5    5    0  503  0.13228109631E+02  0.34803944896E+02  0.15677024132E+03  0.16119955344E+03  0.47000000000E+01 0. -1.
<mgrwt>
<rscale>  0 0.27751681E+03</rscale>
<asrwt>0</asrwt>
<pdfrwt beam="1">  1        4 0.95488169E-02 0.27751681E+03</pdfrwt>
<pdfrwt beam="2">  1       -4 0.47724602E-01 0.27751681E+03</pdfrwt>
<totfact> 0.65693554E+02</totfact>
</mgrwt>
</event>
<event>
 9    1  0.8175317E-001  0.2767119E+03  0.7818608E-02  0.1097498E+00
          2   -1    0    0  501    0  0.00000000000E+00  0.00000000000E+00  0.94682210084E+03  0.94682210084E+03  0.00000000000E+00 0.  1.
         -2   -1    0    0    0  501 -0.00000000000E+00 -0.00000000000E+00 -0.20217498882E+02  0.20217498882E+02  0.00000000000E+00 0.  1.
         35    2    1    2    0    0  0.00000000000E+00  0.71054273576E-14  0.92660460196E+03  0.96703959972E+03  0.27671194239E+03 0.  0.
         25    2    3    3    0    0 -0.26588459909E+02  0.23738479193E+02  0.60759884431E+03  0.62127614363E+03  0.12464842333E+03 0.  0.
         25    2    3    3    0    0  0.26588459909E+02 -0.23738479193E+02  0.31900575765E+03  0.34576345610E+03  0.12851938595E+03 0.  0.
          5    1    4    4  502    0 -0.32922356251E+02  0.68160187147E+02  0.47958601271E+03  0.48554559646E+03  0.47000000000E+01 0.  1.
         -5    1    4    4    0  502  0.63338963414E+01 -0.44421707954E+02  0.12801283160E+03  0.13573054717E+03  0.47000000000E+01 0.  1.
          5    1    5    5  503    0  0.26627905324E+02  0.36383644029E+02  0.40449760822E+02  0.60754325322E+02  0.47000000000E+01 0.  1.
         -5    1    5    5    0  503 -0.39445414763E-01 -0.60122123222E+02  0.27855599683E+03  0.28500913078E+03  0.47000000000E+01 0.  1.
<mgrwt>
<rscale>  0 0.27671194E+03</rscale>
<asrwt>0</asrwt>
<pdfrwt beam="1">  1        2 0.14566490E+00 0.27671194E+03</pdfrwt>
<pdfrwt beam="2">  1       -2 0.31103852E-02 0.27671194E+03</pdfrwt>
<totfact> 0.11346815E+04</totfact>
</mgrwt>
</event>
<event>
 9    1  0.8175317E-001  0.2824251E+03  0.7818608E-02  0.1094372E+00
         -2   -1    0    0    0  501 -0.00000000000E+00  0.00000000000E+00  0.18722549270E+02  0.18722549270E+02  0.00000000000E+00 0.  1.
          2   -1    0    0  501    0  0.00000000000E+00 -0.00000000000E+00 -0.10650786953E+04  0.10650786953E+04  0.00000000000E+00 0.  1.
         35    2    1    2    0    0  0.71054273576E-14 -0.35527136788E-14 -0.10463561460E+04  0.10838012446E+04  0.28242512884E+03 0.  0.
         25    2    3    3    0    0  0.41672291637E+02 -0.13162253515E+02 -0.72260001684E+03  0.73463101805E+03  0.12498849357E+03 0.  0.
         25    2    3    3    0    0 -0.41672291637E+02  0.13162253515E+02 -0.32375612918E+03  0.34917022652E+03  0.12325579539E+03 0.  0.
          5    1    4    4  502    0  0.86743609885E+01 -0.56904685699E+02 -0.17515932017E+03  0.18443498919E+03  0.47000000000E+01 0.  1.
         -5    1    4    4    0  502  0.32997930648E+02  0.43742432184E+02 -0.54744069667E+03  0.55019602886E+03  0.47000000000E+01 0.  1.
          5    1    5    5  503    0  0.12215007736E+02 -0.73142887976E+01 -0.26934257354E+03  0.26975955434E+03  0.47000000000E+01 0. -1.
         -5    1    5    5    0  503 -0.53887299373E+02  0.20476542313E+02 -0.54413555634E+02  0.79410672176E+02  0.47000000000E+01 0. -1.
<mgrwt>
<rscale>  0 0.28242513E+03</rscale>
<asrwt>0</asrwt>
<pdfrwt beam="1">  1        2 0.16385827E+00 0.28242513E+03</pdfrwt>
<pdfrwt beam="2">  1       -2 0.28803921E-02 0.28242513E+03</pdfrwt>
<totfact> 0.10776286E+04</totfact>
</mgrwt>
</event>
<event>
 9    1  0.8175317E-001  0.2747610E+03  0.7818608E-02  0.1098585E+00
         -1   -1    0    0    0  501 -0.00000000000E+00  0.00000000000E+00  0.26355873101E+02  0.26355873101E+02  0.00000000000E+00 0. -1.
          1   -1    0    0  501    0  0.00000000000E+00 -0.00000000000E+00 -0.71609878070E+03  0.71609878070E+03  0.00000000000E+00 0. -1.
         35    2    1    2    0    0  0.17763568394E-14  0.00000000000E+00 -0.68974290760E+03  0.74245465380E+03  0.27476104958E+03 0.  0.
         25    2    3    3    0    0 -0.14773875010E+02 -0.32384670549E+02 -0.48892289053E+03  0.50590951686E+03  0.12502724542E+03 0.  0.
         25    2    3    3    0    0  0.14773875010E+02  0.32384670549E+02 -0.20082001707E+03  0.23654513694E+03  0.11982440605E+03 0.  0.
          5    1    4    4  502    0 -0.97079259559E+01 -0.12872359726E+02 -0.24720270222E+00  0.16795611941E+02  0.47000000000E+01 0. -1.
         -5    1    4    4    0  502 -0.50659490544E+01 -0.19512310823E+02 -0.48867568782E+03  0.48911390492E+03  0.47000000000E+01 0. -1.
          5    1    5    5  503    0  0.13221513707E+02  0.70849651914E+02 -0.71878056925E+02  0.10189713768E+03  0.47000000000E+01 0. -1.
         -5    1    5    5    0  503  0.15523613028E+01 -0.38464981365E+02 -0.12894196015E+03  0.13464799926E+03  0.47000000000E+01 0. -1.
<mgrwt>
<rscale>  0 0.27476105E+03</rscale>
<asrwt>0</asrwt>
<pdfrwt beam="1">  1        1 0.11016903E+00 0.27476105E+03</pdfrwt>
<pdfrwt beam="2">  1       -1 0.40547502E-02 0.27476105E+03</pdfrwt>
<totfact> 0.65513773E+03</totfact>
</mgrwt>
</event>
<event>
 9    1  0.8175317E-001  0.2762920E+03  0.7818608E-02  0.1097732E+00
         -2   -1    0    0    0  501 -0.00000000000E+00  0.00000000000E+00  0.81612395362E+01  0.81612395362E+01  0.00000000000E+00 0.  1.
          2   -1    0    0  501    0  0.00000000000E+00 -0.00000000000E+00 -0.23384099173E+04  0.23384099173E+04  0.00000000000E+00 0.  1.
         35    2    1    2    0    0  0.00000000000E+00 -0.35527136788E-14 -0.23302486777E+04  0.23465711568E+04  0.27629204454E+03 0.  0.
         25    2    3    3    0    0  0.27310600382E+02 -0.22308663463E+02 -0.78940482814E+03  0.80018676558E+03  0.12607669003E+03 0.  0.
         25    2    3    3    0    0 -0.27310600382E+02  0.22308663463E+02 -0.15408438496E+04  0.15463843912E+04  0.12594193590E+03 0.  0.
          5    1    4    4  502    0  0.64087267400E+01  0.44552392657E+02 -0.14324729877E+03  0.15022604992E+03  0.47000000000E+01 0. -1.
         -5    1    4    4    0  502  0.20901873642E+02 -0.66861056120E+02 -0.64615752937E+03  0.64996071566E+03  0.47000000000E+01 0. -1.
          5    1    5    5  503    0 -0.83383692543E+01  0.65875174745E+01 -0.99859361840E+01  0.15320989190E+02  0.47000000000E+01 0. -1.
         -5    1    5    5    0  503 -0.18972231128E+02  0.15721145988E+02 -0.15308579134E+04  0.15310634020E+04  0.47000000000E+01 0. -1.
<mgrwt>
<rscale>  0 0.27629204E+03</rscale>
<asrwt>0</asrwt>
<pdfrwt beam="1">  1        2 0.35975542E+00 0.27629204E+03</pdfrwt>
<pdfrwt beam="2">  1       -2 0.12555751E-02 0.27629204E+03</pdfrwt>
<totfact> 0.75130083E+03</totfact>
</mgrwt>
</event>
<event>
 9    1  0.8175317E-001  0.2727154E+03  0.7818608E-02  0.1099735E+00
          2   -1    0    0  501    0  0.00000000000E+00  0.00000000000E+00  0.17718250968E+04  0.17718250968E+04  0.00000000000E+00 0.  1.
         -2   -1    0    0    0  501 -0.00000000000E+00 -0.00000000000E+00 -0.10493939068E+02  0.10493939068E+02  0.00000000000E+00 0.  1.
         35    2    1    2    0    0 -0.14210854715E-13  0.00000000000E+00  0.17613311578E+04  0.17823190359E+04  0.27271541655E+03 0.  0.
         25    2    3    3    0    0  0.22122701898E+02 -0.34375979420E+02  0.71301029157E+03  0.72568550534E+03  0.12870374845E+03 0.  0.
         25    2    3    3    0    0 -0.22122701898E+02  0.34375979420E+02  0.10483208662E+04  0.10566335306E+04  0.12580404415E+03 0.  0.
          5    1    4    4  502    0  0.45526436142E+02 -0.70987047766E+02  0.56757000150E+03  0.57382019304E+03  0.47000000000E+01 0.  1.
         -5    1    4    4    0  502 -0.23403734244E+02  0.36611068345E+02  0.14544029007E+03  0.15186531230E+03  0.47000000000E+01 0.  1.
          5    1    5    5  503    0  0.50110079052E+02  0.21197725692E+02  0.32229789719E+03  0.32689201295E+03  0.47000000000E+01 0. -1.
         -5    1    5    5    0  503 -0.72232780950E+02  0.13178253728E+02  0.72602296899E+03  0.72974151760E+03  0.47000000000E+01 0. -1.
<mgrwt>
<rscale>  0 0.27271542E+03</rscale>
<asrwt>0</asrwt>
<pdfrwt beam="1">  1        2 0.27258824E+00 0.27271542E+03</pdfrwt>
<pdfrwt beam="2">  1       -2 0.16144536E-02 0.27271542E+03</pdfrwt>
<totfact> 0.10370828E+04</totfact>
</mgrwt>
</event>
<event>
 9    1  0.8175317E-001  0.2734048E+03  0.7818608E-02  0.1099347E+00
         -1   -1    0    0    0  501 -0.00000000000E+00  0.00000000000E+00  0.31287613835E+02  0.31287613835E+02  0.00000000000E+00 0.  1.
          1   -1    0    0  501    0  0.00000000000E+00 -0.00000000000E+00 -0.59728266407E+03  0.59728266407E+03  0.00000000000E+00 0.  1.
         35    2    1    2    0    0  0.00000000000E+00  0.00000000000E+00 -0.56599505024E+03  0.62857027791E+03  0.27340482325E+03 0.  0.
         25    2    3    3    0    0 -0.25939215382E+02 -0.19978501908E+01 -0.39270197618E+03  0.41316581918E+03  0.12575499092E+03 0.  0.
         25    2    3    3    0    0  0.25939215382E+02  0.19978501908E+01 -0.17329307406E+03  0.21540445873E+03  0.12526674349E+03 0.  0.
          5    1    4    4  502    0  0.32637701243E+02 -0.25794353592E+02 -0.28601056673E+03  0.28905830295E+03  0.47000000000E+01 0.  1.
         -5    1    4    4    0  502 -0.58576916625E+02  0.23796503401E+02 -0.10669140945E+03  0.12410751623E+03  0.47000000000E+01 0.  1.
          5    1    5    5  503    0  0.34312994151E+02  0.18100929061E+02  0.19828811977E+01  0.39128595915E+02  0.47000000000E+01 0.  1.
         -5    1    5    5    0  503 -0.83737787691E+01 -0.16103078870E+02 -0.17527595526E+03  0.17627586281E+03  0.47000000000E+01 0.  1.
<mgrwt>
<rscale>  0 0.27340482E+03</rscale>
<asrwt>0</asrwt>
<pdfrwt beam="1">  1        1 0.91889632E-01 0.27340482E+03</pdfrwt>
<pdfrwt beam="2">  1       -1 0.48134795E-02 0.27340482E+03</pdfrwt>
<totfact> 0.65700524E+03</totfact>
</mgrwt>
</event>
<event>
 9    1  0.8175317E-001  0.2717556E+03  0.7818608E-02  0.1100279E+00
          2   -1    0    0  501    0  0.00000000000E+00  0.00000000000E+00  0.42780081563E+03  0.42780081563E+03  0.00000000000E+00 0. -1.
         -2   -1    0    0    0  501 -0.00000000000E+00 -0.00000000000E+00 -0.43157409195E+02  0.43157409195E+02  0.00000000000E+00 0. -1.
         35    2    1    2    0    0  0.00000000000E+00  0.71054273576E-14  0.38464340643E+03  0.47095822482E+03  0.27175558764E+03 0.  0.
         25    2    3    3    0    0 -0.44470395432E+02 -0.22234768649E+02  0.21671420590E+03  0.25521693624E+03  0.12529419979E+03 0.  0.
         25    2    3    3    0    0  0.44470395432E+02  0.22234768649E+02  0.16792920053E+03  0.21574128858E+03  0.12598446808E+03 0.  0.
          5    1    4    4  502    0 -0.37392656267E+02 -0.65247816285E+02  0.18869832948E+03  0.20318621465E+03  0.47000000000E+01 0. -1.
         -5    1    4    4    0  502 -0.70777391654E+01  0.43013047636E+02  0.28015876416E+02  0.52030721598E+02  0.47000000000E+01 0. -1.
          5    1    5    5  503    0 -0.41262894726E+01 -0.28068054233E+02 -0.49598683185E+01  0.29181025118E+02  0.47000000000E+01 0. -1.
         -5    1    5    5    0  503  0.48596684905E+02  0.50302822882E+02  0.17288906885E+03  0.18656026346E+03  0.47000000000E+01 0. -1.
<mgrwt>
<rscale>  0 0.27175559E+03</rscale>
<asrwt>0</asrwt>
<pdfrwt beam="1">  1        2 0.65815507E-01 0.27175559E+03</pdfrwt>
<pdfrwt beam="2">  1       -2 0.66396017E-02 0.27175559E+03</pdfrwt>
<totfact> 0.93116339E+03</totfact>
</mgrwt>
</event>
<event>
 9    1  0.8175317E-001  0.2763907E+03  0.7818608E-02  0.1097677E+00
         -2   -1    0    0    0  501 -0.00000000000E+00  0.00000000000E+00  0.41903269547E+02  0.41903269547E+02  0.00000000000E+00 0. -1.
          2   -1    0    0  501    0  0.00000000000E+00 -0.00000000000E+00 -0.45576274937E+03  0.45576274937E+03  0.00000000000E+00 0. -1.
         35    2    1    2    0    0  0.00000000000E+00  0.00000000000E+00 -0.41385947983E+03  0.49766601892E+03  0.27639066074E+03 0.  0.
         25    2    3    3    0    0  0.32804597716E+02 -0.51856270752E+01 -0.29877531305E+03  0.32579928113E+03  0.12560036438E+03 0.  0.
         25    2    3    3    0    0 -0.32804597716E+02  0.51856270752E+01 -0.11508416678E+03  0.17186673780E+03  0.12325087326E+03 0.  0.
          5    1    4    4  502    0  0.75691474268E+02  0.20655574292E+02 -0.16173373694E+03  0.17982142167E+03  0.47000000000E+01 0. -1.
         -5    1    4    4    0  502 -0.42886876552E+02 -0.25841201367E+02 -0.13704157611E+03  0.14597785946E+03  0.47000000000E+01 0. -1.
          5    1    5    5  503    0  0.49025099707E+01  0.30900136908E+02 -0.12148810617E+03  0.12554004543E+03  0.47000000000E+01 0. -1.
         -5    1    5    5    0  503 -0.37707107687E+02 -0.25714509833E+02  0.64039393956E+01  0.46326692369E+02  0.47000000000E+01 0. -1.
<mgrwt>
<rscale>  0 0.27639066E+03</rscale>
<asrwt>0</asrwt>
<pdfrwt beam="1">  1        2 0.70117348E-01 0.27639066E+03</pdfrwt>
<pdfrwt beam="2">  1       -2 0.64466567E-02 0.27639066E+03</pdfrwt>
<totfact> 0.90961695E+03</totfact>
</mgrwt>
</event>
<event>
 9    1  0.8175317E-001  0.2802683E+03  0.7818608E-02  0.1095542E+00
         -4   -1    0    0    0  501 -0.00000000000E+00  0.00000000000E+00  0.56863465219E+02  0.56863465219E+02  0.00000000000E+00 0. -1.
          4   -1    0    0  501    0  0.00000000000E+00 -0.00000000000E+00 -0.34534625931E+03  0.34534625931E+03  0.00000000000E+00 0. -1.
         35    2    1    2    0    0  0.00000000000E+00 -0.35527136788E-14 -0.28848279409E+03  0.40220972452E+03  0.28026833574E+03 0.  0.
         25    2    3    3    0    0  0.35378272421E+02  0.13427225437E+02 -0.21078231326E+03  0.24788975002E+03  0.12485284153E+03 0.  0.
         25    2    3    3    0    0 -0.35378272421E+02 -0.13427225437E+02 -0.77700480827E+02  0.15431997451E+03  0.12784904094E+03 0.  0.
          5    1    4    4  502    0  0.24334560654E+02 -0.16969163470E+02 -0.21302548062E+03  0.21513267707E+03  0.47000000000E+01 0.  1.
         -5    1    4    4    0  502  0.11043711767E+02  0.30396388907E+02  0.22431673569E+01  0.32757072946E+02  0.47000000000E+01 0.  1.
          5    1    5    5  503    0  0.13244044559E+02  0.34197559563E+02  0.14422392681E+02  0.39685932104E+02  0.47000000000E+01 0.  1.
         -5    1    5    5    0  503 -0.48622316980E+02 -0.47624785000E+02 -0.92122873508E+02  0.11463404241E+03  0.47000000000E+01 0.  1.
<mgrwt>
<rscale>  0 0.28026834E+03</rscale>
<asrwt>0</asrwt>
<pdfrwt beam="1">  1        4 0.53130194E-01 0.28026834E+03</pdfrwt>
<pdfrwt beam="2">  1       -4 0.87482254E-02 0.28026834E+03</pdfrwt>
<totfact> 0.61138884E+02</totfact>
</mgrwt>
</event>
<event>
 9    1  0.8175317E-001  0.2717018E+03  0.7818608E-02  0.1100310E+00
          2   -1    0    0  501    0  0.00000000000E+00  0.00000000000E+00  0.15944704859E+04  0.15944704859E+04  0.00000000000E+00 0. -1.
         -2   -1    0    0    0  501 -0.00000000000E+00 -0.00000000000E+00 -0.11574665181E+02  0.11574665181E+02  0.00000000000E+00 0. -1.
         35    2    1    2    0    0  0.00000000000E+00  0.71054273576E-14  0.15828958207E+04  0.16060451511E+04  0.27170176308E+03 0.  0.
         25    2    3    3    0    0 -0.37138375527E+02  0.38179027043E+02  0.83983696568E+03  0.85070152685E+03  0.12461966865E+03 0.  0.
         25    2    3    3    0    0  0.37138375527E+02 -0.38179027043E+02  0.74305885501E+03  0.75534362420E+03  0.12478233680E+03 0.  0.
          5    1    4    4  502    0 -0.27462268721E+02 -0.36107634583E+02  0.14966235410E+03  0.15645717534E+03  0.47000000000E+01 0. -1.
         -5    1    4    4    0  502 -0.96761068052E+01  0.74286661627E+02  0.69017461157E+03  0.69424435151E+03  0.47000000000E+01 0. -1.
          5    1    5    5  503    0  0.63844313815E+02  0.14873232810E+02  0.53173809213E+03  0.53578428316E+03  0.47000000000E+01 0.  1.
         -5    1    5    5    0  503 -0.26705938289E+02 -0.53052259853E+02  0.21132076288E+03  0.21955934104E+03  0.47000000000E+01 0.  1.
<mgrwt>
<rscale>  0 0.27170176E+03</rscale>
<asrwt>0</asrwt>
<pdfrwt beam="1">  1        2 0.24530298E+00 0.27170176E+03</pdfrwt>
<pdfrwt beam="2">  1       -2 0.17807190E-02 0.27170176E+03</pdfrwt>
<totfact> 0.11139675E+04</totfact>
</mgrwt>
</event>
<event>
 9    1  0.8175317E-001  0.2761753E+03  0.7818608E-02  0.1097796E+00
         -2   -1    0    0    0  501 -0.00000000000E+00  0.00000000000E+00  0.31914510863E+02  0.31914510863E+02  0.00000000000E+00 0. -1.
          2   -1    0    0  501    0  0.00000000000E+00 -0.00000000000E+00 -0.59747737847E+03  0.59747737847E+03  0.00000000000E+00 0. -1.
         35    2    1    2    0    0  0.00000000000E+00  0.00000000000E+00 -0.56556286761E+03  0.62939188933E+03  0.27617529423E+03 0.  0.
         25    2    3    3    0    0  0.13133899704E+02  0.43529840092E+02 -0.36461110423E+03  0.38849217964E+03  0.12616485255E+03 0.  0.
         25    2    3    3    0    0 -0.13133899704E+02 -0.43529840092E+02 -0.20095176338E+03  0.24089970969E+03  0.12483474125E+03 0.  0.
          5    1    4    4  502    0  0.11042752795E+01 -0.41803919564E+02 -0.17774021485E+03  0.18265393807E+03  0.47000000000E+01 0.  1.
         -5    1    4    4    0  502  0.12029624424E+02  0.85333759656E+02 -0.18687088937E+03  0.20583824158E+03  0.47000000000E+01 0.  1.
          5    1    5    5  503    0 -0.21584256667E+02  0.39997261676E+02 -0.96800583572E+02  0.10704253387E+03  0.47000000000E+01 0. -1.
         -5    1    5    5    0  503  0.84503569636E+01 -0.83527101768E+02 -0.10415117981E+03  0.13385717582E+03  0.47000000000E+01 0. -1.
<mgrwt>
<rscale>  0 0.27617529E+03</rscale>
<asrwt>0</asrwt>
<pdfrwt beam="1">  1        2 0.91919595E-01 0.27617529E+03</pdfrwt>
<pdfrwt beam="2">  1       -2 0.49099248E-02 0.27617529E+03</pdfrwt>
<totfact> 0.10161448E+04</totfact>
</mgrwt>
</event>
<event>
 9    1  0.8175317E-001  0.2755189E+03  0.7818608E-02  0.1098162E+00
          2   -1    0    0  501    0  0.00000000000E+00  0.00000000000E+00  0.99124113842E+03  0.99124113842E+03  0.00000000000E+00 0.  1.
         -2   -1    0    0    0  501 -0.00000000000E+00 -0.00000000000E+00 -0.19145362328E+02  0.19145362328E+02  0.00000000000E+00 0.  1.
         35    2    1    2    0    0  0.00000000000E+00  0.00000000000E+00  0.97209577609E+03  0.10103865007E+04  0.27551893401E+03 0.  0.
         25    2    3    3    0    0  0.44472661060E+02 -0.25472995395E+02  0.58545648920E+03  0.60083244895E+03  0.12495455129E+03 0.  0.
         25    2    3    3    0    0 -0.44472661060E+02  0.25472995395E+02  0.38663928689E+03  0.40955405180E+03  0.12497156517E+03 0.  0.
          5    1    4    4  502    0  0.81696443531E+02 -0.16967444409E+01  0.26615038816E+03  0.27845162407E+03  0.47000000000E+01 0. -1.
         -5    1    4    4    0  502 -0.37223782471E+02 -0.23776250954E+02  0.31930610104E+03  0.32238082488E+03  0.47000000000E+01 0. -1.
          5    1    5    5  503    0 -0.70879403338E+02  0.58408483415E+02  0.24540331796E+03  0.26206930232E+03  0.47000000000E+01 0.  1.
         -5    1    5    5    0  503  0.26406742278E+02 -0.32935488019E+02  0.14123596893E+03  0.14748474948E+03  0.47000000000E+01 0.  1.
<mgrwt>
<rscale>  0 0.27551893E+03</rscale>
<asrwt>0</asrwt>
<pdfrwt beam="1">  1        2 0.15249860E+00 0.27551893E+03</pdfrwt>
<pdfrwt beam="2">  1       -2 0.29454411E-02 0.27551893E+03</pdfrwt>
<totfact> 0.11545582E+04</totfact>
</mgrwt>
</event>
<event>
 9    1  0.8175317E-001  0.2763751E+03  0.7818608E-02  0.1097685E+00
         -1   -1    0    0    0  501 -0.00000000000E+00  0.00000000000E+00  0.86957875368E+01  0.86957875368E+01  0.00000000000E+00 0. -1.
          1   -1    0    0  501    0  0.00000000000E+00 -0.00000000000E+00 -0.21959826433E+04  0.21959826433E+04  0.00000000000E+00 0. -1.
         35    2    1    2    0    0  0.00000000000E+00  0.35527136788E-14 -0.21872868558E+04  0.22046784309E+04  0.27637509657E+03 0.  0.
         25    2    3    3    0    0 -0.25269394622E+02  0.15582132440E+02 -0.15006881576E+04  0.15062100651E+04  0.12538926845E+03 0.  0.
         25    2    3    3    0    0  0.25269394622E+02 -0.15582132440E+02 -0.68659869817E+03  0.69846836576E+03  0.12473548205E+03 0.  0.
          5    1    4    4  502    0  0.12707228829E+02  0.31914355791E+02 -0.13325394578E+04  0.13329904338E+04  0.47000000000E+01 0. -1.
         -5    1    4    4    0  502 -0.37976623451E+02 -0.16332223352E+02 -0.16814869979E+03  0.17321963136E+03  0.47000000000E+01 0. -1.
          5    1    5    5  503    0  0.14764672764E+02  0.53608968669E+02 -0.37067164434E+03  0.37484860277E+03  0.47000000000E+01 0.  1.
         -5    1    5    5    0  503  0.10504721858E+02 -0.69191101109E+02 -0.31592705384E+03  0.32361976299E+03  0.47000000000E+01 0.  1.
<mgrwt>
<rscale>  0 0.27637510E+03</rscale>
<asrwt>0</asrwt>
<pdfrwt beam="1">  1        1 0.33784320E+00 0.27637510E+03</pdfrwt>
<pdfrwt beam="2">  1       -1 0.13378146E-02 0.27637510E+03</pdfrwt>
<totfact> 0.31003995E+03</totfact>
</mgrwt>
</event>
<event>
 9    1  0.8175317E-001  0.2748895E+03  0.7818608E-02  0.1098513E+00
          1   -1    0    0  501    0  0.00000000000E+00  0.00000000000E+00  0.18653497056E+04  0.18653497056E+04  0.00000000000E+00 0.  1.
         -1   -1    0    0    0  501 -0.00000000000E+00 -0.00000000000E+00 -0.10127355056E+02  0.10127355056E+02  0.00000000000E+00 0.  1.
         35    2    1    2    0    0  0.00000000000E+00  0.00000000000E+00  0.18552223506E+04  0.18754770607E+04  0.27488949614E+03 0.  0.
         25    2    3    3    0    0  0.18323368065E+02  0.50865539509E+02  0.10372456239E+04  0.10461521648E+04  0.12503127034E+03 0.  0.
         25    2    3    3    0    0 -0.18323368065E+02 -0.50865539509E+02  0.81797672662E+03  0.82932489590E+03  0.12558188057E+03 0.  0.
          5    1    4    4  502    0  0.25264535278E+02  0.91164944236E+02  0.68804059413E+03  0.69452954795E+03  0.47000000000E+01 0. -1.
         -5    1    4    4    0  502 -0.69411672126E+01 -0.40299404727E+02  0.34920502982E+03  0.35162261684E+03  0.47000000000E+01 0. -1.
          5    1    5    5  503    0  0.41410896421E+02 -0.61997633116E+02  0.39813161238E+03  0.40507954729E+03  0.47000000000E+01 0. -1.
         -5    1    5    5    0  503 -0.59734264486E+02  0.11132093607E+02  0.41984511424E+03  0.42424534861E+03  0.47000000000E+01 0. -1.
<mgrwt>
<rscale>  0 0.27488950E+03</rscale>
<asrwt>0</asrwt>
<pdfrwt beam="1">  1        1 0.28697660E+00 0.27488950E+03</pdfrwt>
<pdfrwt beam="2">  1       -1 0.15580561E-02 0.27488950E+03</pdfrwt>
<totfact> 0.40748767E+03</totfact>
</mgrwt>
</event>
<event>
 9    1  0.8175317E-001  0.2749066E+03  0.7818608E-02  0.1098504E+00
          1   -1    0    0  501    0  0.00000000000E+00  0.00000000000E+00  0.25569383641E+03  0.25569383641E+03  0.00000000000E+00 0.  1.
         -1   -1    0    0    0  501 -0.00000000000E+00 -0.00000000000E+00 -0.73890725928E+02  0.73890725928E+02  0.00000000000E+00 0.  1.
         35    2    1    2    0    0  0.00000000000E+00 -0.71054273576E-14  0.18180311049E+03  0.32958456234E+03  0.27490655276E+03 0.  0.
         25    2    3    3    0    0  0.34397733466E+02  0.38771829674E+02  0.12052646835E+03  0.18092825907E+03  0.12458710412E+03 0.  0.
         25    2    3    3    0    0 -0.34397733466E+02 -0.38771829674E+02  0.61276642136E+02  0.14865630327E+03  0.12512957599E+03 0.  0.
          5    1    4    4  502    0  0.39276932715E+02  0.14774598201E+02  0.14192286572E+03  0.14807145576E+03  0.47000000000E+01 0.  1.
         -5    1    4    4    0  502 -0.48791992498E+01  0.23997231473E+02 -0.21396397370E+02  0.32856803316E+02  0.47000000000E+01 0.  1.
          5    1    5    5  503    0 -0.12103346710E+02 -0.75452963459E+02  0.36536754998E+01  0.76649070712E+02  0.47000000000E+01 0. -1.
         -5    1    5    5    0  503 -0.22294386755E+02  0.36681133785E+02  0.57622966636E+02  0.72007232557E+02  0.47000000000E+01 0. -1.
<mgrwt>
<rscale>  0 0.27490655E+03</rscale>
<asrwt>0</asrwt>
<pdfrwt beam="1">  1        1 0.39337513E-01 0.27490655E+03</pdfrwt>
<pdfrwt beam="2">  1       -1 0.11367804E-01 0.27490655E+03</pdfrwt>
<totfact> 0.53167471E+03</totfact>
</mgrwt>
</event>
<event>
 9    1  0.8175317E-001  0.2758892E+03  0.7818608E-02  0.1097956E+00
          2   -1    0    0  501    0  0.00000000000E+00  0.00000000000E+00  0.15232254422E+02  0.15232254422E+02  0.00000000000E+00 0.  1.
         -2   -1    0    0    0  501 -0.00000000000E+00 -0.00000000000E+00 -0.12492379303E+04  0.12492379303E+04  0.00000000000E+00 0.  1.
         35    2    1    2    0    0  0.00000000000E+00 -0.35527136788E-14 -0.12340056758E+04  0.12644701847E+04  0.27588918056E+03 0.  0.
         25    2    3    3    0    0  0.36460789335E+02  0.23905081467E+02 -0.78996212073E+03  0.80090775570E+03  0.12454813883E+03 0.  0.
         25    2    3    3    0    0 -0.36460789335E+02 -0.23905081467E+02 -0.44404355512E+03  0.46356242899E+03  0.12575613164E+03 0.  0.
          5    1    4    4  502    0  0.27367995486E+02  0.50270325252E+02 -0.15469463629E+03  0.16501100956E+03  0.47000000000E+01 0. -1.
         -5    1    4    4    0  502  0.90927938485E+01 -0.26365243785E+02 -0.63526748443E+03  0.63589674614E+03  0.47000000000E+01 0. -1.
          5    1    5    5  503    0 -0.68272205464E+02  0.80754786739E+01 -0.37275335895E+03  0.37906920740E+03  0.47000000000E+01 0. -1.
         -5    1    5    5    0  503  0.31811416130E+02 -0.31980560141E+02 -0.71290196173E+02  0.84493221583E+02  0.47000000000E+01 0. -1.
<mgrwt>
<rscale>  0 0.27588918E+03</rscale>
<asrwt>0</asrwt>
<pdfrwt beam="1">  1        2 0.23434246E-02 0.27588918E+03</pdfrwt>
<pdfrwt beam="2">  1       -2 0.19219039E+00 0.27588918E+03</pdfrwt>
<totfact> 0.71187136E+02</totfact>
</mgrwt>
</event>
<event>
 9    1  0.8175317E-001  0.2707163E+03  0.7818608E-02  0.1100870E+00
          2   -1    0    0  501    0  0.00000000000E+00  0.00000000000E+00  0.29945635661E+03  0.29945635661E+03  0.00000000000E+00 0.  1.
         -2   -1    0    0    0  501 -0.00000000000E+00 -0.00000000000E+00 -0.61183651550E+02  0.61183651550E+02  0.00000000000E+00 0.  1.
         35    2    1    2    0    0  0.71054273576E-14  0.17763568394E-14  0.23827270506E+03  0.36064000816E+03  0.27071633403E+03 0.  0.
         25    2    3    3    0    0  0.52258038577E+02 -0.13202544375E+01  0.12668117195E+03  0.18561137800E+03  0.12518314043E+03 0.  0.
         25    2    3    3    0    0 -0.52258038577E+02  0.13202544375E+01  0.11159153311E+03  0.17502863016E+03  0.12429684407E+03 0.  0.
          5    1    4    4  502    0 -0.18246124571E+02  0.85871043521E+01 -0.15944347240E+02  0.26133725949E+02  0.47000000000E+01 0. -1.
         -5    1    4    4    0  502  0.70504163148E+02 -0.99073587895E+01  0.14262551919E+03  0.15947765205E+03  0.47000000000E+01 0. -1.
          5    1    5    5  503    0 -0.40679457280E+02 -0.22363504248E+02 -0.12319030196E+02  0.48257570099E+02  0.47000000000E+01 0. -1.
         -5    1    5    5    0  503 -0.11578581297E+02  0.23683758686E+02  0.12391056331E+03  0.12677106006E+03  0.47000000000E+01 0. -1.
<mgrwt>
<rscale>  0 0.27071633E+03</rscale>
<asrwt>0</asrwt>
<pdfrwt beam="1">  1        2 0.46070208E-01 0.27071633E+03</pdfrwt>
<pdfrwt beam="2">  1       -2 0.94128696E-02 0.27071633E+03</pdfrwt>
<totfact> 0.79396702E+03</totfact>
</mgrwt>
</event>
<event>
 9    1  0.8175317E-001  0.2749236E+03  0.7818608E-02  0.1098494E+00
         -1   -1    0    0    0  501 -0.00000000000E+00  0.00000000000E+00  0.52444432167E+02  0.52444432167E+02  0.00000000000E+00 0. -1.
          1   -1    0    0  501    0  0.00000000000E+00 -0.00000000000E+00 -0.36030043516E+03  0.36030043516E+03  0.00000000000E+00 0. -1.
         35    2    1    2    0    0 -0.35527136788E-14  0.71054273576E-14 -0.30785600300E+03  0.41274486733E+03  0.27492363835E+03 0.  0.
         25    2    3    3    0    0 -0.61992986079E+01 -0.47331358234E+02 -0.10627560011E+03  0.17085679627E+03  0.12497540909E+03 0.  0.
         25    2    3    3    0    0  0.61992986079E+01  0.47331358234E+02 -0.20158040289E+03  0.24188807106E+03  0.12488591320E+03 0.  0.
          5    1    4    4  502    0  0.45380079415E+02 -0.52296244420E+02 -0.94948458337E+02  0.11760760404E+03  0.47000000000E+01 0. -1.
         -5    1    4    4    0  502 -0.51579378023E+02  0.49648861864E+01 -0.11327141770E+02  0.53249192226E+02  0.47000000000E+01 0. -1.
          5    1    5    5  503    0  0.64998103070E+01 -0.19547040494E+02 -0.16334826829E+03  0.16470908014E+03  0.47000000000E+01 0. -1.
         -5    1    5    5    0  503 -0.30051169913E+00  0.66878398727E+02 -0.38232134595E+02  0.77178990919E+02  0.47000000000E+01 0. -1.
<mgrwt>
<rscale>  0 0.27492364E+03</rscale>
<asrwt>0</asrwt>
<pdfrwt beam="1">  1        1 0.55430837E-01 0.27492364E+03</pdfrwt>
<pdfrwt beam="2">  1       -1 0.80683740E-02 0.27492364E+03</pdfrwt>
<totfact> 0.58561424E+03</totfact>
</mgrwt>
</event>
<event>
 9    1  0.8175317E-001  0.2755489E+03  0.7818608E-02  0.1098145E+00
         -1   -1    0    0    0  501 -0.00000000000E+00  0.00000000000E+00  0.16973053921E+02  0.16973053921E+02  0.00000000000E+00 0. -1.
          1   -1    0    0  501    0  0.00000000000E+00 -0.00000000000E+00 -0.11183491808E+04  0.11183491808E+04  0.00000000000E+00 0. -1.
         35    2    1    2    0    0  0.00000000000E+00  0.00000000000E+00 -0.11013761269E+04  0.11353222348E+04  0.27554891361E+03 0.  0.
         25    2    3    3    0    0 -0.30947101034E+02  0.33219820889E+02 -0.69545701536E+03  0.70810365972E+03  0.12525595051E+03 0.  0.
         25    2    3    3    0    0  0.30947101034E+02 -0.33219820889E+02 -0.40591911155E+03  0.42721857503E+03  0.12523620150E+03 0.  0.
          5    1    4    4  502    0  0.32098863374E+02  0.38601744784E+02 -0.50158141373E+03  0.50410954794E+03  0.47000000000E+01 0. -1.
         -5    1    4    4    0  502 -0.63045964407E+02 -0.53819238951E+01 -0.19387560163E+03  0.20399411178E+03  0.47000000000E+01 0. -1.
          5    1    5    5  503    0 -0.40907862313E+02 -0.69329319170E+01 -0.25012688129E+03  0.25358837806E+03  0.47000000000E+01 0.  1.
         -5    1    5    5    0  503  0.71854963346E+02 -0.26286888972E+02 -0.15579223026E+03  0.17363019697E+03  0.47000000000E+01 0.  1.
<mgrwt>
<rscale>  0 0.27554891E+03</rscale>
<asrwt>0</asrwt>
<pdfrwt beam="1">  1        1 0.17205373E+00 0.27554891E+03</pdfrwt>
<pdfrwt beam="2">  1       -1 0.26112389E-02 0.27554891E+03</pdfrwt>
<totfact> 0.60593644E+03</totfact>
</mgrwt>
</event>
<event>
 9    1  0.8175317E-001  0.2801631E+03  0.7818608E-02  0.1095600E+00
         -1   -1    0    0    0  501 -0.00000000000E+00  0.00000000000E+00  0.16735455105E+02  0.16735455105E+02  0.00000000000E+00 0.  1.
          1   -1    0    0  501    0  0.00000000000E+00 -0.00000000000E+00 -0.11725307414E+04  0.11725307414E+04  0.00000000000E+00 0.  1.
         35    2    1    2    0    0  0.71054273576E-14 -0.35527136788E-14 -0.11557952863E+04  0.11892661965E+04  0.28016306381E+03 0.  0.
         25    2    3    3    0    0  0.28634491421E+02  0.13171300374E+02 -0.80117308661E+03  0.81149776202E+03  0.12512747819E+03 0.  0.
         25    2    3    3    0    0 -0.28634491421E+02 -0.13171300374E+02 -0.35462219967E+03  0.37776843447E+03  0.12632762300E+03 0.  0.
          5    1    4    4  502    0 -0.23063487443E+02 -0.39416443289E+02 -0.17279087145E+03  0.17878578162E+03  0.47000000000E+01 0.  1.
         -5    1    4    4    0  502  0.51697978864E+02  0.52587743663E+02 -0.62838221517E+03  0.63271198040E+03  0.47000000000E+01 0.  1.
          5    1    5    5  503    0 -0.12752442443E+02 -0.27210915178E+02 -0.35475381740E+03  0.35605536037E+03  0.47000000000E+01 0. -1.
         -5    1    5    5    0  503 -0.15882048979E+02  0.14039614804E+02  0.13161772768E+00  0.21713074099E+02  0.47000000000E+01 0. -1.
<mgrwt>
<rscale>  0 0.28016306E+03</rscale>
<asrwt>0</asrwt>
<pdfrwt beam="1">  1        1 0.18038940E+00 0.28016306E+03</pdfrwt>
<pdfrwt beam="2">  1       -1 0.25746846E-02 0.28016306E+03</pdfrwt>
<totfact> 0.56628702E+03</totfact>
</mgrwt>
</event>
<event>
 9    1  0.8175317E-001  0.2695915E+03  0.7818608E-02  0.1101514E+00
         -1   -1    0    0    0  501 -0.00000000000E+00  0.00000000000E+00  0.22523871704E+02  0.22523871704E+02  0.00000000000E+00 0. -1.
          1   -1    0    0  501    0  0.00000000000E+00 -0.00000000000E+00 -0.80669492461E+03  0.80669492461E+03  0.00000000000E+00 0. -1.
         35    2    1    2    0    0  0.00000000000E+00 -0.71054273576E-14 -0.78417105291E+03  0.82921879632E+03  0.26959149086E+03 0.  0.
         25    2    3    3    0    0  0.16763669731E+02  0.60669586782E+01 -0.24137127892E+03  0.27183026679E+03  0.12374882240E+03 0.  0.
         25    2    3    3    0    0 -0.16763669731E+02 -0.60669586782E+01 -0.54279977399E+03  0.55738852953E+03  0.12542946063E+03 0.  0.
          5    1    4    4  502    0  0.19539289044E+02  0.43267951789E+02 -0.22638036863E+03  0.23135267617E+03  0.47000000000E+01 0.  1.
         -5    1    4    4    0  502 -0.27756193131E+01 -0.37200993111E+02 -0.14990910281E+02  0.40477590616E+02  0.47000000000E+01 0.  1.
          5    1    5    5  503    0  0.16216892971E+02 -0.54636726635E+02 -0.37966324906E+03  0.38394587145E+03  0.47000000000E+01 0. -1.
         -5    1    5    5    0  503 -0.32980562701E+02  0.48569767957E+02 -0.16313652493E+03  0.17344265808E+03  0.47000000000E+01 0. -1.
<mgrwt>
<rscale>  0 0.26959149E+03</rscale>
<asrwt>0</asrwt>
<pdfrwt beam="1">  1        1 0.12410690E+00 0.26959149E+03</pdfrwt>
<pdfrwt beam="2">  1       -1 0.34652114E-02 0.26959149E+03</pdfrwt>
<totfact> 0.69091805E+03</totfact>
</mgrwt>
</event>
<event>
 9    1  0.8175317E-001  0.2717635E+03  0.7818608E-02  0.1100275E+00
         -2   -1    0    0    0  501 -0.00000000000E+00  0.00000000000E+00  0.74451248696E+01  0.74451248696E+01  0.00000000000E+00 0.  1.
          2   -1    0    0  501    0  0.00000000000E+00 -0.00000000000E+00 -0.24799920894E+04  0.24799920894E+04  0.00000000000E+00 0.  1.
         35    2    1    2    0    0 -0.14210854715E-13  0.35527136788E-14 -0.24725469645E+04  0.24874372142E+04  0.27176350587E+03 0.  0.
         25    2    3    3    0    0  0.40737997615E+02  0.24083888124E+02 -0.14600268990E+04  0.14661923461E+04  0.12570533729E+03 0.  0.
         25    2    3    3    0    0 -0.40737997615E+02 -0.24083888124E+02 -0.10125200655E+04  0.10212448681E+04  0.12451738656E+03 0.  0.
          5    1    4    4  502    0 -0.87627621821E+01 -0.76623538494E+00 -0.71954639939E+01  0.12297878671E+02  0.47000000000E+01 0. -1.
         -5    1    4    4    0  502  0.49500759797E+02  0.24850123508E+02 -0.14528314350E+04  0.14538944674E+04  0.47000000000E+01 0. -1.
          5    1    5    5  503    0  0.42082280728E+02  0.10022835042E+02 -0.32818906261E+03  0.33106121245E+03  0.47000000000E+01 0. -1.
         -5    1    5    5    0  503 -0.82820278342E+02 -0.34106723165E+02 -0.68433100286E+03  0.69018365567E+03  0.47000000000E+01 0. -1.
<mgrwt>
<rscale>  0 0.27176351E+03</rscale>
<asrwt>0</asrwt>
<pdfrwt beam="1">  1        2 0.38153762E+00 0.27176351E+03</pdfrwt>
<pdfrwt beam="2">  1       -2 0.11454027E-02 0.27176351E+03</pdfrwt>
<totfact> 0.71969760E+03</totfact>
</mgrwt>
</event>
<event>
 9    1  0.8175317E-001  0.2740297E+03  0.7818608E-02  0.1098995E+00
          2   -1    0    0  501    0  0.00000000000E+00  0.00000000000E+00  0.15788363050E+04  0.15788363050E+04  0.00000000000E+00 0.  1.
         -2   -1    0    0    0  501 -0.00000000000E+00 -0.00000000000E+00 -0.11890449234E+02  0.11890449234E+02  0.00000000000E+00 0.  1.
         35    2    1    2    0    0  0.71054273576E-14 -0.71054273576E-14  0.15669458558E+04  0.15907267543E+04  0.27402972783E+03 0.  0.
         25    2    3    3    0    0 -0.54573540041E+02  0.11823003985E+02  0.83168268052E+03  0.84290289199E+03  0.12518446207E+03 0.  0.
         25    2    3    3    0    0  0.54573540041E+02 -0.11823003985E+02  0.73526317529E+03  0.74782386230E+03  0.12454130793E+03 0.  0.
          5    1    4    4  502    0 -0.17604782189E+02  0.66442595665E+02  0.49684071904E+03  0.50159479360E+03  0.47000000000E+01 0. -1.
         -5    1    4    4    0  502 -0.36968757852E+02 -0.54619591680E+02  0.33484196148E+03  0.34130809838E+03  0.47000000000E+01 0. -1.
          5    1    5    5  503    0  0.74561510072E+02  0.44023327374E+00  0.22659583710E+03  0.23859458498E+03  0.47000000000E+01 0. -1.
         -5    1    5    5    0  503 -0.19987970031E+02 -0.12263237259E+02  0.50866733819E+03  0.50922927732E+03  0.47000000000E+01 0. -1.
<mgrwt>
<rscale>  0 0.27402973E+03</rscale>
<asrwt>0</asrwt>
<pdfrwt beam="1">  1        2 0.24289773E+00 0.27402973E+03</pdfrwt>
<pdfrwt beam="2">  1       -2 0.18293011E-02 0.27402973E+03</pdfrwt>
<totfact> 0.10916465E+04</totfact>
</mgrwt>
</event>
<event>
 9    1  0.8175317E-001  0.2759565E+03  0.7818608E-02  0.1097918E+00
         -2   -1    0    0    0  501 -0.00000000000E+00  0.00000000000E+00  0.19481783215E+04  0.19481783215E+04  0.00000000000E+00 0.  1.
          2   -1    0    0  501    0  0.00000000000E+00 -0.00000000000E+00 -0.97722046745E+01  0.97722046745E+01  0.00000000000E+00 0.  1.
         35    2    1    2    0    0  0.00000000000E+00  0.00000000000E+00  0.19384061168E+04  0.19579505262E+04  0.27595649875E+03 0.  0.
         25    2    3    3    0    0  0.48547043693E+02 -0.32542102080E+02  0.97940100292E+03  0.98905972198E+03  0.12488797090E+03 0.  0.
         25    2    3    3    0    0 -0.48547043693E+02  0.32542102080E+02  0.95900511392E+03  0.96889080420E+03  0.12507109212E+03 0.  0.
          5    1    4    4  502    0  0.14358538220E+02 -0.77579097377E+02  0.65276110749E+03  0.65752858297E+03  0.47000000000E+01 0. -1.
         -5    1    4    4    0  502  0.34188505473E+02  0.45036995297E+02  0.32663989543E+03  0.33153113902E+03  0.47000000000E+01 0. -1.
          5    1    5    5  503    0 -0.39492384985E+02 -0.31537437554E+02  0.70158917111E+03  0.70342285538E+03  0.47000000000E+01 0.  1.
         -5    1    5    5    0  503 -0.90546587074E+01  0.64079539634E+02  0.25741594281E+03  0.26546794883E+03  0.47000000000E+01 0.  1.
<mgrwt>
<rscale>  0 0.27595650E+03</rscale>
<asrwt>0</asrwt>
<pdfrwt beam="1">  1        2 0.15034177E-02 0.27595650E+03</pdfrwt>
<pdfrwt beam="2">  1       -2 0.29971943E+00 0.27595650E+03</pdfrwt>
<totfact> 0.29930652E+02</totfact>
</mgrwt>
</event>
<event>
 9    1  0.8175317E-001  0.2732649E+03  0.7818608E-02  0.1099425E+00
          2   -1    0    0  501    0  0.00000000000E+00  0.00000000000E+00  0.17466433552E+03  0.17466433552E+03  0.00000000000E+00 0.  1.
         -2   -1    0    0    0  501 -0.00000000000E+00 -0.00000000000E+00 -0.10688176284E+03  0.10688176284E+03  0.00000000000E+00 0.  1.
         35    2    1    2    0    0  0.00000000000E+00  0.71054273576E-14  0.67782572677E+02  0.28154609836E+03  0.27326494167E+03 0.  0.
         25    2    3    3    0    0 -0.14307248293E+02 -0.49625697096E+02  0.12560179124E+02  0.13604831834E+03  0.12523569642E+03 0.  0.
         25    2    3    3    0    0  0.14307248293E+02  0.49625697096E+02  0.55222393553E+02  0.14549778002E+03  0.12430882542E+03 0.  0.
          5    1    4    4  502    0 -0.49164974880E+02 -0.26220459970E+02 -0.39898006140E+02  0.68692417121E+02  0.47000000000E+01 0.  1.
         -5    1    4    4    0  502  0.34857726587E+02 -0.23405237126E+02  0.52458185264E+02  0.67355901218E+02  0.47000000000E+01 0.  1.
          5    1    5    5  503    0  0.30087051557E+02 -0.27543948862E+01 -0.30829551327E+02  0.43420831379E+02  0.47000000000E+01 0.  1.
         -5    1    5    5    0  503 -0.15779803264E+02  0.52380091982E+02  0.86051944880E+02  0.10207694865E+03  0.47000000000E+01 0.  1.
<mgrwt>
<rscale>  0 0.27326494E+03</rscale>
<asrwt>0</asrwt>
<pdfrwt beam="1">  1        2 0.26871436E-01 0.27326494E+03</pdfrwt>
<pdfrwt beam="2">  1       -2 0.16443348E-01 0.27326494E+03</pdfrwt>
<totfact> 0.57751399E+03</totfact>
</mgrwt>
</event>
<event>
 9    1  0.8175317E-001  0.2696841E+03  0.7818608E-02  0.1101461E+00
          2   -1    0    0  501    0  0.00000000000E+00  0.00000000000E+00  0.27425401171E+04  0.27425401171E+04  0.00000000000E+00 0. -1.
         -2   -1    0    0    0  501 -0.00000000000E+00 -0.00000000000E+00 -0.66297567328E+01  0.66297567328E+01  0.00000000000E+00 0. -1.
         35    2    1    2    0    0  0.35527136788E-14 -0.71054273576E-14  0.27359103604E+04  0.27491698739E+04  0.26968406558E+03 0.  0.
         25    2    3    3    0    0  0.21339378445E+02  0.29339814642E+02  0.10117782261E+04  0.10200936161E+04  0.12481832038E+03 0.  0.
         25    2    3    3    0    0 -0.21339378445E+02 -0.29339814642E+02  0.17241321344E+04  0.17290762578E+04  0.12552647002E+03 0.  0.
          5    1    4    4  502    0  0.17471281689E+02 -0.88932778099E+01  0.92325244036E+03  0.92347251973E+03  0.47000000000E+01 0. -1.
         -5    1    4    4    0  502  0.38680967553E+01  0.38233092452E+02  0.88525785701E+02  0.96621096377E+02  0.47000000000E+01 0. -1.
          5    1    5    5  503    0  0.69071582980E-01  0.44798464201E+02  0.36874242714E+03  0.37148347842E+03  0.47000000000E+01 0.  1.
         -5    1    5    5    0  503 -0.21408450028E+02 -0.74138278843E+02  0.13553897072E+04  0.13575927794E+04  0.47000000000E+01 0.  1.
<mgrwt>
<rscale>  0 0.26968407E+03</rscale>
<asrwt>0</asrwt>
<pdfrwt beam="1">  1        2 0.42192834E+00 0.26968407E+03</pdfrwt>
<pdfrwt beam="2">  1       -2 0.10199648E-02 0.26968407E+03</pdfrwt>
<totfact> 0.60873843E+03</totfact>
</mgrwt>
</event>
<event>
 9    1  0.8175317E-001  0.2819970E+03  0.7818608E-02  0.1094603E+00
         -1   -1    0    0    0  501 -0.00000000000E+00  0.00000000000E+00  0.65609214083E+02  0.65609214083E+02  0.00000000000E+00 0. -1.
          1   -1    0    0  501    0  0.00000000000E+00 -0.00000000000E+00 -0.30301501142E+03  0.30301501142E+03  0.00000000000E+00 0. -1.
         35    2    1    2    0    0  0.35527136788E-14  0.00000000000E+00 -0.23740579734E+03  0.36862422551E+03  0.28199699825E+03 0.  0.
         25    2    3    3    0    0  0.16415958270E+02  0.58816170986E+02 -0.13114314258E+03  0.19393278798E+03  0.12916104968E+03 0.  0.
         25    2    3    3    0    0 -0.16415958270E+02 -0.58816170986E+02 -0.10626265477E+03  0.17469143752E+03  0.12448502276E+03 0.  0.
          5    1    4    4  502    0  0.15916442712E+02 -0.15178756444E+02  0.17052093948E+02  0.28223956204E+02  0.47000000000E+01 0.  1.
         -5    1    4    4    0  502  0.49951555740E+00  0.73994927430E+02 -0.14819523652E+03  0.16570883178E+03  0.47000000000E+01 0.  1.
          5    1    5    5  503    0 -0.30975616795E+02 -0.71457609324E+02 -0.12704824497E+02  0.79051763621E+02  0.47000000000E+01 0. -1.
         -5    1    5    5    0  503  0.14559658525E+02  0.12641438339E+02 -0.93557830269E+02  0.95639673903E+02  0.47000000000E+01 0. -1.
<mgrwt>
<rscale>  0 0.28199700E+03</rscale>
<asrwt>0</asrwt>
<pdfrwt beam="1">  1        1 0.46617692E-01 0.28199700E+03</pdfrwt>
<pdfrwt beam="2">  1       -1 0.10093726E-01 0.28199700E+03</pdfrwt>
<totfact> 0.51700412E+03</totfact>
</mgrwt>
</event>
<event>
 9    1  0.8175317E-001  0.2742947E+03  0.7818608E-02  0.1098846E+00
         -4   -1    0    0    0  501 -0.00000000000E+00  0.00000000000E+00  0.18951138390E+02  0.18951138390E+02  0.00000000000E+00 0. -1.
          4   -1    0    0  501    0  0.00000000000E+00 -0.00000000000E+00 -0.99252090248E+03  0.99252090248E+03  0.00000000000E+00 0. -1.
         35    2    1    2    0    0 -0.71054273576E-14 -0.35527136788E-14 -0.97356976409E+03  0.10114720409E+04  0.27429473912E+03 0.  0.
         25    2    3    3    0    0 -0.54987588248E+02 -0.82398062107E+00 -0.54305090236E+03  0.55994607118E+03  0.12494401253E+03 0.  0.
         25    2    3    3    0    0  0.54987588248E+02  0.82398062107E+00 -0.43051886173E+03  0.45152596969E+03  0.12451866204E+03 0.  0.
          5    1    4    4  502    0 -0.50200885613E+02  0.45900972397E+02 -0.15897464949E+03  0.17297993342E+03  0.47000000000E+01 0.  1.
         -5    1    4    4    0  502 -0.47867026345E+01 -0.46724953018E+02 -0.38407625287E+03  0.38696613776E+03  0.47000000000E+01 0.  1.
          5    1    5    5  503    0  0.86705372266E+02 -0.19956753639E+02 -0.21638631232E+03  0.23401115306E+03  0.47000000000E+01 0. -1.
         -5    1    5    5    0  503 -0.31717784019E+02  0.20780734260E+02 -0.21413254941E+03  0.21751481663E+03  0.47000000000E+01 0. -1.
<mgrwt>
<rscale>  0 0.27429474E+03</rscale>
<asrwt>0</asrwt>
<pdfrwt beam="1">  1        4 0.15269557E+00 0.27429474E+03</pdfrwt>
<pdfrwt beam="2">  1       -4 0.29155588E-02 0.27429474E+03</pdfrwt>
<totfact> 0.31882624E+02</totfact>
</mgrwt>
</event>
<event>
 9    1  0.8175317E-001  0.2735687E+03  0.7818608E-02  0.1099254E+00
          1   -1    0    0  501    0  0.00000000000E+00  0.00000000000E+00  0.11674723104E+04  0.11674723104E+04  0.00000000000E+00 0. -1.
         -1   -1    0    0    0  501 -0.00000000000E+00 -0.00000000000E+00 -0.16026034572E+02  0.16026034572E+02  0.00000000000E+00 0. -1.
         35    2    1    2    0    0  0.14210854715E-13 -0.71054273576E-14  0.11514462758E+04  0.11834983449E+04  0.27356865030E+03 0.  0.
         25    2    3    3    0    0 -0.45906875447E+02  0.30139335324E+02  0.60259275745E+03  0.61798506349E+03  0.12558537579E+03 0.  0.
         25    2    3    3    0    0  0.45906875447E+02 -0.30139335324E+02  0.54885351834E+03  0.56551328145E+03  0.12469669664E+03 0.  0.
          5    1    4    4  502    0 -0.74493383836E+02 -0.14517381197E+02  0.24728842167E+03  0.25871542684E+03  0.47000000000E+01 0.  1.
         -5    1    4    4    0  502  0.28586508389E+02  0.44656716521E+02  0.35530433578E+03  0.35926963664E+03  0.47000000000E+01 0.  1.
          5    1    5    5  503    0  0.30733019326E+01  0.17418949822E+01 -0.58098848533E+01  0.82658420567E+01  0.47000000000E+01 0.  1.
         -5    1    5    5    0  503  0.42833573515E+02 -0.31881230306E+02  0.55466340320E+03  0.55724743940E+03  0.47000000000E+01 0.  1.
<mgrwt>
<rscale>  0 0.27356865E+03</rscale>
<asrwt>0</asrwt>
<pdfrwt beam="1">  1        1 0.17961106E+00 0.27356865E+03</pdfrwt>
<pdfrwt beam="2">  1       -1 0.24655447E-02 0.27356865E+03</pdfrwt>
<totfact> 0.60825174E+03</totfact>
</mgrwt>
</event>
<event>
 9    1  0.8175317E-001  0.2754778E+03  0.7818608E-02  0.1098185E+00
          3   -1    0    0  501    0  0.00000000000E+00  0.00000000000E+00  0.32340520888E+02  0.32340520888E+02  0.00000000000E+00 0. -1.
         -3   -1    0    0    0  501 -0.00000000000E+00 -0.00000000000E+00 -0.58663256019E+03  0.58663256019E+03  0.00000000000E+00 0. -1.
         35    2    1    2    0    0 -0.44408920985E-14 -0.14210854715E-13 -0.55429203930E+03  0.61897308107E+03  0.27547778543E+03 0.  0.
         25    2    3    3    0    0  0.60936208636E-01 -0.54052904182E+02 -0.20466036134E+03  0.24610531288E+03  0.12553979989E+03 0.  0.
         25    2    3    3    0    0 -0.60936208636E-01  0.54052904182E+02 -0.34963167796E+03  0.37286776820E+03  0.11775543370E+03 0.  0.
          5    1    4    4  502    0 -0.67012945181E+01 -0.57942726451E+02 -0.20928534095E+02  0.62147891647E+02  0.47000000000E+01 0.  1.
         -5    1    4    4    0  502  0.67622307268E+01  0.38898222691E+01 -0.18373182725E+03  0.18395742123E+03  0.47000000000E+01 0.  1.
          5    1    5    5  503    0 -0.42365668092E+02  0.11855080654E+01 -0.50324371070E+02  0.65961258219E+02  0.47000000000E+01 0.  1.
         -5    1    5    5    0  503  0.42304731883E+02  0.52867396117E+02 -0.29930730689E+03  0.30690650998E+03  0.47000000000E+01 0.  1.
<mgrwt>
<rscale>  0 0.27547779E+03</rscale>
<asrwt>0</asrwt>
<pdfrwt beam="1">  1        3 0.49754651E-02 0.27547779E+03</pdfrwt>
<pdfrwt beam="2">  1       -3 0.90251156E-01 0.27547779E+03</pdfrwt>
<totfact> 0.66599607E+02</totfact>
</mgrwt>
</event>
<event>
 9    1  0.8175317E-001  0.2796428E+03  0.7818608E-02  0.1095884E+00
          3   -1    0    0  501    0  0.00000000000E+00  0.00000000000E+00  0.99787924341E+02  0.99787924341E+02  0.00000000000E+00 0.  1.
         -3   -1    0    0    0  501 -0.00000000000E+00 -0.00000000000E+00 -0.19591566311E+03  0.19591566311E+03  0.00000000000E+00 0.  1.
         35    2    1    2    0    0 -0.71054273576E-14 -0.71054273576E-14 -0.96127738767E+02  0.29570358745E+03  0.27964275330E+03 0.  0.
         25    2    3    3    0    0 -0.33973868728E+02  0.25549119592E+02  0.22319509592E+01  0.13046982832E+03  0.12333050405E+03 0.  0.
         25    2    3    3    0    0  0.33973868728E+02 -0.25549119592E+02 -0.98359689727E+02  0.16523375913E+03  0.12577990827E+03 0.  0.
          5    1    4    4  502    0  0.17805141059E+02 -0.11887449381E+02  0.47304650239E+02  0.52135922694E+02  0.47000000000E+01 0. -1.
         -5    1    4    4    0  502 -0.51779009787E+02  0.37436568973E+02 -0.45072699280E+02  0.78333905630E+02  0.47000000000E+01 0. -1.
          5    1    5    5  503    0 -0.12071098103E+02  0.31392415074E+01 -0.10894755504E+03  0.10975985603E+03  0.47000000000E+01 0. -1.
         -5    1    5    5    0  503  0.46044966830E+02 -0.28688361099E+02  0.10587865312E+02  0.55473903097E+02  0.47000000000E+01 0. -1.
<mgrwt>
<rscale>  0 0.27964275E+03</rscale>
<asrwt>0</asrwt>
<pdfrwt beam="1">  1        3 0.15351989E-01 0.27964275E+03</pdfrwt>
<pdfrwt beam="2">  1       -3 0.30140871E-01 0.27964275E+03</pdfrwt>
<totfact> 0.96683192E+02</totfact>
</mgrwt>
</event>
<event>
 9    1  0.8175317E-001  0.2791330E+03  0.7818608E-02  0.1096163E+00
         -1   -1    0    0    0  501 -0.00000000000E+00  0.00000000000E+00  0.29651730211E+02  0.29651730211E+02  0.00000000000E+00 0.  1.
          1   -1    0    0  501    0  0.00000000000E+00 -0.00000000000E+00 -0.65691973944E+03  0.65691973944E+03  0.00000000000E+00 0.  1.
         35    2    1    2    0    0 -0.35527136788E-14  0.00000000000E+00 -0.62726800923E+03  0.68657146965E+03  0.27913299256E+03 0.  0.
         25    2    3    3    0    0 -0.27446316330E+02 -0.24855923779E+02 -0.18767098719E+03  0.22802213952E+03  0.12410712893E+03 0.  0.
         25    2    3    3    0    0  0.27446316330E+02  0.24855923779E+02 -0.43959702204E+03  0.45854933013E+03  0.12510327394E+03 0.  0.
          5    1    4    4  502    0 -0.29958485317E+02 -0.12683259514E+02 -0.20419171497E+03  0.20682050763E+03  0.47000000000E+01 0. -1.
         -5    1    4    4    0  502  0.25121689875E+01 -0.12172664265E+02  0.16520727781E+02  0.21201631889E+02  0.47000000000E+01 0. -1.
          5    1    5    5  503    0 -0.10496783904E+02 -0.25227930247E+02 -0.33706981670E+03  0.33820819367E+03  0.47000000000E+01 0.  1.
         -5    1    5    5    0  503  0.37943100234E+02  0.50083854025E+02 -0.10252720533E+03  0.12034113645E+03  0.47000000000E+01 0.  1.
<mgrwt>
<rscale>  0 0.27913299E+03</rscale>
<asrwt>0</asrwt>
<pdfrwt beam="1">  1        1 0.10106457E+00 0.27913299E+03</pdfrwt>
<pdfrwt beam="2">  1       -1 0.45618050E-02 0.27913299E+03</pdfrwt>
<totfact> 0.62306733E+03</totfact>
</mgrwt>
</event>
<event>
 9    1  0.8175317E-001  0.2714401E+03  0.7818608E-02  0.1100458E+00
         -1   -1    0    0    0  501 -0.00000000000E+00  0.00000000000E+00  0.10537629425E+03  0.10537629425E+03  0.00000000000E+00 0. -1.
          1   -1    0    0  501    0  0.00000000000E+00 -0.00000000000E+00 -0.17480150396E+03  0.17480150396E+03  0.00000000000E+00 0. -1.
         35    2    1    2    0    0  0.00000000000E+00  0.71054273576E-14 -0.69425209715E+02  0.28017779821E+03  0.27144012022E+03 0.  0.
         25    2    3    3    0    0  0.18572709616E+02  0.49208441491E+02 -0.43863035859E+02  0.14236888175E+03  0.12481392679E+03 0.  0.
         25    2    3    3    0    0 -0.18572709616E+02 -0.49208441491E+02 -0.25562173856E+02  0.13780891646E+03  0.12478564207E+03 0.  0.
          5    1    4    4  502    0  0.10353184686E+02 -0.29284808052E+02  0.22910877992E+02  0.38881701945E+02  0.47000000000E+01 0. -1.
         -5    1    4    4    0  502  0.82195249297E+01  0.78493249543E+02 -0.66773913851E+02  0.10348717981E+03  0.47000000000E+01 0. -1.
          5    1    5    5  503    0 -0.53048117863E+02  0.92450113132E+01  0.18070114369E+02  0.56992912509E+02  0.47000000000E+01 0. -1.
         -5    1    5    5    0  503  0.34475408247E+02 -0.58453452804E+02 -0.43632288225E+02  0.80816003949E+02  0.47000000000E+01 0. -1.
<mgrwt>
<rscale>  0 0.27144012E+03</rscale>
<asrwt>0</asrwt>
<pdfrwt beam="1">  1        1 0.26892539E-01 0.27144012E+03</pdfrwt>
<pdfrwt beam="2">  1       -1 0.16211738E-01 0.27144012E+03</pdfrwt>
<totfact> 0.49049285E+03</totfact>
</mgrwt>
</event>
<event>
 9    1  0.8175317E-001  0.2822212E+03  0.7818608E-02  0.1094482E+00
         -1   -1    0    0    0  501 -0.00000000000E+00  0.00000000000E+00  0.36624741585E+02  0.36624741585E+02  0.00000000000E+00 0. -1.
          1   -1    0    0  501    0  0.00000000000E+00 -0.00000000000E+00 -0.54368169661E+03  0.54368169661E+03  0.00000000000E+00 0. -1.
         35    2    1    2    0    0  0.00000000000E+00 -0.71054273576E-14 -0.50705695503E+03  0.58030643820E+03  0.28222120149E+03 0.  0.
         25    2    3    3    0    0  0.44281570298E+02 -0.10233390627E+02 -0.35244002153E+03  0.37704627677E+03  0.12603311590E+03 0.  0.
         25    2    3    3    0    0 -0.44281570298E+02  0.10233390627E+02 -0.15461693350E+03  0.20326016142E+03  0.12386572304E+03 0.  0.
          5    1    4    4  502    0 -0.90659479960E+01 -0.49875732332E+02 -0.68230814557E+02  0.85131158478E+02  0.47000000000E+01 0. -1.
         -5    1    4    4    0  502  0.53347518294E+02  0.39642341705E+02 -0.28420920697E+03  0.29191511830E+03  0.47000000000E+01 0. -1.
          5    1    5    5  503    0 -0.24464689045E+02  0.66782915634E+02 -0.93123231845E+02  0.11727107546E+03  0.47000000000E+01 0.  1.
         -5    1    5    5    0  503 -0.19816881253E+02 -0.56549525007E+02 -0.61493701657E+02  0.85989085962E+02  0.47000000000E+01 0.  1.
<mgrwt>
<rscale>  0 0.28222120E+03</rscale>
<asrwt>0</asrwt>
<pdfrwt beam="1">  1        1 0.83643336E-01 0.28222120E+03</pdfrwt>
<pdfrwt beam="2">  1       -1 0.56345758E-02 0.28222120E+03</pdfrwt>
<totfact> 0.59056737E+03</totfact>
</mgrwt>
</event>
<event>
 9    1  0.8175317E-001  0.3338739E+03  0.7818608E-02  0.1069436E+00
         -2   -1    0    0    0  501 -0.00000000000E+00  0.00000000000E+00  0.30172175315E+02  0.30172175315E+02  0.00000000000E+00 0. -1.
          2   -1    0    0  501    0  0.00000000000E+00 -0.00000000000E+00 -0.92363056799E+03  0.92363056799E+03  0.00000000000E+00 0. -1.
         35    2    1    2    0    0  0.00000000000E+00  0.00000000000E+00 -0.89345839268E+03  0.95380274331E+03  0.33387388891E+03 0.  0.
         25    2    3    3    0    0 -0.44254498120E+02 -0.40111746255E+02 -0.18011930911E+03  0.22723460758E+03  0.12500075429E+03 0.  0.
         25    2    3    3    0    0  0.44254498120E+02  0.40111746255E+02 -0.71333908356E+03  0.72656813573E+03  0.12442345007E+03 0.  0.
          5    1    4    4  502    0 -0.61267263164E+02 -0.75436763425E+02 -0.11079121663E+03  0.14744886061E+03  0.47000000000E+01 0.  1.
         -5    1    4    4    0  502  0.17012765045E+02  0.35325017170E+02 -0.69328092478E+02  0.79785746967E+02  0.47000000000E+01 0.  1.
          5    1    5    5  503    0  0.32025767879E+01  0.49414838761E+02 -0.99217739146E+02  0.11098798380E+03  0.47000000000E+01 0. -1.
         -5    1    5    5    0  503  0.41051921332E+02 -0.93030925056E+01 -0.61412134442E+03  0.61558015193E+03  0.47000000000E+01 0. -1.
<mgrwt>
<rscale>  0 0.33387389E+03</rscale>
<asrwt>0</asrwt>
<pdfrwt beam="1">  1        2 0.14209700E+00 0.33387389E+03</pdfrwt>
<pdfrwt beam="2">  1       -2 0.46418733E-02 0.33387389E+03</pdfrwt>
<totfact> 0.64542732E+03</totfact>
</mgrwt>
</event>
<event>
 9    1  0.8175317E-001  0.2746474E+03  0.7818608E-02  0.1098649E+00
         -2   -1    0    0    0  501 -0.00000000000E+00  0.00000000000E+00  0.81678419203E+01  0.81678419203E+01  0.00000000000E+00 0.  1.
          2   -1    0    0  501    0  0.00000000000E+00 -0.00000000000E+00 -0.23087854500E+04  0.23087854500E+04  0.00000000000E+00 0.  1.
         35    2    1    2    0    0 -0.71054273576E-14  0.00000000000E+00 -0.23006176081E+04  0.23169532920E+04  0.27464737089E+03 0.  0.
         25    2    3    3    0    0  0.40511249730E+02 -0.26690408961E+02 -0.90416174917E+03  0.91410279425E+03  0.12538704288E+03 0.  0.
         25    2    3    3    0    0 -0.40511249730E+02  0.26690408961E+02 -0.13964558590E+04  0.14028504977E+04  0.12468766429E+03 0.  0.
          5    1    4    4  502    0  0.81671183022E+02 -0.29165456577E+02 -0.72572728457E+03  0.73090559415E+03  0.47000000000E+01 0. -1.
         -5    1    4    4    0  502 -0.41159933292E+02  0.24750476157E+01 -0.17843446460E+03  0.18319720010E+03  0.47000000000E+01 0. -1.
          5    1    5    5  503    0 -0.54525216953E+02 -0.10366461757E+02 -0.26986253153E+03  0.27555097303E+03  0.47000000000E+01 0.  1.
         -5    1    5    5    0  503  0.14013967223E+02  0.37056870717E+02 -0.11265933274E+04  0.11272995247E+04  0.47000000000E+01 0.  1.
<mgrwt>
<rscale>  0 0.27464737E+03</rscale>
<asrwt>0</asrwt>
<pdfrwt beam="1">  1        2 0.35519788E+00 0.27464737E+03</pdfrwt>
<pdfrwt beam="2">  1       -2 0.12565907E-02 0.27464737E+03</pdfrwt>
<totfact> 0.77844537E+03</totfact>
</mgrwt>
</event>
<event>
 9    1  0.8175317E-001  0.2737166E+03  0.7818608E-02  0.1099171E+00
          2   -1    0    0  501    0  0.00000000000E+00  0.00000000000E+00  0.14244063093E+04  0.14244063093E+04  0.00000000000E+00 0. -1.
         -2   -1    0    0    0  501 -0.00000000000E+00 -0.00000000000E+00 -0.13149476496E+02  0.13149476496E+02  0.00000000000E+00 0. -1.
         35    2    1    2    0    0 -0.71054273576E-14  0.00000000000E+00  0.14112568328E+04  0.14375557858E+04  0.27371662197E+03 0.  0.
         25    2    3    3    0    0 -0.42060385382E+02  0.31282058334E+02  0.81734789875E+03  0.82849521726E+03  0.12489633395E+03 0.  0.
         25    2    3    3    0    0  0.42060385382E+02 -0.31282058334E+02  0.59390893405E+03  0.60906056853E+03  0.12441587924E+03 0.  0.
          5    1    4    4  502    0 -0.66158076908E+01 -0.22166835645E+02  0.28393577294E+02  0.36924554776E+02  0.47000000000E+01 0.  1.
         -5    1    4    4    0  502 -0.35444577692E+02  0.53448893978E+02  0.78895432146E+03  0.79157066248E+03  0.47000000000E+01 0.  1.
          5    1    5    5  503    0 -0.32991203145E+02  0.13900192920E+02  0.30488740357E+03  0.30701800225E+03  0.47000000000E+01 0. -1.
         -5    1    5    5    0  503  0.75051588528E+02 -0.45182251254E+02  0.28902153048E+03  0.30204256628E+03  0.47000000000E+01 0. -1.
<mgrwt>
<rscale>  0 0.27371662E+03</rscale>
<asrwt>0</asrwt>
<pdfrwt beam="1">  1        2 0.21913931E+00 0.27371662E+03</pdfrwt>
<pdfrwt beam="2">  1       -2 0.20229975E-02 0.27371662E+03</pdfrwt>
<totfact> 0.11389404E+04</totfact>
</mgrwt>
</event>
<event>
 9    1  0.8175317E-001  0.2723747E+03  0.7818608E-02  0.1099928E+00
         -2   -1    0    0    0  501 -0.00000000000E+00  0.00000000000E+00  0.18571287545E+02  0.18571287545E+02  0.00000000000E+00 0.  1.
          2   -1    0    0  501    0  0.00000000000E+00 -0.00000000000E+00 -0.99869199986E+03  0.99869199986E+03  0.00000000000E+00 0.  1.
         35    2    1    2    0    0 -0.14210854715E-13  0.00000000000E+00 -0.98012071232E+03  0.10172632874E+04  0.27237471468E+03 0.  0.
         25    2    3    3    0    0 -0.44319719634E+02  0.21527431370E+02 -0.39784525483E+03  0.41974394403E+03  0.12440443687E+03 0.  0.
         25    2    3    3    0    0  0.44319719634E+02 -0.21527431370E+02 -0.58227545749E+03  0.59751934338E+03  0.12472766119E+03 0.  0.
          5    1    4    4  502    0 -0.76841079489E+02 -0.11545340296E+02 -0.16719546026E+03  0.18442954836E+03  0.47000000000E+01 0. -1.
         -5    1    4    4    0  502  0.32521359855E+02  0.33072771665E+02 -0.23064979457E+03  0.23531439567E+03  0.47000000000E+01 0. -1.
          5    1    5    5  503    0  0.23279982829E+02 -0.73817499396E+02 -0.33869454636E+03  0.34745800689E+03  0.47000000000E+01 0.  1.
         -5    1    5    5    0  503  0.21039736805E+02  0.52290068026E+02 -0.24358091113E+03  0.25006133649E+03  0.47000000000E+01 0.  1.
<mgrwt>
<rscale>  0 0.27237471E+03</rscale>
<asrwt>0</asrwt>
<pdfrwt beam="1">  1        2 0.15364493E+00 0.27237471E+03</pdfrwt>
<pdfrwt beam="2">  1       -2 0.28571209E-02 0.27237471E+03</pdfrwt>
<totfact> 0.11949094E+04</totfact>
</mgrwt>
</event>
<event>
 9    1  0.8175317E-001  0.2742382E+03  0.7818608E-02  0.1098878E+00
         -2   -1    0    0    0  501 -0.00000000000E+00  0.00000000000E+00  0.64024592268E+02  0.64024592268E+02  0.00000000000E+00 0. -1.
          2   -1    0    0  501    0  0.00000000000E+00 -0.00000000000E+00 -0.29366295125E+03  0.29366295125E+03  0.00000000000E+00 0. -1.
         35    2    1    2    0    0  0.71054273576E-14  0.00000000000E+00 -0.22963835898E+03  0.35768754352E+03  0.27423822285E+03 0.  0.
         25    2    3    3    0    0  0.47369082797E+02  0.14820535584E+02 -0.74634224232E+02  0.15274628032E+03  0.12368379217E+03 0.  0.
         25    2    3    3    0    0 -0.47369082797E+02 -0.14820535584E+02 -0.15500413475E+03  0.20494126319E+03  0.12454381273E+03 0.  0.
          5    1    4    4  502    0  0.54257012281E+02  0.31888214101E+02 -0.10169394192E+03  0.11968470831E+03  0.47000000000E+01 0. -1.
         -5    1    4    4    0  502 -0.68879294839E+01 -0.17067678517E+02  0.27059717689E+02  0.33061572013E+02  0.47000000000E+01 0. -1.
          5    1    5    5  503    0 -0.54942513187E+02  0.46077907468E+02 -0.93572349611E+02  0.11798189659E+03  0.47000000000E+01 0.  1.
         -5    1    5    5    0  503  0.75734303899E+01 -0.60898443052E+02 -0.61431785138E+02  0.86959366599E+02  0.47000000000E+01 0.  1.
<mgrwt>
<rscale>  0 0.27423822E+03</rscale>
<asrwt>0</asrwt>
<pdfrwt beam="1">  1        2 0.45178916E-01 0.27423822E+03</pdfrwt>
<pdfrwt beam="2">  1       -2 0.98499372E-02 0.27423822E+03</pdfrwt>
<totfact> 0.75494307E+03</totfact>
</mgrwt>
</event>
<event>
 9    1  0.8175317E-001  0.2590977E+03  0.7818608E-02  0.1107687E+00
          3   -1    0    0  501    0  0.00000000000E+00  0.00000000000E+00  0.69112717533E+02  0.69112717533E+02  0.00000000000E+00 0. -1.
         -3   -1    0    0    0  501 -0.00000000000E+00 -0.00000000000E+00 -0.24283376423E+03  0.24283376423E+03  0.00000000000E+00 0. -1.
         35    2    1    2    0    0 -0.71054273576E-14 -0.17763568394E-14 -0.17372104670E+03  0.31194648177E+03  0.25909767544E+03 0.  0.
         25    2    3    3    0    0  0.30337383092E+02 -0.12873127362E+02 -0.82838552292E+02  0.15395388429E+03  0.12551294165E+03 0.  0.
         25    2    3    3    0    0 -0.30337383092E+02  0.12873127362E+02 -0.90882494407E+02  0.15799259747E+03  0.12496383015E+03 0.  0.
          5    1    4    4  502    0  0.42679481316E+02  0.40075062357E+02 -0.80085245344E+02  0.99314073878E+02  0.47000000000E+01 0. -1.
         -5    1    4    4    0  502 -0.12342098224E+02 -0.52948189720E+02 -0.27533069478E+01  0.54639810416E+02  0.47000000000E+01 0. -1.
          5    1    5    5  503    0  0.40092712760E+02  0.15542621989E+00 -0.74022821887E+02  0.84314399328E+02  0.47000000000E+01 0. -1.
         -5    1    5    5    0  503 -0.70430095853E+02  0.12717701142E+02 -0.16859672520E+02  0.73678198143E+02  0.47000000000E+01 0. -1.
<mgrwt>
<rscale>  0 0.25909768E+03</rscale>
<asrwt>0</asrwt>
<pdfrwt beam="1">  1        3 0.10632726E-01 0.25909768E+03</pdfrwt>
<pdfrwt beam="2">  1       -3 0.37359040E-01 0.25909768E+03</pdfrwt>
<totfact> 0.11925310E+03</totfact>
</mgrwt>
</event>
<event>
 9    1  0.8175317E-001  0.2743566E+03  0.7818608E-02  0.1098812E+00
          3   -1    0    0  501    0  0.00000000000E+00  0.00000000000E+00  0.10691123897E+03  0.10691123897E+03  0.00000000000E+00 0.  1.
         -3   -1    0    0    0  501 -0.00000000000E+00 -0.00000000000E+00 -0.17601409644E+03  0.17601409644E+03  0.00000000000E+00 0.  1.
         35    2    1    2    0    0  0.00000000000E+00  0.00000000000E+00 -0.69102857469E+02  0.28292533541E+03  0.27435659370E+03 0.  0.
         25    2    3    3    0    0 -0.67211764078E+02 -0.10119810038E+02 -0.37853777725E+02  0.13758658549E+03  0.11347831613E+03 0.  0.
         25    2    3    3    0    0  0.67211764078E+02  0.10119810038E+02 -0.31249079744E+02  0.14533874992E+03  0.12460744544E+03 0.  0.
          5    1    4    4  502    0 -0.77449937904E+02 -0.36968590074E+02 -0.56641747166E+02  0.10293467373E+03  0.47000000000E+01 0. -1.
         -5    1    4    4    0  502  0.10238173826E+02  0.26848780036E+02  0.18787969442E+02  0.34651911758E+02  0.47000000000E+01 0. -1.
          5    1    5    5  503    0  0.13194485808E+02  0.19128847632E+02  0.45283041976E+02  0.51114099406E+02  0.47000000000E+01 0. -1.
         -5    1    5    5    0  503  0.54017278270E+02 -0.90090375935E+01 -0.76532121720E+02  0.94224650517E+02  0.47000000000E+01 0. -1.
<mgrwt>
<rscale>  0 0.27435659E+03</rscale>
<asrwt>0</asrwt>
<pdfrwt beam="1">  1        3 0.16447883E-01 0.27435659E+03</pdfrwt>
<pdfrwt beam="2">  1       -3 0.27079091E-01 0.27435659E+03</pdfrwt>
<totfact> 0.10442987E+03</totfact>
</mgrwt>
</event>
<event>
 9    1  0.8175317E-001  0.2757408E+03  0.7818608E-02  0.1098038E+00
         -2   -1    0    0    0  501 -0.00000000000E+00  0.00000000000E+00  0.89046285884E+01  0.89046285884E+01  0.00000000000E+00 0. -1.
          2   -1    0    0  501    0  0.00000000000E+00 -0.00000000000E+00 -0.21346480434E+04  0.21346480434E+04  0.00000000000E+00 0. -1.
         35    2    1    2    0    0 -0.14210854715E-13  0.71054273576E-14 -0.21257434148E+04  0.21435526720E+04  0.27574080578E+03 0.  0.
         25    2    3    3    0    0  0.41468504074E+02  0.35644108839E+02 -0.11705139994E+04  0.11784494628E+04  0.12509985691E+03 0.  0.
         25    2    3    3    0    0 -0.41468504074E+02 -0.35644108839E+02 -0.95522941538E+03  0.96510320918E+03  0.12637574546E+03 0.  0.
          5    1    4    4  502    0  0.54435375019E+02 -0.52277881862E+01 -0.21280235299E+03  0.21976685660E+03  0.47000000000E+01 0.  1.
         -5    1    4    4    0  502 -0.12966870944E+02  0.40871897025E+02 -0.95771164642E+03  0.95868260618E+03  0.47000000000E+01 0.  1.
          5    1    5    5  503    0 -0.66476653910E+02 -0.40274483280E+02 -0.31964229207E+03  0.32899006732E+03  0.47000000000E+01 0. -1.
         -5    1    5    5    0  503  0.25008149836E+02  0.46303744414E+01 -0.63558712331E+03  0.63611314186E+03  0.47000000000E+01 0. -1.
<mgrwt>
<rscale>  0 0.27574081E+03</rscale>
<asrwt>0</asrwt>
<pdfrwt beam="1">  1        2 0.32840758E+00 0.27574081E+03</pdfrwt>
<pdfrwt beam="2">  1       -2 0.13699421E-02 0.27574081E+03</pdfrwt>
<totfact> 0.84978928E+03</totfact>
</mgrwt>
</event>
<event>
 9    1  0.8175317E-001  0.2686535E+03  0.7818608E-02  0.1102053E+00
         -3   -1    0    0    0  501 -0.00000000000E+00  0.00000000000E+00  0.11415056410E+03  0.11415056410E+03  0.00000000000E+00 0.  1.
          3   -1    0    0  501    0  0.00000000000E+00 -0.00000000000E+00 -0.15806903744E+03  0.15806903744E+03  0.00000000000E+00 0.  1.
         35    2    1    2    0    0 -0.17763568394E-14 -0.71054273576E-14 -0.43918473341E+02  0.27221960155E+03  0.26865345553E+03 0.  0.
         25    2    3    3    0    0 -0.13791065787E+02  0.38382357675E+02 -0.21714703106E+01  0.13371157629E+03  0.12732113523E+03 0.  0.
         25    2    3    3    0    0  0.13791065787E+02 -0.38382357675E+02 -0.41747003030E+02  0.13850802525E+03  0.12561155170E+03 0.  0.
          5    1    4    4  502    0 -0.24913517176E+02  0.64654132090E+02 -0.44477287058E+02  0.82469140886E+02  0.47000000000E+01 0.  1.
         -5    1    4    4    0  502  0.11122451389E+02 -0.26271774415E+02  0.42305816748E+02  0.51242435408E+02  0.47000000000E+01 0.  1.
          5    1    5    5  503    0 -0.10390053143E+01 -0.27155305258E+02 -0.85979416985E+02  0.90294187415E+02  0.47000000000E+01 0.  1.
         -5    1    5    5    0  503  0.14830071101E+02 -0.11227052417E+02  0.44232413955E+02  0.48213837839E+02  0.47000000000E+01 0.  1.
<mgrwt>
<rscale>  0 0.26865346E+03</rscale>
<asrwt>0</asrwt>
<pdfrwt beam="1">  1        3 0.24318313E-01 0.26865346E+03</pdfrwt>
<pdfrwt beam="2">  1       -3 0.17561625E-01 0.26865346E+03</pdfrwt>
<totfact> 0.11313713E+03</totfact>
</mgrwt>
</event>
<event>
 9    1  0.8175317E-001  0.2729706E+03  0.7818608E-02  0.1099591E+00
          2   -1    0    0  501    0  0.00000000000E+00  0.00000000000E+00  0.31479052822E+04  0.31479052822E+04  0.00000000000E+00 0.  1.
         -2   -1    0    0    0  501 -0.00000000000E+00 -0.00000000000E+00 -0.59176609525E+01  0.59176609525E+01  0.00000000000E+00 0.  1.
         35    2    1    2    0    0 -0.71054273576E-14  0.35527136788E-14  0.31419876213E+04  0.31538229432E+04  0.27297059307E+03 0.  0.
         25    2    3    3    0    0 -0.51329499909E+02  0.52005244861E+01  0.17904647125E+04  0.17955429795E+04  0.12469539472E+03 0.  0.
         25    2    3    3    0    0  0.51329499909E+02 -0.52005244861E+01  0.13515229088E+04  0.13582799637E+04  0.12509405984E+03 0.  0.
          5    1    4    4  502    0 -0.18244370676E+02  0.22975359882E+02  0.16439376695E+04  0.16442061536E+04  0.47000000000E+01 0. -1.
         -5    1    4    4    0  502 -0.33085129233E+02 -0.17774835396E+02  0.14652704298E+03  0.15133682590E+03  0.47000000000E+01 0. -1.
          5    1    5    5  503    0 -0.11287411658E+02 -0.39995994168E+02  0.90985550489E+03  0.91081623558E+03  0.47000000000E+01 0. -1.
         -5    1    5    5    0  503  0.62616911567E+02  0.34795469682E+02  0.44166740392E+03  0.44746372815E+03  0.47000000000E+01 0. -1.
<mgrwt>
<rscale>  0 0.27297059E+03</rscale>
<asrwt>0</asrwt>
<pdfrwt beam="1">  1        2 0.48429178E+00 0.27297059E+03</pdfrwt>
<pdfrwt beam="2">  1       -2 0.91041189E-03 0.27297059E+03</pdfrwt>
<totfact> 0.41488071E+03</totfact>
</mgrwt>
</event>
<event>
 9    1  0.8175317E-001  0.2756951E+03  0.7818608E-02  0.1098064E+00
         -4   -1    0    0    0  501 -0.00000000000E+00  0.00000000000E+00  0.20381240931E+03  0.20381240931E+03  0.00000000000E+00 0. -1.
          4   -1    0    0  501    0  0.00000000000E+00 -0.00000000000E+00 -0.93232516834E+02  0.93232516834E+02  0.00000000000E+00 0. -1.
         35    2    1    2    0    0  0.00000000000E+00 -0.14210854715E-13  0.11057989248E+03  0.29704492615E+03  0.27569507709E+03 0.  0.
         25    2    3    3    0    0  0.44261384553E+02 -0.36685442375E+02  0.60201013768E+02  0.15075182500E+03  0.12568635103E+03 0.  0.
         25    2    3    3    0    0 -0.44261384553E+02  0.36685442375E+02  0.50378878711E+02  0.14629310115E+03  0.12473471121E+03 0.  0.
          5    1    4    4  502    0  0.41791462929E+02 -0.78276955908E+02  0.16851922601E+02  0.90442719416E+02  0.47000000000E+01 0. -1.
         -5    1    4    4    0  502  0.24699216243E+01  0.41591513533E+02  0.43349091167E+02  0.60309105580E+02  0.47000000000E+01 0. -1.
          5    1    5    5  503    0 -0.44280301572E+02  0.78963972223E+02  0.50465397035E+02  0.10375403758E+03  0.47000000000E+01 0.  1.
         -5    1    5    5    0  503  0.18917018208E-01 -0.42278529848E+02 -0.86518324249E-01  0.42539063570E+02  0.47000000000E+01 0.  1.
<mgrwt>
<rscale>  0 0.27569508E+03</rscale>
<asrwt>0</asrwt>
<pdfrwt beam="1">  1        4 0.14343464E-01 0.27569508E+03</pdfrwt>
<pdfrwt beam="2">  1       -4 0.31355755E-01 0.27569508E+03</pdfrwt>
<totfact> 0.74739390E+02</totfact>
</mgrwt>
</event>
<event>
 9    1  0.8175317E-001  0.2742519E+03  0.7818608E-02  0.1098871E+00
          2   -1    0    0  501    0  0.00000000000E+00  0.00000000000E+00  0.12257191802E+04  0.12257191802E+04  0.00000000000E+00 0. -1.
         -2   -1    0    0    0  501 -0.00000000000E+00 -0.00000000000E+00 -0.15340808077E+02  0.15340808077E+02  0.00000000000E+00 0. -1.
         35    2    1    2    0    0  0.00000000000E+00  0.00000000000E+00  0.12103783722E+04  0.12410599883E+04  0.27425187474E+03 0.  0.
         25    2    3    3    0    0 -0.87019951215E+01 -0.27302571391E+02  0.41633319635E+03  0.43670553234E+03  0.12867492557E+03 0.  0.
         25    2    3    3    0    0  0.87019951215E+01  0.27302571391E+02  0.79404517582E+03  0.80435445598E+03  0.12512871170E+03 0.  0.
          5    1    4    4  502    0  0.74232569909E+01  0.37887445874E+02  0.29829681427E+03  0.30082161275E+03  0.47000000000E+01 0. -1.
         -5    1    4    4    0  502 -0.16125252112E+02 -0.65190017264E+02  0.11803638209E+03  0.13588391959E+03  0.47000000000E+01 0. -1.
          5    1    5    5  503    0  0.28223665308E+01 -0.22776109895E+02  0.66946674480E+03  0.66987650304E+03  0.47000000000E+01 0. -1.
         -5    1    5    5    0  503  0.58796285907E+01  0.50078681286E+02  0.12457843102E+03  0.13447795294E+03  0.47000000000E+01 0. -1.
<mgrwt>
<rscale>  0 0.27425187E+03</rscale>
<asrwt>0</asrwt>
<pdfrwt beam="1">  1        2 0.18857211E+00 0.27425187E+03</pdfrwt>
<pdfrwt beam="2">  1       -2 0.23601253E-02 0.27425187E+03</pdfrwt>
<totfact> 0.11677695E+04</totfact>
</mgrwt>
</event>
<event>
 9    1  0.8175317E-001  0.2686456E+03  0.7818608E-02  0.1102057E+00
         -2   -1    0    0    0  501 -0.00000000000E+00  0.00000000000E+00  0.27205363589E+03  0.27205363589E+03  0.00000000000E+00 0.  1.
          2   -1    0    0  501    0  0.00000000000E+00 -0.00000000000E+00 -0.66320044187E+02  0.66320044187E+02  0.00000000000E+00 0.  1.
         35    2    1    2    0    0  0.00000000000E+00  0.00000000000E+00  0.20573359170E+03  0.33837368008E+03  0.26864555945E+03 0.  0.
         25    2    3    3    0    0  0.13957744641E+02  0.26186657262E+02  0.14821825941E+03  0.19711795121E+03  0.12651590657E+03 0.  0.
         25    2    3    3    0    0 -0.13957744641E+02 -0.26186657262E+02  0.57515332292E+02  0.14125572886E+03  0.12555718949E+03 0.  0.
          5    1    4    4  502    0  0.58408264509E+02  0.28738067110E+02  0.32230668274E+02  0.72789476173E+02  0.47000000000E+01 0.  1.
         -5    1    4    4    0  502 -0.44450519868E+02 -0.25514098475E+01  0.11598759113E+03  0.12432847504E+03  0.47000000000E+01 0.  1.
          5    1    5    5  503    0  0.49102104083E+02  0.72499338725E+01  0.47798949211E+02  0.69068138184E+02  0.47000000000E+01 0.  1.
         -5    1    5    5    0  503 -0.63059848723E+02 -0.33436591135E+02  0.97163830809E+01  0.72187590678E+02  0.47000000000E+01 0.  1.
<mgrwt>
<rscale>  0 0.26864556E+03</rscale>
<asrwt>0</asrwt>
<pdfrwt beam="1">  1        2 0.10203084E-01 0.26864556E+03</pdfrwt>
<pdfrwt beam="2">  1       -2 0.41854405E-01 0.26864556E+03</pdfrwt>
<totfact> 0.33914458E+03</totfact>
</mgrwt>
</event>
<event>
 9    1  0.8175317E-001  0.2697962E+03  0.7818608E-02  0.1101396E+00
         -2   -1    0    0    0  501 -0.00000000000E+00  0.00000000000E+00  0.43428072949E+02  0.43428072949E+02  0.00000000000E+00 0. -1.
          2   -1    0    0  501    0  0.00000000000E+00 -0.00000000000E+00 -0.41902622478E+03  0.41902622478E+03  0.00000000000E+00 0. -1.
         35    2    1    2    0    0  0.00000000000E+00 -0.35527136788E-14 -0.37559815183E+03  0.46245429773E+03  0.26979623020E+03 0.  0.
         25    2    3    3    0    0  0.45964778005E+02  0.90017056287E+01 -0.15779105341E+03  0.20660159304E+03  0.12486957272E+03 0.  0.
         25    2    3    3    0    0 -0.45964778005E+02 -0.90017056287E+01 -0.21780709842E+03  0.25585270468E+03  0.12580493969E+03 0.  0.
          5    1    4    4  502    0  0.44865263208E+02  0.19829721209E+02 -0.92218632023E+00  0.49285394525E+02  0.47000000000E+01 0. -1.
         -5    1    4    4    0  502  0.10995147976E+01 -0.10828015580E+02 -0.15686886709E+03  0.15731619852E+03  0.47000000000E+01 0. -1.
          5    1    5    5  503    0  0.24189881468E+02 -0.45954141862E+02 -0.62367651649E+02  0.81294203311E+02  0.47000000000E+01 0.  1.
         -5    1    5    5    0  503 -0.70154659473E+02  0.36952436233E+02 -0.15543944677E+03  0.17455850137E+03  0.47000000000E+01 0.  1.
<mgrwt>
<rscale>  0 0.26979623E+03</rscale>
<asrwt>0</asrwt>
<pdfrwt beam="1">  1        2 0.64465573E-01 0.26979623E+03</pdfrwt>
<pdfrwt beam="2">  1       -2 0.66812420E-02 0.26979623E+03</pdfrwt>
<totfact> 0.94306975E+03</totfact>
</mgrwt>
</event>
<event>
 9    1  0.8175317E-001  0.2777152E+03  0.7818608E-02  0.1096943E+00
          2   -1    0    0  501    0  0.00000000000E+00  0.00000000000E+00  0.19810208876E+04  0.19810208876E+04  0.00000000000E+00 0.  1.
         -2   -1    0    0    0  501 -0.00000000000E+00 -0.00000000000E+00 -0.97330823857E+01  0.97330823857E+01  0.00000000000E+00 0.  1.
         35    2    1    2    0    0 -0.88817841970E-15  0.00000000000E+00  0.19712878052E+04  0.19907539700E+04  0.27771524630E+03 0.  0.
         25    2    3    3    0    0 -0.56079229880E+01  0.16672958021E+02  0.14068609236E+04  0.14124564053E+04  0.12436238304E+03 0.  0.
         25    2    3    3    0    0  0.56079229880E+01 -0.16672958021E+02  0.56442688160E+03  0.57829756463E+03  0.12466327547E+03 0.  0.
          5    1    4    4  502    0  0.18903571996E+02 -0.38903994648E+02  0.23375461268E+03  0.23776916281E+03  0.47000000000E+01 0. -1.
         -5    1    4    4    0  502 -0.24511494984E+02  0.55576952669E+02  0.11731063109E+04  0.11746872425E+04  0.47000000000E+01 0. -1.
          5    1    5    5  503    0  0.11374402269E+02 -0.44917545836E+02  0.76949657502E+02  0.89946110203E+02  0.47000000000E+01 0. -1.
         -5    1    5    5    0  503 -0.57664792812E+01  0.28244587815E+02  0.48747722410E+03  0.48835145443E+03  0.47000000000E+01 0. -1.
<mgrwt>
<rscale>  0 0.27771525E+03</rscale>
<asrwt>0</asrwt>
<pdfrwt beam="1">  1        2 0.30477212E+00 0.27771525E+03</pdfrwt>
<pdfrwt beam="2">  1       -2 0.14973989E-02 0.27771525E+03</pdfrwt>
<totfact> 0.89931036E+03</totfact>
</mgrwt>
</event>
<event>
 9    1  0.8175317E-001  0.2696730E+03  0.7818608E-02  0.1101467E+00
          2   -1    0    0  501    0  0.00000000000E+00  0.00000000000E+00  0.65056916705E+03  0.65056916705E+03  0.00000000000E+00 0. -1.
         -2   -1    0    0    0  501 -0.00000000000E+00 -0.00000000000E+00 -0.27946121532E+02  0.27946121532E+02  0.00000000000E+00 0. -1.
         35    2    1    2    0    0  0.71054273576E-14  0.00000000000E+00  0.62262304551E+03  0.67851528858E+03  0.26967302429E+03 0.  0.
         25    2    3    3    0    0  0.30199000288E+02 -0.23589093370E+02  0.24966990705E+03  0.28295575475E+03  0.12751655467E+03 0.  0.
         25    2    3    3    0    0 -0.30199000288E+02  0.23589093370E+02  0.37295313846E+03  0.39555953383E+03  0.12611453670E+03 0.  0.
          5    1    4    4  502    0  0.33173309519E+02 -0.16110846333E+02  0.26359271276E+03  0.26620149521E+03  0.47000000000E+01 0.  1.
         -5    1    4    4    0  502 -0.29743092306E+01 -0.74782470377E+01 -0.13922805703E+02  0.16754259542E+02  0.47000000000E+01 0.  1.
          5    1    5    5  503    0  0.28895725100E+02 -0.17995083287E+02  0.31846783506E+02  0.46851825698E+02  0.47000000000E+01 0.  1.
         -5    1    5    5    0  503 -0.59094725389E+02  0.41584176657E+02  0.34110635496E+03  0.34870770813E+03  0.47000000000E+01 0.  1.
<mgrwt>
<rscale>  0 0.26967302E+03</rscale>
<asrwt>0</asrwt>
<pdfrwt beam="1">  1        2 0.10008755E+00 0.26967302E+03</pdfrwt>
<pdfrwt beam="2">  1       -2 0.42994038E-02 0.26967302E+03</pdfrwt>
<totfact> 0.11232243E+04</totfact>
</mgrwt>
</event>
<event>
 9    1  0.8175317E-001  0.2779409E+03  0.7818608E-02  0.1096819E+00
          1   -1    0    0  501    0  0.00000000000E+00  0.00000000000E+00  0.93223745642E+02  0.93223745642E+02  0.00000000000E+00 0. -1.
         -1   -1    0    0    0  501 -0.00000000000E+00 -0.00000000000E+00 -0.20716595078E+03  0.20716595078E+03  0.00000000000E+00 0. -1.
         35    2    1    2    0    0  0.00000000000E+00 -0.14210854715E-13 -0.11394220514E+03  0.30038969643E+03  0.27794089948E+03 0.  0.
         25    2    3    3    0    0  0.88888984792E+01  0.52595842776E+02 -0.29165567661E+02  0.14010588931E+03  0.12622873955E+03 0.  0.
         25    2    3    3    0    0 -0.88888984792E+01 -0.52595842776E+02 -0.84776637481E+02  0.16028380712E+03  0.12513386979E+03 0.  0.
          5    1    4    4  502    0 -0.30916352200E+02  0.11176888845E+02 -0.64466393377E+02  0.72517236246E+02  0.47000000000E+01 0.  1.
         -5    1    4    4    0  502  0.39805250680E+02  0.41418953931E+02  0.35300825716E+02  0.67588653061E+02  0.47000000000E+01 0.  1.
          5    1    5    5  503    0  0.50005349961E+02 -0.57268481830E+02 -0.40236079652E+02  0.86146654849E+02  0.47000000000E+01 0. -1.
         -5    1    5    5    0  503 -0.58894248440E+02  0.46726390540E+01 -0.44540557829E+02  0.74137152271E+02  0.47000000000E+01 0. -1.
<mgrwt>
<rscale>  0 0.27794090E+03</rscale>
<asrwt>0</asrwt>
<pdfrwt beam="1">  1        1 0.14342115E-01 0.27794090E+03</pdfrwt>
<pdfrwt beam="2">  1       -1 0.31871684E-01 0.27794090E+03</pdfrwt>
<totfact> 0.36234776E+03</totfact>
</mgrwt>
</event>
<event>
 9    1  0.8175317E-001  0.2751321E+03  0.7818608E-02  0.1098378E+00
         -2   -1    0    0    0  501 -0.00000000000E+00  0.00000000000E+00  0.11142331971E+03  0.11142331971E+03  0.00000000000E+00 0.  1.
          2   -1    0    0  501    0  0.00000000000E+00 -0.00000000000E+00 -0.16984257015E+03  0.16984257015E+03  0.00000000000E+00 0.  1.
         35    2    1    2    0    0 -0.71054273576E-14  0.00000000000E+00 -0.58419250436E+02  0.28126588985E+03  0.27513213548E+03 0.  0.
         25    2    3    3    0    0  0.75267373930E+00 -0.46909637418E+02 -0.38557630563E+02  0.14706612248E+03  0.13394279714E+03 0.  0.
         25    2    3    3    0    0 -0.75267373930E+00  0.46909637418E+02 -0.19861619873E+02  0.13419976737E+03  0.12415318368E+03 0.  0.
          5    1    4    4  502    0 -0.49699532378E+02 -0.40742925951E+02  0.21793929840E+02  0.68022752895E+02  0.47000000000E+01 0.  1.
         -5    1    4    4    0  502  0.50452206117E+02 -0.61667114677E+01 -0.60351560403E+02  0.79043369586E+02  0.47000000000E+01 0.  1.
          5    1    5    5  503    0 -0.46304743458E+02  0.15538217776E+02  0.31717156018E+02  0.58426307980E+02  0.47000000000E+01 0. -1.
         -5    1    5    5    0  503  0.45552069718E+02  0.31371419642E+02 -0.51578775891E+02  0.75773459393E+02  0.47000000000E+01 0. -1.
<mgrwt>
<rscale>  0 0.27513214E+03</rscale>
<asrwt>0</asrwt>
<pdfrwt beam="1">  1        2 0.26129626E-01 0.27513214E+03</pdfrwt>
<pdfrwt beam="2">  1       -2 0.17142049E-01 0.27513214E+03</pdfrwt>
<totfact> 0.55582760E+03</totfact>
</mgrwt>
</event>
<event>
 9    1  0.8175317E-001  0.2728479E+03  0.7818608E-02  0.1099661E+00
          1   -1    0    0  501    0  0.00000000000E+00  0.00000000000E+00  0.36763976887E+03  0.36763976887E+03  0.00000000000E+00 0.  1.
         -1   -1    0    0    0  501 -0.00000000000E+00 -0.00000000000E+00 -0.50624250620E+02  0.50624250620E+02  0.00000000000E+00 0.  1.
         35    2    1    2    0    0  0.35527136788E-14  0.00000000000E+00  0.31701551825E+03  0.41826401949E+03  0.27284785355E+03 0.  0.
         25    2    3    3    0    0  0.88218110092E+00  0.55243344655E+02  0.14636322410E+03  0.19981750148E+03  0.12430701974E+03 0.  0.
         25    2    3    3    0    0 -0.88218110092E+00 -0.55243344655E+02  0.17065229415E+03  0.21844651801E+03  0.12467586118E+03 0.  0.
          5    1    4    4  502    0 -0.24510507856E+02 -0.34220692921E+02  0.37573640666E+02  0.56618806878E+02  0.47000000000E+01 0.  1.
         -5    1    4    4    0  502  0.25392688957E+02  0.89464037575E+02  0.10878958343E+03  0.14319869460E+03  0.47000000000E+01 0.  1.
          5    1    5    5  503    0 -0.36137956094E+02 -0.80174328163E+02  0.13958160386E+03  0.16504238518E+03  0.47000000000E+01 0. -1.
         -5    1    5    5    0  503  0.35255774993E+02  0.24930983509E+02  0.31070690285E+02  0.53404132835E+02  0.47000000000E+01 0. -1.
<mgrwt>
<rscale>  0 0.27284785E+03</rscale>
<asrwt>0</asrwt>
<pdfrwt beam="1">  1        1 0.56559963E-01 0.27284785E+03</pdfrwt>
<pdfrwt beam="2">  1       -1 0.77883465E-02 0.27284785E+03</pdfrwt>
<totfact> 0.60226116E+03</totfact>
</mgrwt>
</event>
<event>
 9    1  0.8175317E-001  0.2756622E+03  0.7818608E-02  0.1098082E+00
          2   -1    0    0  501    0  0.00000000000E+00  0.00000000000E+00  0.15855886205E+03  0.15855886205E+03  0.00000000000E+00 0.  1.
         -2   -1    0    0    0  501 -0.00000000000E+00 -0.00000000000E+00 -0.11981299588E+03  0.11981299588E+03  0.00000000000E+00 0.  1.
         35    2    1    2    0    0 -0.35527136788E-14  0.00000000000E+00  0.38745866176E+02  0.27837185793E+03  0.27566220115E+03 0.  0.
         25    2    3    3    0    0 -0.54033243906E+01  0.38898358033E+02 -0.20702341691E+02  0.13381430727E+03  0.12623550890E+03 0.  0.
         25    2    3    3    0    0  0.54033243906E+01 -0.38898358033E+02  0.59448207867E+02  0.14455755066E+03  0.12577964009E+03 0.  0.
          5    1    4    4  502    0 -0.35754322439E+02  0.75704721919E+02 -0.80820091343E+01  0.84243607268E+02  0.47000000000E+01 0. -1.
         -5    1    4    4    0  502  0.30350998049E+02 -0.36806363886E+02 -0.12620332556E+02  0.49570700004E+02  0.47000000000E+01 0. -1.
          5    1    5    5  503    0 -0.19982929760E+02  0.31168352954E+02 -0.13958693783E+02  0.39846189777E+02  0.47000000000E+01 0. -1.
         -5    1    5    5    0  503  0.25386254151E+02 -0.70066710987E+02  0.73406901649E+02  0.10471136088E+03  0.47000000000E+01 0. -1.
<mgrwt>
<rscale>  0 0.27566220E+03</rscale>
<asrwt>0</asrwt>
<pdfrwt beam="1">  1        2 0.24393671E-01 0.27566220E+03</pdfrwt>
<pdfrwt beam="2">  1       -2 0.18432769E-01 0.27566220E+03</pdfrwt>
<totfact> 0.53111852E+03</totfact>
</mgrwt>
</event>
<event>
 9    1  0.8175317E-001  0.2773646E+03  0.7818608E-02  0.1097137E+00
         -3   -1    0    0    0  501 -0.00000000000E+00  0.00000000000E+00  0.15802464958E+02  0.15802464958E+02  0.00000000000E+00 0.  1.
          3   -1    0    0  501    0  0.00000000000E+00 -0.00000000000E+00 -0.12170749765E+04  0.12170749765E+04  0.00000000000E+00 0.  1.
         35    2    1    2    0    0 -0.53290705182E-14  0.71054273576E-14 -0.12012725116E+04  0.12328774415E+04  0.27736463125E+03 0.  0.
         25    2    3    3    0    0  0.15925923736E+02 -0.55831988121E+02 -0.70058563269E+03  0.71395778652E+03  0.12467817076E+03 0.  0.
         25    2    3    3    0    0 -0.15925923736E+02  0.55831988121E+02 -0.50068687889E+03  0.51891965497E+03  0.12336697969E+03 0.  0.
          5    1    4    4  502    0  0.27505658489E+02 -0.92726608962E+02 -0.54727094061E+03  0.55577185760E+03  0.47000000000E+01 0. -1.
         -5    1    4    4    0  502 -0.11579734753E+02  0.36894620841E+02 -0.15331469207E+03  0.15818592892E+03  0.47000000000E+01 0. -1.
          5    1    5    5  503    0  0.35989817407E+02  0.71675824914E+02 -0.33524788444E+03  0.34474037311E+03  0.47000000000E+01 0.  1.
         -5    1    5    5    0  503 -0.51915741143E+02 -0.15843836793E+02 -0.16543899445E+03  0.17417928186E+03  0.47000000000E+01 0.  1.
<mgrwt>
<rscale>  0 0.27736463E+03</rscale>
<asrwt>0</asrwt>
<pdfrwt beam="1">  1        3 0.18724243E+00 0.27736463E+03</pdfrwt>
<pdfrwt beam="2">  1       -3 0.24311469E-02 0.27736463E+03</pdfrwt>
<totfact> 0.34415660E+02</totfact>
</mgrwt>
</event>
<event>
 9    1  0.8175317E-001  0.2729191E+03  0.7818608E-02  0.1099620E+00
          1   -1    0    0  501    0  0.00000000000E+00  0.00000000000E+00  0.37995339883E+03  0.37995339883E+03  0.00000000000E+00 0. -1.
         -1   -1    0    0    0  501 -0.00000000000E+00 -0.00000000000E+00 -0.49009184924E+02  0.49009184924E+02  0.00000000000E+00 0. -1.
         35    2    1    2    0    0 -0.71054273576E-14  0.26645352591E-14  0.33094421391E+03  0.42896258376E+03  0.27291908241E+03 0.  0.
         25    2    3    3    0    0 -0.45542976587E+02  0.58306291607E+01  0.20014635112E+03  0.24040627034E+03  0.12501381523E+03 0.  0.
         25    2    3    3    0    0  0.45542976587E+02 -0.58306291607E+01  0.13079786279E+03  0.18855631342E+03  0.12781722680E+03 0.  0.
          5    1    4    4  502    0  0.33494191974E+02 -0.75198841957E+01  0.12750563655E+03  0.13212943240E+03  0.47000000000E+01 0.  1.
         -5    1    4    4    0  502 -0.79037168561E+02  0.13350513356E+02  0.72640714572E+02  0.10827683794E+03  0.47000000000E+01 0.  1.
          5    1    5    5  503    0  0.29542915879E+02  0.49728636831E+02  0.16422404983E+02  0.60311745002E+02  0.47000000000E+01 0.  1.
         -5    1    5    5    0  503  0.16000060708E+02 -0.55559265992E+02  0.11437545781E+03  0.12824456842E+03  0.47000000000E+01 0.  1.
<mgrwt>
<rscale>  0 0.27291908E+03</rscale>
<asrwt>0</asrwt>
<pdfrwt beam="1">  1        1 0.58454367E-01 0.27291908E+03</pdfrwt>
<pdfrwt beam="2">  1       -1 0.75398748E-02 0.27291908E+03</pdfrwt>
<totfact> 0.60676576E+03</totfact>
</mgrwt>
</event>
<event>
 9    1  0.8175317E-001  0.2648157E+03  0.7818608E-02  0.1104284E+00
         -2   -1    0    0    0  501 -0.00000000000E+00  0.00000000000E+00  0.19867180108E+03  0.19867180108E+03  0.00000000000E+00 0.  1.
          2   -1    0    0  501    0  0.00000000000E+00 -0.00000000000E+00 -0.88245228960E+02  0.88245228960E+02  0.00000000000E+00 0.  1.
         35    2    1    2    0    0  0.00000000000E+00  0.14210854715E-13  0.11042657212E+03  0.28691703004E+03  0.26481569873E+03 0.  0.
         25    2    3    3    0    0 -0.91875424708E+00 -0.44985027336E+02  0.49444016609E+02  0.14100683637E+03  0.12415200494E+03 0.  0.
         25    2    3    3    0    0  0.91875424708E+00  0.44985027336E+02  0.60982555507E+02  0.14591019367E+03  0.12468526676E+03 0.  0.
          5    1    4    4  502    0  0.37462359746E+02 -0.48444295123E+02  0.73152421561E+02  0.95517772733E+02  0.47000000000E+01 0. -1.
         -5    1    4    4    0  502 -0.38381113993E+02  0.34592677868E+01 -0.23708404953E+02  0.45489063635E+02  0.47000000000E+01 0. -1.
          5    1    5    5  503    0 -0.52433845552E+02  0.56564238832E+02  0.29484409564E+02  0.82705753617E+02  0.47000000000E+01 0. -1.
         -5    1    5    5    0  503  0.53352599799E+02 -0.11579211496E+02  0.31498145943E+02  0.63204440050E+02  0.47000000000E+01 0. -1.
<mgrwt>
<rscale>  0 0.26481570E+03</rscale>
<asrwt>0</asrwt>
<pdfrwt beam="1">  1        2 0.13576189E-01 0.26481570E+03</pdfrwt>
<pdfrwt beam="2">  1       -2 0.30564892E-01 0.26481570E+03</pdfrwt>
<totfact> 0.43094605E+03</totfact>
</mgrwt>
</event>
<event>
 9    1  0.8175317E-001  0.2759322E+03  0.7818608E-02  0.1097932E+00
         -1   -1    0    0    0  501 -0.00000000000E+00  0.00000000000E+00  0.17300236934E+04  0.17300236934E+04  0.00000000000E+00 0.  1.
          1   -1    0    0  501    0  0.00000000000E+00 -0.00000000000E+00 -0.11002533538E+02  0.11002533538E+02  0.00000000000E+00 0.  1.
         35    2    1    2    0    0  0.71054273576E-14  0.00000000000E+00  0.17190211598E+04  0.17410262269E+04  0.27593219245E+03 0.  0.
         25    2    3    3    0    0 -0.13747105725E+02 -0.36185647033E+02  0.11150330532E+04  0.11226292528E+04  0.12449636765E+03 0.  0.
         25    2    3    3    0    0  0.13747105725E+02  0.36185647033E+02  0.60398810666E+03  0.61839697413E+03  0.12694408478E+03 0.  0.
          5    1    4    4  502    0 -0.59548003471E+02 -0.26964832613E+02  0.34524328756E+03  0.35140871435E+03  0.47000000000E+01 0.  1.
         -5    1    4    4    0  502  0.45800897746E+02 -0.92208144195E+01  0.76978976561E+03  0.77122053843E+03  0.47000000000E+01 0.  1.
          5    1    5    5  503    0 -0.21925876204E+02  0.15219063962E+02  0.54774269276E+03  0.54841271997E+03  0.47000000000E+01 0.  1.
         -5    1    5    5    0  503  0.35672981929E+02  0.20966583071E+02  0.56245413901E+02  0.69984254159E+02  0.47000000000E+01 0.  1.
<mgrwt>
<rscale>  0 0.27593219E+03</rscale>
<asrwt>0</asrwt>
<pdfrwt beam="1">  1        1 0.16926988E-02 0.27593219E+03</pdfrwt>
<pdfrwt beam="2">  1       -1 0.26615728E+00 0.27593219E+03</pdfrwt>
<totfact> 0.48148482E+02</totfact>
</mgrwt>
</event>
<event>
 9    1  0.8175317E-001  0.2753241E+03  0.7818608E-02  0.1098271E+00
          1   -1    0    0  501    0  0.00000000000E+00  0.00000000000E+00  0.38229568525E+02  0.38229568525E+02  0.00000000000E+00 0.  1.
         -1   -1    0    0    0  501 -0.00000000000E+00 -0.00000000000E+00 -0.49571147697E+03  0.49571147697E+03  0.00000000000E+00 0.  1.
         35    2    1    2    0    0 -0.71054273576E-14  0.00000000000E+00 -0.45748190845E+03  0.53394104550E+03  0.27532406998E+03 0.  0.
         25    2    3    3    0    0 -0.53445760255E+02 -0.27729784397E+02 -0.19284261601E+03  0.23750763908E+03  0.12488480228E+03 0.  0.
         25    2    3    3    0    0  0.53445760255E+02  0.27729784397E+02 -0.26463929243E+03  0.29643340641E+03  0.11922004490E+03 0.  0.
          5    1    4    4  502    0 -0.80561459922E+02 -0.53018233659E+02 -0.16393853567E+03  0.19026038843E+03  0.47000000000E+01 0.  1.
         -5    1    4    4    0  502  0.27115699667E+02  0.25288449262E+02 -0.28904080340E+02  0.47247250659E+02  0.47000000000E+01 0.  1.
          5    1    5    5  503    0 -0.24053928236E+02  0.47058792074E+02 -0.93272255924E+02  0.10730761902E+03  0.47000000000E+01 0.  1.
         -5    1    5    5    0  503  0.77499688491E+02 -0.19329007677E+02 -0.17136703651E+03  0.18912578739E+03  0.47000000000E+01 0.  1.
<mgrwt>
<rscale>  0 0.27532407E+03</rscale>
<asrwt>0</asrwt>
<pdfrwt beam="1">  1        1 0.58814725E-02 0.27532407E+03</pdfrwt>
<pdfrwt beam="2">  1       -1 0.76263299E-01 0.27532407E+03</pdfrwt>
<totfact> 0.23877813E+03</totfact>
</mgrwt>
</event>
<event>
 9    1  0.8175317E-001  0.2715459E+03  0.7818608E-02  0.1100398E+00
          1   -1    0    0  501    0  0.00000000000E+00  0.00000000000E+00  0.29038287066E+03  0.29038287066E+03  0.00000000000E+00 0.  1.
         -1   -1    0    0    0  501 -0.00000000000E+00 -0.00000000000E+00 -0.63482706429E+02  0.63482706429E+02  0.00000000000E+00 0.  1.
         35    2    1    2    0    0 -0.14210854715E-13 -0.71054273576E-14  0.22690016423E+03  0.35386557709E+03  0.27154587480E+03 0.  0.
         25    2    3    3    0    0  0.47167695392E+02  0.25024754005E+02  0.11276693030E+03  0.17613109550E+03  0.12431714455E+03 0.  0.
         25    2    3    3    0    0 -0.47167695392E+02 -0.25024754005E+02  0.11413323393E+03  0.17773448159E+03  0.12534799982E+03 0.  0.
          5    1    4    4  502    0  0.57624701522E+02  0.54446048586E+02  0.25631538198E+02  0.83450848902E+02  0.47000000000E+01 0.  1.
         -5    1    4    4    0  502 -0.10457006129E+02 -0.29421294581E+02  0.87135392103E+02  0.92680246595E+02  0.47000000000E+01 0.  1.
          5    1    5    5  503    0 -0.29559585896E+02 -0.39716378094E+02  0.13654932950E+03  0.14532367045E+03  0.47000000000E+01 0.  1.
         -5    1    5    5    0  503 -0.17608109496E+02  0.14691624089E+02 -0.22416095567E+02  0.32410811142E+02  0.47000000000E+01 0.  1.
<mgrwt>
<rscale>  0 0.27154587E+03</rscale>
<asrwt>0</asrwt>
<pdfrwt beam="1">  1        1 0.44674287E-01 0.27154587E+03</pdfrwt>
<pdfrwt beam="2">  1       -1 0.97665704E-02 0.27154587E+03</pdfrwt>
<totfact> 0.57323337E+03</totfact>
</mgrwt>
</event>
<event>
 9    1  0.8175317E-001  0.2745958E+03  0.7818608E-02  0.1098678E+00
         -2   -1    0    0    0  501 -0.00000000000E+00  0.00000000000E+00  0.11755898950E+03  0.11755898950E+03  0.00000000000E+00 0. -1.
          2   -1    0    0  501    0  0.00000000000E+00 -0.00000000000E+00 -0.16035107212E+03  0.16035107212E+03  0.00000000000E+00 0. -1.
         35    2    1    2    0    0  0.35527136788E-14 -0.35527136788E-14 -0.42792082618E+02  0.27791006161E+03  0.27459577566E+03 0.  0.
         25    2    3    3    0    0  0.29286325957E+02  0.24956902637E+02  0.18659236415E+02  0.13374090355E+03  0.12671987335E+03 0.  0.
         25    2    3    3    0    0 -0.29286325957E+02 -0.24956902637E+02 -0.61451319033E+02  0.14416915806E+03  0.12461117786E+03 0.  0.
          5    1    4    4  502    0 -0.26149740762E+02 -0.25430930642E+02 -0.27232000008E+02  0.45762572039E+02  0.47000000000E+01 0. -1.
         -5    1    4    4    0  502  0.55436066719E+02  0.50387833279E+02  0.45891236422E+02  0.87978331515E+02  0.47000000000E+01 0. -1.
          5    1    5    5  503    0  0.10144573613E+02  0.45340855325E+02 -0.81004103157E+01  0.47396330899E+02  0.47000000000E+01 0.  1.
         -5    1    5    5    0  503 -0.39430899570E+02 -0.70297757962E+02 -0.53350908717E+02  0.96772827159E+02  0.47000000000E+01 0.  1.
<mgrwt>
<rscale>  0 0.27459578E+03</rscale>
<asrwt>0</asrwt>
<pdfrwt beam="1">  1        2 0.24669396E-01 0.27459578E+03</pdfrwt>
<pdfrwt beam="2">  1       -2 0.18085998E-01 0.27459578E+03</pdfrwt>
<totfact> 0.54150916E+03</totfact>
</mgrwt>
</event>
<event>
 9    1  0.8175317E-001  0.2605952E+03  0.7818608E-02  0.1106786E+00
          2   -1    0    0  501    0  0.00000000000E+00  0.00000000000E+00  0.93748115218E+02  0.93748115218E+02  0.00000000000E+00 0.  1.
         -2   -1    0    0    0  501 -0.00000000000E+00 -0.00000000000E+00 -0.18109660182E+03  0.18109660182E+03  0.00000000000E+00 0.  1.
         35    2    1    2    0    0 -0.71054273576E-14  0.35527136788E-14 -0.87348486598E+02  0.27484471703E+03  0.26059520404E+03 0.  0.
         25    2    3    3    0    0  0.26388897121E+02 -0.67785961438E+01 -0.14201087242E+02  0.12711662151E+03  0.12334764419E+03 0.  0.
         25    2    3    3    0    0 -0.26388897121E+02  0.67785961438E+01 -0.73147399356E+02  0.14772809552E+03  0.12542218670E+03 0.  0.
          5    1    4    4  502    0 -0.90228567265E+01 -0.60285389886E+02 -0.14269959745E+02  0.62781063453E+02  0.47000000000E+01 0.  1.
         -5    1    4    4    0  502  0.35411753847E+02  0.53506793742E+02  0.68872502388E-01  0.64335558057E+02  0.47000000000E+01 0.  1.
          5    1    5    5  503    0  0.55484068225E+01  0.10146953425E+02  0.33764424000E+02  0.35998219541E+02  0.47000000000E+01 0. -1.
         -5    1    5    5    0  503 -0.31937303943E+02 -0.33683572816E+01 -0.10691182336E+03  0.11172987598E+03  0.47000000000E+01 0. -1.
<mgrwt>
<rscale>  0 0.26059520E+03</rscale>
<asrwt>0</asrwt>
<pdfrwt beam="1">  1        2 0.14422787E-01 0.26059520E+03</pdfrwt>
<pdfrwt beam="2">  1       -2 0.27861016E-01 0.26059520E+03</pdfrwt>
<totfact> 0.47367234E+03</totfact>
</mgrwt>
</event>
<event>
 9    1  0.8175317E-001  0.2749533E+03  0.7818608E-02  0.1098478E+00
          1   -1    0    0  501    0  0.00000000000E+00  0.00000000000E+00  0.38733001038E+03  0.38733001038E+03  0.00000000000E+00 0.  1.
         -1   -1    0    0    0  501 -0.00000000000E+00 -0.00000000000E+00 -0.48795162252E+02  0.48795162252E+02  0.00000000000E+00 0.  1.
         35    2    1    2    0    0  0.00000000000E+00  0.00000000000E+00  0.33853484812E+03  0.43612517263E+03  0.27495331023E+03 0.  0.
         25    2    3    3    0    0  0.21031454311E+02 -0.34269456766E+02  0.10377875051E+03  0.16745728578E+03  0.12512072477E+03 0.  0.
         25    2    3    3    0    0 -0.21031454311E+02  0.34269456766E+02  0.23475609762E+03  0.26866788684E+03  0.12431930789E+03 0.  0.
          5    1    4    4  502    0 -0.24105084430E+02 -0.64916189930E+02  0.84619296387E+02  0.10944259743E+03  0.47000000000E+01 0.  1.
         -5    1    4    4    0  502  0.45136538741E+02  0.30646733163E+02  0.19159454120E+02  0.58014688358E+02  0.47000000000E+01 0.  1.
          5    1    5    5  503    0 -0.64769151873E+02  0.39875324914E+02  0.19403297249E+03  0.20846095314E+03  0.47000000000E+01 0.  1.
         -5    1    5    5    0  503  0.43737697562E+02 -0.56058681475E+01  0.40723125129E+02  0.60206933704E+02  0.47000000000E+01 0.  1.
<mgrwt>
<rscale>  0 0.27495331E+03</rscale>
<asrwt>0</asrwt>
<pdfrwt beam="1">  1        1 0.59589230E-01 0.27495331E+03</pdfrwt>
<pdfrwt beam="2">  1       -1 0.75069483E-02 0.27495331E+03</pdfrwt>
<totfact> 0.59615159E+03</totfact>
</mgrwt>
</event>
<event>
 9    1  0.8175317E-001  0.2720615E+03  0.7818608E-02  0.1100106E+00
          2   -1    0    0  501    0  0.00000000000E+00  0.00000000000E+00  0.67143838656E+03  0.67143838656E+03  0.00000000000E+00 0.  1.
         -2   -1    0    0    0  501 -0.00000000000E+00 -0.00000000000E+00 -0.27559280396E+02  0.27559280396E+02  0.00000000000E+00 0.  1.
         35    2    1    2    0    0  0.00000000000E+00  0.00000000000E+00  0.64387910616E+03  0.69899766695E+03  0.27206145456E+03 0.  0.
         25    2    3    3    0    0  0.34763232737E+02 -0.33260559098E+02  0.35276212327E+03  0.37773508195E+03  0.12620590071E+03 0.  0.
         25    2    3    3    0    0 -0.34763232737E+02  0.33260559098E+02  0.29111698288E+03  0.32126258501E+03  0.12706613891E+03 0.  0.
          5    1    4    4  502    0  0.43633637825E+02 -0.47004143768E+02  0.35481218377E+03  0.36059265055E+03  0.47000000000E+01 0.  1.
         -5    1    4    4    0  502 -0.88704050875E+01  0.13743584670E+02 -0.20500604971E+01  0.17142431392E+02  0.47000000000E+01 0.  1.
          5    1    5    5  503    0  0.47012953858E+02  0.51977582840E+01  0.79630920559E+02  0.92738384883E+02  0.47000000000E+01 0. -1.
         -5    1    5    5    0  503 -0.81776186595E+02  0.28062800814E+02  0.21148606233E+03  0.22852420012E+03  0.47000000000E+01 0. -1.
<mgrwt>
<rscale>  0 0.27206145E+03</rscale>
<asrwt>0</asrwt>
<pdfrwt beam="1">  1        2 0.10329820E+00 0.27206145E+03</pdfrwt>
<pdfrwt beam="2">  1       -2 0.42398898E-02 0.27206145E+03</pdfrwt>
<totfact> 0.11050961E+04</totfact>
</mgrwt>
</event>
<event>
 9    1  0.8175317E-001  0.2757180E+03  0.7818608E-02  0.1098051E+00
          1   -1    0    0  501    0  0.00000000000E+00  0.00000000000E+00  0.32132872852E+04  0.32132872852E+04  0.00000000000E+00 0.  1.
         -1   -1    0    0    0  501 -0.00000000000E+00 -0.00000000000E+00 -0.59145361970E+01  0.59145361970E+01  0.00000000000E+00 0.  1.
         35    2    1    2    0    0 -0.71054273576E-14  0.00000000000E+00  0.32073727490E+04  0.32192018214E+04  0.27571800057E+03 0.  0.
         25    2    3    3    0    0  0.32986577673E+02  0.46649498131E+02  0.16443632402E+04  0.16501086049E+04  0.12515451277E+03 0.  0.
         25    2    3    3    0    0 -0.32986577673E+02 -0.46649498131E+02  0.15630095087E+04  0.15690932165E+04  0.12566028669E+03 0.  0.
          5    1    4    4  502    0  0.40509037265E+02  0.44039402770E+02  0.31242159676E+03  0.31813486955E+03  0.47000000000E+01 0.  1.
         -5    1    4    4    0  502 -0.75224595921E+01  0.26100953609E+01  0.13319416435E+04  0.13319737353E+04  0.47000000000E+01 0.  1.
          5    1    5    5  503    0  0.43598763127E+02  0.75681567577E+00  0.70312306345E+03  0.70448957215E+03  0.47000000000E+01 0.  1.
         -5    1    5    5    0  503 -0.76585340800E+02 -0.47406313806E+02  0.85988644529E+03  0.86460364434E+03  0.47000000000E+01 0.  1.
<mgrwt>
<rscale>  0 0.27571800E+03</rscale>
<asrwt>0</asrwt>
<pdfrwt beam="1">  1        1 0.49435050E+00 0.27571800E+03</pdfrwt>
<pdfrwt beam="2">  1       -1 0.90993121E-03 0.27571800E+03</pdfrwt>
<totfact> 0.11009502E+03</totfact>
</mgrwt>
</event>
<event>
 9    1  0.8175317E-001  0.2753107E+03  0.7818608E-02  0.1098278E+00
         -2   -1    0    0    0  501 -0.00000000000E+00  0.00000000000E+00  0.21654477756E+02  0.21654477756E+02  0.00000000000E+00 0. -1.
          2   -1    0    0  501    0  0.00000000000E+00 -0.00000000000E+00 -0.87506118775E+03  0.87506118775E+03  0.00000000000E+00 0. -1.
         35    2    1    2    0    0  0.00000000000E+00  0.00000000000E+00 -0.85340670999E+03  0.89671566550E+03  0.27531068287E+03 0.  0.
         25    2    3    3    0    0 -0.40651964712E+01 -0.17246424457E+01 -0.61414451319E+03  0.62678786286E+03  0.12518003731E+03 0.  0.
         25    2    3    3    0    0  0.40651964712E+01  0.17246424457E+01 -0.23926219680E+03  0.26992780264E+03  0.12488042122E+03 0.  0.
          5    1    4    4  502    0 -0.23894566670E+02 -0.20193710680E+01 -0.18135509943E+02  0.30430492877E+02  0.47000000000E+01 0. -1.
         -5    1    4    4    0  502  0.19829370199E+02  0.29472862230E+00 -0.59600900324E+03  0.59635736999E+03  0.47000000000E+01 0. -1.
          5    1    5    5  503    0 -0.21074963967E+02  0.57835020422E+02 -0.14095501645E+03  0.15388128657E+03  0.47000000000E+01 0.  1.
         -5    1    5    5    0  503  0.25140160439E+02 -0.56110377976E+02 -0.98307180355E+02  0.11604651607E+03  0.47000000000E+01 0.  1.
<mgrwt>
<rscale>  0 0.27531068E+03</rscale>
<asrwt>0</asrwt>
<pdfrwt beam="1">  1        2 0.13462484E+00 0.27531068E+03</pdfrwt>
<pdfrwt beam="2">  1       -2 0.33314571E-02 0.27531068E+03</pdfrwt>
<totfact> 0.11386559E+04</totfact>
</mgrwt>
</event>
<event>
 9    1  0.8175317E-001  0.2737689E+03  0.7818608E-02  0.1099142E+00
          2   -1    0    0  501    0  0.00000000000E+00  0.00000000000E+00  0.57717389854E+03  0.57717389854E+03  0.00000000000E+00 0. -1.
         -2   -1    0    0    0  501 -0.00000000000E+00 -0.00000000000E+00 -0.32463960462E+02  0.32463960462E+02  0.00000000000E+00 0. -1.
         35    2    1    2    0    0  0.71054273576E-14  0.00000000000E+00  0.54470993808E+03  0.60963785900E+03  0.27376888517E+03 0.  0.
         25    2    3    3    0    0 -0.34349503644E+02  0.37169800102E+02  0.20948051532E+03  0.24845942240E+03  0.12364673810E+03 0.  0.
         25    2    3    3    0    0  0.34349503644E+02 -0.37169800102E+02  0.33522942276E+03  0.36117843660E+03  0.12453760371E+03 0.  0.
          5    1    4    4  502    0  0.12238222064E+02 -0.22645512346E+02  0.57631523768E+00  0.26172799773E+02  0.47000000000E+01 0. -1.
         -5    1    4    4    0  502 -0.46587725708E+02  0.59815312448E+02  0.20890420008E+03  0.22228662263E+03  0.47000000000E+01 0. -1.
          5    1    5    5  503    0 -0.17224148565E+02 -0.58341685263E+02  0.26206790831E+03  0.26907638711E+03  0.47000000000E+01 0. -1.
         -5    1    5    5    0  503  0.51573652209E+02  0.21171885161E+02  0.73161514447E+02  0.92102049487E+02  0.47000000000E+01 0. -1.
<mgrwt>
<rscale>  0 0.27376889E+03</rscale>
<asrwt>0</asrwt>
<pdfrwt beam="1">  1        2 0.88795977E-01 0.27376889E+03</pdfrwt>
<pdfrwt beam="2">  1       -2 0.49944559E-02 0.27376889E+03</pdfrwt>
<totfact> 0.10301498E+04</totfact>
</mgrwt>
</event>
<event>
 9    1  0.8175317E-001  0.3086310E+03  0.7818608E-02  0.1081004E+00
          1   -1    0    0  501    0  0.00000000000E+00  0.00000000000E+00  0.15027976009E+04  0.15027976009E+04  0.00000000000E+00 0.  1.
         -1   -1    0    0    0  501 -0.00000000000E+00 -0.00000000000E+00 -0.15845964600E+02  0.15845964600E+02  0.00000000000E+00 0.  1.
         35    2    1    2    0    0  0.00000000000E+00  0.00000000000E+00  0.14869516363E+04  0.15186435655E+04  0.30863102621E+03 0.  0.
         25    2    3    3    0    0 -0.45453612137E+02 -0.68589361540E+02  0.56218625025E+03  0.58179274776E+03  0.12513548661E+03 0.  0.
         25    2    3    3    0    0  0.45453612137E+02  0.68589361540E+02  0.92476538609E+03  0.93685081777E+03  0.12541094083E+03 0.  0.
          5    1    4    4  502    0 -0.75906260630E+02 -0.53680099691E+02  0.51586090883E+03  0.52419259892E+03  0.47000000000E+01 0. -1.
         -5    1    4    4    0  502  0.30452648493E+02 -0.14909261849E+02  0.46325341420E+02  0.57600148843E+02  0.47000000000E+01 0. -1.
          5    1    5    5  503    0  0.80010888138E+02  0.55758242480E+02  0.44190194100E+03  0.45255954225E+03  0.47000000000E+01 0. -1.
         -5    1    5    5    0  503 -0.34557276001E+02  0.12831119060E+02  0.48286344509E+03  0.48429127552E+03  0.47000000000E+01 0. -1.
<mgrwt>
<rscale>  0 0.30863103E+03</rscale>
<asrwt>0</asrwt>
<pdfrwt beam="1">  1        1 0.23119952E+00 0.30863103E+03</pdfrwt>
<pdfrwt beam="2">  1       -1 0.24378419E-02 0.30863103E+03</pdfrwt>
<totfact> 0.36559230E+03</totfact>
</mgrwt>
</event>
<event>
 9    1  0.8175317E-001  0.2934635E+03  0.7818608E-02  0.1088555E+00
          1   -1    0    0  501    0  0.00000000000E+00  0.00000000000E+00  0.87622219748E+02  0.87622219748E+02  0.00000000000E+00 0. -1.
         -1   -1    0    0    0  501 -0.00000000000E+00 -0.00000000000E+00 -0.24571628086E+03  0.24571628086E+03  0.00000000000E+00 0. -1.
         35    2    1    2    0    0  0.35527136788E-14 -0.14210854715E-13 -0.15809406111E+03  0.33333850061E+03  0.29346349659E+03 0.  0.
         25    2    3    3    0    0  0.17336131675E+02 -0.74770789576E+02 -0.92730157732E+02  0.17305151202E+03  0.12432510295E+03 0.  0.
         25    2    3    3    0    0 -0.17336131675E+02  0.74770789576E+02 -0.65363903381E+02  0.16028698859E+03  0.12461246491E+03 0.  0.
          5    1    4    4  502    0  0.24779624998E+01 -0.86238438638E+02 -0.87186348785E+01  0.86840734630E+02  0.47000000000E+01 0.  1.
         -5    1    4    4    0  502  0.14858169176E+02  0.11467649063E+02 -0.84011522854E+02  0.86210777392E+02  0.47000000000E+01 0.  1.
          5    1    5    5  503    0 -0.67954378435E+02  0.20039339189E+02 -0.24303863737E+02  0.75047587944E+02  0.47000000000E+01 0.  1.
         -5    1    5    5    0  503  0.50618246760E+02  0.54731450386E+02 -0.41060039644E+02  0.85239400643E+02  0.47000000000E+01 0.  1.
<mgrwt>
<rscale>  0 0.29346350E+03</rscale>
<asrwt>0</asrwt>
<pdfrwt beam="1">  1        1 0.13480341E-01 0.29346350E+03</pdfrwt>
<pdfrwt beam="2">  1       -1 0.37802505E-01 0.29346350E+03</pdfrwt>
<totfact> 0.29269905E+03</totfact>
</mgrwt>
</event>
<event>
 9    1  0.8175317E-001  0.2728304E+03  0.7818608E-02  0.1099671E+00
         -2   -1    0    0    0  501 -0.00000000000E+00  0.00000000000E+00  0.16903505696E+02  0.16903505696E+02  0.00000000000E+00 0. -1.
          2   -1    0    0  501    0  0.00000000000E+00 -0.00000000000E+00 -0.11009024427E+04  0.11009024427E+04  0.00000000000E+00 0. -1.
         35    2    1    2    0    0  0.00000000000E+00  0.35527136788E-14 -0.10839989370E+04  0.11178059484E+04  0.27283042874E+03 0.  0.
         25    2    3    3    0    0 -0.34364577507E+02  0.28806694998E+02 -0.67606846817E+03  0.68895810116E+03  0.12483565852E+03 0.  0.
         25    2    3    3    0    0  0.34364577507E+02 -0.28806694998E+02 -0.40793046885E+03  0.42884784725E+03  0.12446870615E+03 0.  0.
          5    1    4    4  502    0  0.35009727561E+02  0.43738559349E+02 -0.39742666364E+03  0.40138358906E+03  0.47000000000E+01 0. -1.
         -5    1    4    4    0  502 -0.69374305068E+02 -0.14931864351E+02 -0.27864180453E+03  0.28757451210E+03  0.47000000000E+01 0. -1.
          5    1    5    5  503    0 -0.87751979620E+00 -0.50955310217E+02 -0.36606297326E+03  0.36962332729E+03  0.47000000000E+01 0.  1.
         -5    1    5    5    0  503  0.35242097303E+02  0.22148615218E+02 -0.41867495593E+02  0.59224519970E+02  0.47000000000E+01 0.  1.
<mgrwt>
<rscale>  0 0.27283043E+03</rscale>
<asrwt>0</asrwt>
<pdfrwt beam="1">  1        2 0.16936962E+00 0.27283043E+03</pdfrwt>
<pdfrwt beam="2">  1       -2 0.26005391E-02 0.27283043E+03</pdfrwt>
<totfact> 0.11932304E+04</totfact>
</mgrwt>
</event>
<event>
 9    1  0.8175317E-001  0.2756205E+03  0.7818608E-02  0.1098105E+00
         -1   -1    0    0    0  501 -0.00000000000E+00  0.00000000000E+00  0.32233184369E+03  0.32233184369E+03  0.00000000000E+00 0. -1.
          1   -1    0    0  501    0  0.00000000000E+00 -0.00000000000E+00 -0.58919584881E+02  0.58919584881E+02  0.00000000000E+00 0. -1.
         35    2    1    2    0    0 -0.35527136788E-14 -0.35527136788E-14  0.26341225880E+03  0.38125142857E+03  0.27562045224E+03 0.  0.
         25    2    3    3    0    0 -0.13252088453E+02  0.11346078032E+02  0.20674597483E+03  0.24283180441E+03  0.12617066138E+03 0.  0.
         25    2    3    3    0    0  0.13252088453E+02 -0.11346078032E+02  0.56666283979E+02  0.13841962415E+03  0.12507826860E+03 0.  0.
          5    1    4    4  502    0  0.60249127606E+01  0.21728204485E+02  0.21698800563E+03  0.21820700958E+03  0.47000000000E+01 0.  1.
         -5    1    4    4    0  502 -0.19277001214E+02 -0.10382126453E+02 -0.10242030804E+02  0.24624794831E+02  0.47000000000E+01 0.  1.
          5    1    5    5  503    0  0.21070462908E+02  0.52996943468E+02  0.92368035332E+01  0.57965929334E+02  0.47000000000E+01 0. -1.
         -5    1    5    5    0  503 -0.78183744545E+01 -0.64343021499E+02  0.47429480446E+02  0.80453694820E+02  0.47000000000E+01 0. -1.
<mgrwt>
<rscale>  0 0.27562045E+03</rscale>
<asrwt>0</asrwt>
<pdfrwt beam="1">  1        1 0.90645516E-02 0.27562045E+03</pdfrwt>
<pdfrwt beam="2">  1       -1 0.49589514E-01 0.27562045E+03</pdfrwt>
<totfact> 0.30473465E+03</totfact>
</mgrwt>
</event>
<event>
 9    1  0.8175317E-001  0.2726047E+03  0.7818608E-02  0.1099798E+00
          2   -1    0    0  501    0  0.00000000000E+00  0.00000000000E+00  0.13256841362E+04  0.13256841362E+04  0.00000000000E+00 0.  1.
         -2   -1    0    0    0  501 -0.00000000000E+00 -0.00000000000E+00 -0.14014149288E+02  0.14014149288E+02  0.00000000000E+00 0.  1.
         35    2    1    2    0    0 -0.26645352591E-14  0.00000000000E+00  0.13116699869E+04  0.13396982855E+04  0.27260473505E+03 0.  0.
         25    2    3    3    0    0  0.63910980428E+01  0.24782500679E+01  0.94374183466E+03  0.95199168275E+03  0.12487003513E+03 0.  0.
         25    2    3    3    0    0 -0.63910980428E+01 -0.24782500679E+01  0.36792815225E+03  0.38770660274E+03  0.12205857910E+03 0.  0.
          5    1    4    4  502    0 -0.48175081040E+01  0.60474857228E+02  0.34501180996E+03  0.35033648932E+03  0.47000000000E+01 0.  1.
         -5    1    4    4    0  502  0.11208606147E+02 -0.57996607160E+02  0.59873002470E+03  0.60165519342E+03  0.47000000000E+01 0.  1.
          5    1    5    5  503    0 -0.46012622962E+02  0.41667947173E+02  0.17070141167E+03  0.18169876511E+03  0.47000000000E+01 0.  1.
         -5    1    5    5    0  503  0.39621524919E+02 -0.44146197241E+02  0.19722674058E+03  0.20600783763E+03  0.47000000000E+01 0.  1.
<mgrwt>
<rscale>  0 0.27260474E+03</rscale>
<asrwt>0</asrwt>
<pdfrwt beam="1">  1        2 0.20395131E+00 0.27260474E+03</pdfrwt>
<pdfrwt beam="2">  1       -2 0.21560240E-02 0.27260474E+03</pdfrwt>
<totfact> 0.11737399E+04</totfact>
</mgrwt>
</event>
<event>
 9    1  0.8175317E-001  0.2911066E+03  0.7818608E-02  0.1089773E+00
          2   -1    0    0  501    0  0.00000000000E+00  0.00000000000E+00  0.13746682713E+03  0.13746682713E+03  0.00000000000E+00 0. -1.
         -2   -1    0    0    0  501 -0.00000000000E+00 -0.00000000000E+00 -0.15411542358E+03  0.15411542358E+03  0.00000000000E+00 0. -1.
         35    2    1    2    0    0  0.00000000000E+00  0.14210854715E-13 -0.16648596449E+02  0.29158225072E+03  0.29110656669E+03 0.  0.
         25    2    3    3    0    0 -0.33380450692E+02 -0.40765782894E+02  0.45091939008E+02  0.14251419228E+03  0.12450264453E+03 0.  0.
         25    2    3    3    0    0  0.33380450692E+02  0.40765782894E+02 -0.61740535457E+02  0.14906805843E+03  0.12503315074E+03 0.  0.
          5    1    4    4  502    0 -0.74173575589E+02 -0.54173338004E+02  0.31972721519E+02  0.97369475646E+02  0.47000000000E+01 0. -1.
         -5    1    4    4    0  502  0.40793124897E+02  0.13407555111E+02  0.13119217488E+02  0.45144716639E+02  0.47000000000E+01 0. -1.
          5    1    5    5  503    0  0.47866770790E+02 -0.18999177231E+02  0.11846690769E+02  0.53053091931E+02  0.47000000000E+01 0. -1.
         -5    1    5    5    0  503 -0.14486320098E+02  0.59764960125E+02 -0.73587226226E+02  0.96014966502E+02  0.47000000000E+01 0. -1.
<mgrwt>
<rscale>  0 0.29110657E+03</rscale>
<asrwt>0</asrwt>
<pdfrwt beam="1">  1        2 0.21148743E-01 0.29110657E+03</pdfrwt>
<pdfrwt beam="2">  1       -2 0.23710065E-01 0.29110657E+03</pdfrwt>
<totfact> 0.40520236E+03</totfact>
</mgrwt>
</event>
<event>
 9    1  0.8175317E-001  0.2755839E+03  0.7818608E-02  0.1098126E+00
          2   -1    0    0  501    0  0.00000000000E+00  0.00000000000E+00  0.24237099977E+03  0.24237099977E+03  0.00000000000E+00 0. -1.
         -2   -1    0    0    0  501 -0.00000000000E+00 -0.00000000000E+00 -0.78337022124E+02  0.78337022124E+02  0.00000000000E+00 0. -1.
         35    2    1    2    0    0  0.35527136788E-14  0.71054273576E-14  0.16403397765E+03  0.32070802189E+03  0.27558390643E+03 0.  0.
         25    2    3    3    0    0  0.42495363001E+01  0.48479166801E+02  0.43840715380E+02  0.14130903342E+03  0.12521160660E+03 0.  0.
         25    2    3    3    0    0 -0.42495363001E+01 -0.48479166801E+02  0.12019326227E+03  0.17939898848E+03  0.12397293495E+03 0.  0.
          5    1    4    4  502    0  0.50353258283E+02  0.58497765094E+02  0.88748107541E+00  0.77332507804E+02  0.47000000000E+01 0.  1.
         -5    1    4    4    0  502 -0.46103721983E+02 -0.10018598292E+02  0.42953234304E+02  0.63976525614E+02  0.47000000000E+01 0.  1.
          5    1    5    5  503    0  0.13492884933E+02 -0.83981899526E+02  0.10812078752E+03  0.13764887245E+03  0.47000000000E+01 0. -1.
         -5    1    5    5    0  503 -0.17742421233E+02  0.35502732724E+02  0.12072474747E+02  0.41750116031E+02  0.47000000000E+01 0. -1.
<mgrwt>
<rscale>  0 0.27558391E+03</rscale>
<asrwt>0</asrwt>
<pdfrwt beam="1">  1        2 0.37287846E-01 0.27558391E+03</pdfrwt>
<pdfrwt beam="2">  1       -2 0.12051850E-01 0.27558391E+03</pdfrwt>
<totfact> 0.67228952E+03</totfact>
</mgrwt>
</event>
<event>
 9    1  0.8175317E-001  0.2792283E+03  0.7818608E-02  0.1096111E+00
          2   -1    0    0  501    0  0.00000000000E+00  0.00000000000E+00  0.64658165280E+03  0.64658165280E+03  0.00000000000E+00 0. -1.
         -2   -1    0    0    0  501 -0.00000000000E+00 -0.00000000000E+00 -0.30146412287E+02  0.30146412287E+02  0.00000000000E+00 0. -1.
         35    2    1    2    0    0  0.00000000000E+00 -0.71054273576E-14  0.61643524051E+03  0.67672806509E+03  0.27922834442E+03 0.  0.
         25    2    3    3    0    0  0.43904167997E+02 -0.40791278143E+02  0.26447484462E+03  0.29878822791E+03  0.12544304428E+03 0.  0.
         25    2    3    3    0    0 -0.43904167997E+02  0.40791278143E+02  0.35196039589E+03  0.37793983718E+03  0.12397941728E+03 0.  0.
          5    1    4    4  502    0  0.23342800908E+02 -0.46786875411E+02  0.27089928917E+03  0.27593914716E+03  0.47000000000E+01 0.  1.
         -5    1    4    4    0  502  0.20561367089E+02  0.59955972683E+01 -0.64244445476E+01  0.22849080746E+02  0.47000000000E+01 0.  1.
          5    1    5    5  503    0 -0.20028304442E+02  0.38712462484E+02  0.25802670631E+02  0.50869003746E+02  0.47000000000E+01 0.  1.
         -5    1    5    5    0  503 -0.23875863555E+02  0.20788156589E+01  0.32615772526E+03  0.32707083343E+03  0.47000000000E+01 0.  1.
<mgrwt>
<rscale>  0 0.27922834E+03</rscale>
<asrwt>0</asrwt>
<pdfrwt beam="1">  1        2 0.99474090E-01 0.27922834E+03</pdfrwt>
<pdfrwt beam="2">  1       -2 0.46379101E-02 0.27922834E+03</pdfrwt>
<totfact> 0.10102896E+04</totfact>
</mgrwt>
</event>
<event>
 9    1  0.8175317E-001  0.2773254E+03  0.7818608E-02  0.1097159E+00
          1   -1    0    0  501    0  0.00000000000E+00  0.00000000000E+00  0.40600640048E+03  0.40600640048E+03  0.00000000000E+00 0. -1.
         -1   -1    0    0    0  501 -0.00000000000E+00 -0.00000000000E+00 -0.47357256491E+02  0.47357256491E+02  0.00000000000E+00 0. -1.
         35    2    1    2    0    0  0.00000000000E+00  0.00000000000E+00  0.35864914399E+03  0.45336365697E+03  0.27732543514E+03 0.  0.
         25    2    3    3    0    0  0.18409328380E+02 -0.17036945341E+02  0.93354715461E+02  0.15840632992E+03  0.12549223713E+03 0.  0.
         25    2    3    3    0    0 -0.18409328380E+02  0.17036945341E+02  0.26529442852E+03  0.29495732705E+03  0.12644971371E+03 0.  0.
          5    1    4    4  502    0  0.27425425748E+02 -0.39412783249E+02 -0.12416240285E+02  0.49817411452E+02  0.47000000000E+01 0. -1.
         -5    1    4    4    0  502 -0.90160973682E+01  0.22375837908E+02  0.10577095575E+03  0.10858891847E+03  0.47000000000E+01 0. -1.
          5    1    5    5  503    0 -0.37295514409E+02  0.58568949706E+02  0.90040440465E+02  0.11380091469E+03  0.47000000000E+01 0. -1.
         -5    1    5    5    0  503  0.18886186029E+02 -0.41532004365E+02  0.17525398806E+03  0.18115641236E+03  0.47000000000E+01 0. -1.
<mgrwt>
<rscale>  0 0.27732544E+03</rscale>
<asrwt>0</asrwt>
<pdfrwt beam="1">  1        1 0.62462521E-01 0.27732544E+03</pdfrwt>
<pdfrwt beam="2">  1       -1 0.72857320E-02 0.27732544E+03</pdfrwt>
<totfact> 0.58753175E+03</totfact>
</mgrwt>
</event>
<event>
 9    1  0.8175317E-001  0.2799536E+03  0.7818608E-02  0.1095714E+00
         -4   -1    0    0    0  501 -0.00000000000E+00  0.00000000000E+00  0.16759166384E+02  0.16759166384E+02  0.00000000000E+00 0. -1.
          4   -1    0    0  501    0  0.00000000000E+00 -0.00000000000E+00 -0.11691213579E+04  0.11691213579E+04  0.00000000000E+00 0. -1.
         35    2    1    2    0    0 -0.71054273576E-14 -0.35527136788E-14 -0.11523621915E+04  0.11858805243E+04  0.27995356301E+03 0.  0.
         25    2    3    3    0    0 -0.24456798173E+02  0.11614412247E+02 -0.80171530643E+03  0.81221620058E+03  0.12733693247E+03 0.  0.
         25    2    3    3    0    0  0.24456798173E+02 -0.11614412247E+02 -0.35064688510E+03  0.37366432372E+03  0.12624879897E+03 0.  0.
          5    1    4    4  502    0 -0.22684620036E+02  0.42248856165E+02 -0.75241530985E+03  0.75395652814E+03  0.47000000000E+01 0.  1.
         -5    1    4    4    0  502 -0.17721781377E+01 -0.30634443918E+02 -0.49299996577E+02  0.58259672433E+02  0.47000000000E+01 0.  1.
          5    1    5    5  503    0  0.64231542535E+02 -0.37046703799E+02 -0.14881810557E+03  0.16633420533E+03  0.47000000000E+01 0.  1.
         -5    1    5    5    0  503 -0.39774744362E+02  0.25432291551E+02 -0.20182877953E+03  0.20733011839E+03  0.47000000000E+01 0.  1.
<mgrwt>
<rscale>  0 0.27995356E+03</rscale>
<asrwt>0</asrwt>
<pdfrwt beam="1">  1        4 0.17986486E+00 0.27995356E+03</pdfrwt>
<pdfrwt beam="2">  1       -4 0.25783328E-02 0.27995356E+03</pdfrwt>
<totfact> 0.24957243E+02</totfact>
</mgrwt>
</event>
<event>
 9    1  0.8175317E-001  0.2761939E+03  0.7818608E-02  0.1097786E+00
         -1   -1    0    0    0  501 -0.00000000000E+00  0.00000000000E+00  0.16472354766E+02  0.16472354766E+02  0.00000000000E+00 0. -1.
          1   -1    0    0  501    0  0.00000000000E+00 -0.00000000000E+00 -0.11577434648E+04  0.11577434648E+04  0.00000000000E+00 0. -1.
         35    2    1    2    0    0 -0.35527136788E-14  0.71054273576E-14 -0.11412711100E+04  0.11742158196E+04  0.27619385279E+03 0.  0.
         25    2    3    3    0    0 -0.16922884185E+02  0.40326943822E+02 -0.73770771732E+03  0.74915494185E+03  0.12291380842E+03 0.  0.
         25    2    3    3    0    0  0.16922884185E+02 -0.40326943822E+02 -0.40356339272E+03  0.42506087772E+03  0.12609794375E+03 0.  0.
          5    1    4    4  502    0 -0.51874445481E+02 -0.19365714640E+02 -0.22402097406E+03  0.23081047597E+03  0.47000000000E+01 0. -1.
         -5    1    4    4    0  502  0.34951561297E+02  0.59692658462E+02 -0.51368674325E+03  0.51834446588E+03  0.47000000000E+01 0. -1.
          5    1    5    5  503    0 -0.16494323013E+01 -0.84621043014E+02 -0.27337086400E+03  0.28621174125E+03  0.47000000000E+01 0.  1.
         -5    1    5    5    0  503  0.18572316486E+02  0.44294099192E+02 -0.13019252872E+03  0.13884913647E+03  0.47000000000E+01 0.  1.
<mgrwt>
<rscale>  0 0.27619385E+03</rscale>
<asrwt>0</asrwt>
<pdfrwt beam="1">  1        1 0.17811436E+00 0.27619385E+03</pdfrwt>
<pdfrwt beam="2">  1       -1 0.25342087E-02 0.27619385E+03</pdfrwt>
<totfact> 0.59361638E+03</totfact>
</mgrwt>
</event>
<event>
 9    1  0.8175317E-001  0.2712790E+03  0.7818608E-02  0.1100550E+00
         -3   -1    0    0    0  501 -0.00000000000E+00  0.00000000000E+00  0.23029588761E+03  0.23029588761E+03  0.00000000000E+00 0. -1.
          3   -1    0    0  501    0  0.00000000000E+00 -0.00000000000E+00 -0.79888862854E+02  0.79888862854E+02  0.00000000000E+00 0. -1.
         35    2    1    2    0    0  0.00000000000E+00  0.14210854715E-13  0.15040702476E+03  0.31018475047E+03  0.27127901932E+03 0.  0.
         25    2    3    3    0    0  0.18521663350E+02 -0.40736013104E+02  0.10368486301E+03  0.16986079627E+03  0.12688445341E+03 0.  0.
         25    2    3    3    0    0 -0.18521663350E+02  0.40736013104E+02  0.46722161749E+02  0.14032395419E+03  0.12452058844E+03 0.  0.
          5    1    4    4  502    0  0.44095387425E+02 -0.51344201287E+02  0.58726947779E+01  0.68097053842E+02  0.47000000000E+01 0.  1.
         -5    1    4    4    0  502 -0.25573724075E+02  0.10608188182E+02  0.97812168232E+02  0.10176374243E+03  0.47000000000E+01 0.  1.
          5    1    5    5  503    0 -0.40231165054E+01  0.82621393459E+01 -0.42723638161E+02  0.43952789112E+02  0.47000000000E+01 0. -1.
         -5    1    5    5    0  503 -0.14498546845E+02  0.32473873759E+02  0.89445799910E+02  0.96371165081E+02  0.47000000000E+01 0. -1.
<mgrwt>
<rscale>  0 0.27127902E+03</rscale>
<asrwt>0</asrwt>
<pdfrwt beam="1">  1        3 0.12290594E-01 0.27127902E+03</pdfrwt>
<pdfrwt beam="2">  1       -3 0.35430136E-01 0.27127902E+03</pdfrwt>
<totfact> 0.10393029E+03</totfact>
</mgrwt>
</event>
<event>
 9    1  0.8175317E-001  0.2725578E+03  0.7818608E-02  0.1099825E+00
         -2   -1    0    0    0  501 -0.00000000000E+00  0.00000000000E+00  0.10190969064E+02  0.10190969064E+02  0.00000000000E+00 0.  1.
          2   -1    0    0  501    0  0.00000000000E+00 -0.00000000000E+00 -0.18223919814E+04  0.18223919814E+04  0.00000000000E+00 0.  1.
         35    2    1    2    0    0  0.71054273576E-14  0.00000000000E+00 -0.18122010123E+04  0.18325829504E+04  0.27255781262E+03 0.  0.
         25    2    3    3    0    0  0.26439072578E+02  0.36865933062E+02 -0.10294497871E+04  0.10386385220E+04  0.13017293751E+03 0.  0.
         25    2    3    3    0    0 -0.26439072578E+02 -0.36865933062E+02 -0.78275122522E+03  0.79394442844E+03  0.12486053535E+03 0.  0.
          5    1    4    4  502    0  0.13620673934E+02 -0.39660440971E+02 -0.64667341672E+03  0.64804866425E+03  0.47000000000E+01 0.  1.
         -5    1    4    4    0  502  0.12818398645E+02  0.76526374034E+02 -0.38277637038E+03  0.39058985777E+03  0.47000000000E+01 0.  1.
          5    1    5    5  503    0 -0.32351750062E+02 -0.49117624291E+02 -0.77565763430E+03  0.77789847178E+03  0.47000000000E+01 0.  1.
         -5    1    5    5    0  503  0.59126774833E+01  0.12251691228E+02 -0.70935909157E+01  0.16045956657E+02  0.47000000000E+01 0.  1.
<mgrwt>
<rscale>  0 0.27255781E+03</rscale>
<asrwt>0</asrwt>
<pdfrwt beam="1">  1        2 0.28036800E+00 0.27255781E+03</pdfrwt>
<pdfrwt beam="2">  1       -2 0.15678414E-02 0.27255781E+03</pdfrwt>
<totfact> 0.10183396E+04</totfact>
</mgrwt>
</event>
<event>
 9    1  0.8175317E-001  0.2726443E+03  0.7818608E-02  0.1099776E+00
         -2   -1    0    0    0  501 -0.00000000000E+00  0.00000000000E+00  0.51321261466E+02  0.51321261466E+02  0.00000000000E+00 0.  1.
          2   -1    0    0  501    0  0.00000000000E+00 -0.00000000000E+00 -0.36210592088E+03  0.36210592088E+03  0.00000000000E+00 0.  1.
         35    2    1    2    0    0 -0.17763568394E-14  0.00000000000E+00 -0.31078465942E+03  0.41342718235E+03  0.27264432981E+03 0.  0.
         25    2    3    3    0    0 -0.11184789476E+02  0.24808768830E+02 -0.80791840450E+02  0.15138843853E+03  0.12510221145E+03 0.  0.
         25    2    3    3    0    0  0.11184789476E+02 -0.24808768830E+02 -0.22999281897E+03  0.26203874382E+03  0.12258479498E+03 0.  0.
          5    1    4    4  502    0  0.51806191591E+02  0.46989888345E+01 -0.78381090434E+01  0.52815603155E+02  0.47000000000E+01 0. -1.
         -5    1    4    4    0  502 -0.62990981067E+02  0.20109779995E+02 -0.72953731407E+02  0.98572835373E+02  0.47000000000E+01 0. -1.
          5    1    5    5  503    0  0.22285534687E+02 -0.46197633263E+02 -0.28128924653E+02  0.58687245442E+02  0.47000000000E+01 0. -1.
         -5    1    5    5    0  503 -0.11100745211E+02  0.21388864433E+02 -0.20186389431E+03  0.20335149838E+03  0.47000000000E+01 0. -1.
<mgrwt>
<rscale>  0 0.27264433E+03</rscale>
<asrwt>0</asrwt>
<pdfrwt beam="1">  1        2 0.55708602E-01 0.27264433E+03</pdfrwt>
<pdfrwt beam="2">  1       -2 0.78955788E-02 0.27264433E+03</pdfrwt>
<totfact> 0.85301624E+03</totfact>
</mgrwt>
</event>
<event>
 9    1  0.8175317E-001  0.2675073E+03  0.7818608E-02  0.1102715E+00
          1   -1    0    0  501    0  0.00000000000E+00  0.00000000000E+00  0.51125827905E+03  0.51125827905E+03  0.00000000000E+00 0. -1.
         -1   -1    0    0    0  501 -0.00000000000E+00 -0.00000000000E+00 -0.34992169632E+02  0.34992169632E+02  0.00000000000E+00 0. -1.
         35    2    1    2    0    0  0.71054273576E-14 -0.35527136788E-14  0.47626610942E+03  0.54625044869E+03  0.26750728159E+03 0.  0.
         25    2    3    3    0    0 -0.29412822771E+02 -0.23380716732E+02  0.18496898225E+03  0.22699047569E+03  0.12609274208E+03 0.  0.
         25    2    3    3    0    0  0.29412822771E+02  0.23380716732E+02  0.29129712718E+03  0.31925997299E+03  0.12514448448E+03 0.  0.
          5    1    4    4  502    0 -0.69570168011E+02  0.19443511800E+02  0.10941480966E+03  0.13119355549E+03  0.47000000000E+01 0.  1.
         -5    1    4    4    0  502  0.40157345241E+02 -0.42824228532E+02  0.75554172581E+02  0.95796920204E+02  0.47000000000E+01 0.  1.
          5    1    5    5  503    0 -0.36498440616E+02  0.46939879431E+02  0.15229284114E+03  0.16355637533E+03  0.47000000000E+01 0. -1.
         -5    1    5    5    0  503  0.65911263387E+02 -0.23559162699E+02  0.13900428604E+03  0.15570359766E+03  0.47000000000E+01 0. -1.
<mgrwt>
<rscale>  0 0.26750728E+03</rscale>
<asrwt>0</asrwt>
<pdfrwt beam="1">  1        1 0.78655114E-01 0.26750728E+03</pdfrwt>
<pdfrwt beam="2">  1       -1 0.53834111E-02 0.26750728E+03</pdfrwt>
<totfact> 0.68584626E+03</totfact>
</mgrwt>
</event>
<event>
 9    1  0.8175317E-001  0.2737205E+03  0.7818608E-02  0.1099169E+00
          2   -1    0    0  501    0  0.00000000000E+00  0.00000000000E+00  0.19105575085E+04  0.19105575085E+04  0.00000000000E+00 0.  1.
         -2   -1    0    0    0  501 -0.00000000000E+00 -0.00000000000E+00 -0.98038009086E+01  0.98038009086E+01  0.00000000000E+00 0.  1.
         35    2    1    2    0    0  0.00000000000E+00  0.00000000000E+00  0.19007537076E+04  0.19203613094E+04  0.27372048106E+03 0.  0.
         25    2    3    3    0    0 -0.13120963309E+02  0.10352072136E+00  0.57269634020E+03  0.58640038740E+03  0.12534809881E+03 0.  0.
         25    2    3    3    0    0  0.13120963309E+02 -0.10352072136E+00  0.13280573674E+04  0.13339609220E+04  0.12467237046E+03 0.  0.
          5    1    4    4  502    0 -0.14331714102E+02  0.61878088219E+02  0.26755718991E+03  0.27503315383E+03  0.47000000000E+01 0.  1.
         -5    1    4    4    0  502  0.12107507925E+01 -0.61774567497E+02  0.30513915029E+03  0.31136723357E+03  0.47000000000E+01 0.  1.
          5    1    5    5  503    0 -0.53514954967E+01  0.45073722198E+02  0.10875030273E+04  0.10884600146E+04  0.47000000000E+01 0.  1.
         -5    1    5    5    0  503  0.18472458806E+02 -0.45177242920E+02  0.24055434003E+03  0.24550090737E+03  0.47000000000E+01 0.  1.
<mgrwt>
<rscale>  0 0.27372048E+03</rscale>
<asrwt>0</asrwt>
<pdfrwt beam="1">  1        2 0.29393163E+00 0.27372048E+03</pdfrwt>
<pdfrwt beam="2">  1       -2 0.15082786E-02 0.27372048E+03</pdfrwt>
<totfact> 0.96887374E+03</totfact>
</mgrwt>
</event>
<event>
 9    1  0.8175317E-001  0.2735674E+03  0.7818608E-02  0.1099255E+00
         -2   -1    0    0    0  501 -0.00000000000E+00  0.00000000000E+00  0.28348053936E+02  0.28348053936E+02  0.00000000000E+00 0. -1.
          2   -1    0    0  501    0  0.00000000000E+00 -0.00000000000E+00 -0.66000230719E+03  0.66000230719E+03  0.00000000000E+00 0. -1.
         35    2    1    2    0    0 -0.10658141036E-13  0.00000000000E+00 -0.63165425325E+03  0.68835036113E+03  0.27356740304E+03 0.  0.
         25    2    3    3    0    0  0.29492299342E+02 -0.29126761096E+02 -0.40293804200E+03  0.42404612982E+03  0.12545074969E+03 0.  0.
         25    2    3    3    0    0 -0.29492299342E+02  0.29126761096E+02 -0.22871621126E+03  0.26430423130E+03  0.12580722340E+03 0.  0.
          5    1    4    4  502    0  0.77402808652E+02 -0.61460293506E+01 -0.26390429226E+03  0.27513003097E+03  0.47000000000E+01 0.  1.
         -5    1    4    4    0  502 -0.47910509310E+02 -0.22980731746E+02 -0.13903374973E+03  0.14891609886E+03  0.47000000000E+01 0.  1.
          5    1    5    5  503    0 -0.60842126779E+02  0.21910091753E+02 -0.47960742325E+02  0.80648244345E+02  0.47000000000E+01 0.  1.
         -5    1    5    5    0  503  0.31349827437E+02  0.72166693437E+01 -0.18075546893E+03  0.18365598696E+03  0.47000000000E+01 0.  1.
<mgrwt>
<rscale>  0 0.27356740E+03</rscale>
<asrwt>0</asrwt>
<pdfrwt beam="1">  1        2 0.10153880E+00 0.27356740E+03</pdfrwt>
<pdfrwt beam="2">  1       -2 0.43612398E-02 0.27356740E+03</pdfrwt>
<totfact> 0.10812131E+04</totfact>
</mgrwt>
</event>
<event>
 9    1  0.8175317E-001  0.2750623E+03  0.7818608E-02  0.1098417E+00
         -2   -1    0    0    0  501 -0.00000000000E+00  0.00000000000E+00  0.58633292508E+02  0.58633292508E+02  0.00000000000E+00 0. -1.
          2   -1    0    0  501    0  0.00000000000E+00 -0.00000000000E+00 -0.32259518749E+03  0.32259518749E+03  0.00000000000E+00 0. -1.
         35    2    1    2    0    0 -0.35527136788E-14 -0.35527136788E-14 -0.26396189498E+03  0.38122848000E+03  0.27506230559E+03 0.  0.
         25    2    3    3    0    0 -0.25194490722E+02 -0.19394349268E+02 -0.73734049518E+02  0.15142961899E+03  0.12838736816E+03 0.  0.
         25    2    3    3    0    0  0.25194490722E+02  0.19394349268E+02 -0.19022784547E+03  0.22979886100E+03  0.12493990628E+03 0.  0.
          5    1    4    4  502    0  0.67101169379E+01 -0.50022776256E+02  0.14412320808E+02  0.52698280852E+02  0.47000000000E+01 0. -1.
         -5    1    4    4    0  502 -0.31904607660E+02  0.30628426988E+02 -0.88146370327E+02  0.98731338143E+02  0.47000000000E+01 0. -1.
          5    1    5    5  503    0  0.41388395724E+02 -0.10624878800E+02 -0.19057798586E+03  0.19536618450E+03  0.47000000000E+01 0. -1.
         -5    1    5    5    0  503 -0.16193905002E+02  0.30019228068E+02  0.35014039757E+00  0.34432676505E+02  0.47000000000E+01 0. -1.
<mgrwt>
<rscale>  0 0.27506231E+03</rscale>
<asrwt>0</asrwt>
<pdfrwt beam="1">  1        2 0.49630029E-01 0.27506231E+03</pdfrwt>
<pdfrwt beam="2">  1       -2 0.90205066E-02 0.27506231E+03</pdfrwt>
<totfact> 0.78433452E+03</totfact>
</mgrwt>
</event>
<event>
 9    1  0.8175317E-001  0.2744440E+03  0.7818608E-02  0.1098763E+00
          1   -1    0    0  501    0  0.00000000000E+00  0.00000000000E+00  0.56396062347E+03  0.56396062347E+03  0.00000000000E+00 0.  1.
         -1   -1    0    0    0  501 -0.00000000000E+00 -0.00000000000E+00 -0.33388649672E+02  0.33388649672E+02  0.00000000000E+00 0.  1.
         35    2    1    2    0    0  0.00000000000E+00  0.71054273576E-14  0.53057197380E+03  0.59734927314E+03  0.27444404665E+03 0.  0.
         25    2    3    3    0    0 -0.92736480170E+01  0.41251488415E+02  0.19332613662E+03  0.23424851121E+03  0.12533827851E+03 0.  0.
         25    2    3    3    0    0  0.92736480170E+01 -0.41251488415E+02  0.33724583718E+03  0.36310076193E+03  0.12774867035E+03 0.  0.
          5    1    4    4  502    0 -0.70418311022E+00  0.67452310949E+02  0.40362737642E+02  0.78749925182E+02  0.47000000000E+01 0. -1.
         -5    1    4    4    0  502 -0.85694649068E+01 -0.26200822534E+02  0.15296339898E+03  0.15549858603E+03  0.47000000000E+01 0. -1.
          5    1    5    5  503    0 -0.10782951063E+02 -0.60103213700E+01  0.31746594113E+03  0.31774063286E+03  0.47000000000E+01 0.  1.
         -5    1    5    5    0  503  0.20056599080E+02 -0.35241167045E+02  0.19779896054E+02  0.45360129070E+02  0.47000000000E+01 0.  1.
<mgrwt>
<rscale>  0 0.27444405E+03</rscale>
<asrwt>0</asrwt>
<pdfrwt beam="1">  1        1 0.86763166E-01 0.27444405E+03</pdfrwt>
<pdfrwt beam="2">  1       -1 0.51367157E-02 0.27444405E+03</pdfrwt>
<totfact> 0.64513472E+03</totfact>
</mgrwt>
</event>
<event>
 9    1  0.8175317E-001  0.2764935E+03  0.7818608E-02  0.1097620E+00
         -1   -1    0    0    0  501 -0.00000000000E+00  0.00000000000E+00  0.63106826047E+03  0.63106826047E+03  0.00000000000E+00 0. -1.
          1   -1    0    0  501    0  0.00000000000E+00 -0.00000000000E+00 -0.30285404476E+02  0.30285404476E+02  0.00000000000E+00 0. -1.
         35    2    1    2    0    0  0.00000000000E+00  0.00000000000E+00  0.60078285599E+03  0.66135366494E+03  0.27649345396E+03 0.  0.
         25    2    3    3    0    0  0.58133841375E+02 -0.45703755310E+01  0.27409902725E+03  0.30685436329E+03  0.12501556576E+03 0.  0.
         25    2    3    3    0    0 -0.58133841375E+02  0.45703755310E+01  0.32668382874E+03  0.35449930166E+03  0.12468760592E+03 0.  0.
          5    1    4    4  502    0 -0.19260985703E+02  0.32398866876E+02  0.15758670912E+03  0.16209976260E+03  0.47000000000E+01 0. -1.
         -5    1    4    4    0  502  0.77394827079E+02 -0.36969242407E+02  0.11651231813E+03  0.14475460069E+03  0.47000000000E+01 0. -1.
          5    1    5    5  503    0 -0.14036749647E+01 -0.22999471843E+02  0.18770080144E+01  0.23591506259E+02  0.47000000000E+01 0.  1.
         -5    1    5    5    0  503 -0.56730166411E+02  0.27569847374E+02  0.32480682073E+03  0.33090779540E+03  0.47000000000E+01 0.  1.
<mgrwt>
<rscale>  0 0.27649345E+03</rscale>
<asrwt>0</asrwt>
<pdfrwt beam="1">  1        1 0.46592934E-02 0.27649345E+03</pdfrwt>
<pdfrwt beam="2">  1       -1 0.97087415E-01 0.27649345E+03</pdfrwt>
<totfact> 0.19752936E+03</totfact>
</mgrwt>
</event>
<event>
 9    1  0.8175317E-001  0.2738252E+03  0.7818608E-02  0.1099110E+00
         -1   -1    0    0    0  501 -0.00000000000E+00  0.00000000000E+00  0.12543662435E+04  0.12543662435E+04  0.00000000000E+00 0.  1.
          1   -1    0    0  501    0  0.00000000000E+00 -0.00000000000E+00 -0.14943847018E+02  0.14943847018E+02  0.00000000000E+00 0.  1.
         35    2    1    2    0    0  0.17763568394E-14  0.00000000000E+00  0.12394223965E+04  0.12693100905E+04  0.27382517962E+03 0.  0.
         25    2    3    3    0    0 -0.80028088344E+01 -0.39948380752E+02  0.79313919212E+03  0.80407401515E+03  0.12571923355E+03 0.  0.
         25    2    3    3    0    0  0.80028088344E+01  0.39948380752E+02  0.44628320438E+03  0.46523607539E+03  0.12496395184E+03 0.  0.
          5    1    4    4  502    0  0.33293262500E+02 -0.71435270486E+02  0.52614827182E+03  0.53203903347E+03  0.47000000000E+01 0. -1.
         -5    1    4    4    0  502 -0.41296071335E+02  0.31486889735E+02  0.26699092031E+03  0.27203498168E+03  0.47000000000E+01 0. -1.
          5    1    5    5  503    0 -0.14737853394E+02  0.56903110580E+02  0.42596984484E+03  0.43003205349E+03  0.47000000000E+01 0.  1.
         -5    1    5    5    0  503  0.22740662229E+02 -0.16954729828E+02  0.20313359542E+02  0.35204021901E+02  0.47000000000E+01 0.  1.
<mgrwt>
<rscale>  0 0.27382518E+03</rscale>
<asrwt>0</asrwt>
<pdfrwt beam="1">  1        1 0.22990544E-02 0.27382518E+03</pdfrwt>
<pdfrwt beam="2">  1       -1 0.19297934E+00 0.27382518E+03</pdfrwt>
<totfact> 0.92440765E+02</totfact>
</mgrwt>
</event>
<event>
 9    1  0.8175317E-001  0.2723008E+03  0.7818608E-02  0.1099970E+00
         -2   -1    0    0    0  501 -0.00000000000E+00  0.00000000000E+00  0.57561497311E+01  0.57561497311E+01  0.00000000000E+00 0.  1.
          2   -1    0    0  501    0  0.00000000000E+00 -0.00000000000E+00 -0.32203690661E+04  0.32203690661E+04  0.00000000000E+00 0.  1.
         35    2    1    2    0    0 -0.35527136788E-14  0.71054273576E-14 -0.32146129164E+04  0.32261252158E+04  0.27230076411E+03 0.  0.
         25    2    3    3    0    0  0.13491164523E+02 -0.37458472261E+02 -0.20807317772E+04  0.20848102702E+04  0.12411279274E+03 0.  0.
         25    2    3    3    0    0 -0.13491164523E+02  0.37458472261E+02 -0.11338811392E+04  0.11413149456E+04  0.12380718374E+03 0.  0.
          5    1    4    4  502    0 -0.39179777168E+02 -0.26422449513E+02 -0.34671397237E+03  0.34995123862E+03  0.47000000000E+01 0. -1.
         -5    1    4    4    0  502  0.52670941691E+02 -0.11036022748E+02 -0.17340178048E+04  0.17348590316E+04  0.47000000000E+01 0. -1.
          5    1    5    5  503    0 -0.10228162791E+02  0.14460196724E+02 -0.19787951078E+02  0.26969716558E+02  0.47000000000E+01 0. -1.
         -5    1    5    5    0  503 -0.32630017320E+01  0.22998275538E+02 -0.11140931881E+04  0.11143452291E+04  0.47000000000E+01 0. -1.
<mgrwt>
<rscale>  0 0.27230076E+03</rscale>
<asrwt>0</asrwt>
<pdfrwt beam="1">  1        2 0.49544148E+00 0.27230076E+03</pdfrwt>
<pdfrwt beam="2">  1       -2 0.88556134E-03 0.27230076E+03</pdfrwt>
<totfact> 0.38976365E+03</totfact>
</mgrwt>
</event>
<event>
 9    1  0.8175317E-001  0.2787705E+03  0.7818608E-02  0.1096362E+00
          1   -1    0    0  501    0  0.00000000000E+00  0.00000000000E+00  0.13752798219E+02  0.13752798219E+02  0.00000000000E+00 0. -1.
         -1   -1    0    0    0  501 -0.00000000000E+00 -0.00000000000E+00 -0.14126762523E+04  0.14126762523E+04  0.00000000000E+00 0. -1.
         35    2    1    2    0    0 -0.71054273576E-14  0.00000000000E+00 -0.13989234541E+04  0.14264290505E+04  0.27877052532E+03 0.  0.
         25    2    3    3    0    0  0.30575071126E+02  0.30731761193E+02 -0.89742016134E+03  0.90772489142E+03  0.12931456376E+03 0.  0.
         25    2    3    3    0    0 -0.30575071126E+02 -0.30731761193E+02 -0.50150329273E+03  0.51870415909E+03  0.12517657895E+03 0.  0.
          5    1    4    4  502    0 -0.46687721970E+02  0.19506752998E+02 -0.50746801553E+03  0.51000601328E+03  0.47000000000E+01 0. -1.
         -5    1    4    4    0  502  0.77262793096E+02  0.11225008195E+02 -0.38995214581E+03  0.39771887814E+03  0.47000000000E+01 0. -1.
          5    1    5    5  503    0 -0.73967475303E+02 -0.40751783339E+02 -0.27105291791E+03  0.28394307450E+03  0.47000000000E+01 0. -1.
         -5    1    5    5    0  503  0.43392404178E+02  0.10020022145E+02 -0.23045037482E+03  0.23476108459E+03  0.47000000000E+01 0. -1.
<mgrwt>
<rscale>  0 0.27877053E+03</rscale>
<asrwt>0</asrwt>
<pdfrwt beam="1">  1        1 0.21158153E-02 0.27877053E+03</pdfrwt>
<pdfrwt beam="2">  1       -1 0.21733479E+00 0.27877053E+03</pdfrwt>
<totfact> 0.71684482E+02</totfact>
</mgrwt>
</event>
<event>
 9    1  0.8175317E-001  0.2715981E+03  0.7818608E-02  0.1100368E+00
         -2   -1    0    0    0  501 -0.00000000000E+00  0.00000000000E+00  0.49603062399E+02  0.49603062399E+02  0.00000000000E+00 0.  1.
          2   -1    0    0  501    0  0.00000000000E+00 -0.00000000000E+00 -0.37177898305E+03  0.37177898305E+03  0.00000000000E+00 0.  1.
         35    2    1    2    0    0 -0.17763568394E-14  0.14210854715E-13 -0.32217592066E+03  0.42138204545E+03  0.27159805666E+03 0.  0.
         25    2    3    3    0    0  0.57234391167E+01 -0.52980731942E+02 -0.18288349270E+03  0.22722601215E+03  0.12387724966E+03 0.  0.
         25    2    3    3    0    0 -0.57234391167E+01  0.52980731942E+02 -0.13929242795E+03  0.19415603330E+03  0.12431600488E+03 0.  0.
          5    1    4    4  502    0  0.95566089617E+01  0.39121286644E+02 -0.38838516345E+02  0.56145562562E+02  0.47000000000E+01 0. -1.
         -5    1    4    4    0  502 -0.38331698450E+01 -0.92102018586E+02 -0.14404497635E+03  0.17108044959E+03  0.47000000000E+01 0. -1.
          5    1    5    5  503    0 -0.14845075042E+02 -0.39075553346E+02 -0.35492574819E+02  0.55037150994E+02  0.47000000000E+01 0.  1.
         -5    1    5    5    0  503  0.91216359249E+01  0.92056285288E+02 -0.10379985314E+03  0.13911888231E+03  0.47000000000E+01 0.  1.
<mgrwt>
<rscale>  0 0.27159806E+03</rscale>
<asrwt>0</asrwt>
<pdfrwt beam="1">  1        2 0.57196769E-01 0.27159806E+03</pdfrwt>
<pdfrwt beam="2">  1       -2 0.76312401E-02 0.27159806E+03</pdfrwt>
<totfact> 0.87409373E+03</totfact>
</mgrwt>
</event>
<event>
 9    1  0.8175317E-001  0.2629232E+03  0.7818608E-02  0.1105400E+00
          1   -1    0    0  501    0  0.00000000000E+00  0.00000000000E+00  0.20444214985E+03  0.20444214985E+03  0.00000000000E+00 0.  1.
         -1   -1    0    0    0  501 -0.00000000000E+00 -0.00000000000E+00 -0.84533204080E+02  0.84533204080E+02  0.00000000000E+00 0.  1.
         35    2    1    2    0    0  0.35527136788E-14  0.71054273576E-14  0.11990894577E+03  0.28897535393E+03  0.26292318252E+03 0.  0.
         25    2    3    3    0    0  0.20082664658E+02 -0.71022336943E+01  0.93095489179E+02  0.15898081764E+03  0.12709986282E+03 0.  0.
         25    2    3    3    0    0 -0.20082664658E+02  0.71022336943E+01  0.26813456593E+02  0.12999453629E+03  0.12540280248E+03 0.  0.
          5    1    4    4  502    0  0.14298207590E+02 -0.55170280329E+02  0.38202063255E+01  0.57313894897E+02  0.47000000000E+01 0.  1.
         -5    1    4    4    0  502  0.57844570678E+01  0.48068046635E+02  0.89275282853E+02  0.10166692274E+03  0.47000000000E+01 0.  1.
          5    1    5    5  503    0 -0.50119819713E+02 -0.24983338186E+02 -0.25324917790E+02  0.61640935879E+02  0.47000000000E+01 0. -1.
         -5    1    5    5    0  503  0.30037155055E+02  0.32085571880E+02  0.52138374382E+02  0.68353600416E+02  0.47000000000E+01 0. -1.
<mgrwt>
<rscale>  0 0.26292318E+03</rscale>
<asrwt>0</asrwt>
<pdfrwt beam="1">  1        1 0.31452638E-01 0.26292318E+03</pdfrwt>
<pdfrwt beam="2">  1       -1 0.13005108E-01 0.26292318E+03</pdfrwt>
<totfact> 0.56977912E+03</totfact>
</mgrwt>
</event>
<event>
 9    1  0.8175317E-001  0.2746699E+03  0.7818608E-02  0.1098636E+00
         -2   -1    0    0    0  501 -0.00000000000E+00  0.00000000000E+00  0.14381718952E+02  0.14381718952E+02  0.00000000000E+00 0.  1.
          2   -1    0    0  501    0  0.00000000000E+00 -0.00000000000E+00 -0.13114491778E+04  0.13114491778E+04  0.00000000000E+00 0.  1.
         35    2    1    2    0    0  0.00000000000E+00  0.00000000000E+00 -0.12970674589E+04  0.13258308968E+04  0.27466993644E+03 0.  0.
         25    2    3    3    0    0 -0.36725326072E+02  0.30874278692E+02 -0.80609766627E+03  0.81696905785E+03  0.12386695793E+03 0.  0.
         25    2    3    3    0    0  0.36725326072E+02 -0.30874278692E+02 -0.49096979261E+03  0.50886183893E+03  0.12484816059E+03 0.  0.
          5    1    4    4  502    0 -0.23919016986E+02 -0.41077089082E+02 -0.49808693375E+03  0.50037199181E+03  0.47000000000E+01 0.  1.
         -5    1    4    4    0  502 -0.12806309086E+02  0.71951367775E+02 -0.30801073252E+03  0.31659706604E+03  0.47000000000E+01 0.  1.
          5    1    5    5  503    0 -0.43011831375E+02 -0.27342850809E+02 -0.24258614746E+03  0.24792696116E+03  0.47000000000E+01 0. -1.
         -5    1    5    5    0  503  0.79737157447E+02 -0.35314278834E+01 -0.24838364515E+03  0.26093487777E+03  0.47000000000E+01 0. -1.
<mgrwt>
<rscale>  0 0.27466994E+03</rscale>
<asrwt>0</asrwt>
<pdfrwt beam="1">  1        2 0.20176142E+00 0.27466994E+03</pdfrwt>
<pdfrwt beam="2">  1       -2 0.22125720E-02 0.27466994E+03</pdfrwt>
<totfact> 0.11506075E+04</totfact>
</mgrwt>
</event>
<event>
 9    1  0.8175317E-001  0.2726629E+03  0.7818608E-02  0.1099765E+00
         -2   -1    0    0    0  501 -0.00000000000E+00  0.00000000000E+00  0.72933813681E+01  0.72933813681E+01  0.00000000000E+00 0.  1.
          2   -1    0    0  501    0  0.00000000000E+00 -0.00000000000E+00 -0.25483731935E+04  0.25483731935E+04  0.00000000000E+00 0.  1.
         35    2    1    2    0    0  0.35527136788E-14  0.00000000000E+00 -0.25410798121E+04  0.25556665748E+04  0.27266285092E+03 0.  0.
         25    2    3    3    0    0 -0.22128284218E+02  0.19269807474E+02 -0.82488327808E+03  0.83467892267E+03  0.12407858421E+03 0.  0.
         25    2    3    3    0    0  0.22128284218E+02 -0.19269807474E+02 -0.17161965340E+04  0.17209876522E+04  0.12492785544E+03 0.  0.
          5    1    4    4  502    0  0.45792136763E+02  0.14451072902E+02 -0.52078847090E+03  0.52301861795E+03  0.47000000000E+01 0.  1.
         -5    1    4    4    0  502 -0.67920420980E+02  0.48187345723E+01 -0.30409480717E+03  0.31166030472E+03  0.47000000000E+01 0.  1.
          5    1    5    5  503    0  0.99140893237E+01 -0.72381421844E+02 -0.91270052881E+03  0.91563186089E+03  0.47000000000E+01 0.  1.
         -5    1    5    5    0  503  0.12214194894E+02  0.53111614370E+02 -0.80349600520E+03  0.80535579126E+03  0.47000000000E+01 0.  1.
<mgrwt>
<rscale>  0 0.27266285E+03</rscale>
<asrwt>0</asrwt>
<pdfrwt beam="1">  1        2 0.39205770E+00 0.27266285E+03</pdfrwt>
<pdfrwt beam="2">  1       -2 0.11220579E-02 0.27266285E+03</pdfrwt>
<totfact> 0.68018503E+03</totfact>
</mgrwt>
</event>
<event>
 9    1  0.8175317E-001  0.2756407E+03  0.7818608E-02  0.1098094E+00
          2   -1    0    0  501    0  0.00000000000E+00  0.00000000000E+00  0.96570268318E+02  0.96570268318E+02  0.00000000000E+00 0. -1.
         -2   -1    0    0    0  501 -0.00000000000E+00 -0.00000000000E+00 -0.19669048287E+03  0.19669048287E+03  0.00000000000E+00 0. -1.
         35    2    1    2    0    0  0.71054273576E-14 -0.17763568394E-14 -0.10012021455E+03  0.29326075119E+03  0.27564072781E+03 0.  0.
         25    2    3    3    0    0 -0.18313350282E+02  0.78006067237E+01  0.76176917464E+01  0.12813719846E+03  0.12635222253E+03 0.  0.
         25    2    3    3    0    0  0.18313350282E+02 -0.78006067237E+01 -0.10773790630E+03  0.16512355273E+03  0.12353988404E+03 0.  0.
          5    1    4    4  502    0  0.50105762530E+02  0.11790662940E+02 -0.18127579608E+02  0.54775051928E+02  0.47000000000E+01 0.  1.
         -5    1    4    4    0  502 -0.68419112811E+02 -0.39900562165E+01  0.25745271354E+02  0.73362146531E+02  0.47000000000E+01 0.  1.
          5    1    5    5  503    0 -0.67229914764E+01  0.55684452493E+02 -0.41763705186E+02  0.70087473451E+02  0.47000000000E+01 0.  1.
         -5    1    5    5    0  503  0.25036341758E+02 -0.63485059216E+02 -0.65974201113E+02  0.95036079280E+02  0.47000000000E+01 0.  1.
<mgrwt>
<rscale>  0 0.27564073E+03</rscale>
<asrwt>0</asrwt>
<pdfrwt beam="1">  1        2 0.14856964E-01 0.27564073E+03</pdfrwt>
<pdfrwt beam="2">  1       -2 0.30260074E-01 0.27564073E+03</pdfrwt>
<totfact> 0.39466616E+03</totfact>
</mgrwt>
</event>
<event>
 9    1  0.8175317E-001  0.2744990E+03  0.7818608E-02  0.1098732E+00
         -2   -1    0    0    0  501 -0.00000000000E+00  0.00000000000E+00  0.19727066019E+03  0.19727066019E+03  0.00000000000E+00 0.  1.
          2   -1    0    0  501    0  0.00000000000E+00 -0.00000000000E+00 -0.95490234905E+02  0.95490234905E+02  0.00000000000E+00 0.  1.
         35    2    1    2    0    0  0.00000000000E+00 -0.71054273576E-14  0.10178042529E+03  0.29276089510E+03  0.27449897400E+03 0.  0.
         25    2    3    3    0    0 -0.24921462159E+02 -0.46456346936E+02  0.30156743782E+02  0.13892164083E+03  0.12494207318E+03 0.  0.
         25    2    3    3    0    0  0.24921462159E+02  0.46456346936E+02  0.71623681506E+02  0.15383925426E+03  0.12552805644E+03 0.  0.
          5    1    4    4  502    0  0.27644016699E+02  0.13020228399E+02  0.48314586752E+02  0.57359456935E+02  0.47000000000E+01 0. -1.
         -5    1    4    4    0  502 -0.52565478858E+02 -0.59476575335E+02 -0.18157842970E+02  0.81562183900E+02  0.47000000000E+01 0. -1.
          5    1    5    5  503    0  0.40997384461E+02  0.14451584684E+02  0.99190501185E+02  0.10839962803E+03  0.47000000000E+01 0. -1.
         -5    1    5    5    0  503 -0.16075922302E+02  0.32004762253E+02 -0.27566819679E+02  0.45439626230E+02  0.47000000000E+01 0. -1.
<mgrwt>
<rscale>  0 0.27449897E+03</rscale>
<asrwt>0</asrwt>
<pdfrwt beam="1">  1        2 0.14690805E-01 0.27449897E+03</pdfrwt>
<pdfrwt beam="2">  1       -2 0.30349332E-01 0.27449897E+03</pdfrwt>
<totfact> 0.39778222E+03</totfact>
</mgrwt>
</event>
<event>
 9    1  0.8175317E-001  0.2704713E+03  0.7818608E-02  0.1101010E+00
         -2   -1    0    0    0  501 -0.00000000000E+00  0.00000000000E+00  0.23935137814E+03  0.23935137814E+03  0.00000000000E+00 0. -1.
          2   -1    0    0  501    0  0.00000000000E+00 -0.00000000000E+00 -0.76409354934E+02  0.76409354934E+02  0.00000000000E+00 0. -1.
         35    2    1    2    0    0  0.00000000000E+00  0.71054273576E-14  0.16294202321E+03  0.31576073308E+03  0.27047132496E+03 0.  0.
         25    2    3    3    0    0  0.33962483125E+02  0.15621386979E+02  0.40893339882E+02  0.13686497191E+03  0.12514902036E+03 0.  0.
         25    2    3    3    0    0 -0.33962483125E+02 -0.15621386979E+02  0.12204868333E+03  0.17889576116E+03  0.12534087230E+03 0.  0.
          5    1    4    4  502    0  0.43701727148E+02  0.65359699196E+02  0.16734989402E+02  0.80522550289E+02  0.47000000000E+01 0. -1.
         -5    1    4    4    0  502 -0.97392440225E+01 -0.49738312217E+02  0.24158350480E+02  0.56342421622E+02  0.47000000000E+01 0. -1.
          5    1    5    5  503    0 -0.76913329486E+01  0.54500853353E+02  0.43904819318E+02  0.70563608029E+02  0.47000000000E+01 0. -1.
         -5    1    5    5    0  503 -0.26271150177E+02 -0.70122240333E+02  0.78143864008E+02  0.10833215314E+03  0.47000000000E+01 0. -1.
<mgrwt>
<rscale>  0 0.27047132E+03</rscale>
<asrwt>0</asrwt>
<pdfrwt beam="1">  1        2 0.11755285E-01 0.27047132E+03</pdfrwt>
<pdfrwt beam="2">  1       -2 0.36823289E-01 0.27047132E+03</pdfrwt>
<totfact> 0.36366455E+03</totfact>
</mgrwt>
</event>
<event>
 9    1  0.8175317E-001  0.2865431E+03  0.7818608E-02  0.1092168E+00
          3   -1    0    0  501    0  0.00000000000E+00  0.00000000000E+00  0.31179724132E+03  0.31179724132E+03  0.00000000000E+00 0.  1.
         -3   -1    0    0    0  501 -0.00000000000E+00 -0.00000000000E+00 -0.65833607704E+02  0.65833607704E+02  0.00000000000E+00 0.  1.
         35    2    1    2    0    0  0.88817841970E-15  0.53290705182E-14  0.24596363361E+03  0.37763084902E+03  0.28654310160E+03 0.  0.
         25    2    3    3    0    0  0.70010653683E+01 -0.78855401710E+01  0.31662217451E+02  0.12910775036E+03  0.12472016088E+03 0.  0.
         25    2    3    3    0    0 -0.70010653683E+01  0.78855401710E+01  0.21430141616E+03  0.24852309866E+03  0.12540907837E+03 0.  0.
          5    1    4    4  502    0 -0.32905198686E+02  0.25710668409E+01 -0.36412977091E+02  0.49369599815E+02  0.47000000000E+01 0. -1.
         -5    1    4    4    0  502  0.39906264054E+02 -0.10456607012E+02  0.68075194542E+02  0.79738150549E+02  0.47000000000E+01 0. -1.
          5    1    5    5  503    0  0.62023572396E+01 -0.54355069162E+02  0.14117714265E+03  0.15147943222E+03  0.47000000000E+01 0.  1.
         -5    1    5    5    0  503 -0.13203422608E+02  0.62240609333E+02  0.73124273506E+02  0.97043666431E+02  0.47000000000E+01 0.  1.
<mgrwt>
<rscale>  0 0.28654310E+03</rscale>
<asrwt>0</asrwt>
<pdfrwt beam="1">  1        3 0.47968806E-01 0.28654310E+03</pdfrwt>
<pdfrwt beam="2">  1       -3 0.10128247E-01 0.28654310E+03</pdfrwt>
<totfact> 0.80070610E+02</totfact>
</mgrwt>
</event>
<event>
 9    1  0.8175317E-001  0.2759042E+03  0.7818608E-02  0.1097947E+00
         -1   -1    0    0    0  501 -0.00000000000E+00  0.00000000000E+00  0.96557767218E+01  0.96557767218E+01  0.00000000000E+00 0. -1.
          1   -1    0    0  501    0  0.00000000000E+00 -0.00000000000E+00 -0.19709225281E+04  0.19709225281E+04  0.00000000000E+00 0. -1.
         35    2    1    2    0    0 -0.71054273576E-14  0.71054273576E-14 -0.19612667514E+04  0.19805783048E+04  0.27590424330E+03 0.  0.
         25    2    3    3    0    0 -0.84036162370E+01  0.54288963485E+02 -0.11222086448E+04  0.11305013446E+04  0.12515244911E+03 0.  0.
         25    2    3    3    0    0  0.84036162370E+01 -0.54288963485E+02 -0.83905810660E+03  0.85007696017E+03  0.12487761866E+03 0.  0.
          5    1    4    4  502    0 -0.37003940209E+02 -0.12799110534E+02 -0.75842399243E+03  0.75944858359E+03  0.47000000000E+01 0. -1.
         -5    1    4    4    0  502  0.28600323972E+02  0.67088074019E+02 -0.36378465233E+03  0.37105276105E+03  0.47000000000E+01 0. -1.
          5    1    5    5  503    0  0.59882721690E+02 -0.57942413961E+01 -0.27247032330E+03  0.27907289490E+03  0.47000000000E+01 0.  1.
         -5    1    5    5    0  503 -0.51479105453E+02 -0.48494722089E+02 -0.56658778330E+03  0.57100406527E+03  0.47000000000E+01 0.  1.
<mgrwt>
<rscale>  0 0.27590424E+03</rscale>
<asrwt>0</asrwt>
<pdfrwt beam="1">  1        1 0.30321885E+00 0.27590424E+03</pdfrwt>
<pdfrwt beam="2">  1       -1 0.14855041E-02 0.27590424E+03</pdfrwt>
<totfact> 0.37301781E+03</totfact>
</mgrwt>
</event>
<event>
 9    1  0.8175317E-001  0.2756912E+03  0.7818608E-02  0.1098066E+00
         -1   -1    0    0    0  501 -0.00000000000E+00  0.00000000000E+00  0.13621018958E+03  0.13621018958E+03  0.00000000000E+00 0. -1.
          1   -1    0    0  501    0  0.00000000000E+00 -0.00000000000E+00 -0.13950069286E+03  0.13950069286E+03  0.00000000000E+00 0. -1.
         35    2    1    2    0    0  0.10658141036E-13  0.00000000000E+00 -0.32905032798E+01  0.27571088244E+03  0.27569124630E+03 0.  0.
         25    2    3    3    0    0 -0.18937090763E+02  0.23278296608E+02 -0.43639423711E+02  0.13946967301E+03  0.12902285800E+03 0.  0.
         25    2    3    3    0    0  0.18937090763E+02 -0.23278296608E+02  0.40348920431E+02  0.13624120943E+03  0.12662203311E+03 0.  0.
          5    1    4    4  502    0 -0.70466280780E+02  0.35446832057E+02 -0.21528344727E+02  0.81899537584E+02  0.47000000000E+01 0. -1.
         -5    1    4    4    0  502  0.51529190017E+02 -0.12168535449E+02 -0.22111078984E+02  0.57570135423E+02  0.47000000000E+01 0. -1.
          5    1    5    5  503    0 -0.26490337372E+02  0.38452682202E+02  0.36327709465E+02  0.59347613411E+02  0.47000000000E+01 0.  1.
         -5    1    5    5    0  503  0.45427428135E+02 -0.61730978810E+02  0.40212109659E+01  0.76893596024E+02  0.47000000000E+01 0.  1.
<mgrwt>
<rscale>  0 0.27569125E+03</rscale>
<asrwt>0</asrwt>
<pdfrwt beam="1">  1        1 0.21461645E-01 0.27569125E+03</pdfrwt>
<pdfrwt beam="2">  1       -1 0.20955414E-01 0.27569125E+03</pdfrwt>
<totfact> 0.43243343E+03</totfact>
</mgrwt>
</event>
<event>
 9    1  0.8175317E-001  0.2743521E+03  0.7818608E-02  0.1098814E+00
         -2   -1    0    0    0  501 -0.00000000000E+00  0.00000000000E+00  0.16867722152E+04  0.16867722152E+04  0.00000000000E+00 0.  1.
          2   -1    0    0  501    0  0.00000000000E+00 -0.00000000000E+00 -0.11155787905E+02  0.11155787905E+02  0.00000000000E+00 0.  1.
         35    2    1    2    0    0 -0.71054273576E-14  0.00000000000E+00  0.16756164273E+04  0.16979280031E+04  0.27435213195E+03 0.  0.
         25    2    3    3    0    0 -0.51989825036E+02  0.11373726784E+01  0.72207029651E+03  0.73469459509E+03  0.12524535695E+03 0.  0.
         25    2    3    3    0    0  0.51989825036E+02 -0.11373726784E+01  0.95354613079E+03  0.96323340802E+03  0.12595292472E+03 0.  0.
          5    1    4    4  502    0 -0.82752796472E+02 -0.20819546859E+02  0.61786464033E+03  0.62374697003E+03  0.47000000000E+01 0. -1.
         -5    1    4    4    0  502  0.30762971436E+02  0.21956919537E+02  0.10420565618E+03  0.11094762506E+03  0.47000000000E+01 0. -1.
          5    1    5    5  503    0 -0.38075807721E+02 -0.97503285724E+01  0.17430729937E+03  0.17874551926E+03  0.47000000000E+01 0.  1.
         -5    1    5    5    0  503  0.90065632757E+02  0.86129558940E+01  0.77923883142E+03  0.78448788875E+03  0.47000000000E+01 0.  1.
<mgrwt>
<rscale>  0 0.27435213E+03</rscale>
<asrwt>0</asrwt>
<pdfrwt beam="1">  1        2 0.17162764E-02 0.27435213E+03</pdfrwt>
<pdfrwt beam="2">  1       -2 0.25950322E+00 0.27435213E+03</pdfrwt>
<totfact> 0.42726799E+02</totfact>
</mgrwt>
</event>
<event>
 9    1  0.8175317E-001  0.2734328E+03  0.7818608E-02  0.1099331E+00
         -1   -1    0    0    0  501 -0.00000000000E+00  0.00000000000E+00  0.62841432444E+02  0.62841432444E+02  0.00000000000E+00 0.  1.
          1   -1    0    0  501    0  0.00000000000E+00 -0.00000000000E+00 -0.29743708611E+03  0.29743708611E+03  0.00000000000E+00 0.  1.
         35    2    1    2    0    0  0.35527136788E-14  0.00000000000E+00 -0.23459565367E+03  0.36027851856E+03  0.27343278921E+03 0.  0.
         25    2    3    3    0    0 -0.34683951570E+01 -0.50968713577E+02 -0.13298297000E+03  0.18969618935E+03  0.12526106504E+03 0.  0.
         25    2    3    3    0    0  0.34683951570E+01  0.50968713577E+02 -0.10161268367E+03  0.17058232921E+03  0.12713518013E+03 0.  0.
          5    1    4    4  502    0  0.19562315039E+02 -0.44395576424E+02 -0.15144347938E+03  0.15909389939E+03  0.47000000000E+01 0. -1.
         -5    1    4    4    0  502 -0.23030710196E+02 -0.65731371531E+01  0.18460509381E+02  0.30602289959E+02  0.47000000000E+01 0. -1.
          5    1    5    5  503    0 -0.31156109875E+02  0.24234686643E+02 -0.11731622320E+03  0.12386770945E+03  0.47000000000E+01 0. -1.
         -5    1    5    5    0  503  0.34624505032E+02  0.26734026934E+02  0.15703539533E+02  0.46714619753E+02  0.47000000000E+01 0. -1.
<mgrwt>
<rscale>  0 0.27343279E+03</rscale>
<asrwt>0</asrwt>
<pdfrwt beam="1">  1        1 0.45759553E-01 0.27343279E+03</pdfrwt>
<pdfrwt beam="2">  1       -1 0.96679124E-02 0.27343279E+03</pdfrwt>
<totfact> 0.56511411E+03</totfact>
</mgrwt>
</event>
<event>
 9    1  0.8175317E-001  0.2774304E+03  0.7818608E-02  0.1097101E+00
          2   -1    0    0  501    0  0.00000000000E+00  0.00000000000E+00  0.23056065583E+03  0.23056065583E+03  0.00000000000E+00 0.  1.
         -2   -1    0    0    0  501 -0.00000000000E+00 -0.00000000000E+00 -0.83457041874E+02  0.83457041874E+02  0.00000000000E+00 0.  1.
         35    2    1    2    0    0  0.71054273576E-14 -0.14210854715E-13  0.14710361395E+03  0.31401769770E+03  0.27743042593E+03 0.  0.
         25    2    3    3    0    0 -0.30036956045E+02  0.46972476729E+02  0.10012888356E+03  0.16903423529E+03  0.12425034036E+03 0.  0.
         25    2    3    3    0    0  0.30036956045E+02 -0.46972476729E+02  0.46974730391E+02  0.14498346241E+03  0.12531937910E+03 0.  0.
          5    1    4    4  502    0 -0.63850961311E+02  0.32521615921E+02  0.10936122441E+03  0.13083030293E+03  0.47000000000E+01 0. -1.
         -5    1    4    4    0  502  0.33814005265E+02  0.14450860808E+02 -0.92323408429E+01  0.38203932358E+02  0.47000000000E+01 0. -1.
          5    1    5    5  503    0 -0.36795890644E+02 -0.36090965625E+02  0.56295454254E+02  0.76470671095E+02  0.47000000000E+01 0.  1.
         -5    1    5    5    0  503  0.66832846689E+02 -0.10881511104E+02 -0.93207238631E+01  0.68512791315E+02  0.47000000000E+01 0.  1.
<mgrwt>
<rscale>  0 0.27743043E+03</rscale>
<asrwt>0</asrwt>
<pdfrwt beam="1">  1        2 0.35470870E-01 0.27743043E+03</pdfrwt>
<pdfrwt beam="2">  1       -2 0.12839545E-01 0.27743043E+03</pdfrwt>
<totfact> 0.64065259E+03</totfact>
</mgrwt>
</event>
<event>
 9    1  0.8175317E-001  0.2769287E+03  0.7818608E-02  0.1097378E+00
          2   -1    0    0  501    0  0.00000000000E+00  0.00000000000E+00  0.12142322946E+03  0.12142322946E+03  0.00000000000E+00 0. -1.
         -2   -1    0    0    0  501 -0.00000000000E+00 -0.00000000000E+00 -0.15789704914E+03  0.15789704914E+03  0.00000000000E+00 0. -1.
         35    2    1    2    0    0  0.10658141036E-13  0.00000000000E+00 -0.36473819678E+02  0.27932027859E+03  0.27692865239E+03 0.  0.
         25    2    3    3    0    0 -0.27504192799E+02  0.42526441995E+02 -0.49125846081E+02  0.14395973955E+03  0.12548338124E+03 0.  0.
         25    2    3    3    0    0  0.27504192799E+02 -0.42526441995E+02  0.12652026403E+02  0.13536053904E+03  0.12488964276E+03 0.  0.
          5    1    4    4  502    0 -0.55674437658E+02  0.72935943401E+02 -0.44187201008E+02  0.10195044669E+03  0.47000000000E+01 0. -1.
         -5    1    4    4    0  502  0.28170244859E+02 -0.30409501407E+02 -0.49386450732E+01  0.42009292857E+02  0.47000000000E+01 0. -1.
          5    1    5    5  503    0 -0.34303037519E+02 -0.34703786315E+02  0.43629422051E+02  0.65625205799E+02  0.47000000000E+01 0.  1.
         -5    1    5    5    0  503  0.61807230318E+02 -0.78226556798E+01 -0.30977395648E+02  0.69735333244E+02  0.47000000000E+01 0.  1.
<mgrwt>
<rscale>  0 0.27692865E+03</rscale>
<asrwt>0</asrwt>
<pdfrwt beam="1">  1        2 0.18680497E-01 0.27692865E+03</pdfrwt>
<pdfrwt beam="2">  1       -2 0.24291854E-01 0.27692865E+03</pdfrwt>
<totfact> 0.44705131E+03</totfact>
</mgrwt>
</event>
<event>
 9    1  0.8175317E-001  0.2712374E+03  0.7818608E-02  0.1100574E+00
         -1   -1    0    0    0  501 -0.00000000000E+00  0.00000000000E+00  0.12779256485E+03  0.12779256485E+03  0.00000000000E+00 0.  1.
          1   -1    0    0  501    0  0.00000000000E+00 -0.00000000000E+00 -0.14392406360E+03  0.14392406360E+03  0.00000000000E+00 0.  1.
         35    2    1    2    0    0  0.00000000000E+00  0.35527136788E-14 -0.16131498755E+02  0.27171662845E+03  0.27123735164E+03 0.  0.
         25    2    3    3    0    0  0.25319271499E+02 -0.26793027852E+02  0.30234704044E+01  0.13944072921E+03  0.13444569067E+03 0.  0.
         25    2    3    3    0    0 -0.25319271499E+02  0.26793027852E+02 -0.19154969159E+02  0.13227589924E+03  0.12558291614E+03 0.  0.
          5    1    4    4  502    0  0.58281679232E+01 -0.54933465269E+02 -0.50987983331E+02  0.75322756136E+02  0.47000000000E+01 0.  1.
         -5    1    4    4    0  502  0.19491103575E+02  0.28140437417E+02  0.54011453735E+02  0.64117973075E+02  0.47000000000E+01 0.  1.
          5    1    5    5  503    0 -0.65404772362E+02 -0.20490054384E+02 -0.11065854230E+02  0.69585700443E+02  0.47000000000E+01 0. -1.
         -5    1    5    5    0  503  0.40085500863E+02  0.47283082235E+02 -0.80891149292E+01  0.62690198799E+02  0.47000000000E+01 0. -1.
<mgrwt>
<rscale>  0 0.27123735E+03</rscale>
<asrwt>0</asrwt>
<pdfrwt beam="1">  1        1 0.22142164E-01 0.27123735E+03</pdfrwt>
<pdfrwt beam="2">  1       -1 0.19660395E-01 0.27123735E+03</pdfrwt>
<totfact> 0.46069880E+03</totfact>
</mgrwt>
</event>
<event>
 9    1  0.8175317E-001  0.2574984E+03  0.7818608E-02  0.1108656E+00
          1   -1    0    0  501    0  0.00000000000E+00  0.00000000000E+00  0.43038466925E+03  0.43038466925E+03  0.00000000000E+00 0.  1.
         -1   -1    0    0    0  501 -0.00000000000E+00 -0.00000000000E+00 -0.38515213143E+02  0.38515213143E+02  0.00000000000E+00 0.  1.
         35    2    1    2    0    0  0.35527136788E-14  0.71054273576E-14  0.39186945611E+03  0.46889988240E+03  0.25749840597E+03 0.  0.
         25    2    3    3    0    0  0.95830496804E+01  0.31206473577E+00  0.23486005058E+03  0.26642763882E+03  0.12542930736E+03 0.  0.
         25    2    3    3    0    0 -0.95830496804E+01 -0.31206473577E+00  0.15700940553E+03  0.20247224357E+03  0.12747989554E+03 0.  0.
          5    1    4    4  502    0 -0.26302503403E+02 -0.48037767604E+02  0.59719415170E+02  0.81166171216E+02  0.47000000000E+01 0. -1.
         -5    1    4    4    0  502  0.35885553083E+02  0.48349832339E+02  0.17514063541E+03  0.18526146761E+03  0.47000000000E+01 0. -1.
          5    1    5    5  503    0 -0.44226226841E+02 -0.49879271834E+02  0.74744184284E+02  0.10026307388E+03  0.47000000000E+01 0.  1.
         -5    1    5    5    0  503  0.34643177161E+02  0.49567207098E+02  0.82265221243E+02  0.10220916969E+03  0.47000000000E+01 0.  1.
<mgrwt>
<rscale>  0 0.25749841E+03</rscale>
<asrwt>0</asrwt>
<pdfrwt beam="1">  1        1 0.66213023E-01 0.25749841E+03</pdfrwt>
<pdfrwt beam="2">  1       -1 0.59254177E-02 0.25749841E+03</pdfrwt>
<totfact> 0.74321624E+03</totfact>
</mgrwt>
</event>
<event>
 9    1  0.8175317E-001  0.2794700E+03  0.7818608E-02  0.1095979E+00
         -2   -1    0    0    0  501 -0.00000000000E+00  0.00000000000E+00  0.18874833551E+02  0.18874833551E+02  0.00000000000E+00 0. -1.
          2   -1    0    0  501    0  0.00000000000E+00 -0.00000000000E+00 -0.10344923221E+04  0.10344923221E+04  0.00000000000E+00 0. -1.
         35    2    1    2    0    0  0.00000000000E+00  0.71054273576E-14 -0.10156174885E+04  0.10533671556E+04  0.27947000117E+03 0.  0.
         25    2    3    3    0    0  0.46414862024E+02  0.26851857589E+02 -0.38179601966E+03  0.40520813923E+03  0.12469993503E+03 0.  0.
         25    2    3    3    0    0 -0.46414862024E+02 -0.26851857589E+02 -0.63382146887E+03  0.64815901640E+03  0.12451945418E+03 0.  0.
          5    1    4    4  502    0 -0.64826753463E+01  0.63381019403E+02 -0.25611561160E+03  0.26396301863E+03  0.47000000000E+01 0. -1.
         -5    1    4    4    0  502  0.52897537370E+02 -0.36529161814E+02 -0.12568040807E+03  0.14124512060E+03  0.47000000000E+01 0. -1.
          5    1    5    5  503    0 -0.77303121832E+01  0.36914406075E+02 -0.41880371316E+03  0.42052475701E+03  0.47000000000E+01 0.  1.
         -5    1    5    5    0  503 -0.38684549841E+02 -0.63766263663E+02 -0.21501775571E+03  0.22763425939E+03  0.47000000000E+01 0.  1.
<mgrwt>
<rscale>  0 0.27947000E+03</rscale>
<asrwt>0</asrwt>
<pdfrwt beam="1">  1        2 0.15915270E+00 0.27947000E+03</pdfrwt>
<pdfrwt beam="2">  1       -2 0.29038200E-02 0.27947000E+03</pdfrwt>
<totfact> 0.11103237E+04</totfact>
</mgrwt>
</event>
<event>
 9    1  0.8175317E-001  0.2940707E+03  0.7818608E-02  0.1088243E+00
          1   -1    0    0  501    0  0.00000000000E+00  0.00000000000E+00  0.59256677387E+03  0.59256677387E+03  0.00000000000E+00 0. -1.
         -1   -1    0    0    0  501 -0.00000000000E+00 -0.00000000000E+00 -0.36484329541E+02  0.36484329541E+02  0.00000000000E+00 0. -1.
         35    2    1    2    0    0  0.00000000000E+00  0.14210854715E-13  0.55608244433E+03  0.62905110341E+03  0.29407074967E+03 0.  0.
         25    2    3    3    0    0  0.26424725341E+02 -0.57925667337E+02  0.37347705832E+03  0.39896844201E+03  0.12504821305E+03 0.  0.
         25    2    3    3    0    0 -0.26424725341E+02  0.57925667337E+02  0.18260538601E+03  0.23008266140E+03  0.12465815268E+03 0.  0.
          5    1    4    4  502    0 -0.18408835271E+02 -0.80593493379E+02  0.16680633558E+03  0.18622738783E+03  0.47000000000E+01 0. -1.
         -5    1    4    4    0  502  0.44833560612E+02  0.22667826042E+02  0.20667072274E+03  0.21274105418E+03  0.47000000000E+01 0. -1.
          5    1    5    5  503    0 -0.66964052221E+02  0.68082628915E+02  0.14488510797E+03  0.17358920808E+03  0.47000000000E+01 0. -1.
         -5    1    5    5    0  503  0.40539326881E+02 -0.10156961578E+02  0.37720278040E+02  0.56493453319E+02  0.47000000000E+01 0. -1.
<mgrwt>
<rscale>  0 0.29407075E+03</rscale>
<asrwt>0</asrwt>
<pdfrwt beam="1">  1        1 0.91164112E-01 0.29407075E+03</pdfrwt>
<pdfrwt beam="2">  1       -1 0.56129742E-02 0.29407075E+03</pdfrwt>
<totfact> 0.52840147E+03</totfact>
</mgrwt>
</event>
<event>
 9    1  0.8175317E-001  0.2754420E+03  0.7818608E-02  0.1098205E+00
         -3   -1    0    0    0  501 -0.00000000000E+00  0.00000000000E+00  0.17660101537E+02  0.17660101537E+02  0.00000000000E+00 0. -1.
          3   -1    0    0  501    0  0.00000000000E+00 -0.00000000000E+00 -0.10740072022E+04  0.10740072022E+04  0.00000000000E+00 0. -1.
         35    2    1    2    0    0  0.14210854715E-13  0.35527136788E-14 -0.10563471007E+04  0.10916673038E+04  0.27544201744E+03 0.  0.
         25    2    3    3    0    0  0.58086724331E+02  0.40980922630E+01 -0.50613843178E+03  0.52467107728E+03  0.12535056963E+03 0.  0.
         25    2    3    3    0    0 -0.58086724331E+02 -0.40980922630E+01 -0.55020866890E+03  0.56699622648E+03  0.12395273131E+03 0.  0.
          5    1    4    4  502    0  0.17121670523E+01 -0.37148148794E+02 -0.46476837233E+02  0.59708482430E+02  0.47000000000E+01 0.  1.
         -5    1    4    4    0  502  0.56374557278E+02  0.41246241057E+02 -0.45966159455E+03  0.46496259485E+03  0.47000000000E+01 0.  1.
          5    1    5    5  503    0 -0.26151383280E+02  0.19199005775E+02 -0.27540640731E+02  0.42814408347E+02  0.47000000000E+01 0. -1.
         -5    1    5    5    0  503 -0.31935341050E+02 -0.23297098038E+02 -0.52266802817E+03  0.52418181813E+03  0.47000000000E+01 0. -1.
<mgrwt>
<rscale>  0 0.27544202E+03</rscale>
<asrwt>0</asrwt>
<pdfrwt beam="1">  1        3 0.16523184E+00 0.27544202E+03</pdfrwt>
<pdfrwt beam="2">  1       -3 0.27169392E-02 0.27544202E+03</pdfrwt>
<totfact> 0.40387282E+02</totfact>
</mgrwt>
</event>
<event>
 9    1  0.8175317E-001  0.2724112E+03  0.7818608E-02  0.1099907E+00
         -2   -1    0    0    0  501 -0.00000000000E+00  0.00000000000E+00  0.26745913190E+02  0.26745913190E+02  0.00000000000E+00 0.  1.
          2   -1    0    0  501    0  0.00000000000E+00 -0.00000000000E+00 -0.69363747229E+03  0.69363747229E+03  0.00000000000E+00 0.  1.
         35    2    1    2    0    0  0.00000000000E+00  0.71054273576E-14 -0.66689155910E+03  0.72038338548E+03  0.27241121577E+03 0.  0.
         25    2    3    3    0    0 -0.31057899177E+02  0.32521615676E+02 -0.25112361705E+03  0.28393632785E+03  0.12463754909E+03 0.  0.
         25    2    3    3    0    0  0.31057899177E+02 -0.32521615676E+02 -0.41576794205E+03  0.43644705763E+03  0.12490317808E+03 0.  0.
          5    1    4    4  502    0  0.41146827040E+02 -0.16823800812E+02 -0.92713323471E+02  0.10292692553E+03  0.47000000000E+01 0.  1.
         -5    1    4    4    0  502 -0.72204726217E+02  0.49345416488E+02 -0.15841029358E+03  0.18100940232E+03  0.47000000000E+01 0.  1.
          5    1    5    5  503    0  0.73493709683E+02 -0.10236448190E+02 -0.32812061887E+03  0.33643920812E+03  0.47000000000E+01 0. -1.
         -5    1    5    5    0  503 -0.42435810506E+02 -0.22285167486E+02 -0.87647323177E+02  0.10000784951E+03  0.47000000000E+01 0. -1.
<mgrwt>
<rscale>  0 0.27241122E+03</rscale>
<asrwt>0</asrwt>
<pdfrwt beam="1">  1        2 0.10671347E+00 0.27241122E+03</pdfrwt>
<pdfrwt beam="2">  1       -2 0.41147555E-02 0.27241122E+03</pdfrwt>
<totfact> 0.11117862E+04</totfact>
</mgrwt>
</event>
<event>
 9    1  0.8175317E-001  0.2979758E+03  0.7818608E-02  0.1086257E+00
          2   -1    0    0  501    0  0.00000000000E+00  0.00000000000E+00  0.65223106050E+03  0.65223106050E+03  0.00000000000E+00 0.  1.
         -2   -1    0    0    0  501 -0.00000000000E+00 -0.00000000000E+00 -0.34033017166E+02  0.34033017166E+02  0.00000000000E+00 0.  1.
         35    2    1    2    0    0  0.00000000000E+00 -0.71054273576E-14  0.61819804333E+03  0.68626407766E+03  0.29797577672E+03 0.  0.
         25    2    3    3    0    0 -0.34141158798E+02  0.42781089436E+02  0.44118952234E+03  0.46192622681E+03  0.12542648864E+03 0.  0.
         25    2    3    3    0    0  0.34141158798E+02 -0.42781089436E+02  0.17700852099E+03  0.22433785085E+03  0.12648958252E+03 0.  0.
          5    1    4    4  502    0 -0.81493295975E+02  0.28315843430E+02  0.30208558441E+03  0.31419855917E+03  0.47000000000E+01 0.  1.
         -5    1    4    4    0  502  0.47352137176E+02  0.14465246007E+02  0.13910393793E+03  0.14772766764E+03  0.47000000000E+01 0.  1.
          5    1    5    5  503    0 -0.28570107077E+01 -0.78992405621E+02  0.71364347218E+02  0.10659701079E+03  0.47000000000E+01 0. -1.
         -5    1    5    5    0  503  0.36998169506E+02  0.36211316185E+02  0.10564417377E+03  0.11774084006E+03  0.47000000000E+01 0. -1.
<mgrwt>
<rscale>  0 0.29797578E+03</rscale>
<asrwt>0</asrwt>
<pdfrwt beam="1">  1        2 0.10034323E+00 0.29797578E+03</pdfrwt>
<pdfrwt beam="2">  1       -2 0.52358493E-02 0.29797578E+03</pdfrwt>
<totfact> 0.83326827E+03</totfact>
</mgrwt>
</event>
<event>
 9    1  0.8175317E-001  0.2722804E+03  0.7818608E-02  0.1099982E+00
         -2   -1    0    0    0  501 -0.00000000000E+00  0.00000000000E+00  0.80899824307E+02  0.80899824307E+02  0.00000000000E+00 0.  1.
          2   -1    0    0  501    0  0.00000000000E+00 -0.00000000000E+00 -0.22909998327E+03  0.22909998327E+03  0.00000000000E+00 0.  1.
         35    2    1    2    0    0  0.17763568394E-14 -0.14210854715E-13 -0.14820015896E+03  0.30999980758E+03  0.27228035842E+03 0.  0.
         25    2    3    3    0    0  0.73844948670E+01 -0.39984083029E+02 -0.33810538347E+02  0.13563649198E+03  0.12490335381E+03 0.  0.
         25    2    3    3    0    0 -0.73844948670E+01  0.39984083029E+02 -0.11438962062E+03  0.17436331560E+03  0.12515719260E+03 0.  0.
          5    1    4    4  502    0 -0.12940209784E+02 -0.81943010118E+02 -0.31026435488E+02  0.88695183835E+02  0.47000000000E+01 0.  1.
         -5    1    4    4    0  502  0.20324704651E+02  0.41958927089E+02 -0.27841028587E+01  0.46941308145E+02  0.47000000000E+01 0.  1.
          5    1    5    5  503    0  0.27942172265E+02  0.22339511161E+02 -0.12748742903E+03  0.13249510675E+03  0.47000000000E+01 0. -1.
         -5    1    5    5    0  503 -0.35326667132E+02  0.17644571867E+02  0.13097808417E+02  0.41868208851E+02  0.47000000000E+01 0. -1.
<mgrwt>
<rscale>  0 0.27228036E+03</rscale>
<asrwt>0</asrwt>
<pdfrwt beam="1">  1        2 0.35246151E-01 0.27228036E+03</pdfrwt>
<pdfrwt beam="2">  1       -2 0.12446127E-01 0.27228036E+03</pdfrwt>
<totfact> 0.67802630E+03</totfact>
</mgrwt>
</event>
<event>
 9    1  0.8175317E-001  0.2754796E+03  0.7818608E-02  0.1098184E+00
          2   -1    0    0  501    0  0.00000000000E+00  0.00000000000E+00  0.23146045039E+04  0.23146045039E+04  0.00000000000E+00 0. -1.
         -2   -1    0    0    0  501 -0.00000000000E+00 -0.00000000000E+00 -0.81967549794E+01  0.81967549794E+01  0.00000000000E+00 0. -1.
         35    2    1    2    0    0  0.00000000000E+00 -0.35527136788E-14  0.23064077489E+04  0.23228012589E+04  0.27547955273E+03 0.  0.
         25    2    3    3    0    0 -0.19728459434E+02 -0.19834182157E+02  0.16237352713E+04  0.16287929143E+04  0.12516996334E+03 0.  0.
         25    2    3    3    0    0  0.19728459434E+02  0.19834182157E+02  0.68267247765E+03  0.69400834454E+03  0.12175082614E+03 0.  0.
          5    1    4    4  502    0 -0.27340952592E+02 -0.38909130553E+02  0.15746759748E+04  0.15754008898E+04  0.47000000000E+01 0. -1.
         -5    1    4    4    0  502  0.76124931581E+01  0.19074948396E+02  0.49059296491E+02  0.53392024503E+02  0.47000000000E+01 0. -1.
          5    1    5    5  503    0  0.67018145401E+02  0.52922116005E+01  0.50638343064E+03  0.51084802843E+03  0.47000000000E+01 0. -1.
         -5    1    5    5    0  503 -0.47289685967E+02  0.14541970556E+02  0.17628904700E+03  0.18316031612E+03  0.47000000000E+01 0. -1.
<mgrwt>
<rscale>  0 0.27547955E+03</rscale>
<asrwt>0</asrwt>
<pdfrwt beam="1">  1        2 0.35609248E+00 0.27547955E+03</pdfrwt>
<pdfrwt beam="2">  1       -2 0.12610411E-02 0.27547955E+03</pdfrwt>
<totfact> 0.76889552E+03</totfact>
</mgrwt>
</event>
<event>
 9    1  0.8175317E-001  0.2747890E+03  0.7818608E-02  0.1098570E+00
         -4   -1    0    0    0  501 -0.00000000000E+00  0.00000000000E+00  0.16420359082E+03  0.16420359082E+03  0.00000000000E+00 0.  1.
          4   -1    0    0  501    0  0.00000000000E+00 -0.00000000000E+00 -0.11496246586E+03  0.11496246586E+03  0.00000000000E+00 0.  1.
         35    2    1    2    0    0 -0.14210854715E-13 -0.35527136788E-14  0.49241124962E+02  0.27916605667E+03  0.27478900781E+03 0.  0.
         25    2    3    3    0    0  0.47578464365E+02  0.34173807859E+01 -0.10462698363E+02  0.13405502014E+03  0.12484346841E+03 0.  0.
         25    2    3    3    0    0 -0.47578464365E+02 -0.34173807859E+01  0.59703823325E+02  0.14511103654E+03  0.12335833025E+03 0.  0.
          5    1    4    4  502    0  0.58327831597E+02 -0.50159530776E+02 -0.16681172107E+02  0.78857250581E+02  0.47000000000E+01 0.  1.
         -5    1    4    4    0  502 -0.10749367231E+02  0.53576911562E+02  0.62184737438E+01  0.55197769557E+02  0.47000000000E+01 0.  1.
          5    1    5    5  503    0 -0.65986489410E+02 -0.13796754730E+02 -0.13379379200E+02  0.68888787284E+02  0.47000000000E+01 0. -1.
         -5    1    5    5    0  503  0.18408025045E+02  0.10379373944E+02  0.73083202525E+02  0.76222249251E+02  0.47000000000E+01 0. -1.
<mgrwt>
<rscale>  0 0.27478901E+03</rscale>
<asrwt>0</asrwt>
<pdfrwt beam="1">  1        4 0.17686533E-01 0.27478901E+03</pdfrwt>
<pdfrwt beam="2">  1       -4 0.25262091E-01 0.27478901E+03</pdfrwt>
<totfact> 0.77558645E+02</totfact>
</mgrwt>
</event>
<event>
 9    1  0.8175317E-001  0.2749807E+03  0.7818608E-02  0.1098462E+00
         -2   -1    0    0    0  501 -0.00000000000E+00  0.00000000000E+00  0.98064241294E+01  0.98064241294E+01  0.00000000000E+00 0.  1.
          2   -1    0    0  501    0  0.00000000000E+00 -0.00000000000E+00 -0.19276744511E+04  0.19276744511E+04  0.00000000000E+00 0.  1.
         35    2    1    2    0    0 -0.71054273576E-14  0.00000000000E+00 -0.19178680269E+04  0.19374808752E+04  0.27498067751E+03 0.  0.
         25    2    3    3    0    0  0.34235440889E+02  0.43800787321E+02 -0.10142272853E+04  0.10235381278E+04  0.12602673689E+03 0.  0.
         25    2    3    3    0    0 -0.34235440889E+02 -0.43800787321E+02 -0.90364074167E+03  0.91394274744E+03  0.12503671943E+03 0.  0.
          5    1    4    4  502    0  0.30799211636E+00  0.32795662922E+02 -0.59258269088E+02  0.67891699205E+02  0.47000000000E+01 0. -1.
         -5    1    4    4    0  502  0.33927448773E+02  0.11005124399E+02 -0.95496901617E+03  0.95564642855E+03  0.47000000000E+01 0. -1.
          5    1    5    5  503    0 -0.11979727047E+02 -0.18419793135E+02 -0.21354643362E+02  0.30998603717E+02  0.47000000000E+01 0.  1.
         -5    1    5    5    0  503 -0.22255713842E+02 -0.25380994185E+02 -0.88228609831E+03  0.88294414372E+03  0.47000000000E+01 0.  1.
<mgrwt>
<rscale>  0 0.27498068E+03</rscale>
<asrwt>0</asrwt>
<pdfrwt beam="1">  1        2 0.29656527E+00 0.27498068E+03</pdfrwt>
<pdfrwt beam="2">  1       -2 0.15086808E-02 0.27498068E+03</pdfrwt>
<totfact> 0.94870868E+03</totfact>
</mgrwt>
</event>
<event>
 9    1  0.8175317E-001  0.2698879E+03  0.7818608E-02  0.1101344E+00
         -3   -1    0    0    0  501 -0.00000000000E+00  0.00000000000E+00  0.87908634856E+02  0.87908634856E+02  0.00000000000E+00 0. -1.
          3   -1    0    0  501    0  0.00000000000E+00 -0.00000000000E+00 -0.20714544260E+03  0.20714544260E+03  0.00000000000E+00 0. -1.
         35    2    1    2    0    0  0.00000000000E+00  0.00000000000E+00 -0.11923680774E+03  0.29505407745E+03  0.26988792544E+03 0.  0.
         25    2    3    3    0    0 -0.60935351719E+01  0.52424064029E+02 -0.49891306353E+02  0.14317734706E+03  0.12339042346E+03 0.  0.
         25    2    3    3    0    0  0.60935351719E+01 -0.52424064029E+02 -0.69345501386E+02  0.15187673039E+03  0.12438781697E+03 0.  0.
          5    1    4    4  502    0 -0.27342078778E+02  0.82038104451E+02 -0.59645400068E+02  0.10515466515E+03  0.47000000000E+01 0. -1.
         -5    1    4    4    0  502  0.21248543606E+02 -0.29614040422E+02  0.97540937149E+01  0.38022681911E+02  0.47000000000E+01 0. -1.
          5    1    5    5  503    0  0.35472959023E+02 -0.18929331768E+02  0.24898849859E+02  0.47525710382E+02  0.47000000000E+01 0. -1.
         -5    1    5    5    0  503 -0.29379423851E+02 -0.33494732261E+02 -0.94244351245E+02  0.10435102001E+03  0.47000000000E+01 0. -1.
<mgrwt>
<rscale>  0 0.26988793E+03</rscale>
<asrwt>0</asrwt>
<pdfrwt beam="1">  1        3 0.31868530E-01 0.26988793E+03</pdfrwt>
<pdfrwt beam="2">  1       -3 0.13524405E-01 0.26988793E+03</pdfrwt>
<totfact> 0.10791722E+03</totfact>
</mgrwt>
</event>
<event>
 9    1  0.8175317E-001  0.2767204E+03  0.7818608E-02  0.1097494E+00
          2   -1    0    0  501    0  0.00000000000E+00  0.00000000000E+00  0.43553307723E+03  0.43553307723E+03  0.00000000000E+00 0. -1.
         -2   -1    0    0    0  501 -0.00000000000E+00 -0.00000000000E+00 -0.43954287498E+02  0.43954287498E+02  0.00000000000E+00 0. -1.
         35    2    1    2    0    0  0.00000000000E+00  0.00000000000E+00  0.39157878973E+03  0.47948736473E+03  0.27672040829E+03 0.  0.
         25    2    3    3    0    0  0.42747127343E+02  0.46587015392E+02  0.17429453542E+03  0.22107676640E+03  0.12041048404E+03 0.  0.
         25    2    3    3    0    0 -0.42747127343E+02 -0.46587015392E+02  0.21728425432E+03  0.25841059833E+03  0.12476346923E+03 0.  0.
          5    1    4    4  502    0  0.57973035673E+02  0.79737786778E+02  0.11804836614E+03  0.15387168113E+03  0.47000000000E+01 0.  1.
         -5    1    4    4    0  502 -0.15225908330E+02 -0.33150771386E+02  0.56246169275E+02  0.67205085270E+02  0.47000000000E+01 0.  1.
          5    1    5    5  503    0 -0.17281413226E+01  0.26192209158E+02  0.12026755887E+01  0.26693720640E+02  0.47000000000E+01 0. -1.
         -5    1    5    5    0  503 -0.41018986020E+02 -0.72779224550E+02  0.21608157873E+03  0.23171687769E+03  0.47000000000E+01 0. -1.
<mgrwt>
<rscale>  0 0.27672041E+03</rscale>
<asrwt>0</asrwt>
<pdfrwt beam="1">  1        2 0.67005086E-01 0.27672041E+03</pdfrwt>
<pdfrwt beam="2">  1       -2 0.67621984E-02 0.27672041E+03</pdfrwt>
<totfact> 0.88825792E+03</totfact>
</mgrwt>
</event>
<event>
 9    1  0.8175317E-001  0.2686925E+03  0.7818608E-02  0.1102030E+00
         -1   -1    0    0    0  501 -0.00000000000E+00  0.00000000000E+00  0.18915735929E+02  0.18915735929E+02  0.00000000000E+00 0.  1.
          1   -1    0    0  501    0  0.00000000000E+00 -0.00000000000E+00 -0.95417466952E+03  0.95417466952E+03  0.00000000000E+00 0.  1.
         35    2    1    2    0    0  0.00000000000E+00  0.35527136788E-14 -0.93525893359E+03  0.97309040545E+03  0.26869250885E+03 0.  0.
         25    2    3    3    0    0  0.39300455394E+02 -0.31816272417E+02 -0.49018823918E+03  0.50856127290E+03  0.12567122771E+03 0.  0.
         25    2    3    3    0    0 -0.39300455394E+02  0.31816272417E+02 -0.44507069441E+03  0.46452913255E+03  0.12305523549E+03 0.  0.
          5    1    4    4  502    0 -0.42579980106E+02  0.53529954008E+01 -0.11842917056E+03  0.12605263862E+03  0.47000000000E+01 0. -1.
         -5    1    4    4    0  502  0.81880435500E+02 -0.37169267818E+02 -0.37175906862E+03  0.38250863427E+03  0.47000000000E+01 0. -1.
          5    1    5    5  503    0 -0.28590148949E+02 -0.41148937303E+02 -0.26755041392E+03  0.27224243910E+03  0.47000000000E+01 0. -1.
         -5    1    5    5    0  503 -0.10710306445E+02  0.72965209720E+02 -0.17752028049E+03  0.19228669345E+03  0.47000000000E+01 0. -1.
<mgrwt>
<rscale>  0 0.26869251E+03</rscale>
<asrwt>0</asrwt>
<pdfrwt beam="1">  1        1 0.14679611E+00 0.26869251E+03</pdfrwt>
<pdfrwt beam="2">  1       -1 0.29101130E-02 0.26869251E+03</pdfrwt>
<totfact> 0.68253768E+03</totfact>
</mgrwt>
</event>
<event>
 9    1  0.8175317E-001  0.2794027E+03  0.7818608E-02  0.1096016E+00
          2   -1    0    0  501    0  0.00000000000E+00  0.00000000000E+00  0.18851083078E+04  0.18851083078E+04  0.00000000000E+00 0.  1.
         -2   -1    0    0    0  501 -0.00000000000E+00 -0.00000000000E+00 -0.10352966935E+02  0.10352966935E+02  0.00000000000E+00 0.  1.
         35    2    1    2    0    0 -0.71054273576E-14 -0.35527136788E-14  0.18747553408E+04  0.18954612747E+04  0.27940267700E+03 0.  0.
         25    2    3    3    0    0  0.27046347980E+02  0.12492165857E+02  0.55504577739E+03  0.56953059464E+03  0.12410368281E+03 0.  0.
         25    2    3    3    0    0 -0.27046347980E+02 -0.12492165857E+02  0.13197095634E+04  0.13259306800E+04  0.12478492434E+03 0.  0.
          5    1    4    4  502    0  0.32625537240E+02 -0.16151100095E+02  0.42599016300E+02  0.56232107414E+02  0.47000000000E+01 0.  1.
         -5    1    4    4    0  502 -0.55791892600E+01  0.28643265952E+02  0.51244676109E+03  0.51329848723E+03  0.47000000000E+01 0.  1.
          5    1    5    5  503    0  0.19797415079E+01  0.20913323945E+02  0.39806142054E+02  0.45253789235E+02  0.47000000000E+01 0.  1.
         -5    1    5    5    0  503 -0.29026089487E+02 -0.33405489801E+02  0.12799034214E+04  0.12806768908E+04  0.47000000000E+01 0.  1.
<mgrwt>
<rscale>  0 0.27940268E+03</rscale>
<asrwt>0</asrwt>
<pdfrwt beam="1">  1        2 0.29001639E+00 0.27940268E+03</pdfrwt>
<pdfrwt beam="2">  1       -2 0.15927656E-02 0.27940268E+03</pdfrwt>
<totfact> 0.92273778E+03</totfact>
</mgrwt>
</event>
<event>
 9    1  0.8175317E-001  0.2802157E+03  0.7818608E-02  0.1095571E+00
         -1   -1    0    0    0  501 -0.00000000000E+00  0.00000000000E+00  0.16213814846E+02  0.16213814846E+02  0.00000000000E+00 0. -1.
          1   -1    0    0  501    0  0.00000000000E+00 -0.00000000000E+00 -0.12107090038E+04  0.12107090038E+04  0.00000000000E+00 0. -1.
         35    2    1    2    0    0  0.00000000000E+00  0.00000000000E+00 -0.11944951889E+04  0.12269228186E+04  0.28021571418E+03 0.  0.
         25    2    3    3    0    0  0.29544790201E+02  0.46856733567E+02 -0.48473346825E+03  0.50380162709E+03  0.12562283277E+03 0.  0.
         25    2    3    3    0    0 -0.29544790201E+02 -0.46856733567E+02 -0.70976172067E+03  0.72312119152E+03  0.12678371103E+03 0.  0.
          5    1    4    4  502    0  0.15746931810E+02  0.89279287628E+01 -0.13903827062E+01  0.18753584657E+02  0.47000000000E+01 0. -1.
         -5    1    4    4    0  502  0.13797858391E+02  0.37928804804E+02 -0.48334308554E+03  0.48504804243E+03  0.47000000000E+01 0. -1.
          5    1    5    5  503    0 -0.53797563251E+02  0.16028370619E+02 -0.48948746919E+03  0.49271813339E+03  0.47000000000E+01 0. -1.
         -5    1    5    5    0  503  0.24252773051E+02 -0.62885104186E+02 -0.22027425148E+03  0.23040305813E+03  0.47000000000E+01 0. -1.
<mgrwt>
<rscale>  0 0.28021571E+03</rscale>
<asrwt>0</asrwt>
<pdfrwt beam="1">  1        1 0.18626296E+00 0.28021571E+03</pdfrwt>
<pdfrwt beam="2">  1       -1 0.24944326E-02 0.28021571E+03</pdfrwt>
<totfact> 0.55778191E+03</totfact>
</mgrwt>
</event>
<event>
 9    1  0.8175317E-001  0.2731170E+03  0.7818608E-02  0.1099509E+00
          2   -1    0    0  501    0  0.00000000000E+00  0.00000000000E+00  0.83850419777E+03  0.83850419777E+03  0.00000000000E+00 0.  1.
         -2   -1    0    0    0  501 -0.00000000000E+00 -0.00000000000E+00 -0.22239874541E+02  0.22239874541E+02  0.00000000000E+00 0.  1.
         35    2    1    2    0    0  0.53290705182E-14  0.00000000000E+00  0.81626432323E+03  0.86074407231E+03  0.27311703104E+03 0.  0.
         25    2    3    3    0    0  0.11478258625E+02 -0.48877132486E+02  0.48285440541E+03  0.50126276062E+03  0.12488095876E+03 0.  0.
         25    2    3    3    0    0 -0.11478258625E+02  0.48877132486E+02  0.33340991782E+03  0.35948131169E+03  0.12467524074E+03 0.  0.
          5    1    4    4  502    0  0.56395316750E+02 -0.62286405415E+02  0.25297020034E+03  0.26660090081E+03  0.47000000000E+01 0. -1.
         -5    1    4    4    0  502 -0.44917058125E+02  0.13409272929E+02  0.22988420507E+03  0.23466185982E+03  0.47000000000E+01 0. -1.
          5    1    5    5  503    0  0.81062404780E+01  0.88955584179E+02  0.22859482386E+03  0.24547197515E+03  0.47000000000E+01 0. -1.
         -5    1    5    5    0  503 -0.19584499103E+02 -0.40078451693E+02  0.10481509396E+03  0.11400933654E+03  0.47000000000E+01 0. -1.
<mgrwt>
<rscale>  0 0.27311703E+03</rscale>
<asrwt>0</asrwt>
<pdfrwt beam="1">  1        2 0.12900062E+00 0.27311703E+03</pdfrwt>
<pdfrwt beam="2">  1       -2 0.34215198E-02 0.27311703E+03</pdfrwt>
<totfact> 0.11567200E+04</totfact>
</mgrwt>
</event>
<event>
 9    1  0.8175317E-001  0.2716225E+03  0.7818608E-02  0.1100355E+00
          1   -1    0    0  501    0  0.00000000000E+00  0.00000000000E+00  0.72506728290E+02  0.72506728290E+02  0.00000000000E+00 0. -1.
         -1   -1    0    0    0  501 -0.00000000000E+00 -0.00000000000E+00 -0.25438589562E+03  0.25438589562E+03  0.00000000000E+00 0. -1.
         35    2    1    2    0    0  0.00000000000E+00  0.00000000000E+00 -0.18187916732E+03  0.32689262391E+03  0.27162245131E+03 0.  0.
         25    2    3    3    0    0  0.31543058319E+02  0.33625817733E+02 -0.67116535285E+02  0.15144608467E+03  0.12769348889E+03 0.  0.
         25    2    3    3    0    0 -0.31543058319E+02 -0.33625817733E+02 -0.11476263204E+03  0.17544653924E+03  0.12444021163E+03 0.  0.
          5    1    4    4  502    0 -0.40526833695E+02  0.36332151434E+02 -0.56156740412E+02  0.78346148411E+02  0.47000000000E+01 0. -1.
         -5    1    4    4    0  502  0.72069892014E+02 -0.27063337006E+01 -0.10959794873E+02  0.73099936256E+02  0.47000000000E+01 0. -1.
          5    1    5    5  503    0  0.39398870967E+00 -0.63027731125E+02 -0.12743186604E+02  0.64475801063E+02  0.47000000000E+01 0.  1.
         -5    1    5    5    0  503 -0.31937047029E+02  0.29401913392E+02 -0.10201944544E+03  0.11097073817E+03  0.47000000000E+01 0.  1.
<mgrwt>
<rscale>  0 0.27162245E+03</rscale>
<asrwt>0</asrwt>
<pdfrwt beam="1">  1        1 0.11154881E-01 0.27162245E+03</pdfrwt>
<pdfrwt beam="2">  1       -1 0.39136291E-01 0.27162245E+03</pdfrwt>
<totfact> 0.35346420E+03</totfact>
</mgrwt>
</event>
<event>
 9    1  0.8175317E-001  0.2755691E+03  0.7818608E-02  0.1098134E+00
         -1   -1    0    0    0  501 -0.00000000000E+00  0.00000000000E+00  0.16266644075E+02  0.16266644075E+02  0.00000000000E+00 0. -1.
          1   -1    0    0  501    0  0.00000000000E+00 -0.00000000000E+00 -0.11670865678E+04  0.11670865678E+04  0.00000000000E+00 0. -1.
         35    2    1    2    0    0  0.00000000000E+00 -0.17763568394E-14 -0.11508199237E+04  0.11833532118E+04  0.27556909698E+03 0.  0.
         25    2    3    3    0    0  0.11882678116E+02  0.15136893002E+02 -0.37474305633E+03  0.39704292896E+03  0.12977058836E+03 0.  0.
         25    2    3    3    0    0 -0.11882678116E+02 -0.15136893002E+02 -0.77607686735E+03  0.78631028287E+03  0.12497293043E+03 0.  0.
          5    1    4    4  502    0 -0.38583030800E+02  0.12263169526E+02 -0.31921600048E+03  0.32180736560E+03  0.47000000000E+01 0. -1.
         -5    1    4    4    0  502  0.50465708916E+02  0.28737234757E+01 -0.55527055853E+02  0.75235563364E+02  0.47000000000E+01 0. -1.
          5    1    5    5  503    0 -0.96899446231E+01 -0.66666923400E+02 -0.56271489266E+03  0.56675260399E+03  0.47000000000E+01 0. -1.
         -5    1    5    5    0  503 -0.21927334926E+01  0.51530030398E+02 -0.21336197469E+03  0.21955767888E+03  0.47000000000E+01 0. -1.
<mgrwt>
<rscale>  0 0.27556910E+03</rscale>
<asrwt>0</asrwt>
<pdfrwt beam="1">  1        1 0.17955182E+00 0.27556910E+03</pdfrwt>
<pdfrwt beam="2">  1       -1 0.25025600E-02 0.27556910E+03</pdfrwt>
<totfact> 0.59552927E+03</totfact>
</mgrwt>
</event>
<event>
 9    1  0.8175317E-001  0.2730721E+03  0.7818608E-02  0.1099534E+00
          1   -1    0    0  501    0  0.00000000000E+00  0.00000000000E+00  0.39392805677E+03  0.39392805677E+03  0.00000000000E+00 0. -1.
         -1   -1    0    0    0  501 -0.00000000000E+00 -0.00000000000E+00 -0.47323587362E+02  0.47323587362E+02  0.00000000000E+00 0. -1.
         35    2    1    2    0    0 -0.35527136788E-14  0.71054273576E-14  0.34660446941E+03  0.44125164414E+03  0.27307206967E+03 0.  0.
         25    2    3    3    0    0 -0.14224555373E+02 -0.44702259191E+02  0.22688107361E+03  0.26240083192E+03  0.12320123814E+03 0.  0.
         25    2    3    3    0    0  0.14224555373E+02  0.44702259191E+02  0.11972339581E+03  0.17885081221E+03  0.12431126889E+03 0.  0.
          5    1    4    4  502    0  0.24196832429E+02 -0.23285168739E+02  0.21351092446E+03  0.21618670322E+03  0.47000000000E+01 0. -1.
         -5    1    4    4    0  502 -0.38421387802E+02 -0.21417090452E+02  0.13370149146E+02  0.46214128708E+02  0.47000000000E+01 0. -1.
          5    1    5    5  503    0 -0.27972803677E+02  0.50255127341E+02  0.12304207283E+03  0.13590252852E+03  0.47000000000E+01 0. -1.
         -5    1    5    5    0  503  0.42197359049E+02 -0.55528681493E+01 -0.33186770288E+01  0.42948283698E+02  0.47000000000E+01 0. -1.
<mgrwt>
<rscale>  0 0.27307207E+03</rscale>
<asrwt>0</asrwt>
<pdfrwt beam="1">  1        1 0.60604314E-01 0.27307207E+03</pdfrwt>
<pdfrwt beam="2">  1       -1 0.72805522E-02 0.27307207E+03</pdfrwt>
<totfact> 0.61110162E+03</totfact>
</mgrwt>
</event>
<event>
 9    1  0.8175317E-001  0.2749247E+03  0.7818608E-02  0.1098494E+00
         -2   -1    0    0    0  501 -0.00000000000E+00  0.00000000000E+00  0.26518815505E+02  0.26518815505E+02  0.00000000000E+00 0. -1.
          2   -1    0    0  501    0  0.00000000000E+00 -0.00000000000E+00 -0.71254678506E+03  0.71254678506E+03  0.00000000000E+00 0. -1.
         35    2    1    2    0    0  0.00000000000E+00  0.71054273576E-14 -0.68602796955E+03  0.73906560056E+03  0.27492469319E+03 0.  0.
         25    2    3    3    0    0 -0.98139497558E+01 -0.39253340504E+02 -0.23455865575E+03  0.26921009836E+03  0.12577430470E+03 0.  0.
         25    2    3    3    0    0  0.98139497558E+01  0.39253340504E+02 -0.45146931381E+03  0.46985550220E+03  0.12370332773E+03 0.  0.
          5    1    4    4  502    0  0.18801024382E+02  0.35869375866E+01 -0.21176331569E+03  0.21267848154E+03  0.47000000000E+01 0.  1.
         -5    1    4    4    0  502 -0.28614974138E+02 -0.42840278091E+02 -0.22795340060E+02  0.56531616820E+02  0.47000000000E+01 0.  1.
          5    1    5    5  503    0  0.12809664193E+02  0.83588279351E+02 -0.31905842623E+03  0.33010825086E+03  0.47000000000E+01 0.  1.
         -5    1    5    5    0  503 -0.29957144368E+01 -0.44334938846E+02 -0.13241088758E+03  0.13974725134E+03  0.47000000000E+01 0.  1.
<mgrwt>
<rscale>  0 0.27492469E+03</rscale>
<asrwt>0</asrwt>
<pdfrwt beam="1">  1        2 0.10962257E+00 0.27492469E+03</pdfrwt>
<pdfrwt beam="2">  1       -2 0.40798181E-02 0.27492469E+03</pdfrwt>
<totfact> 0.10903132E+04</totfact>
</mgrwt>
</event>
<event>
 9    1  0.8175317E-001  0.2773756E+03  0.7818608E-02  0.1097131E+00
         -2   -1    0    0    0  501 -0.00000000000E+00  0.00000000000E+00  0.15050706828E+02  0.15050706828E+02  0.00000000000E+00 0.  1.
          2   -1    0    0  501    0  0.00000000000E+00 -0.00000000000E+00 -0.12779672410E+04  0.12779672410E+04  0.00000000000E+00 0.  1.
         35    2    1    2    0    0  0.00000000000E+00  0.00000000000E+00 -0.12629165342E+04  0.12930179479E+04  0.27737563181E+03 0.  0.
         25    2    3    3    0    0  0.28323523513E+02 -0.45298986436E+01 -0.38126474854E+03  0.40217690460E+03  0.12474258354E+03 0.  0.
         25    2    3    3    0    0 -0.28323523513E+02  0.45298986436E+01 -0.88165178567E+03  0.89084104327E+03  0.12435896118E+03 0.  0.
          5    1    4    4  502    0  0.32674181899E+02  0.54077931212E+02 -0.13767075921E+03  0.15154983586E+03  0.47000000000E+01 0.  1.
         -5    1    4    4    0  502 -0.43506583855E+01 -0.58607829856E+02 -0.24359398932E+03  0.25062706874E+03  0.47000000000E+01 0.  1.
          5    1    5    5  503    0 -0.42578436237E+02 -0.29589240134E+02 -0.79253042460E+03  0.79423863561E+03  0.47000000000E+01 0. -1.
         -5    1    5    5    0  503  0.14254912724E+02  0.34119138778E+02 -0.89121361066E+02  0.96602407662E+02  0.47000000000E+01 0. -1.
<mgrwt>
<rscale>  0 0.27737563E+03</rscale>
<asrwt>0</asrwt>
<pdfrwt beam="1">  1        2 0.19661031E+00 0.27737563E+03</pdfrwt>
<pdfrwt beam="2">  1       -2 0.23154938E-02 0.27737563E+03</pdfrwt>
<totfact> 0.11231983E+04</totfact>
</mgrwt>
</event>
<event>
 9    1  0.8175317E-001  0.2742865E+03  0.7818608E-02  0.1098851E+00
          1   -1    0    0  501    0  0.00000000000E+00  0.00000000000E+00  0.14933230561E+04  0.14933230561E+04  0.00000000000E+00 0.  1.
         -1   -1    0    0    0  501 -0.00000000000E+00 -0.00000000000E+00 -0.12594910121E+02  0.12594910121E+02  0.00000000000E+00 0.  1.
         35    2    1    2    0    0  0.00000000000E+00  0.00000000000E+00  0.14807281460E+04  0.15059179662E+04  0.27428649017E+03 0.  0.
         25    2    3    3    0    0  0.67382134077E+01  0.48606845177E+02  0.88978213470E+03  0.89985675921E+03  0.12498764318E+03 0.  0.
         25    2    3    3    0    0 -0.67382134077E+01 -0.48606845177E+02  0.59094601125E+03  0.60606120699E+03  0.12523964819E+03 0.  0.
          5    1    4    4  502    0 -0.21405617283E+02  0.55303491416E+00  0.73444406690E+03  0.73477117778E+03  0.47000000000E+01 0. -1.
         -5    1    4    4    0  502  0.28143830691E+02  0.48053810263E+02  0.15533806780E+03  0.16508558142E+03  0.47000000000E+01 0. -1.
          5    1    5    5  503    0 -0.15077856805E+02  0.18832626087E+02  0.21798950715E+02  0.32852607559E+02  0.47000000000E+01 0. -1.
         -5    1    5    5    0  503  0.83396433970E+01 -0.67439471264E+02  0.56914706054E+03  0.57320859943E+03  0.47000000000E+01 0. -1.
<mgrwt>
<rscale>  0 0.27428649E+03</rscale>
<asrwt>0</asrwt>
<pdfrwt beam="1">  1        1 0.22974187E+00 0.27428649E+03</pdfrwt>
<pdfrwt beam="2">  1       -1 0.19376797E-02 0.27428649E+03</pdfrwt>
<totfact> 0.51924031E+03</totfact>
</mgrwt>
</event>
<event>
 9    1  0.8175317E-001  0.2667338E+03  0.7818608E-02  0.1103164E+00
          1   -1    0    0  501    0  0.00000000000E+00  0.00000000000E+00  0.19055230255E+04  0.19055230255E+04  0.00000000000E+00 0.  1.
         -1   -1    0    0    0  501 -0.00000000000E+00 -0.00000000000E+00 -0.93343027746E+01  0.93343027746E+01  0.00000000000E+00 0.  1.
         35    2    1    2    0    0  0.35527136788E-14  0.00000000000E+00  0.18961887228E+04  0.19148573283E+04  0.26673379137E+03 0.  0.
         25    2    3    3    0    0 -0.10281324631E+02 -0.50395327095E+02  0.10059615052E+04  0.10141886821E+04  0.11821479724E+03 0.  0.
         25    2    3    3    0    0  0.10281324631E+02  0.50395327095E+02  0.89022721752E+03  0.90066864619E+03  0.12670484121E+03 0.  0.
          5    1    4    4  502    0  0.17333478504E+02  0.26818541886E+02  0.54582858441E+03  0.54678205643E+03  0.47000000000E+01 0. -1.
         -5    1    4    4    0  502 -0.27614803134E+02 -0.77213868981E+02  0.46013292082E+03  0.46740662569E+03  0.47000000000E+01 0. -1.
          5    1    5    5  503    0  0.36231305586E+02 -0.32983584306E+02  0.30643602680E+03  0.31036390393E+03  0.47000000000E+01 0. -1.
         -5    1    5    5    0  503 -0.25949980956E+02  0.83378911400E+02  0.58379119072E+03  0.59030474226E+03  0.47000000000E+01 0. -1.
<mgrwt>
<rscale>  0 0.26673379E+03</rscale>
<asrwt>0</asrwt>
<pdfrwt beam="1">  1        1 0.29315708E+00 0.26673379E+03</pdfrwt>
<pdfrwt beam="2">  1       -1 0.14360481E-02 0.26673379E+03</pdfrwt>
<totfact> 0.43208385E+03</totfact>
</mgrwt>
</event>
<event>
 9    1  0.8175317E-001  0.2773748E+03  0.7818608E-02  0.1097131E+00
          2   -1    0    0  501    0  0.00000000000E+00  0.00000000000E+00  0.47078461695E+03  0.47078461695E+03  0.00000000000E+00 0.  1.
         -2   -1    0    0    0  501 -0.00000000000E+00 -0.00000000000E+00 -0.40855616918E+02  0.40855616918E+02  0.00000000000E+00 0.  1.
         35    2    1    2    0    0 -0.71054273576E-14  0.35527136788E-14  0.42992900003E+03  0.51164023387E+03  0.27737480752E+03 0.  0.
         25    2    3    3    0    0 -0.24892483442E+02 -0.22633090565E+02  0.12592796210E+03  0.18136902991E+03  0.12611495095E+03 0.  0.
         25    2    3    3    0    0  0.24892483442E+02  0.22633090565E+02  0.30400103793E+03  0.33027120396E+03  0.12462160558E+03 0.  0.
          5    1    4    4  502    0  0.11970708361E+02  0.30558239549E+02 -0.66039825205E+01  0.33805420396E+02  0.47000000000E+01 0. -1.
         -5    1    4    4    0  502 -0.36863191802E+02 -0.53191330114E+02  0.13253194462E+03  0.14756360952E+03  0.47000000000E+01 0. -1.
          5    1    5    5  503    0 -0.38974634188E+02 -0.12103688793E+02  0.43744944907E+02  0.60010262434E+02  0.47000000000E+01 0.  1.
         -5    1    5    5    0  503  0.63867117630E+02  0.34736779358E+02  0.26025609303E+03  0.27026094152E+03  0.47000000000E+01 0.  1.
<mgrwt>
<rscale>  0 0.27737481E+03</rscale>
<asrwt>0</asrwt>
<pdfrwt beam="1">  1        2 0.72428399E-01 0.27737481E+03</pdfrwt>
<pdfrwt beam="2">  1       -2 0.62854798E-02 0.27737481E+03</pdfrwt>
<totfact> 0.91259459E+03</totfact>
</mgrwt>
</event>
<event>
 9    1  0.8175317E-001  0.2752397E+03  0.7818608E-02  0.1098318E+00
          3   -1    0    0  501    0  0.00000000000E+00  0.00000000000E+00  0.45138537855E+03  0.45138537855E+03  0.00000000000E+00 0. -1.
         -3   -1    0    0    0  501 -0.00000000000E+00 -0.00000000000E+00 -0.41957990117E+02  0.41957990117E+02  0.00000000000E+00 0. -1.
         35    2    1    2    0    0 -0.71054273576E-14  0.71054273576E-14  0.40942738843E+03  0.49334336867E+03  0.27523970100E+03 0.  0.
         25    2    3    3    0    0 -0.50408163443E+02 -0.19093834883E+02  0.16630198871E+03  0.21450720890E+03  0.12430379620E+03 0.  0.
         25    2    3    3    0    0  0.50408163443E+02  0.19093834883E+02  0.24312539972E+03  0.27883615976E+03  0.12543558717E+03 0.  0.
          5    1    4    4  502    0 -0.18388679224E+01  0.46729986933E+02  0.94572553089E+02  0.10560838467E+03  0.47000000000E+01 0. -1.
         -5    1    4    4    0  502 -0.48569295520E+02 -0.65823821816E+02  0.71729435621E+02  0.10889882424E+03  0.47000000000E+01 0. -1.
          5    1    5    5  503    0 -0.24074274520E+02 -0.36136723249E+02  0.76451117830E+02  0.88047128733E+02  0.47000000000E+01 0. -1.
         -5    1    5    5    0  503  0.74482437962E+02  0.55230558132E+02  0.16667428189E+03  0.19078903103E+03  0.47000000000E+01 0. -1.
<mgrwt>
<rscale>  0 0.27523970E+03</rscale>
<asrwt>0</asrwt>
<pdfrwt beam="1">  1        3 0.69443901E-01 0.27523970E+03</pdfrwt>
<pdfrwt beam="2">  1       -3 0.64550757E-02 0.27523970E+03</pdfrwt>
<totfact> 0.77880981E+02</totfact>
</mgrwt>
</event>
<event>
 9    1  0.8175317E-001  0.2734858E+03  0.7818608E-02  0.1099301E+00
         -1   -1    0    0    0  501 -0.00000000000E+00  0.00000000000E+00  0.40508598389E+02  0.40508598389E+02  0.00000000000E+00 0. -1.
          1   -1    0    0  501    0  0.00000000000E+00 -0.00000000000E+00 -0.46159650707E+03  0.46159650707E+03  0.00000000000E+00 0. -1.
         35    2    1    2    0    0  0.00000000000E+00  0.00000000000E+00 -0.42108790868E+03  0.50210510546E+03  0.27348584989E+03 0.  0.
         25    2    3    3    0    0 -0.40435322897E+02 -0.38592834457E+02 -0.21122629752E+03  0.25169340934E+03  0.12493438811E+03 0.  0.
         25    2    3    3    0    0  0.40435322897E+02  0.38592834457E+02 -0.20986161116E+03  0.25041169611E+03  0.12465833106E+03 0.  0.
          5    1    4    4  502    0 -0.11444735083E+02 -0.70389959444E+02 -0.19096565929E+03  0.20390120495E+03  0.47000000000E+01 0. -1.
         -5    1    4    4    0  502 -0.28990587814E+02  0.31797124986E+02 -0.20260638228E+02  0.47792204392E+02  0.47000000000E+01 0. -1.
          5    1    5    5  503    0  0.67791954293E+02 -0.11955895288E+02 -0.15974493037E+03  0.17400926779E+03  0.47000000000E+01 0. -1.
         -5    1    5    5    0  503 -0.27356631396E+02  0.50548729745E+02 -0.50116680790E+02  0.76402428322E+02  0.47000000000E+01 0. -1.
<mgrwt>
<rscale>  0 0.27348585E+03</rscale>
<asrwt>0</asrwt>
<pdfrwt beam="1">  1        1 0.71014844E-01 0.27348585E+03</pdfrwt>
<pdfrwt beam="2">  1       -1 0.62320923E-02 0.27348585E+03</pdfrwt>
<totfact> 0.63011589E+03</totfact>
</mgrwt>
</event>
<event>
 9    1  0.8175317E-001  0.2788063E+03  0.7818608E-02  0.1096343E+00
         -2   -1    0    0    0  501 -0.00000000000E+00  0.00000000000E+00  0.15213623842E+02  0.15213623842E+02  0.00000000000E+00 0.  1.
          2   -1    0    0  501    0  0.00000000000E+00 -0.00000000000E+00 -0.12773576782E+04  0.12773576782E+04  0.00000000000E+00 0.  1.
         35    2    1    2    0    0  0.00000000000E+00 -0.71054273576E-14 -0.12621440544E+04  0.12925713021E+04  0.27880630716E+03 0.  0.
         25    2    3    3    0    0  0.23709404555E+02 -0.47808104876E+02 -0.48680639694E+03  0.50539351821E+03  0.12487749754E+03 0.  0.
         25    2    3    3    0    0 -0.23709404555E+02  0.47808104876E+02 -0.77533765746E+03  0.78717778387E+03  0.12511046954E+03 0.  0.
          5    1    4    4  502    0  0.58240204331E+02 -0.72478751864E+02 -0.33599104304E+03  0.34865048670E+03  0.47000000000E+01 0. -1.
         -5    1    4    4    0  502 -0.34530799776E+02  0.24670646987E+02 -0.15081535389E+03  0.15674303151E+03  0.47000000000E+01 0. -1.
          5    1    5    5  503    0  0.47075041620E+02  0.42236173388E+02 -0.30886095191E+03  0.31530482315E+03  0.47000000000E+01 0.  1.
         -5    1    5    5    0  503 -0.70784446175E+02  0.55719314878E+01 -0.46647670554E+03  0.47187296072E+03  0.47000000000E+01 0.  1.
<mgrwt>
<rscale>  0 0.27880631E+03</rscale>
<asrwt>0</asrwt>
<pdfrwt beam="1">  1        2 0.19651665E+00 0.27880631E+03</pdfrwt>
<pdfrwt beam="2">  1       -2 0.23405565E-02 0.27880631E+03</pdfrwt>
<totfact> 0.11064800E+04</totfact>
</mgrwt>
</event>
<event>
 9    1  0.8175317E-001  0.2808856E+03  0.7818608E-02  0.1095206E+00
          2   -1    0    0  501    0  0.00000000000E+00  0.00000000000E+00  0.49023327666E+03  0.49023327666E+03  0.00000000000E+00 0. -1.
         -2   -1    0    0    0  501 -0.00000000000E+00 -0.00000000000E+00 -0.40234261881E+02  0.40234261881E+02  0.00000000000E+00 0. -1.
         35    2    1    2    0    0 -0.71054273576E-14  0.35527136788E-14  0.44999901478E+03  0.53046753854E+03  0.28088555702E+03 0.  0.
         25    2    3    3    0    0 -0.40247150452E+02  0.79592749048E+01  0.13189780328E+03  0.18623780884E+03  0.12491720361E+03 0.  0.
         25    2    3    3    0    0  0.40247150452E+02 -0.79592749048E+01  0.31810121150E+03  0.34422972970E+03  0.12499017111E+03 0.  0.
          5    1    4    4  502    0  0.29368104079E+02  0.22716995585E+02  0.10246473558E+03  0.10908556029E+03  0.47000000000E+01 0.  1.
         -5    1    4    4    0  502 -0.69615254531E+02 -0.14757720680E+02  0.29433067697E+02  0.77152248555E+02  0.47000000000E+01 0.  1.
          5    1    5    5  503    0  0.45183784143E+02  0.30641300411E+02  0.52956635775E+02  0.76203404865E+02  0.47000000000E+01 0. -1.
         -5    1    5    5    0  503 -0.49366336906E+01 -0.38600575316E+02  0.26514457572E+03  0.26802632483E+03  0.47000000000E+01 0. -1.
<mgrwt>
<rscale>  0 0.28088556E+03</rscale>
<asrwt>0</asrwt>
<pdfrwt beam="1">  1        2 0.75420500E-01 0.28088556E+03</pdfrwt>
<pdfrwt beam="2">  1       -2 0.61898868E-02 0.28088556E+03</pdfrwt>
<totfact> 0.89365668E+03</totfact>
</mgrwt>
</event>
<event>
 9    1  0.8175317E-001  0.2732583E+03  0.7818608E-02  0.1099429E+00
          2   -1    0    0  501    0  0.00000000000E+00  0.00000000000E+00  0.73127122253E+03  0.73127122253E+03  0.00000000000E+00 0. -1.
         -2   -1    0    0    0  501 -0.00000000000E+00 -0.00000000000E+00 -0.25527504915E+02  0.25527504915E+02  0.00000000000E+00 0. -1.
         35    2    1    2    0    0  0.14210854715E-13 -0.88817841970E-15  0.70574371762E+03  0.75679872745E+03  0.27325833731E+03 0.  0.
         25    2    3    3    0    0  0.56646861097E+02  0.57007319384E+01  0.33185503923E+03  0.35853320517E+03  0.12319467088E+03 0.  0.
         25    2    3    3    0    0 -0.56646861097E+02 -0.57007319384E+01  0.37388867838E+03  0.39826552227E+03  0.12482514646E+03 0.  0.
          5    1    4    4  502    0  0.93262928395E+02  0.49696725966E+01  0.18743179072E+03  0.20946464530E+03  0.47000000000E+01 0. -1.
         -5    1    4    4    0  502 -0.36616067298E+02  0.73105934173E+00  0.14442324851E+03  0.14906855988E+03  0.47000000000E+01 0. -1.
          5    1    5    5  503    0 -0.79909231095E+02 -0.30428553394E+02  0.33783866702E+03  0.34852322306E+03  0.47000000000E+01 0. -1.
         -5    1    5    5    0  503  0.23262369998E+02  0.24727821456E+02  0.36050011365E+02  0.49742299216E+02  0.47000000000E+01 0. -1.
<mgrwt>
<rscale>  0 0.27325834E+03</rscale>
<asrwt>0</asrwt>
<pdfrwt beam="1">  1        2 0.11250325E+00 0.27325834E+03</pdfrwt>
<pdfrwt beam="2">  1       -2 0.39273090E-02 0.27325834E+03</pdfrwt>
<totfact> 0.11182369E+04</totfact>
</mgrwt>
</event>
<event>
 9    1  0.8175317E-001  0.2772701E+03  0.7818608E-02  0.1097189E+00
          2   -1    0    0  501    0  0.00000000000E+00  0.00000000000E+00  0.27324216272E+02  0.27324216272E+02  0.00000000000E+00 0.  1.
         -2   -1    0    0    0  501 -0.00000000000E+00 -0.00000000000E+00 -0.70339341284E+03  0.70339341284E+03  0.00000000000E+00 0.  1.
         35    2    1    2    0    0  0.00000000000E+00 -0.71054273576E-14 -0.67606919657E+03  0.73071762911E+03  0.27727007582E+03 0.  0.
         25    2    3    3    0    0 -0.58455927426E+02 -0.11032490658E+02 -0.28080517112E+03  0.31304848601E+03  0.12493598026E+03 0.  0.
         25    2    3    3    0    0  0.58455927426E+02  0.11032490658E+02 -0.39526402545E+03  0.41766914310E+03  0.12114062897E+03 0.  0.
          5    1    4    4  502    0 -0.12879664763E+02  0.55606216516E+02 -0.12546057022E+03  0.13791440012E+03  0.47000000000E+01 0. -1.
         -5    1    4    4    0  502 -0.45576262662E+02 -0.66638707174E+02 -0.15534460090E+03  0.17513408589E+03  0.47000000000E+01 0. -1.
          5    1    5    5  503    0  0.43585103377E+01 -0.49959082157E+02 -0.19489209729E+03  0.20129561865E+03  0.47000000000E+01 0. -1.
         -5    1    5    5    0  503  0.54097417088E+02  0.60991572815E+02 -0.20037192815E+03  0.21637352445E+03  0.47000000000E+01 0. -1.
<mgrwt>
<rscale>  0 0.27727008E+03</rscale>
<asrwt>0</asrwt>
<pdfrwt beam="1">  1        2 0.42037255E-02 0.27727008E+03</pdfrwt>
<pdfrwt beam="2">  1       -2 0.10821437E+00 0.27727008E+03</pdfrwt>
<totfact> 0.14110399E+03</totfact>
</mgrwt>
</event>
<event>
 9    1  0.8175317E-001  0.2774210E+03  0.7818608E-02  0.1097106E+00
          2   -1    0    0  501    0  0.00000000000E+00  0.00000000000E+00  0.24911421095E+03  0.24911421095E+03  0.00000000000E+00 0. -1.
         -2   -1    0    0    0  501 -0.00000000000E+00 -0.00000000000E+00 -0.77236096257E+02  0.77236096257E+02  0.00000000000E+00 0. -1.
         35    2    1    2    0    0  0.35527136788E-14  0.00000000000E+00  0.17187811469E+03  0.32635030720E+03  0.27742104589E+03 0.  0.
         25    2    3    3    0    0 -0.72384367714E+01 -0.27511658910E+02  0.14774680378E+03  0.19606000020E+03  0.12570250320E+03 0.  0.
         25    2    3    3    0    0  0.72384367714E+01  0.27511658910E+02  0.24131310914E+02  0.13029030700E+03  0.12483572241E+03 0.  0.
          5    1    4    4  502    0 -0.23655953400E+02  0.42834526096E+02  0.93379008621E+02  0.10552786366E+03  0.47000000000E+01 0.  1.
         -5    1    4    4    0  502  0.16417516629E+02 -0.70346185006E+02  0.54367795155E+02  0.90532136543E+02  0.47000000000E+01 0.  1.
          5    1    5    5  503    0  0.23240552392E+02 -0.15994207696E+02 -0.41133878427E+02  0.50100138820E+02  0.47000000000E+01 0. -1.
         -5    1    5    5    0  503 -0.16002115621E+02  0.43505866606E+02  0.65265189341E+02  0.80190168183E+02  0.47000000000E+01 0. -1.
<mgrwt>
<rscale>  0 0.27742105E+03</rscale>
<asrwt>0</asrwt>
<pdfrwt beam="1">  1        2 0.38325263E-01 0.27742105E+03</pdfrwt>
<pdfrwt beam="2">  1       -2 0.11882476E-01 0.27742105E+03</pdfrwt>
<totfact> 0.66787328E+03</totfact>
</mgrwt>
</event>
<event>
 9    1  0.8175317E-001  0.2739032E+03  0.7818608E-02  0.1099066E+00
         -2   -1    0    0    0  501 -0.00000000000E+00  0.00000000000E+00  0.56676514411E+02  0.56676514411E+02  0.00000000000E+00 0.  1.
          2   -1    0    0  501    0  0.00000000000E+00 -0.00000000000E+00 -0.33092607330E+03  0.33092607330E+03  0.00000000000E+00 0.  1.
         35    2    1    2    0    0 -0.71054273576E-14  0.00000000000E+00 -0.27424955889E+03  0.38760258771E+03  0.27390316802E+03 0.  0.
         25    2    3    3    0    0  0.49321684326E+02  0.14980889532E+02 -0.10614549575E+03  0.17211869780E+03  0.12530332904E+03 0.  0.
         25    2    3    3    0    0 -0.49321684326E+02 -0.14980889532E+02 -0.16810406314E+03  0.21548388991E+03  0.12456835541E+03 0.  0.
          5    1    4    4  502    0  0.11019877296E+02  0.47528047909E+02  0.57615223617E+01  0.49352185095E+02  0.47000000000E+01 0. -1.
         -5    1    4    4    0  502  0.38301807029E+02 -0.32547158377E+02 -0.11190701811E+03  0.12276651271E+03  0.47000000000E+01 0. -1.
          5    1    5    5  503    0  0.30423325335E+02 -0.39909133239E+02 -0.52585008262E+02  0.72839486093E+02  0.47000000000E+01 0. -1.
         -5    1    5    5    0  503 -0.79745009661E+02  0.24928243706E+02 -0.11551905488E+03  0.14264440382E+03  0.47000000000E+01 0. -1.
<mgrwt>
<rscale>  0 0.27390317E+03</rscale>
<asrwt>0</asrwt>
<pdfrwt beam="1">  1        2 0.50911703E-01 0.27390317E+03</pdfrwt>
<pdfrwt beam="2">  1       -2 0.87194638E-02 0.27390317E+03</pdfrwt>
<totfact> 0.80484485E+03</totfact>
</mgrwt>
</event>
<event>
 9    1  0.8175317E-001  0.2722457E+03  0.7818608E-02  0.1100001E+00
          2   -1    0    0  501    0  0.00000000000E+00  0.00000000000E+00  0.15948799800E+03  0.15948799800E+03  0.00000000000E+00 0. -1.
         -2   -1    0    0    0  501 -0.00000000000E+00 -0.00000000000E+00 -0.11618075219E+03  0.11618075219E+03  0.00000000000E+00 0. -1.
         35    2    1    2    0    0 -0.21316282073E-13  0.00000000000E+00  0.43307245815E+02  0.27566875019E+03  0.27224573879E+03 0.  0.
         25    2    3    3    0    0 -0.41034688454E+02 -0.65635938651E+01 -0.17196569493E+02  0.13290493325E+03  0.12506427491E+03 0.  0.
         25    2    3    3    0    0  0.41034688454E+02  0.65635938651E+01  0.60503815308E+02  0.14276381693E+03  0.12244945626E+03 0.  0.
          5    1    4    4  502    0  0.25221090842E+02 -0.43255876184E+02  0.11821978452E+02  0.51662592097E+02  0.47000000000E+01 0.  1.
         -5    1    4    4    0  502 -0.66255779296E+02  0.36692282319E+02 -0.29018547945E+02  0.81242341157E+02  0.47000000000E+01 0.  1.
          5    1    5    5  503    0  0.65034471750E+02  0.21245114413E+02  0.82109399104E+02  0.10698074978E+03  0.47000000000E+01 0.  1.
         -5    1    5    5    0  503 -0.23999783295E+02 -0.14681520548E+02 -0.21605583796E+02  0.35783067155E+02  0.47000000000E+01 0.  1.
<mgrwt>
<rscale>  0 0.27224574E+03</rscale>
<asrwt>0</asrwt>
<pdfrwt beam="1">  1        2 0.24536615E-01 0.27224574E+03</pdfrwt>
<pdfrwt beam="2">  1       -2 0.17873962E-01 0.27224574E+03</pdfrwt>
<totfact> 0.55556315E+03</totfact>
</mgrwt>
</event>
<event>
 9    1  0.8175317E-001  0.2759649E+03  0.7818608E-02  0.1097913E+00
         -1   -1    0    0    0  501 -0.00000000000E+00  0.00000000000E+00  0.11857679316E+02  0.11857679316E+02  0.00000000000E+00 0. -1.
          1   -1    0    0  501    0  0.00000000000E+00 -0.00000000000E+00 -0.16056397180E+04  0.16056397180E+04  0.00000000000E+00 0. -1.
         35    2    1    2    0    0  0.00000000000E+00  0.35527136788E-14 -0.15937820387E+04  0.16174973973E+04  0.27596493164E+03 0.  0.
         25    2    3    3    0    0  0.47253374696E+02  0.30725942014E+02 -0.68473449488E+03  0.69819285357E+03  0.12423754413E+03 0.  0.
         25    2    3    3    0    0 -0.47253374696E+02 -0.30725942014E+02 -0.90904754379E+03  0.91930454373E+03  0.12480561813E+03 0.  0.
          5    1    4    4  502    0 -0.11495240606E+02 -0.74669606816E+01 -0.50524788318E+03  0.50545564545E+03  0.47000000000E+01 0.  1.
         -5    1    4    4    0  502  0.58748615302E+02  0.38192902696E+02 -0.17948661169E+03  0.19273720812E+03  0.47000000000E+01 0.  1.
          5    1    5    5  503    0  0.13148614946E+02 -0.18683963305E+02 -0.29578719284E+02  0.37669180961E+02  0.47000000000E+01 0.  1.
         -5    1    5    5    0  503 -0.60401989643E+02 -0.12041978709E+02 -0.87946882450E+03  0.88163536277E+03  0.47000000000E+01 0.  1.
<mgrwt>
<rscale>  0 0.27596493E+03</rscale>
<asrwt>0</asrwt>
<pdfrwt beam="1">  1        1 0.24702152E+00 0.27596493E+03</pdfrwt>
<pdfrwt beam="2">  1       -1 0.18242581E-02 0.27596493E+03</pdfrwt>
<totfact> 0.47813697E+03</totfact>
</mgrwt>
</event>
<event>
 9    1  0.8175317E-001  0.2769641E+03  0.7818608E-02  0.1097359E+00
         -2   -1    0    0    0  501 -0.00000000000E+00  0.00000000000E+00  0.59739939652E+02  0.59739939652E+02  0.00000000000E+00 0. -1.
          2   -1    0    0  501    0  0.00000000000E+00 -0.00000000000E+00 -0.32101257443E+03  0.32101257443E+03  0.00000000000E+00 0. -1.
         35    2    1    2    0    0  0.00000000000E+00  0.00000000000E+00 -0.26127263478E+03  0.38075251408E+03  0.27696405416E+03 0.  0.
         25    2    3    3    0    0  0.42958374337E+02  0.39017776610E+02 -0.16603644872E+03  0.21360127345E+03  0.12120063077E+03 0.  0.
         25    2    3    3    0    0 -0.42958374337E+02 -0.39017776610E+02 -0.95236186059E+02  0.16715124063E+03  0.12450621387E+03 0.  0.
          5    1    4    4  502    0  0.34440484171E+02  0.21358930094E+02  0.52485631592E+01  0.41133784896E+02  0.47000000000E+01 0.  1.
         -5    1    4    4    0  502  0.85178901658E+01  0.17658846516E+02 -0.17128501188E+03  0.17246748855E+03  0.47000000000E+01 0.  1.
          5    1    5    5  503    0  0.32827302379E+02  0.21071955544E+02 -0.17659491532E+02  0.43076753976E+02  0.47000000000E+01 0. -1.
         -5    1    5    5    0  503 -0.75785676716E+02 -0.60089732154E+02 -0.77576694527E+02  0.12407448666E+03  0.47000000000E+01 0. -1.
<mgrwt>
<rscale>  0 0.27696405E+03</rscale>
<asrwt>0</asrwt>
<pdfrwt beam="1">  1        2 0.49386551E-01 0.27696405E+03</pdfrwt>
<pdfrwt beam="2">  1       -2 0.91907597E-02 0.27696405E+03</pdfrwt>
<totfact> 0.76577737E+03</totfact>
</mgrwt>
</event>
<event>
 9    1  0.8175317E-001  0.2729406E+03  0.7818608E-02  0.1099608E+00
          2   -1    0    0  501    0  0.00000000000E+00  0.00000000000E+00  0.18976603821E+03  0.18976603821E+03  0.00000000000E+00 0.  1.
         -2   -1    0    0    0  501 -0.00000000000E+00 -0.00000000000E+00 -0.98142634430E+02  0.98142634430E+02  0.00000000000E+00 0.  1.
         35    2    1    2    0    0 -0.71054273576E-14  0.35527136788E-14  0.91623403784E+02  0.28790867264E+03  0.27294057167E+03 0.  0.
         25    2    3    3    0    0 -0.45554989012E+02  0.31097620403E+02  0.46615130378E+02  0.14377619454E+03  0.12432338765E+03 0.  0.
         25    2    3    3    0    0  0.45554989012E+02 -0.31097620403E+02  0.45008273406E+02  0.14413247810E+03  0.12532401027E+03 0.  0.
          5    1    4    4  502    0  0.88982542628E+01  0.31074445904E+02 -0.33503281250E+02  0.46790597043E+02  0.47000000000E+01 0. -1.
         -5    1    4    4    0  502 -0.54453243275E+02  0.23174499046E-01  0.80118411628E+02  0.96985597498E+02  0.47000000000E+01 0. -1.
          5    1    5    5  503    0  0.41254028450E+02 -0.77444813778E+02  0.41607945237E+02  0.97226051814E+02  0.47000000000E+01 0. -1.
         -5    1    5    5    0  503  0.43009605628E+01  0.46347193375E+02  0.34003281695E+01  0.46906426289E+02  0.47000000000E+01 0. -1.
<mgrwt>
<rscale>  0 0.27294057E+03</rscale>
<asrwt>0</asrwt>
<pdfrwt beam="1">  1        2 0.29194775E-01 0.27294057E+03</pdfrwt>
<pdfrwt beam="2">  1       -2 0.15098867E-01 0.27294057E+03</pdfrwt>
<totfact> 0.60717062E+03</totfact>
</mgrwt>
</event>
<event>
 9    1  0.8175317E-001  0.2776925E+03  0.7818608E-02  0.1096956E+00
         -2   -1    0    0    0  501 -0.00000000000E+00  0.00000000000E+00  0.45442959277E+01  0.45442959277E+01  0.00000000000E+00 0.  1.
          2   -1    0    0  501    0  0.00000000000E+00 -0.00000000000E+00 -0.42423030997E+04  0.42423030997E+04  0.00000000000E+00 0.  1.
         35    2    1    2    0    0  0.14210854715E-13  0.00000000000E+00 -0.42377588038E+04  0.42468473956E+04  0.27769249684E+03 0.  0.
         25    2    3    3    0    0  0.36374350938E+02 -0.36596246668E+02 -0.15639725538E+04  0.15697027634E+04  0.12366987398E+03 0.  0.
         25    2    3    3    0    0 -0.36374350938E+02  0.36596246668E+02 -0.26737862500E+04  0.26771446322E+04  0.12372587689E+03 0.  0.
          5    1    4    4  502    0  0.58164000778E+01  0.45580162260E+02 -0.52888405359E+03  0.53089717822E+03  0.47000000000E+01 0.  1.
         -5    1    4    4    0  502  0.30557950860E+02 -0.82176408929E+02 -0.10350885002E+04  0.10388055852E+04  0.47000000000E+01 0.  1.
          5    1    5    5  503    0  0.30511957030E+02  0.17701352490E+01 -0.21651113779E+03  0.21870819758E+03  0.47000000000E+01 0. -1.
         -5    1    5    5    0  503 -0.66886307969E+02  0.34826111419E+02 -0.24572751122E+04  0.24584364346E+04  0.47000000000E+01 0. -1.
<mgrwt>
<rscale>  0 0.27769250E+03</rscale>
<asrwt>0</asrwt>
<pdfrwt beam="1">  1        2 0.65266289E+00 0.27769250E+03</pdfrwt>
<pdfrwt beam="2">  1       -2 0.69912151E-03 0.27769250E+03</pdfrwt>
<totfact> 0.10244991E+03</totfact>
</mgrwt>
</event>
<event>
 9    1  0.8175317E-001  0.2663297E+03  0.7818608E-02  0.1103399E+00
         -1   -1    0    0    0  501 -0.00000000000E+00  0.00000000000E+00  0.12282212433E+02  0.12282212433E+02  0.00000000000E+00 0.  1.
          1   -1    0    0  501    0  0.00000000000E+00 -0.00000000000E+00 -0.14437850755E+04  0.14437850755E+04  0.00000000000E+00 0.  1.
         35    2    1    2    0    0  0.00000000000E+00  0.00000000000E+00 -0.14315028631E+04  0.14560672879E+04  0.26632968294E+03 0.  0.
         25    2    3    3    0    0  0.21850125549E+02 -0.40059845994E+02 -0.73327174044E+03  0.74528536761E+03  0.12522226075E+03 0.  0.
         25    2    3    3    0    0 -0.21850125549E+02  0.40059845994E+02 -0.69823112262E+03  0.71078192032E+03  0.12490803983E+03 0.  0.
          5    1    4    4  502    0  0.77468111848E+01  0.44818068306E+02 -0.20551855301E+03  0.21054367234E+03  0.47000000000E+01 0.  1.
         -5    1    4    4    0  502  0.14103314364E+02 -0.84877914301E+02 -0.52775318744E+03  0.53474169527E+03  0.47000000000E+01 0.  1.
          5    1    5    5  503    0 -0.14099115466E+02  0.66736824221E+02 -0.19276621477E+03  0.20453237475E+03  0.47000000000E+01 0.  1.
         -5    1    5    5    0  503 -0.77510100826E+01 -0.26676978227E+02 -0.50546490785E+03  0.50624954557E+03  0.47000000000E+01 0.  1.
<mgrwt>
<rscale>  0 0.26632968E+03</rscale>
<asrwt>0</asrwt>
<pdfrwt beam="1">  1        1 0.22212075E+00 0.26632968E+03</pdfrwt>
<pdfrwt beam="2">  1       -1 0.18895714E-02 0.26632968E+03</pdfrwt>
<totfact> 0.58093054E+03</totfact>
</mgrwt>
</event>
<event>
 9    1  0.8175317E-001  0.2844281E+03  0.7818608E-02  0.1093295E+00
         -3   -1    0    0    0  501 -0.00000000000E+00  0.00000000000E+00  0.16035882554E+03  0.16035882554E+03  0.00000000000E+00 0.  1.
          3   -1    0    0  501    0  0.00000000000E+00 -0.00000000000E+00 -0.12612234905E+03  0.12612234905E+03  0.00000000000E+00 0.  1.
         35    2    1    2    0    0  0.00000000000E+00  0.35527136788E-14  0.34236476493E+02  0.28648117459E+03  0.28442807012E+03 0.  0.
         25    2    3    3    0    0  0.31668691200E+02  0.23289796372E+02  0.70435650570E+02  0.14843509965E+03  0.12460528608E+03 0.  0.
         25    2    3    3    0    0 -0.31668691200E+02 -0.23289796372E+02 -0.36199174077E+02  0.13804607494E+03  0.12728321958E+03 0.  0.
          5    1    4    4  502    0  0.20742132422E+02  0.31718832540E+02 -0.28990145304E+02  0.47946208608E+02  0.47000000000E+01 0.  1.
         -5    1    4    4    0  502  0.10926558778E+02 -0.84290361686E+01  0.99425795874E+02  0.10048889104E+03  0.47000000000E+01 0.  1.
          5    1    5    5  503    0 -0.32641388633E+01 -0.58997419778E+02 -0.61705252430E+02  0.85562715714E+02  0.47000000000E+01 0.  1.
         -5    1    5    5    0  503 -0.28404552337E+02  0.35707623406E+02  0.25506078353E+02  0.52483359227E+02  0.47000000000E+01 0.  1.
<mgrwt>
<rscale>  0 0.28442807E+03</rscale>
<asrwt>0</asrwt>
<pdfrwt beam="1">  1        3 0.19403438E-01 0.28442807E+03</pdfrwt>
<pdfrwt beam="2">  1       -3 0.24670589E-01 0.28442807E+03</pdfrwt>
<totfact> 0.92993390E+02</totfact>
</mgrwt>
</event>
<event>
 9    1  0.8175317E-001  0.2751337E+03  0.7818608E-02  0.1098377E+00
         -2   -1    0    0    0  501 -0.00000000000E+00  0.00000000000E+00  0.71360415798E+03  0.71360415798E+03  0.00000000000E+00 0. -1.
          2   -1    0    0  501    0  0.00000000000E+00 -0.00000000000E+00 -0.26519798172E+02  0.26519798172E+02  0.00000000000E+00 0. -1.
         35    2    1    2    0    0 -0.71054273576E-14  0.35527136788E-14  0.68708435981E+03  0.74012395615E+03  0.27513370019E+03 0.  0.
         25    2    3    3    0    0  0.29131449019E+02 -0.21275634918E+02  0.22150959647E+03  0.25664751823E+03  0.12449961174E+03 0.  0.
         25    2    3    3    0    0 -0.29131449019E+02  0.21275634918E+02  0.46557476334E+03  0.48347643792E+03  0.12525299120E+03 0.  0.
          5    1    4    4  502    0  0.26421012839E+02 -0.96295035382E+01  0.23575006258E+03  0.23746784891E+03  0.47000000000E+01 0.  1.
         -5    1    4    4    0  502  0.27104361801E+01 -0.11646131379E+02 -0.14240466110E+02  0.19179669325E+02  0.47000000000E+01 0.  1.
          5    1    5    5  503    0  0.37587030432E+02 -0.27973991231E+02  0.15594825865E+03  0.16290266547E+03  0.47000000000E+01 0.  1.
         -5    1    5    5    0  503 -0.66718479451E+02  0.49249626148E+02  0.30962650469E+03  0.32057377245E+03  0.47000000000E+01 0.  1.
<mgrwt>
<rscale>  0 0.27513370E+03</rscale>
<asrwt>0</asrwt>
<pdfrwt beam="1">  1        2 0.40799695E-02 0.27513370E+03</pdfrwt>
<pdfrwt beam="2">  1       -2 0.10978524E+00 0.27513370E+03</pdfrwt>
<totfact> 0.14190223E+03</totfact>
</mgrwt>
</event>
<event>
 9    1  0.8175317E-001  0.2789430E+03  0.7818608E-02  0.1096268E+00
          1   -1    0    0  501    0  0.00000000000E+00  0.00000000000E+00  0.22717941477E+03  0.22717941477E+03  0.00000000000E+00 0.  1.
         -1   -1    0    0    0  501 -0.00000000000E+00 -0.00000000000E+00 -0.85625250014E+02  0.85625250014E+02  0.00000000000E+00 0.  1.
         35    2    1    2    0    0  0.00000000000E+00  0.88817841970E-15  0.14155416475E+03  0.31280466478E+03  0.27894296326E+03 0.  0.
         25    2    3    3    0    0 -0.12260158278E+02 -0.20737353276E+01  0.14009966117E+03  0.18869251011E+03  0.12578686916E+03 0.  0.
         25    2    3    3    0    0  0.12260158278E+02  0.20737353276E+01  0.14545035811E+01  0.12411215467E+03  0.12347914600E+03 0.  0.
          5    1    4    4  502    0  0.68590998852E+01  0.48825874457E+02  0.14279499918E+02  0.51546167517E+02  0.47000000000E+01 0.  1.
         -5    1    4    4    0  502 -0.19119258163E+02 -0.50899609785E+02  0.12582016125E+03  0.13714634259E+03  0.47000000000E+01 0.  1.
          5    1    5    5  503    0  0.38900610851E+02 -0.56799751473E+01 -0.51012524289E+02  0.64574664355E+02  0.47000000000E+01 0.  1.
         -5    1    5    5    0  503 -0.26640452573E+02  0.77537104749E+01  0.52467027870E+02  0.59537490314E+02  0.47000000000E+01 0.  1.
<mgrwt>
<rscale>  0 0.27894296E+03</rscale>
<asrwt>0</asrwt>
<pdfrwt beam="1">  1        1 0.34950679E-01 0.27894296E+03</pdfrwt>
<pdfrwt beam="2">  1       -1 0.13173115E-01 0.27894296E+03</pdfrwt>
<totfact> 0.49001617E+03</totfact>
</mgrwt>
</event>
<event>
 9    1  0.8175317E-001  0.2723973E+03  0.7818608E-02  0.1099915E+00
         -3   -1    0    0    0  501 -0.00000000000E+00  0.00000000000E+00  0.19093989353E+03  0.19093989353E+03  0.00000000000E+00 0.  1.
          3   -1    0    0  501    0  0.00000000000E+00 -0.00000000000E+00 -0.97151346881E+02  0.97151346881E+02  0.00000000000E+00 0.  1.
         35    2    1    2    0    0  0.00000000000E+00 -0.71054273576E-14  0.93788546649E+02  0.28809124041E+03  0.27239726746E+03 0.  0.
         25    2    3    3    0    0  0.33660867842E+02 -0.31424925631E+02  0.20444507479E+02  0.13596206284E+03  0.12628192535E+03 0.  0.
         25    2    3    3    0    0 -0.33660867842E+02  0.31424925631E+02  0.73344039170E+02  0.15212917757E+03  0.12507341289E+03 0.  0.
          5    1    4    4  502    0  0.46200634898E+02 -0.26975496088E+02  0.67831772994E+02  0.86518295647E+02  0.47000000000E+01 0. -1.
         -5    1    4    4    0  502 -0.12539767056E+02 -0.44494295432E+01 -0.47387265515E+02  0.49443767191E+02  0.47000000000E+01 0. -1.
          5    1    5    5  503    0 -0.21762640108E+02  0.15934741914E+02 -0.33584039355E+02  0.43330199673E+02  0.47000000000E+01 0. -1.
         -5    1    5    5    0  503 -0.11898227734E+02  0.15490183717E+02  0.10692807853E+03  0.10879897790E+03  0.47000000000E+01 0. -1.
<mgrwt>
<rscale>  0 0.27239727E+03</rscale>
<asrwt>0</asrwt>
<pdfrwt beam="1">  1        3 0.14946361E-01 0.27239727E+03</pdfrwt>
<pdfrwt beam="2">  1       -3 0.29375368E-01 0.27239727E+03</pdfrwt>
<totfact> 0.10594768E+03</totfact>
</mgrwt>
</event>
<event>
 9    1  0.8175317E-001  0.2852322E+03  0.7818608E-02  0.1092865E+00
         -1   -1    0    0    0  501 -0.00000000000E+00  0.00000000000E+00  0.14702052371E+03  0.14702052371E+03  0.00000000000E+00 0. -1.
          1   -1    0    0  501    0  0.00000000000E+00 -0.00000000000E+00 -0.13834364823E+03  0.13834364823E+03  0.00000000000E+00 0. -1.
         35    2    1    2    0    0  0.71054273576E-14  0.00000000000E+00  0.86768754768E+01  0.28536417194E+03  0.28523222549E+03 0.  0.
         25    2    3    3    0    0 -0.43771218201E+02  0.11012696399E+02  0.38060696219E+02  0.13920933351E+03  0.12606911959E+03 0.  0.
         25    2    3    3    0    0  0.43771218201E+02 -0.11012696399E+02 -0.29383820743E+02  0.14615483844E+03  0.13586989678E+03 0.  0.
          5    1    4    4  502    0 -0.33744906767E+02  0.56950391355E+02  0.57793324837E+02  0.88001273877E+02  0.47000000000E+01 0.  1.
         -5    1    4    4    0  502 -0.10026311434E+02 -0.45937694956E+02 -0.19732628618E+02  0.51208059630E+02  0.47000000000E+01 0.  1.
          5    1    5    5  503    0  0.90581074011E+02 -0.13305873184E+02 -0.20490663342E+01  0.91696597009E+02  0.47000000000E+01 0. -1.
         -5    1    5    5    0  503 -0.46809855810E+02  0.22931767854E+01 -0.27334754408E+02  0.54458241427E+02  0.47000000000E+01 0. -1.
<mgrwt>
<rscale>  0 0.28523223E+03</rscale>
<asrwt>0</asrwt>
<pdfrwt beam="1">  1        1 0.21283638E-01 0.28523223E+03</pdfrwt>
<pdfrwt beam="2">  1       -1 0.22618542E-01 0.28523223E+03</pdfrwt>
<totfact> 0.38599716E+03</totfact>
</mgrwt>
</event>
<event>
 9    1  0.8175317E-001  0.2761914E+03  0.7818608E-02  0.1097787E+00
          2   -1    0    0  501    0  0.00000000000E+00  0.00000000000E+00  0.10416514761E+03  0.10416514761E+03  0.00000000000E+00 0.  1.
         -2   -1    0    0    0  501 -0.00000000000E+00 -0.00000000000E+00 -0.18307870917E+03  0.18307870917E+03  0.00000000000E+00 0.  1.
         35    2    1    2    0    0  0.00000000000E+00  0.00000000000E+00 -0.78913561564E+02  0.28724385678E+03  0.27619138846E+03 0.  0.
         25    2    3    3    0    0 -0.35019083277E+02 -0.26058569651E+02 -0.73299199447E+02  0.15182695648E+03  0.12559166703E+03 0.  0.
         25    2    3    3    0    0  0.35019083277E+02  0.26058569651E+02 -0.56143621171E+01  0.13541690030E+03  0.12806572757E+03 0.  0.
          5    1    4    4  502    0 -0.80756392743E+02 -0.25886362615E+02 -0.59913921666E+02  0.10393972651E+03  0.47000000000E+01 0. -1.
         -5    1    4    4    0  502  0.45737309466E+02 -0.17220703583E+00 -0.13385277781E+02  0.47887229965E+02  0.47000000000E+01 0. -1.
          5    1    5    5  503    0  0.57819801782E+02  0.62979084537E+02 -0.22638829534E+02  0.88566930453E+02  0.47000000000E+01 0.  1.
         -5    1    5    5    0  503 -0.22800718505E+02 -0.36920514886E+02  0.17024467417E+02  0.46849969846E+02  0.47000000000E+01 0.  1.
<mgrwt>
<rscale>  0 0.27619139E+03</rscale>
<asrwt>0</asrwt>
<pdfrwt beam="1">  1        2 0.16025407E-01 0.27619139E+03</pdfrwt>
<pdfrwt beam="2">  1       -2 0.28165955E-01 0.27619139E+03</pdfrwt>
<totfact> 0.41089497E+03</totfact>
</mgrwt>
</event>
<event>
 9    1  0.8175317E-001  0.2775023E+03  0.7818608E-02  0.1097061E+00
          1   -1    0    0  501    0  0.00000000000E+00  0.00000000000E+00  0.12830735742E+03  0.12830735742E+03  0.00000000000E+00 0. -1.
         -1   -1    0    0    0  501 -0.00000000000E+00 -0.00000000000E+00 -0.15004500193E+03  0.15004500193E+03  0.00000000000E+00 0. -1.
         35    2    1    2    0    0  0.00000000000E+00  0.00000000000E+00 -0.21737644510E+02  0.27835235935E+03  0.27750227165E+03 0.  0.
         25    2    3    3    0    0  0.37972967880E+02 -0.34847662185E+02 -0.47232598586E+02  0.14070612992E+03  0.12211056784E+03 0.  0.
         25    2    3    3    0    0 -0.37972967880E+02  0.34847662185E+02  0.25494954076E+02  0.13764622944E+03  0.12506072903E+03 0.  0.
          5    1    4    4  502    0  0.56065490767E+02  0.24023874310E+02  0.27647203388E+01  0.61239035511E+02  0.47000000000E+01 0.  1.
         -5    1    4    4    0  502 -0.18092522887E+02 -0.58871536495E+02 -0.49997318924E+02  0.79467094406E+02  0.47000000000E+01 0.  1.
          5    1    5    5  503    0  0.18751148262E+02  0.53494214549E+02  0.47227043730E+02  0.73930509336E+02  0.47000000000E+01 0. -1.
         -5    1    5    5    0  503 -0.56724116142E+02 -0.18646552363E+02 -0.21732089654E+02  0.63715720100E+02  0.47000000000E+01 0. -1.
<mgrwt>
<rscale>  0 0.27750227E+03</rscale>
<asrwt>0</asrwt>
<pdfrwt beam="1">  1        1 0.19739594E-01 0.27750227E+03</pdfrwt>
<pdfrwt beam="2">  1       -1 0.23083846E-01 0.27750227E+03</pdfrwt>
<totfact> 0.41095391E+03</totfact>
</mgrwt>
</event>
<event>
 9    1  0.8175317E-001  0.2839962E+03  0.7818608E-02  0.1093526E+00
         -2   -1    0    0    0  501 -0.00000000000E+00  0.00000000000E+00  0.18916346833E+02  0.18916346833E+02  0.00000000000E+00 0.  1.
          2   -1    0    0  501    0  0.00000000000E+00 -0.00000000000E+00 -0.10659281857E+04  0.10659281857E+04  0.00000000000E+00 0.  1.
         35    2    1    2    0    0  0.00000000000E+00  0.14210854715E-13 -0.10470118389E+04  0.10848445326E+04  0.28399624829E+03 0.  0.
         25    2    3    3    0    0  0.23749085994E+02 -0.48173870882E+02 -0.32784071006E+03  0.35276782213E+03  0.11866281741E+03 0.  0.
         25    2    3    3    0    0 -0.23749085994E+02  0.48173870882E+02 -0.71917112885E+03  0.73207671045E+03  0.12587476509E+03 0.  0.
          5    1    4    4  502    0  0.19169614731E+02 -0.45346589702E+02 -0.33730378173E+03  0.34091013258E+03  0.47000000000E+01 0. -1.
         -5    1    4    4    0  502  0.45794712632E+01 -0.28272811802E+01  0.94630716721E+01  0.11857689547E+02  0.47000000000E+01 0. -1.
          5    1    5    5  503    0 -0.15414083775E+02  0.18145434859E+01 -0.63729738200E+03  0.63750367031E+03  0.47000000000E+01 0.  1.
         -5    1    5    5    0  503 -0.83350022190E+01  0.46359327396E+02 -0.81873746851E+02  0.94573040144E+02  0.47000000000E+01 0.  1.
<mgrwt>
<rscale>  0 0.28399625E+03</rscale>
<asrwt>0</asrwt>
<pdfrwt beam="1">  1        2 0.16398896E+00 0.28399625E+03</pdfrwt>
<pdfrwt beam="2">  1       -2 0.29102071E-02 0.28399625E+03</pdfrwt>
<totfact> 0.10601681E+04</totfact>
</mgrwt>
</event>
<event>
 9    1  0.8175317E-001  0.2672075E+03  0.7818608E-02  0.1102889E+00
          1   -1    0    0  501    0  0.00000000000E+00  0.00000000000E+00  0.38836505839E+03  0.38836505839E+03  0.00000000000E+00 0. -1.
         -1   -1    0    0    0  501 -0.00000000000E+00 -0.00000000000E+00 -0.45961821732E+02  0.45961821732E+02  0.00000000000E+00 0. -1.
         35    2    1    2    0    0  0.71054273576E-14  0.00000000000E+00  0.34240323666E+03  0.43432688013E+03  0.26720752670E+03 0.  0.
         25    2    3    3    0    0  0.76904999354E+01  0.38137151106E+02  0.21503308172E+03  0.25160262718E+03  0.12470392812E+03 0.  0.
         25    2    3    3    0    0 -0.76904999354E+01 -0.38137151106E+02  0.12737015494E+03  0.18272425294E+03  0.12510559604E+03 0.  0.
          5    1    4    4  502    0 -0.56312310192E+02  0.34764350316E+02  0.11156575747E+03  0.12980232884E+03  0.47000000000E+01 0. -1.
         -5    1    4    4    0  502  0.64002810127E+02  0.33728007897E+01  0.10346732425E+03  0.12180029834E+03  0.47000000000E+01 0. -1.
          5    1    5    5  503    0  0.57775945178E+02 -0.91220039967E+01  0.65845181831E+02  0.88198349012E+02  0.47000000000E+01 0.  1.
         -5    1    5    5    0  503 -0.65466445113E+02 -0.29015147109E+02  0.61524973108E+02  0.94525903929E+02  0.47000000000E+01 0.  1.
<mgrwt>
<rscale>  0 0.26720753E+03</rscale>
<asrwt>0</asrwt>
<pdfrwt beam="1">  1        1 0.59748468E-01 0.26720753E+03</pdfrwt>
<pdfrwt beam="2">  1       -1 0.70710497E-02 0.26720753E+03</pdfrwt>
<totfact> 0.65007526E+03</totfact>
</mgrwt>
</event>
<event>
 9    1  0.8175317E-001  0.2778530E+03  0.7818608E-02  0.1096867E+00
          2   -1    0    0  501    0  0.00000000000E+00  0.00000000000E+00  0.25258072881E+03  0.25258072881E+03  0.00000000000E+00 0.  1.
         -2   -1    0    0    0  501 -0.00000000000E+00 -0.00000000000E+00 -0.76413496667E+02  0.76413496667E+02  0.00000000000E+00 0.  1.
         35    2    1    2    0    0  0.21316282073E-13  0.00000000000E+00  0.17616723214E+03  0.32899422548E+03  0.27785303078E+03 0.  0.
         25    2    3    3    0    0  0.56400670922E+02 -0.18482794694E+01  0.61371671788E+02  0.15042928917E+03  0.12521196878E+03 0.  0.
         25    2    3    3    0    0 -0.56400670922E+02  0.18482794694E+01  0.11479556035E+03  0.17856493631E+03  0.12459118742E+03 0.  0.
          5    1    4    4  502    0 -0.12540605529E+02  0.19437463180E+02 -0.27250944170E+02  0.36052541104E+02  0.47000000000E+01 0.  1.
         -5    1    4    4    0  502  0.68941276451E+02 -0.21285742649E+02  0.88622615958E+02  0.11437674807E+03  0.47000000000E+01 0.  1.
          5    1    5    5  503    0 -0.81495156394E+02 -0.30262027430E+02  0.45995407773E+02  0.98462776500E+02  0.47000000000E+01 0.  1.
         -5    1    5    5    0  503  0.25094485473E+02  0.32110306899E+02  0.68800152582E+02  0.80102159806E+02  0.47000000000E+01 0.  1.
<mgrwt>
<rscale>  0 0.27785303E+03</rscale>
<asrwt>0</asrwt>
<pdfrwt beam="1">  1        2 0.38858573E-01 0.27785303E+03</pdfrwt>
<pdfrwt beam="2">  1       -2 0.11755923E-01 0.27785303E+03</pdfrwt>
<totfact> 0.66946964E+03</totfact>
</mgrwt>
</event>
<event>
 9    1  0.8175317E-001  0.2778547E+03  0.7818608E-02  0.1096866E+00
          2   -1    0    0  501    0  0.00000000000E+00  0.00000000000E+00  0.16258536933E+04  0.16258536933E+04  0.00000000000E+00 0. -1.
         -2   -1    0    0    0  501 -0.00000000000E+00 -0.00000000000E+00 -0.11871187895E+02  0.11871187895E+02  0.00000000000E+00 0. -1.
         35    2    1    2    0    0 -0.71054273576E-14  0.00000000000E+00  0.16139825054E+04  0.16377248812E+04  0.27785474394E+03 0.  0.
         25    2    3    3    0    0 -0.36615493131E+02 -0.73348372883E+01  0.59711210388E+03  0.61129387927E+03  0.12547050672E+03 0.  0.
         25    2    3    3    0    0  0.36615493131E+02  0.73348372883E+01  0.10168704015E+04  0.10264310019E+04  0.13468739377E+03 0.  0.
          5    1    4    4  502    0 -0.32308538867E+02 -0.48265899042E+02  0.52425652556E+03  0.52748500764E+03  0.47000000000E+01 0. -1.
         -5    1    4    4    0  502 -0.43069542637E+01  0.40931061754E+02  0.72855578327E+02  0.83808871634E+02  0.47000000000E+01 0. -1.
          5    1    5    5  503    0  0.21200447150E+02  0.57723645007E+02  0.24124301055E+03  0.24900152267E+03  0.47000000000E+01 0. -1.
         -5    1    5    5    0  503  0.15415045980E+02 -0.50388807718E+02  0.77562739098E+03  0.77742947926E+03  0.47000000000E+01 0. -1.
<mgrwt>
<rscale>  0 0.27785474E+03</rscale>
<asrwt>0</asrwt>
<pdfrwt beam="1">  1        2 0.25013116E+00 0.27785474E+03</pdfrwt>
<pdfrwt beam="2">  1       -2 0.18263379E-02 0.27785474E+03</pdfrwt>
<totfact> 0.10334982E+04</totfact>
</mgrwt>
</event>
<event>
 9    1  0.8175317E-001  0.2789901E+03  0.7818608E-02  0.1096242E+00
         -2   -1    0    0    0  501 -0.00000000000E+00  0.00000000000E+00  0.51990043635E+01  0.51990043635E+01  0.00000000000E+00 0.  1.
          2   -1    0    0  501    0  0.00000000000E+00 -0.00000000000E+00 -0.37428070892E+04  0.37428070892E+04  0.00000000000E+00 0.  1.
         35    2    1    2    0    0 -0.35527136788E-14  0.00000000000E+00 -0.37376080848E+04  0.37480060936E+04  0.27899011014E+03 0.  0.
         25    2    3    3    0    0  0.16876303711E+02 -0.58110573846E+02 -0.17601690853E+04  0.17656819590E+04  0.12560224156E+03 0.  0.
         25    2    3    3    0    0 -0.16876303711E+02  0.58110573846E+02 -0.19774389996E+04  0.19823241346E+04  0.12522910665E+03 0.  0.
          5    1    4    4  502    0  0.35446004980E+02 -0.79597752052E+02 -0.74313181133E+03  0.74823739575E+03  0.47000000000E+01 0. -1.
         -5    1    4    4    0  502 -0.18569701268E+02  0.21487178207E+02 -0.10170372739E+04  0.10174445632E+04  0.47000000000E+01 0. -1.
          5    1    5    5  503    0 -0.62023647291E+02  0.42195991563E+02 -0.70890955487E+03  0.71288307703E+03  0.47000000000E+01 0. -1.
         -5    1    5    5    0  503  0.45147343580E+02  0.15914582283E+02 -0.12685294447E+04  0.12694410576E+04  0.47000000000E+01 0. -1.
<mgrwt>
<rscale>  0 0.27899011E+03</rscale>
<asrwt>0</asrwt>
<pdfrwt beam="1">  1        2 0.57581922E+00 0.27899011E+03</pdfrwt>
<pdfrwt beam="2">  1       -2 0.79984302E-03 0.27899011E+03</pdfrwt>
<totfact> 0.20376682E+03</totfact>
</mgrwt>
</event>
<event>
 9    1  0.8175317E-001  0.2758588E+03  0.7818608E-02  0.1097973E+00
         -4   -1    0    0    0  501 -0.00000000000E+00  0.00000000000E+00  0.16571565633E+04  0.16571565633E+04  0.00000000000E+00 0.  1.
          4   -1    0    0  501    0  0.00000000000E+00 -0.00000000000E+00 -0.11480219549E+02  0.11480219549E+02  0.00000000000E+00 0.  1.
         35    2    1    2    0    0  0.71054273576E-14  0.00000000000E+00  0.16456763438E+04  0.16686367829E+04  0.27585881297E+03 0.  0.
         25    2    3    3    0    0  0.33617870230E+02 -0.42361988741E+02  0.71811214113E+03  0.73110318025E+03  0.12610358300E+03 0.  0.
         25    2    3    3    0    0 -0.33617870230E+02  0.42361988741E+02  0.92756420266E+03  0.93753360263E+03  0.12517670201E+03 0.  0.
          5    1    4    4  502    0  0.75700199570E+02  0.54794800181E+00  0.44489774650E+03  0.45131686796E+03  0.47000000000E+01 0. -1.
         -5    1    4    4    0  502 -0.42082329341E+02 -0.42909936742E+02  0.27321439463E+03  0.27978631229E+03  0.47000000000E+01 0. -1.
          5    1    5    5  503    0  0.33981576700E+02  0.49430061990E+02  0.27978429152E+03  0.28618074423E+03  0.47000000000E+01 0. -1.
         -5    1    5    5    0  503 -0.67599446930E+02 -0.70680732498E+01  0.64777991113E+03  0.65135285841E+03  0.47000000000E+01 0. -1.
<mgrwt>
<rscale>  0 0.27585881E+03</rscale>
<asrwt>0</asrwt>
<pdfrwt beam="1">  1        4 0.17661889E-02 0.27585881E+03</pdfrwt>
<pdfrwt beam="2">  1       -4 0.25494697E+00 0.27585881E+03</pdfrwt>
<totfact> 0.15395170E+02</totfact>
</mgrwt>
</event>
<event>
 9    1  0.8175317E-001  0.2736376E+03  0.7818608E-02  0.1099216E+00
         -2   -1    0    0    0  501 -0.00000000000E+00  0.00000000000E+00  0.56568258568E+01  0.56568258568E+01  0.00000000000E+00 0. -1.
          2   -1    0    0  501    0  0.00000000000E+00 -0.00000000000E+00 -0.33091676418E+04  0.33091676418E+04  0.00000000000E+00 0. -1.
         35    2    1    2    0    0 -0.14210854715E-13  0.00000000000E+00 -0.33035108160E+04  0.33148244677E+04  0.27363760765E+03 0.  0.
         25    2    3    3    0    0  0.41189245346E+02 -0.34981091721E+02 -0.15810372423E+04  0.15869595347E+04  0.12586330865E+03 0.  0.
         25    2    3    3    0    0 -0.41189245346E+02  0.34981091721E+02 -0.17224735737E+04  0.17278649330E+04  0.12522693001E+03 0.  0.
          5    1    4    4  502    0 -0.21354856309E+01  0.21344060118E+02 -0.54439547729E+02  0.58701648684E+02  0.47000000000E+01 0.  1.
         -5    1    4    4    0  502  0.43324730977E+02 -0.56325151839E+02 -0.15265976946E+04  0.15282578860E+04  0.47000000000E+01 0.  1.
          5    1    5    5  503    0 -0.84377479403E+02  0.38017227059E+02 -0.11302717622E+04  0.11340640260E+04  0.47000000000E+01 0. -1.
         -5    1    5    5    0  503  0.43188234057E+02 -0.30361353384E+01 -0.59220181144E+03  0.59380090700E+03  0.47000000000E+01 0. -1.
<mgrwt>
<rscale>  0 0.27363761E+03</rscale>
<asrwt>0</asrwt>
<pdfrwt beam="1">  1        2 0.50910358E+00 0.27363761E+03</pdfrwt>
<pdfrwt beam="2">  1       -2 0.87027942E-03 0.27363761E+03</pdfrwt>
<totfact> 0.35163904E+03</totfact>
</mgrwt>
</event>
<event>
 9    1  0.8175317E-001  0.2681219E+03  0.7818608E-02  0.1102359E+00
         -2   -1    0    0    0  501 -0.00000000000E+00  0.00000000000E+00  0.99720010091E+01  0.99720010091E+01  0.00000000000E+00 0.  1.
          2   -1    0    0  501    0  0.00000000000E+00 -0.00000000000E+00 -0.18022797587E+04  0.18022797587E+04  0.00000000000E+00 0.  1.
         35    2    1    2    0    0  0.00000000000E+00  0.00000000000E+00 -0.17923077577E+04  0.18122517597E+04  0.26812187954E+03 0.  0.
         25    2    3    3    0    0 -0.19945315223E+02 -0.29676287994E+02 -0.81090185415E+03  0.82231288484E+03  0.13175039221E+03 0.  0.
         25    2    3    3    0    0  0.19945315223E+02  0.29676287994E+02 -0.98140590354E+03  0.98993887486E+03  0.12467129099E+03 0.  0.
          5    1    4    4  502    0 -0.68325668974E+02  0.13637585071E+02 -0.48162069846E+03  0.48665693045E+03  0.47000000000E+01 0. -1.
         -5    1    4    4    0  502  0.48380353751E+02 -0.43313873065E+02 -0.32928115569E+03  0.33565595440E+03  0.47000000000E+01 0. -1.
          5    1    5    5  503    0 -0.16808706478E+02 -0.43926438554E+02 -0.36756415512E+03  0.37059082928E+03  0.47000000000E+01 0.  1.
         -5    1    5    5    0  503  0.36754021701E+02  0.73602726548E+02 -0.61384174842E+03  0.61934804558E+03  0.47000000000E+01 0.  1.
<mgrwt>
<rscale>  0 0.26812188E+03</rscale>
<asrwt>0</asrwt>
<pdfrwt beam="1">  1        2 0.27727373E+00 0.26812188E+03</pdfrwt>
<pdfrwt beam="2">  1       -2 0.15341544E-02 0.26812188E+03</pdfrwt>
<totfact> 0.10767994E+04</totfact>
</mgrwt>
</event>
<event>
 9    1  0.8175317E-001  0.2699591E+03  0.7818608E-02  0.1101303E+00
          1   -1    0    0  501    0  0.00000000000E+00  0.00000000000E+00  0.18071678623E+03  0.18071678623E+03  0.00000000000E+00 0.  1.
         -1   -1    0    0    0  501 -0.00000000000E+00 -0.00000000000E+00 -0.10081782098E+03  0.10081782098E+03  0.00000000000E+00 0.  1.
         35    2    1    2    0    0  0.00000000000E+00  0.71054273576E-14  0.79898965245E+02  0.28153460721E+03  0.26995905321E+03 0.  0.
         25    2    3    3    0    0 -0.43683592356E+02  0.23944912002E+02  0.26301558716E+02  0.13767313717E+03  0.12562048262E+03 0.  0.
         25    2    3    3    0    0  0.43683592356E+02 -0.23944912002E+02  0.53597406529E+02  0.14386147004E+03  0.12386212304E+03 0.  0.
          5    1    4    4  502    0 -0.77915873446E+02 -0.26480741898E+01  0.45103144182E+02  0.90190239200E+02  0.47000000000E+01 0.  1.
         -5    1    4    4    0  502  0.34232281090E+02  0.26592986192E+02 -0.18801585466E+02  0.47482897966E+02  0.47000000000E+01 0.  1.
          5    1    5    5  503    0  0.16812603498E+02  0.44169383102E+02 -0.78721510413E+01  0.48142068942E+02  0.47000000000E+01 0. -1.
         -5    1    5    5    0  503  0.26870988858E+02 -0.68114295104E+02  0.61469557570E+02  0.95719401103E+02  0.47000000000E+01 0. -1.
<mgrwt>
<rscale>  0 0.26995905E+03</rscale>
<asrwt>0</asrwt>
<pdfrwt beam="1">  1        1 0.27802583E-01 0.26995905E+03</pdfrwt>
<pdfrwt beam="2">  1       -1 0.15510434E-01 0.26995905E+03</pdfrwt>
<totfact> 0.50448043E+03</totfact>
</mgrwt>
</event>
<event>
 9    1  0.8175317E-001  0.2689223E+03  0.7818608E-02  0.1101898E+00
          2   -1    0    0  501    0  0.00000000000E+00  0.00000000000E+00  0.30249774269E+03  0.30249774269E+03  0.00000000000E+00 0.  1.
         -2   -1    0    0    0  501 -0.00000000000E+00 -0.00000000000E+00 -0.59768390681E+02  0.59768390681E+02  0.00000000000E+00 0.  1.
         35    2    1    2    0    0  0.00000000000E+00 -0.35527136788E-14  0.24272935201E+03  0.36226613337E+03  0.26892231789E+03 0.  0.
         25    2    3    3    0    0  0.31622183750E+02 -0.26226716688E+02  0.85307812489E+02  0.15612572553E+03  0.12413708603E+03 0.  0.
         25    2    3    3    0    0 -0.31622183750E+02  0.26226716688E+02  0.15742153952E+03  0.20614040784E+03  0.12658800680E+03 0.  0.
          5    1    4    4  502    0 -0.34053334776E+02 -0.21230911788E+02  0.80313977818E+02  0.89904428466E+02  0.47000000000E+01 0.  1.
         -5    1    4    4    0  502  0.65675518526E+02 -0.49958049002E+01  0.49938346703E+01  0.66221297065E+02  0.47000000000E+01 0.  1.
          5    1    5    5  503    0  0.33411733554E+02  0.44316110835E+02  0.11066479155E+03  0.12389127373E+03  0.47000000000E+01 0.  1.
         -5    1    5    5    0  503 -0.65033917304E+02 -0.18089394147E+02  0.46756747971E+02  0.82249134106E+02  0.47000000000E+01 0.  1.
<mgrwt>
<rscale>  0 0.26892232E+03</rscale>
<asrwt>0</asrwt>
<pdfrwt beam="1">  1        2 0.46538113E-01 0.26892232E+03</pdfrwt>
<pdfrwt beam="2">  1       -2 0.91951373E-02 0.26892232E+03</pdfrwt>
<totfact> 0.81475338E+03</totfact>
</mgrwt>
</event>
<event>
 9    1  0.8175317E-001  0.2729416E+03  0.7818608E-02  0.1099608E+00
         -1   -1    0    0    0  501 -0.00000000000E+00  0.00000000000E+00  0.25607095709E+02  0.25607095709E+02  0.00000000000E+00 0. -1.
          1   -1    0    0  501    0  0.00000000000E+00 -0.00000000000E+00 -0.72730905027E+03  0.72730905027E+03  0.00000000000E+00 0. -1.
         35    2    1    2    0    0 -0.71054273576E-14  0.00000000000E+00 -0.70170195456E+03  0.75291614598E+03  0.27294155023E+03 0.  0.
         25    2    3    3    0    0 -0.56287564606E+02 -0.20446260218E+02 -0.31732485282E+03  0.34441918352E+03  0.11976298374E+03 0.  0.
         25    2    3    3    0    0  0.56287564606E+02  0.20446260218E+02 -0.38437710175E+03  0.40849696246E+03  0.12465020060E+03 0.  0.
          5    1    4    4  502    0 -0.35449646861E+02  0.39563404891E+02 -0.23135857524E+03  0.23742540050E+03  0.47000000000E+01 0.  1.
         -5    1    4    4    0  502 -0.20837917745E+02 -0.60009665109E+02 -0.85966277581E+02  0.10699378301E+03  0.47000000000E+01 0.  1.
          5    1    5    5  503    0  0.20714048938E+02 -0.38495195640E+02 -0.27961642769E+03  0.28305191847E+03  0.47000000000E+01 0. -1.
         -5    1    5    5    0  503  0.35573515668E+02  0.58941455858E+02 -0.10476067405E+03  0.12544504400E+03  0.47000000000E+01 0. -1.
<mgrwt>
<rscale>  0 0.27294155E+03</rscale>
<asrwt>0</asrwt>
<pdfrwt beam="1">  1        1 0.11189369E+00 0.27294155E+03</pdfrwt>
<pdfrwt beam="2">  1       -1 0.39395535E-02 0.27294155E+03</pdfrwt>
<totfact> 0.66820819E+03</totfact>
</mgrwt>
</event>
<event>
 9    1  0.8175317E-001  0.2864359E+03  0.7818608E-02  0.1092225E+00
         -2   -1    0    0    0  501 -0.00000000000E+00  0.00000000000E+00  0.97378681074E+02  0.97378681074E+02  0.00000000000E+00 0.  1.
          2   -1    0    0  501    0  0.00000000000E+00 -0.00000000000E+00 -0.21063522077E+03  0.21063522077E+03  0.00000000000E+00 0.  1.
         35    2    1    2    0    0  0.00000000000E+00  0.00000000000E+00 -0.11325653970E+03  0.30801390184E+03  0.28643589151E+03 0.  0.
         25    2    3    3    0    0 -0.20457702549E+02 -0.55167545451E+02 -0.95858096605E+02  0.16853633199E+03  0.12551392293E+03 0.  0.
         25    2    3    3    0    0  0.20457702549E+02  0.55167545451E+02 -0.17398443090E+02  0.13947756986E+03  0.12525697987E+03 0.  0.
          5    1    4    4  502    0 -0.22109178252E+01  0.36598290985E+01  0.28757431479E+02  0.29451016484E+02  0.47000000000E+01 0.  1.
         -5    1    4    4    0  502 -0.18246784723E+02 -0.58827374550E+02 -0.12461552808E+03  0.13908531550E+03  0.47000000000E+01 0.  1.
          5    1    5    5  503    0 -0.37555799220E+02 -0.18075591909E+02  0.76354633925E+01  0.42632796989E+02  0.47000000000E+01 0.  1.
         -5    1    5    5    0  503  0.58013501769E+02  0.73243137360E+02 -0.25033906483E+02  0.96844772866E+02  0.47000000000E+01 0.  1.
<mgrwt>
<rscale>  0 0.28643589E+03</rscale>
<asrwt>0</asrwt>
<pdfrwt beam="1">  1        2 0.32405418E-01 0.28643589E+03</pdfrwt>
<pdfrwt beam="2">  1       -2 0.14981336E-01 0.28643589E+03</pdfrwt>
<totfact> 0.54951444E+03</totfact>
</mgrwt>
</event>
<event>
 9    1  0.8175317E-001  0.2747490E+03  0.7818608E-02  0.1098592E+00
          1   -1    0    0  501    0  0.00000000000E+00  0.00000000000E+00  0.19609490452E+04  0.19609490452E+04  0.00000000000E+00 0.  1.
         -1   -1    0    0    0  501 -0.00000000000E+00 -0.00000000000E+00 -0.96237842782E+01  0.96237842782E+01  0.00000000000E+00 0.  1.
         35    2    1    2    0    0  0.14210854715E-13  0.71054273576E-14  0.19513252609E+04  0.19705728295E+04  0.27474898065E+03 0.  0.
         25    2    3    3    0    0 -0.31619168915E+02  0.46325517190E+02  0.95523007110E+03  0.96507208060E+03  0.12551416910E+03 0.  0.
         25    2    3    3    0    0  0.31619168915E+02 -0.46325517190E+02  0.99609518983E+03  0.10055007489E+04  0.12522101825E+03 0.  0.
          5    1    4    4  502    0 -0.78679309759E+02  0.41770228003E+02  0.57339659788E+03  0.58029383436E+03  0.47000000000E+01 0. -1.
         -5    1    4    4    0  502  0.47060140844E+02  0.45552891868E+01  0.38183347321E+03  0.38477824624E+03  0.47000000000E+01 0. -1.
          5    1    5    5  503    0  0.58877178186E+02 -0.65924405744E+02  0.46658558762E+03  0.47490709613E+03  0.47000000000E+01 0. -1.
         -5    1    5    5    0  503 -0.27258009271E+02  0.19598888554E+02  0.52950960221E+03  0.53059365274E+03  0.47000000000E+01 0. -1.
<mgrwt>
<rscale>  0 0.27474898E+03</rscale>
<asrwt>0</asrwt>
<pdfrwt beam="1">  1        1 0.30168415E+00 0.27474898E+03</pdfrwt>
<pdfrwt beam="2">  1       -1 0.14805838E-02 0.27474898E+03</pdfrwt>
<totfact> 0.38045916E+03</totfact>
</mgrwt>
</event>
<event>
 9    1  0.8175317E-001  0.2729858E+03  0.7818608E-02  0.1099583E+00
          2   -1    0    0  501    0  0.00000000000E+00  0.00000000000E+00  0.77718931069E+03  0.77718931069E+03  0.00000000000E+00 0. -1.
         -2   -1    0    0    0  501 -0.00000000000E+00 -0.00000000000E+00 -0.23971391241E+02  0.23971391241E+02  0.00000000000E+00 0. -1.
         35    2    1    2    0    0  0.35527136788E-14  0.00000000000E+00  0.75321791944E+03  0.80116070193E+03  0.27298578010E+03 0.  0.
         25    2    3    3    0    0  0.98936351102E+01  0.49562308823E+02  0.45888185863E+03  0.47857959832E+03  0.12614105311E+03 0.  0.
         25    2    3    3    0    0 -0.98936351102E+01 -0.49562308823E+02  0.29433606082E+03  0.32258110361E+03  0.12194484505E+03 0.  0.
          5    1    4    4  502    0  0.37962490974E+02  0.15438507811E+02  0.41172568466E+03  0.41378693509E+03  0.47000000000E+01 0. -1.
         -5    1    4    4    0  502 -0.28068855864E+02  0.34123801012E+02  0.47156173969E+02  0.64792663229E+02  0.47000000000E+01 0. -1.
          5    1    5    5  503    0  0.22156717821E+02  0.34758194266E+02  0.10078561504E+03  0.10899028586E+03  0.47000000000E+01 0. -1.
         -5    1    5    5    0  503 -0.32050352931E+02 -0.84320503089E+02  0.19355044578E+03  0.21359081775E+03  0.47000000000E+01 0. -1.
<mgrwt>
<rscale>  0 0.27298578E+03</rscale>
<asrwt>0</asrwt>
<pdfrwt beam="1">  1        2 0.11956757E+00 0.27298578E+03</pdfrwt>
<pdfrwt beam="2">  1       -2 0.36879069E-02 0.27298578E+03</pdfrwt>
<totfact> 0.11392136E+04</totfact>
</mgrwt>
</event>
<event>
 9    1  0.8175317E-001  0.2800003E+03  0.7818608E-02  0.1095689E+00
          2   -1    0    0  501    0  0.00000000000E+00  0.00000000000E+00  0.81283725895E+03  0.81283725895E+03  0.00000000000E+00 0. -1.
         -2   -1    0    0    0  501 -0.00000000000E+00 -0.00000000000E+00 -0.24113113470E+02  0.24113113470E+02  0.00000000000E+00 0. -1.
         35    2    1    2    0    0  0.00000000000E+00 -0.14210854715E-13  0.78872414548E+03  0.83695037242E+03  0.28000026470E+03 0.  0.
         25    2    3    3    0    0 -0.39074501960E+02  0.48376826461E+02  0.36264178944E+03  0.38845177636E+03  0.12457359699E+03 0.  0.
         25    2    3    3    0    0  0.39074501960E+02 -0.48376826461E+02  0.42608235604E+03  0.44849859606E+03  0.12544992028E+03 0.  0.
          5    1    4    4  502    0 -0.45803152191E+02  0.85814275001E+02  0.29558681466E+03  0.31121644164E+03  0.47000000000E+01 0.  1.
         -5    1    4    4    0  502  0.67286502316E+01 -0.37437448540E+02  0.67054974784E+02  0.77235334727E+02  0.47000000000E+01 0.  1.
          5    1    5    5  503    0  0.95416423927E+01 -0.56826826224E+01  0.37606171920E+03  0.37625502318E+03  0.47000000000E+01 0. -1.
         -5    1    5    5    0  503  0.29532859567E+02 -0.42694143838E+02  0.50020636836E+02  0.72243572875E+02  0.47000000000E+01 0. -1.
<mgrwt>
<rscale>  0 0.28000026E+03</rscale>
<asrwt>0</asrwt>
<pdfrwt beam="1">  1        2 0.12505186E+00 0.28000026E+03</pdfrwt>
<pdfrwt beam="2">  1       -2 0.37097104E-02 0.28000026E+03</pdfrwt>
<totfact> 0.10676087E+04</totfact>
</mgrwt>
</event>
<event>
 9    1  0.8175317E-001  0.2629189E+03  0.7818608E-02  0.1105402E+00
         -2   -1    0    0    0  501 -0.00000000000E+00  0.00000000000E+00  0.10797220545E+02  0.10797220545E+02  0.00000000000E+00 0.  1.
          2   -1    0    0  501    0  0.00000000000E+00 -0.00000000000E+00 -0.16005585644E+04  0.16005585644E+04  0.00000000000E+00 0.  1.
         35    2    1    2    0    0  0.35527136788E-14 -0.71054273576E-14 -0.15897613438E+04  0.16113557849E+04  0.26291887581E+03 0.  0.
         25    2    3    3    0    0 -0.36863155516E+01 -0.36851804887E+02 -0.77611920458E+03  0.78697678075E+03  0.12489911639E+03 0.  0.
         25    2    3    3    0    0  0.36863155516E+01  0.36851804887E+02 -0.81364213926E+03  0.82437900418E+03  0.12734036009E+03 0.  0.
          5    1    4    4  502    0  0.20070233078E+02 -0.78065700543E+02 -0.42302031955E+03  0.43065688037E+03  0.47000000000E+01 0. -1.
         -5    1    4    4    0  502 -0.23756548629E+02  0.41213895656E+02 -0.35309888503E+03  0.35631990038E+03  0.47000000000E+01 0. -1.
          5    1    5    5  503    0 -0.51769820111E+02  0.27487091328E+01 -0.56212973649E+03  0.56453485306E+03  0.47000000000E+01 0.  1.
         -5    1    5    5    0  503  0.55456135663E+02  0.34103095754E+02 -0.25151240277E+03  0.25984415112E+03  0.47000000000E+01 0.  1.
<mgrwt>
<rscale>  0 0.26291888E+03</rscale>
<asrwt>0</asrwt>
<pdfrwt beam="1">  1        2 0.24623986E+00 0.26291888E+03</pdfrwt>
<pdfrwt beam="2">  1       -2 0.16611103E-02 0.26291888E+03</pdfrwt>
<totfact> 0.12234680E+04</totfact>
</mgrwt>
</event>
<event>
 9    1  0.8175317E-001  0.2749982E+03  0.7818608E-02  0.1098453E+00
          3   -1    0    0  501    0  0.00000000000E+00  0.00000000000E+00  0.60639685459E+02  0.60639685459E+02  0.00000000000E+00 0.  1.
         -3   -1    0    0    0  501 -0.00000000000E+00 -0.00000000000E+00 -0.31177611605E+03  0.31177611605E+03  0.00000000000E+00 0.  1.
         35    2    1    2    0    0  0.35527136788E-14  0.35527136788E-14 -0.25113643059E+03  0.37241580151E+03  0.27499822262E+03 0.  0.
         25    2    3    3    0    0 -0.29838027855E+02 -0.23404244282E+02 -0.50727177069E+02  0.14013858040E+03  0.12501003426E+03 0.  0.
         25    2    3    3    0    0  0.29838027855E+02  0.23404244282E+02 -0.20040925352E+03  0.23227722111E+03  0.11113402717E+03 0.  0.
          5    1    4    4  502    0  0.12307161180E+02 -0.15023308896E+02  0.37162670200E+02  0.42193839395E+02  0.47000000000E+01 0.  1.
         -5    1    4    4    0  502 -0.42145189036E+02 -0.83809353857E+01 -0.87889847269E+02  0.97944741001E+02  0.47000000000E+01 0.  1.
          5    1    5    5  503    0 -0.39108960503E+02 -0.88551766507E+00 -0.10388006737E+03  0.11110109509E+03  0.47000000000E+01 0. -1.
         -5    1    5    5    0  503  0.68946988359E+02  0.24289761947E+02 -0.96529186156E+02  0.12117612603E+03  0.47000000000E+01 0. -1.
<mgrwt>
<rscale>  0 0.27499822E+03</rscale>
<asrwt>0</asrwt>
<pdfrwt beam="1">  1        3 0.93291824E-02 0.27499822E+03</pdfrwt>
<pdfrwt beam="2">  1       -3 0.47965556E-01 0.27499822E+03</pdfrwt>
<totfact> 0.91407388E+02</totfact>
</mgrwt>
</event>
<event>
 9    1  0.8175317E-001  0.2785748E+03  0.7818608E-02  0.1096470E+00
          1   -1    0    0  501    0  0.00000000000E+00  0.00000000000E+00  0.16625991973E+03  0.16625991973E+03  0.00000000000E+00 0. -1.
         -1   -1    0    0    0  501 -0.00000000000E+00 -0.00000000000E+00 -0.11669063933E+03  0.11669063933E+03  0.00000000000E+00 0. -1.
         35    2    1    2    0    0  0.00000000000E+00  0.00000000000E+00  0.49569280402E+02  0.28295055906E+03  0.27857477509E+03 0.  0.
         25    2    3    3    0    0 -0.17661902269E+02  0.36262677949E+02 -0.36224039584E+02  0.12516360185E+03  0.11281321545E+03 0.  0.
         25    2    3    3    0    0  0.17661902269E+02 -0.36262677949E+02  0.85793319987E+02  0.15778695721E+03  0.12613209547E+03 0.  0.
          5    1    4    4  502    0 -0.48327103384E+01  0.35041111783E+02 -0.75528745562E+02  0.83533921316E+02  0.47000000000E+01 0. -1.
         -5    1    4    4    0  502 -0.12829191931E+02  0.12215661654E+01  0.39304705978E+02  0.41629680536E+02  0.47000000000E+01 0. -1.
          5    1    5    5  503    0  0.52164222377E+02 -0.50068358488E+02  0.94743744088E+02  0.11927453065E+03  0.47000000000E+01 0. -1.
         -5    1    5    5    0  503 -0.34502320108E+02  0.13805680540E+02 -0.89504241012E+01  0.38512426560E+02  0.47000000000E+01 0. -1.
<mgrwt>
<rscale>  0 0.27857478E+03</rscale>
<asrwt>0</asrwt>
<pdfrwt beam="1">  1        1 0.25578449E-01 0.27857478E+03</pdfrwt>
<pdfrwt beam="2">  1       -1 0.17952406E-01 0.27857478E+03</pdfrwt>
<totfact> 0.44424693E+03</totfact>
</mgrwt>
</event>
<event>
 9    1  0.8175317E-001  0.3200968E+03  0.7818608E-02  0.1075605E+00
         -3   -1    0    0    0  501 -0.00000000000E+00  0.00000000000E+00  0.13704079643E+03  0.13704079643E+03  0.00000000000E+00 0. -1.
          3   -1    0    0  501    0  0.00000000000E+00 -0.00000000000E+00 -0.18691869644E+03  0.18691869644E+03  0.00000000000E+00 0. -1.
         35    2    1    2    0    0  0.00000000000E+00 -0.71054273576E-14 -0.49877900015E+02  0.32395949287E+03  0.32009677929E+03 0.  0.
         25    2    3    3    0    0  0.89992300620E+02 -0.36825613356E+02 -0.29092895281E+01  0.15825902340E+03  0.12483074362E+03 0.  0.
         25    2    3    3    0    0 -0.89992300620E+02  0.36825613356E+02 -0.46968610487E+02  0.16570046947E+03  0.12568156285E+03 0.  0.
          5    1    4    4  502    0  0.13402552618E+02 -0.37799196684E+02 -0.52991269298E+02  0.66622611090E+02  0.47000000000E+01 0. -1.
         -5    1    4    4    0  502  0.76589748003E+02  0.97358332759E+00  0.50081979770E+02  0.91636412311E+02  0.47000000000E+01 0. -1.
          5    1    5    5  503    0 -0.11419673382E+03  0.50003803963E+02 -0.19066332480E+02  0.12620178073E+03  0.47000000000E+01 0. -1.
         -5    1    5    5    0  503  0.24204433197E+02 -0.13178190607E+02 -0.27902278007E+02  0.39498688738E+02  0.47000000000E+01 0. -1.
<mgrwt>
<rscale>  0 0.32009678E+03</rscale>
<asrwt>0</asrwt>
<pdfrwt beam="1">  1        3 0.28756722E-01 0.32009678E+03</pdfrwt>
<pdfrwt beam="2">  1       -3 0.21083200E-01 0.32009678E+03</pdfrwt>
<totfact> 0.61139554E+02</totfact>
</mgrwt>
</event>
<event>
 9    1  0.8175317E-001  0.2755207E+03  0.7818608E-02  0.1098161E+00
         -4   -1    0    0    0  501 -0.00000000000E+00  0.00000000000E+00  0.13440407997E+02  0.13440407997E+02  0.00000000000E+00 0.  1.
          4   -1    0    0  501    0  0.00000000000E+00 -0.00000000000E+00 -0.14120042049E+04  0.14120042049E+04  0.00000000000E+00 0.  1.
         35    2    1    2    0    0  0.00000000000E+00  0.35527136788E-14 -0.13985637969E+04  0.14254446129E+04  0.27552068965E+03 0.  0.
         25    2    3    3    0    0 -0.24318988709E+02  0.30718754793E+02 -0.49575829083E+03  0.51326927875E+03  0.12701974047E+03 0.  0.
         25    2    3    3    0    0  0.24318988709E+02 -0.30718754793E+02 -0.90280550606E+03  0.91217533414E+03  0.12438248804E+03 0.  0.
          5    1    4    4  502    0  0.38677859634E+02  0.97230902877E+01 -0.58403167679E+02  0.70876902483E+02  0.47000000000E+01 0.  1.
         -5    1    4    4    0  502 -0.62996848343E+02  0.20995664506E+02 -0.43735512316E+03  0.44239237627E+03  0.47000000000E+01 0.  1.
          5    1    5    5  503    0  0.61894040340E+01 -0.63662788940E+01 -0.12811372855E+01  0.10127662218E+02  0.47000000000E+01 0. -1.
         -5    1    5    5    0  503  0.18129584675E+02 -0.24352475899E+02 -0.90152436877E+03  0.90204767192E+03  0.47000000000E+01 0. -1.
<mgrwt>
<rscale>  0 0.27552069E+03</rscale>
<asrwt>0</asrwt>
<pdfrwt beam="1">  1        4 0.21723139E+00 0.27552069E+03</pdfrwt>
<pdfrwt beam="2">  1       -4 0.20677553E-02 0.27552069E+03</pdfrwt>
<totfact> 0.20296562E+02</totfact>
</mgrwt>
</event>
<event>
 9    1  0.8175317E-001  0.2686278E+03  0.7818608E-02  0.1102067E+00
          2   -1    0    0  501    0  0.00000000000E+00  0.00000000000E+00  0.92073358691E+03  0.92073358691E+03  0.00000000000E+00 0. -1.
         -2   -1    0    0    0  501 -0.00000000000E+00 -0.00000000000E+00 -0.19593322853E+02  0.19593322853E+02  0.00000000000E+00 0. -1.
         35    2    1    2    0    0  0.00000000000E+00  0.00000000000E+00  0.90114026406E+03  0.94032690977E+03  0.26862784986E+03 0.  0.
         25    2    3    3    0    0  0.33215491486E+02  0.38504894426E+02  0.41316755872E+03  0.43398042496E+03  0.12266084095E+03 0.  0.
         25    2    3    3    0    0 -0.33215491486E+02 -0.38504894426E+02  0.48797270534E+03  0.50634648481E+03  0.12523380433E+03 0.  0.
          5    1    4    4  502    0 -0.11620623163E+02  0.67716493517E+02  0.14548954537E+03  0.16096540059E+03  0.47000000000E+01 0.  1.
         -5    1    4    4    0  502  0.44836114649E+02 -0.29211599092E+02  0.26767801335E+03  0.27301502437E+03  0.47000000000E+01 0.  1.
          5    1    5    5  503    0 -0.10385218278E+02 -0.23493623266E+02  0.47503435111E+03  0.47575154001E+03  0.47000000000E+01 0.  1.
         -5    1    5    5    0  503 -0.22830273208E+02 -0.15011271159E+02  0.12938354234E+02  0.30594944792E+02  0.47000000000E+01 0.  1.
<mgrwt>
<rscale>  0 0.26862785E+03</rscale>
<asrwt>0</asrwt>
<pdfrwt beam="1">  1        2 0.14165129E+00 0.26862785E+03</pdfrwt>
<pdfrwt beam="2">  1       -2 0.30143581E-02 0.26862785E+03</pdfrwt>
<totfact> 0.12338114E+04</totfact>
</mgrwt>
</event>
<event>
 9    1  0.8175317E-001  0.2785941E+03  0.7818608E-02  0.1096459E+00
         -2   -1    0    0    0  501 -0.00000000000E+00  0.00000000000E+00  0.14112605272E+02  0.14112605272E+02  0.00000000000E+00 0. -1.
          2   -1    0    0  501    0  0.00000000000E+00 -0.00000000000E+00 -0.13749173007E+04  0.13749173007E+04  0.00000000000E+00 0. -1.
         35    2    1    2    0    0  0.00000000000E+00 -0.71054273576E-14 -0.13608046955E+04  0.13890299060E+04  0.27859407852E+03 0.  0.
         25    2    3    3    0    0 -0.29139357419E+01  0.62440514305E+02 -0.65684130503E+03  0.67139159674E+03  0.12417273185E+03 0.  0.
         25    2    3    3    0    0  0.29139357419E+01 -0.62440514305E+02 -0.70396339043E+03  0.71763830927E+03  0.12463137248E+03 0.  0.
          5    1    4    4  502    0  0.10266442665E+02  0.96566949574E+02 -0.54560044722E+03  0.55419537494E+03  0.47000000000E+01 0.  1.
         -5    1    4    4    0  502 -0.13180378407E+02 -0.34126435268E+02 -0.11124085781E+03  0.11719622181E+03  0.47000000000E+01 0.  1.
          5    1    5    5  503    0 -0.43201314211E+02 -0.78029059889E+02 -0.49824156424E+03  0.50618339964E+03  0.47000000000E+01 0.  1.
         -5    1    5    5    0  503  0.46115249953E+02  0.15588545584E+02 -0.20572182620E+03  0.21145490963E+03  0.47000000000E+01 0.  1.
<mgrwt>
<rscale>  0 0.27859408E+03</rscale>
<asrwt>0</asrwt>
<pdfrwt beam="1">  1        2 0.21152583E+00 0.27859408E+03</pdfrwt>
<pdfrwt beam="2">  1       -2 0.21711692E-02 0.27859408E+03</pdfrwt>
<totfact> 0.10922763E+04</totfact>
</mgrwt>
</event>
<event>
 9    1  0.8175317E-001  0.2743755E+03  0.7818608E-02  0.1098801E+00
         -1   -1    0    0    0  501 -0.00000000000E+00  0.00000000000E+00  0.55405314158E+01  0.55405314158E+01  0.00000000000E+00 0.  1.
          1   -1    0    0  501    0  0.00000000000E+00 -0.00000000000E+00 -0.33968734559E+04  0.33968734559E+04  0.00000000000E+00 0.  1.
         35    2    1    2    0    0  0.00000000000E+00 -0.10658141036E-13 -0.33913329245E+04  0.34024139873E+04  0.27437553898E+03 0.  0.
         25    2    3    3    0    0 -0.50718154574E+02  0.28273445198E+02 -0.16700370356E+04  0.16756432342E+04  0.12403559698E+03 0.  0.
         25    2    3    3    0    0  0.50718154574E+02 -0.28273445198E+02 -0.17212958889E+04  0.17267707531E+04  0.12452300042E+03 0.  0.
          5    1    4    4  502    0  0.18540058761E+02 -0.36699902005E+02 -0.44372472702E+03  0.44565046836E+03  0.47000000000E+01 0. -1.
         -5    1    4    4    0  502 -0.69258213334E+02  0.64973347202E+02 -0.12263123086E+04  0.12299927659E+04  0.47000000000E+01 0. -1.
          5    1    5    5  503    0  0.75078404485E+02  0.13345995195E+02 -0.66685740169E+03  0.67121961130E+03  0.47000000000E+01 0.  1.
         -5    1    5    5    0  503 -0.24360249912E+02 -0.41619440393E+02 -0.10544384872E+04  0.10555511418E+04  0.47000000000E+01 0.  1.
<mgrwt>
<rscale>  0 0.27437554E+03</rscale>
<asrwt>0</asrwt>
<pdfrwt beam="1">  1        1 0.52259564E+00 0.27437554E+03</pdfrwt>
<pdfrwt beam="2">  1       -1 0.85238989E-03 0.27437554E+03</pdfrwt>
<totfact> 0.88830087E+02</totfact>
</mgrwt>
</event>
<event>
 9    1  0.8175317E-001  0.2739198E+03  0.7818608E-02  0.1099057E+00
         -1   -1    0    0    0  501 -0.00000000000E+00  0.00000000000E+00  0.28720599488E+02  0.28720599488E+02  0.00000000000E+00 0.  1.
          1   -1    0    0  501    0  0.00000000000E+00 -0.00000000000E+00 -0.65312063166E+03  0.65312063166E+03  0.00000000000E+00 0.  1.
         35    2    1    2    0    0  0.71054273576E-14  0.00000000000E+00 -0.62440003217E+03  0.68184123114E+03  0.27391981366E+03 0.  0.
         25    2    3    3    0    0  0.17499935582E+02 -0.48545975986E+02 -0.26493873027E+03  0.29773835060E+03  0.12566875146E+03 0.  0.
         25    2    3    3    0    0 -0.17499935582E+02  0.48545975986E+02 -0.35946130190E+03  0.38410288054E+03  0.12513846630E+03 0.  0.
          5    1    4    4  502    0  0.71220161330E+02 -0.33628235652E+02 -0.17245559590E+03  0.18964754723E+03  0.47000000000E+01 0. -1.
         -5    1    4    4    0  502 -0.53720225748E+02 -0.14917740333E+02 -0.92483134375E+02  0.10809080338E+03  0.47000000000E+01 0. -1.
          5    1    5    5  503    0 -0.53460154091E+02  0.73443911692E+02 -0.25589901226E+03  0.27158496040E+03  0.47000000000E+01 0.  1.
         -5    1    5    5    0  503  0.35960218509E+02 -0.24897935706E+02 -0.10356228964E+03  0.11251792014E+03  0.47000000000E+01 0.  1.
<mgrwt>
<rscale>  0 0.27391981E+03</rscale>
<asrwt>0</asrwt>
<pdfrwt beam="1">  1        1 0.10048010E+00 0.27391981E+03</pdfrwt>
<pdfrwt beam="2">  1       -1 0.44185538E-02 0.27391981E+03</pdfrwt>
<totfact> 0.65855426E+03</totfact>
</mgrwt>
</event>
<event>
 9    1  0.8175317E-001  0.2739987E+03  0.7818608E-02  0.1099013E+00
          1   -1    0    0  501    0  0.00000000000E+00  0.00000000000E+00  0.21253302243E+03  0.21253302243E+03  0.00000000000E+00 0.  1.
         -1   -1    0    0    0  501 -0.00000000000E+00 -0.00000000000E+00 -0.88310126765E+02  0.88310126765E+02  0.00000000000E+00 0.  1.
         35    2    1    2    0    0  0.00000000000E+00  0.00000000000E+00  0.12422289566E+03  0.30084314919E+03  0.27399867264E+03 0.  0.
         25    2    3    3    0    0  0.40381603710E+01  0.45791182994E+02  0.29684219412E+02  0.13677416971E+03  0.12535103286E+03 0.  0.
         25    2    3    3    0    0 -0.40381603710E+01 -0.45791182994E+02  0.94538676251E+02  0.16406897948E+03  0.12596797030E+03 0.  0.
          5    1    4    4  502    0 -0.52070311010E+02  0.23989809420E+02  0.46645228640E+02  0.74058730745E+02  0.47000000000E+01 0.  1.
         -5    1    4    4    0  502  0.56108471381E+02  0.21801373574E+02 -0.16961009228E+02  0.62715438964E+02  0.47000000000E+01 0.  1.
          5    1    5    5  503    0 -0.36977258367E+02 -0.43569354803E+02 -0.64660321841E+01  0.57701870737E+02  0.47000000000E+01 0.  1.
         -5    1    5    5    0  503  0.32939097996E+02 -0.22218281914E+01  0.10100470844E+03  0.10636710875E+03  0.47000000000E+01 0.  1.
<mgrwt>
<rscale>  0 0.27399867E+03</rscale>
<asrwt>0</asrwt>
<pdfrwt beam="1">  1        1 0.32697388E-01 0.27399867E+03</pdfrwt>
<pdfrwt beam="2">  1       -1 0.13586173E-01 0.27399867E+03</pdfrwt>
<totfact> 0.50729457E+03</totfact>
</mgrwt>
</event>
<event>
 9    1  0.8175317E-001  0.2719508E+03  0.7818608E-02  0.1100168E+00
         -2   -1    0    0    0  501 -0.00000000000E+00  0.00000000000E+00  0.23152385317E+03  0.23152385317E+03  0.00000000000E+00 0. -1.
          2   -1    0    0  501    0  0.00000000000E+00 -0.00000000000E+00 -0.79859205553E+02  0.79859205553E+02  0.00000000000E+00 0. -1.
         35    2    1    2    0    0 -0.35527136788E-14  0.14210854715E-13  0.15166464762E+03  0.31138305873E+03  0.27195081159E+03 0.  0.
         25    2    3    3    0    0  0.10112539588E+02 -0.51627602590E+02  0.77743217049E+02  0.15701964985E+03  0.12587092530E+03 0.  0.
         25    2    3    3    0    0 -0.10112539588E+02  0.51627602590E+02  0.73921430571E+02  0.15436340888E+03  0.12488399135E+03 0.  0.
          5    1    4    4  502    0 -0.10083108487E+01 -0.82122539103E+02  0.11449043870E+02  0.83055997526E+02  0.47000000000E+01 0.  1.
         -5    1    4    4    0  502  0.11120850437E+02  0.30494936513E+02  0.66294173179E+02  0.73963652323E+02  0.47000000000E+01 0.  1.
          5    1    5    5  503    0 -0.19274919977E+02  0.79206403730E+02  0.78492699604E+01  0.82029738332E+02  0.47000000000E+01 0.  1.
         -5    1    5    5    0  503  0.91623803886E+01 -0.27578801140E+02  0.66072160611E+02  0.72333670545E+02  0.47000000000E+01 0.  1.
<mgrwt>
<rscale>  0 0.27195081E+03</rscale>
<asrwt>0</asrwt>
<pdfrwt beam="1">  1        2 0.12286032E-01 0.27195081E+03</pdfrwt>
<pdfrwt beam="2">  1       -2 0.35619054E-01 0.27195081E+03</pdfrwt>
<totfact> 0.36687548E+03</totfact>
</mgrwt>
</event>
<event>
 9    1  0.8175317E-001  0.2736605E+03  0.7818608E-02  0.1099203E+00
          3   -1    0    0  501    0  0.00000000000E+00  0.00000000000E+00  0.99553304898E+03  0.99553304898E+03  0.00000000000E+00 0.  1.
         -3   -1    0    0    0  501 -0.00000000000E+00 -0.00000000000E+00 -0.18806526279E+02  0.18806526279E+02  0.00000000000E+00 0.  1.
         35    2    1    2    0    0  0.35527136788E-14  0.00000000000E+00  0.97672652270E+03  0.10143395753E+04  0.27366050827E+03 0.  0.
         25    2    3    3    0    0  0.15508686067E+02 -0.72634671848E+01  0.68732113122E+03  0.69868884448E+03  0.12434824759E+03 0.  0.
         25    2    3    3    0    0 -0.15508686067E+02  0.72634671848E+01  0.28940539148E+03  0.31565073078E+03  0.12484640934E+03 0.  0.
          5    1    4    4  502    0  0.30064708930E+02  0.19956205675E+02  0.64536302105E+03  0.64638816187E+03  0.47000000000E+01 0.  1.
         -5    1    4    4    0  502 -0.14556022863E+02 -0.27219672859E+02  0.41958110168E+02  0.52300682605E+02  0.47000000000E+01 0.  1.
          5    1    5    5  503    0  0.23311939806E+02  0.54426721127E+02  0.18815756655E+03  0.19730959013E+03  0.47000000000E+01 0. -1.
         -5    1    5    5    0  503 -0.38820625872E+02 -0.47163253942E+02  0.10124782494E+03  0.11834114065E+03  0.47000000000E+01 0. -1.
<mgrwt>
<rscale>  0 0.27366051E+03</rscale>
<asrwt>0</asrwt>
<pdfrwt beam="1">  1        3 0.15315889E+00 0.27366051E+03</pdfrwt>
<pdfrwt beam="2">  1       -3 0.28933125E-02 0.27366051E+03</pdfrwt>
<totfact> 0.44493169E+02</totfact>
</mgrwt>
</event>
<event>
 9    1  0.8175317E-001  0.2877075E+03  0.7818608E-02  0.1091552E+00
         -2   -1    0    0    0  501 -0.00000000000E+00  0.00000000000E+00  0.22323541444E+02  0.22323541444E+02  0.00000000000E+00 0.  1.
          2   -1    0    0  501    0  0.00000000000E+00 -0.00000000000E+00 -0.92699886367E+03  0.92699886367E+03  0.00000000000E+00 0.  1.
         35    2    1    2    0    0  0.00000000000E+00  0.00000000000E+00 -0.90467532222E+03  0.94932240511E+03  0.28770747332E+03 0.  0.
         25    2    3    3    0    0  0.59444936526E+02 -0.29613530190E+02 -0.53538357832E+03  0.55373505579E+03  0.12480494555E+03 0.  0.
         25    2    3    3    0    0 -0.59444936526E+02  0.29613530190E+02 -0.36929174391E+03  0.39558734932E+03  0.12530880725E+03 0.  0.
          5    1    4    4  502    0 -0.12911267901E+02 -0.12830604585E+02 -0.68830366157E+01  0.20019776369E+02  0.47000000000E+01 0.  1.
         -5    1    4    4    0  502  0.72356204426E+02 -0.16782925605E+02 -0.52850054170E+03  0.53371527942E+03  0.47000000000E+01 0.  1.
          5    1    5    5  503    0 -0.36987305417E+02  0.20100798026E+02 -0.22605534526E+02  0.48012529974E+02  0.47000000000E+01 0.  1.
         -5    1    5    5    0  503 -0.22457631108E+02  0.95127321642E+01 -0.34668620938E+03  0.34757481934E+03  0.47000000000E+01 0.  1.
<mgrwt>
<rscale>  0 0.28770747E+03</rscale>
<asrwt>0</asrwt>
<pdfrwt beam="1">  1        2 0.14261519E+00 0.28770747E+03</pdfrwt>
<pdfrwt beam="2">  1       -2 0.34343915E-02 0.28770747E+03</pdfrwt>
<totfact> 0.10084386E+04</totfact>
</mgrwt>
</event>
<event>
 9    1  0.8175317E-001  0.2673296E+03  0.7818608E-02  0.1102818E+00
          4   -1    0    0  501    0  0.00000000000E+00  0.00000000000E+00  0.69904399011E+02  0.69904399011E+02  0.00000000000E+00 0.  1.
         -4   -1    0    0    0  501 -0.00000000000E+00 -0.00000000000E+00 -0.25558155894E+03  0.25558155894E+03  0.00000000000E+00 0.  1.
         35    2    1    2    0    0  0.00000000000E+00 -0.71054273576E-14 -0.18567715992E+03  0.32548595795E+03  0.26732957394E+03 0.  0.
         25    2    3    3    0    0  0.23750194874E+01 -0.48605314891E+02 -0.94762516990E+02  0.16367898103E+03  0.12426888931E+03 0.  0.
         25    2    3    3    0    0 -0.23750194874E+01  0.48605314891E+02 -0.90914642935E+02  0.16180697692E+03  0.12469125120E+03 0.  0.
          5    1    4    4  502    0 -0.29489266220E+02  0.13421787968E+02 -0.87484546286E+02  0.93409833815E+02  0.47000000000E+01 0.  1.
         -5    1    4    4    0  502  0.31864285708E+02 -0.62027102859E+02 -0.72779707040E+01  0.70269147215E+02  0.47000000000E+01 0.  1.
          5    1    5    5  503    0  0.24864073529E+02 -0.12325907334E+02  0.18410163191E+02  0.33632934050E+02  0.47000000000E+01 0. -1.
         -5    1    5    5    0  503 -0.27239093017E+02  0.60931222226E+02 -0.10932480613E+03  0.12817404287E+03  0.47000000000E+01 0. -1.
<mgrwt>
<rscale>  0 0.26732957E+03</rscale>
<asrwt>0</asrwt>
<pdfrwt beam="1">  1        4 0.10754523E-01 0.26732957E+03</pdfrwt>
<pdfrwt beam="2">  1       -4 0.39320241E-01 0.26732957E+03</pdfrwt>
<totfact> 0.78805972E+02</totfact>
</mgrwt>
</event>
<event>
 9    1  0.8175317E-001  0.2824862E+03  0.7818608E-02  0.1094339E+00
          2   -1    0    0  501    0  0.00000000000E+00  0.00000000000E+00  0.35887851750E+02  0.35887851750E+02  0.00000000000E+00 0. -1.
         -2   -1    0    0    0  501 -0.00000000000E+00 -0.00000000000E+00 -0.55588780047E+03  0.55588780047E+03  0.00000000000E+00 0. -1.
         35    2    1    2    0    0  0.21316282073E-13 -0.10658141036E-13 -0.51999994872E+03  0.59177565222E+03  0.28248624018E+03 0.  0.
         25    2    3    3    0    0  0.54255014472E+02 -0.14768252442E+02 -0.21629377349E+03  0.25613005663E+03  0.12513153712E+03 0.  0.
         25    2    3    3    0    0 -0.54255014472E+02  0.14768252442E+02 -0.30370617523E+03  0.33564559559E+03  0.13137281717E+03 0.  0.
          5    1    4    4  502    0 -0.25151238000E+02 -0.41978639821E+02 -0.51905937942E+02  0.71492009118E+02  0.47000000000E+01 0.  1.
         -5    1    4    4    0  502  0.79406252472E+02  0.27210387378E+02 -0.16438783555E+03  0.18463804751E+03  0.47000000000E+01 0.  1.
          5    1    5    5  503    0 -0.30901187536E+02  0.34772985196E+02 -0.30078926864E+03  0.30440157362E+03  0.47000000000E+01 0. -1.
         -5    1    5    5    0  503 -0.23353826936E+02 -0.20004732754E+02 -0.29169065902E+01  0.31244021975E+02  0.47000000000E+01 0. -1.
<mgrwt>
<rscale>  0 0.28248624E+03</rscale>
<asrwt>0</asrwt>
<pdfrwt beam="1">  1        2 0.55212081E-02 0.28248624E+03</pdfrwt>
<pdfrwt beam="2">  1       -2 0.85521198E-01 0.28248624E+03</pdfrwt>
<totfact> 0.16907532E+03</totfact>
</mgrwt>
</event>
<event>
 9    1  0.8175317E-001  0.2759554E+03  0.7818608E-02  0.1097919E+00
          1   -1    0    0  501    0  0.00000000000E+00  0.00000000000E+00  0.44636938599E+02  0.44636938599E+02  0.00000000000E+00 0. -1.
         -1   -1    0    0    0  501 -0.00000000000E+00 -0.00000000000E+00 -0.42650435676E+03  0.42650435676E+03  0.00000000000E+00 0. -1.
         35    2    1    2    0    0  0.35527136788E-14 -0.71054273576E-14 -0.38186741816E+03  0.47114129536E+03  0.27595542238E+03 0.  0.
         25    2    3    3    0    0 -0.27821515597E+02 -0.30605956396E+02 -0.11575724067E+03  0.17527241079E+03  0.12493965711E+03 0.  0.
         25    2    3    3    0    0  0.27821515597E+02  0.30605956396E+02 -0.26611017749E+03  0.29586888457E+03  0.12252758463E+03 0.  0.
          5    1    4    4  502    0 -0.22912804240E+02  0.43158238249E+02 -0.17273514920E+02  0.52039354767E+02  0.47000000000E+01 0. -1.
         -5    1    4    4    0  502 -0.49087113568E+01 -0.73764194645E+02 -0.98483725752E+02  0.12323305602E+03  0.47000000000E+01 0. -1.
          5    1    5    5  503    0  0.37768220723E+02  0.70455359379E+02 -0.21905825761E+03  0.23323594574E+03  0.47000000000E+01 0.  1.
         -5    1    5    5    0  503 -0.99467051266E+01 -0.39849402983E+02 -0.47051919882E+02  0.62632938823E+02  0.47000000000E+01 0.  1.
<mgrwt>
<rscale>  0 0.27595542E+03</rscale>
<asrwt>0</asrwt>
<pdfrwt beam="1">  1        1 0.68672215E-02 0.27595542E+03</pdfrwt>
<pdfrwt beam="2">  1       -1 0.65616053E-01 0.27595542E+03</pdfrwt>
<totfact> 0.26091435E+03</totfact>
</mgrwt>
</event>
<event>
 9    1  0.8175317E-001  0.2769651E+03  0.7818608E-02  0.1097358E+00
         -2   -1    0    0    0  501 -0.00000000000E+00  0.00000000000E+00  0.24986368232E+02  0.24986368232E+02  0.00000000000E+00 0.  1.
          2   -1    0    0  501    0  0.00000000000E+00 -0.00000000000E+00 -0.76751532971E+03  0.76751532971E+03  0.00000000000E+00 0.  1.
         35    2    1    2    0    0  0.71054273576E-14  0.71054273576E-14 -0.74252896148E+03  0.79250169794E+03  0.27696512886E+03 0.  0.
         25    2    3    3    0    0  0.29958379342E+02  0.33927500565E+02 -0.47376634674E+03  0.49216320449E+03  0.12538536106E+03 0.  0.
         25    2    3    3    0    0 -0.29958379342E+02 -0.33927500565E+02 -0.26876261474E+03  0.30033849345E+03  0.12617958542E+03 0.  0.
          5    1    4    4  502    0  0.73358337956E+02  0.30760111935E+02 -0.20658477191E+03  0.22142038799E+03  0.47000000000E+01 0. -1.
         -5    1    4    4    0  502 -0.43399958614E+02  0.31673886306E+01 -0.26718157483E+03  0.27074281650E+03  0.47000000000E+01 0. -1.
          5    1    5    5  503    0  0.14346890795E+02 -0.71624522735E+02 -0.17761863798E+03  0.19211032271E+03  0.47000000000E+01 0.  1.
         -5    1    5    5    0  503 -0.44305270137E+02  0.37697022170E+02 -0.91143976759E+02  0.10822817074E+03  0.47000000000E+01 0.  1.
<mgrwt>
<rscale>  0 0.27696513E+03</rscale>
<asrwt>0</asrwt>
<pdfrwt beam="1">  1        2 0.11807928E+00 0.27696513E+03</pdfrwt>
<pdfrwt beam="2">  1       -2 0.38440566E-02 0.27696513E+03</pdfrwt>
<totfact> 0.10880160E+04</totfact>
</mgrwt>
</event>
<event>
 9    1  0.8175317E-001  0.2933068E+03  0.7818608E-02  0.1088635E+00
         -3   -1    0    0    0  501 -0.00000000000E+00  0.00000000000E+00  0.75305607236E+02  0.75305607236E+02  0.00000000000E+00 0. -1.
          3   -1    0    0  501    0  0.00000000000E+00 -0.00000000000E+00 -0.28559918193E+03  0.28559918193E+03  0.00000000000E+00 0. -1.
         35    2    1    2    0    0  0.00000000000E+00 -0.88817841970E-15 -0.21029357469E+03  0.36090478916E+03  0.29330680061E+03 0.  0.
         25    2    3    3    0    0  0.50714979943E+02  0.57735458712E+01 -0.17714824660E+03  0.22251312059E+03  0.12460033923E+03 0.  0.
         25    2    3    3    0    0 -0.50714979943E+02 -0.57735458712E+01 -0.33145328085E+02  0.13839166857E+03  0.12429118285E+03 0.  0.
          5    1    4    4  502    0  0.48380216380E+02 -0.29043372520E+01 -0.37720154478E+01  0.48840542711E+02  0.47000000000E+01 0. -1.
         -5    1    4    4    0  502  0.23347635640E+01  0.86778831232E+01 -0.17337623116E+03  0.17367257788E+03  0.47000000000E+01 0. -1.
          5    1    5    5  503    0  0.33288951442E+02 -0.51421074594E+00  0.19631015155E+02  0.38934373718E+02  0.47000000000E+01 0. -1.
         -5    1    5    5    0  503 -0.84003931385E+02 -0.52593351252E+01 -0.52776343240E+02  0.99457294855E+02  0.47000000000E+01 0. -1.
<mgrwt>
<rscale>  0 0.29330680E+03</rscale>
<asrwt>0</asrwt>
<pdfrwt beam="1">  1        3 0.43938336E-01 0.29330680E+03</pdfrwt>
<pdfrwt beam="2">  1       -3 0.11585478E-01 0.29330680E+03</pdfrwt>
<totfact> 0.76231334E+02</totfact>
</mgrwt>
</event>
<event>
 9    1  0.8175317E-001  0.2804667E+03  0.7818608E-02  0.1095434E+00
          2   -1    0    0  501    0  0.00000000000E+00  0.00000000000E+00  0.65712248993E+03  0.65712248993E+03  0.00000000000E+00 0.  1.
         -2   -1    0    0    0  501 -0.00000000000E+00 -0.00000000000E+00 -0.29926524994E+02  0.29926524994E+02  0.00000000000E+00 0.  1.
         35    2    1    2    0    0  0.14210854715E-13  0.00000000000E+00  0.62719596494E+03  0.68704901493E+03  0.28046670119E+03 0.  0.
         25    2    3    3    0    0  0.53036215715E+02  0.16554880243E+02  0.23818839419E+03  0.27521347828E+03  0.12618178658E+03 0.  0.
         25    2    3    3    0    0 -0.53036215715E+02 -0.16554880243E+02  0.38900757075E+03  0.41183553665E+03  0.12326684431E+03 0.  0.
          5    1    4    4  502    0  0.77544795795E+02  0.21801789709E+02  0.75382276670E+02  0.11042233028E+03  0.47000000000E+01 0.  1.
         -5    1    4    4    0  502 -0.24508580080E+02 -0.52469094654E+01  0.16280611752E+03  0.16479114800E+03  0.47000000000E+01 0.  1.
          5    1    5    5  503    0  0.30384045021E+02  0.23877423082E+02  0.76511095892E+02  0.85844972593E+02  0.47000000000E+01 0. -1.
         -5    1    5    5    0  503 -0.83420260736E+02 -0.40432303325E+02  0.31249647486E+03  0.32599056405E+03  0.47000000000E+01 0. -1.
<mgrwt>
<rscale>  0 0.28046670E+03</rscale>
<asrwt>0</asrwt>
<pdfrwt beam="1">  1        2 0.10109576E+00 0.28046670E+03</pdfrwt>
<pdfrwt beam="2">  1       -2 0.46040813E-02 0.28046670E+03</pdfrwt>
<totfact> 0.10022690E+04</totfact>
</mgrwt>
</event>
<event>
 9    1  0.8175317E-001  0.2756784E+03  0.7818608E-02  0.1098073E+00
         -2   -1    0    0    0  501 -0.00000000000E+00  0.00000000000E+00  0.87040552947E+02  0.87040552947E+02  0.00000000000E+00 0. -1.
          2   -1    0    0  501    0  0.00000000000E+00 -0.00000000000E+00 -0.21828499809E+03  0.21828499809E+03  0.00000000000E+00 0. -1.
         35    2    1    2    0    0  0.00000000000E+00  0.71054273576E-14 -0.13124444515E+03  0.30532555104E+03  0.27567841362E+03 0.  0.
         25    2    3    3    0    0  0.26271179310E+02  0.35622955174E+02 -0.23862227393E+02  0.13457364648E+03  0.12482584120E+03 0.  0.
         25    2    3    3    0    0 -0.26271179310E+02 -0.35622955174E+02 -0.10738221775E+03  0.17075190456E+03  0.12516430172E+03 0.  0.
          5    1    4    4  502    0  0.56916691724E+02  0.60990160461E+02  0.72258496452E+01  0.83866634444E+02  0.47000000000E+01 0. -1.
         -5    1    4    4    0  502 -0.30645512414E+02 -0.25367205288E+02 -0.31088077038E+02  0.50707012031E+02  0.47000000000E+01 0. -1.
          5    1    5    5  503    0  0.12210475274E+01 -0.70502468252E+02 -0.10429887059E+03  0.12598584601E+03  0.47000000000E+01 0.  1.
         -5    1    5    5    0  503 -0.27492226838E+02  0.34879513079E+02 -0.30833471597E+01  0.44766058558E+02  0.47000000000E+01 0.  1.
<mgrwt>
<rscale>  0 0.27567841E+03</rscale>
<asrwt>0</asrwt>
<pdfrwt beam="1">  1        2 0.33582307E-01 0.27567841E+03</pdfrwt>
<pdfrwt beam="2">  1       -2 0.13390855E-01 0.27567841E+03</pdfrwt>
<totfact> 0.63474512E+03</totfact>
</mgrwt>
</event>
<event>
 9    1  0.8175317E-001  0.2731252E+03  0.7818608E-02  0.1099504E+00
          1   -1    0    0  501    0  0.00000000000E+00  0.00000000000E+00  0.29304177003E+03  0.29304177003E+03  0.00000000000E+00 0. -1.
         -1   -1    0    0    0  501 -0.00000000000E+00 -0.00000000000E+00 -0.63640549562E+02  0.63640549562E+02  0.00000000000E+00 0. -1.
         35    2    1    2    0    0  0.00000000000E+00 -0.35527136788E-14  0.22940122047E+03  0.35668231960E+03  0.27312516757E+03 0.  0.
         25    2    3    3    0    0 -0.28859460545E+02  0.26047010540E+02  0.64028721011E+02  0.14579376245E+03  0.12507929018E+03 0.  0.
         25    2    3    3    0    0  0.28859460545E+02 -0.26047010540E+02  0.16537249946E+03  0.21088855715E+03  0.12495841203E+03 0.  0.
          5    1    4    4  502    0  0.29916029140E+02 -0.30109855193E+02  0.81821833393E+00  0.42712195688E+02  0.47000000000E+01 0.  1.
         -5    1    4    4    0  502 -0.58775489685E+02  0.56156865733E+02  0.63210502677E+02  0.10308156676E+03  0.47000000000E+01 0.  1.
          5    1    5    5  503    0  0.35235761377E+02  0.43909883594E+02  0.99783406808E+02  0.11466671283E+03  0.47000000000E+01 0. -1.
         -5    1    5    5    0  503 -0.63763008323E+01 -0.69956894134E+02  0.65589092652E+02  0.96221844319E+02  0.47000000000E+01 0. -1.
<mgrwt>
<rscale>  0 0.27312517E+03</rscale>
<asrwt>0</asrwt>
<pdfrwt beam="1">  1        1 0.45083348E-01 0.27312517E+03</pdfrwt>
<pdfrwt beam="2">  1       -1 0.97908540E-02 0.27312517E+03</pdfrwt>
<totfact> 0.56464902E+03</totfact>
</mgrwt>
</event>
<event>
 9    1  0.8175317E-001  0.2900584E+03  0.7818608E-02  0.1090319E+00
          2   -1    0    0  501    0  0.00000000000E+00  0.00000000000E+00  0.85144044902E+02  0.85144044902E+02  0.00000000000E+00 0. -1.
         -2   -1    0    0    0  501 -0.00000000000E+00 -0.00000000000E+00 -0.24703394844E+03  0.24703394844E+03  0.00000000000E+00 0. -1.
         35    2    1    2    0    0  0.14210854715E-13  0.00000000000E+00 -0.16188990354E+03  0.33217799334E+03  0.29005840514E+03 0.  0.
         25    2    3    3    0    0  0.58127927386E+02  0.43203547957E+02 -0.10960216771E+03  0.18170434016E+03  0.12553258369E+03 0.  0.
         25    2    3    3    0    0 -0.58127927386E+02 -0.43203547957E+02 -0.52287735826E+02  0.15047365318E+03  0.12109050534E+03 0.  0.
          5    1    4    4  502    0 -0.34493432893E+02 -0.88884273133E+01 -0.13594251157E+02  0.38414772124E+02  0.47000000000E+01 0. -1.
         -5    1    4    4    0  502  0.92621360280E+02  0.52091975270E+02 -0.96007916556E+02  0.14328956804E+03  0.47000000000E+01 0. -1.
          5    1    5    5  503    0  0.19339015043E+02 -0.14096051628E+02  0.26570373441E+02  0.36066201895E+02  0.47000000000E+01 0.  1.
         -5    1    5    5    0  503 -0.77466942429E+02 -0.29107496330E+02 -0.78858109267E+02  0.11440745128E+03  0.47000000000E+01 0.  1.
<mgrwt>
<rscale>  0 0.29005841E+03</rscale>
<asrwt>0</asrwt>
<pdfrwt beam="1">  1        2 0.13099084E-01 0.29005841E+03</pdfrwt>
<pdfrwt beam="2">  1       -2 0.38005223E-01 0.29005841E+03</pdfrwt>
<totfact> 0.30105993E+03</totfact>
</mgrwt>
</event>
<event>
 9    1  0.8175317E-001  0.2759786E+03  0.7818608E-02  0.1097906E+00
         -2   -1    0    0    0  501 -0.00000000000E+00  0.00000000000E+00  0.20720639457E+03  0.20720639457E+03  0.00000000000E+00 0.  1.
          2   -1    0    0  501    0  0.00000000000E+00 -0.00000000000E+00 -0.91894086247E+02  0.91894086247E+02  0.00000000000E+00 0.  1.
         35    2    1    2    0    0  0.00000000000E+00 -0.71054273576E-14  0.11531230832E+03  0.29910048081E+03  0.27597856651E+03 0.  0.
         25    2    3    3    0    0 -0.12680523993E+02  0.49458374384E+02  0.88809237438E+02  0.16126398986E+03  0.12454744994E+03 0.  0.
         25    2    3    3    0    0  0.12680523993E+02 -0.49458374384E+02  0.26503070881E+02  0.13783649095E+03  0.12525796975E+03 0.  0.
          5    1    4    4  502    0 -0.56427425811E+02 -0.12762412368E+02  0.32607394504E+02  0.66575263645E+02  0.47000000000E+01 0. -1.
         -5    1    4    4    0  502  0.43746901818E+02  0.62220786752E+02  0.56201842934E+02  0.94688726214E+02  0.47000000000E+01 0. -1.
          5    1    5    5  503    0  0.15101255967E+02 -0.55151117546E+02 -0.40599379907E+02  0.70285797621E+02  0.47000000000E+01 0. -1.
         -5    1    5    5    0  503 -0.24207319736E+01  0.56927431617E+01  0.67102450789E+02  0.67550693333E+02  0.47000000000E+01 0. -1.
<mgrwt>
<rscale>  0 0.27597857E+03</rscale>
<asrwt>0</asrwt>
<pdfrwt beam="1">  1        2 0.14137552E-01 0.27597857E+03</pdfrwt>
<pdfrwt beam="2">  1       -2 0.31877907E-01 0.27597857E+03</pdfrwt>
<totfact> 0.38070365E+03</totfact>
</mgrwt>
</event>
<event>
 9    1  0.8175317E-001  0.2906968E+03  0.7818608E-02  0.1089986E+00
         -2   -1    0    0    0  501 -0.00000000000E+00  0.00000000000E+00  0.10803385585E+02  0.10803385585E+02  0.00000000000E+00 0. -1.
          2   -1    0    0  501    0  0.00000000000E+00 -0.00000000000E+00 -0.19555127139E+04  0.19555127139E+04  0.00000000000E+00 0. -1.
         35    2    1    2    0    0  0.00000000000E+00 -0.71054273576E-14 -0.19447093283E+04  0.19663160995E+04  0.29069680331E+03 0.  0.
         25    2    3    3    0    0 -0.22449782783E+01 -0.53746365364E+02 -0.63265142307E+03  0.64714742977E+03  0.12513297340E+03 0.  0.
         25    2    3    3    0    0  0.22449782783E+01  0.53746365364E+02 -0.13120579052E+04  0.13191686697E+04  0.12576295445E+03 0.  0.
          5    1    4    4  502    0 -0.36226022486E+02 -0.25199371657E+02 -0.56087333975E+03  0.56262627585E+03  0.47000000000E+01 0. -1.
         -5    1    4    4    0  502  0.33981044208E+02 -0.28546993707E+02 -0.71778083319E+02  0.84521153920E+02  0.47000000000E+01 0. -1.
          5    1    5    5  503    0  0.49866386609E+02 -0.15217686810E+02 -0.45043326325E+03  0.45346493707E+03  0.47000000000E+01 0.  1.
         -5    1    5    5    0  503 -0.47621408331E+02  0.68964052174E+02 -0.86162464198E+03  0.86570373263E+03  0.47000000000E+01 0.  1.
<mgrwt>
<rscale>  0 0.29069680E+03</rscale>
<asrwt>0</asrwt>
<pdfrwt beam="1">  1        2 0.30084778E+00 0.29069680E+03</pdfrwt>
<pdfrwt beam="2">  1       -2 0.16620611E-02 0.29069680E+03</pdfrwt>
<totfact> 0.79632050E+03</totfact>
</mgrwt>
</event>
<event>
 9    1  0.8175317E-001  0.2683483E+03  0.7818608E-02  0.1102229E+00
          1   -1    0    0  501    0  0.00000000000E+00  0.00000000000E+00  0.54784043708E+03  0.54784043708E+03  0.00000000000E+00 0.  1.
         -1   -1    0    0    0  501 -0.00000000000E+00 -0.00000000000E+00 -0.32861216634E+02  0.32861216634E+02  0.00000000000E+00 0.  1.
         35    2    1    2    0    0  0.71054273576E-14  0.00000000000E+00  0.51497922045E+03  0.58070165372E+03  0.26834830563E+03 0.  0.
         25    2    3    3    0    0  0.30235885426E+02 -0.27567059344E+02  0.30190079583E+03  0.32930809073E+03  0.12500230626E+03 0.  0.
         25    2    3    3    0    0 -0.30235885426E+02  0.27567059344E+02  0.21307842462E+03  0.25139356299E+03  0.12697305597E+03 0.  0.
          5    1    4    4  502    0  0.43473077482E+02 -0.25754702316E+02  0.30922615383E+03  0.31336259728E+03  0.47000000000E+01 0. -1.
         -5    1    4    4    0  502 -0.13237192056E+02 -0.18123570282E+01 -0.73253580080E+01  0.15945493453E+02  0.47000000000E+01 0. -1.
          5    1    5    5  503    0  0.39312782956E+01 -0.45324763077E+02  0.41279854900E+02  0.61610920441E+02  0.47000000000E+01 0. -1.
         -5    1    5    5    0  503 -0.34167163722E+02  0.72891822421E+02  0.17179856972E+03  0.18978264254E+03  0.47000000000E+01 0. -1.
<mgrwt>
<rscale>  0 0.26834831E+03</rscale>
<asrwt>0</asrwt>
<pdfrwt beam="1">  1        1 0.84283138E-01 0.26834831E+03</pdfrwt>
<pdfrwt beam="2">  1       -1 0.50555722E-02 0.26834831E+03</pdfrwt>
<totfact> 0.68682921E+03</totfact>
</mgrwt>
</event>
<event>
 9    1  0.8175317E-001  0.2768458E+03  0.7818608E-02  0.1097424E+00
          2   -1    0    0  501    0  0.00000000000E+00  0.00000000000E+00  0.45803928093E+03  0.45803928093E+03  0.00000000000E+00 0.  1.
         -2   -1    0    0    0  501 -0.00000000000E+00 -0.00000000000E+00 -0.41832448971E+02  0.41832448971E+02  0.00000000000E+00 0.  1.
         35    2    1    2    0    0  0.00000000000E+00  0.71054273576E-14  0.41620683195E+03  0.49987172990E+03  0.27684584047E+03 0.  0.
         25    2    3    3    0    0  0.22452916432E+02 -0.54922425465E+02  0.20889696795E+03  0.25063626057E+03  0.12513986422E+03 0.  0.
         25    2    3    3    0    0 -0.22452916432E+02  0.54922425465E+02  0.20730986400E+03  0.24923546933E+03  0.12498133134E+03 0.  0.
          5    1    4    4  502    0  0.70719273393E+02 -0.18180270601E+02  0.14494429132E+03  0.16236586912E+03  0.47000000000E+01 0.  1.
         -5    1    4    4    0  502 -0.48266356962E+02 -0.36742154865E+02  0.63952676632E+02  0.88270391451E+02  0.47000000000E+01 0.  1.
          5    1    5    5  503    0  0.18531400358E+02  0.28879558283E+02 -0.16330285083E+01  0.34672733783E+02  0.47000000000E+01 0.  1.
         -5    1    5    5    0  503 -0.40984316790E+02  0.26042867182E+02  0.20894289251E+03  0.21456273554E+03  0.47000000000E+01 0.  1.
<mgrwt>
<rscale>  0 0.27684584E+03</rscale>
<asrwt>0</asrwt>
<pdfrwt beam="1">  1        2 0.70467578E-01 0.27684584E+03</pdfrwt>
<pdfrwt beam="2">  1       -2 0.64357617E-02 0.27684584E+03</pdfrwt>
<totfact> 0.90704704E+03</totfact>
</mgrwt>
</event>
<event>
 9    1  0.8175317E-001  0.2730181E+03  0.7818608E-02  0.1099565E+00
          3   -1    0    0  501    0  0.00000000000E+00  0.00000000000E+00  0.74891515581E+02  0.74891515581E+02  0.00000000000E+00 0. -1.
         -3   -1    0    0    0  501 -0.00000000000E+00 -0.00000000000E+00 -0.24882287051E+03  0.24882287051E+03  0.00000000000E+00 0. -1.
         35    2    1    2    0    0  0.00000000000E+00  0.00000000000E+00 -0.17393135493E+03  0.32371438609E+03  0.27301810844E+03 0.  0.
         25    2    3    3    0    0 -0.53520380844E+02  0.21201076934E+01 -0.71046897414E+02  0.15312248566E+03  0.12461905135E+03 0.  0.
         25    2    3    3    0    0  0.53520380844E+02 -0.21201076934E+01 -0.10288445751E+03  0.17059190043E+03  0.12508980324E+03 0.  0.
          5    1    4    4  502    0 -0.23546781109E+02 -0.40246412061E+02  0.17791903727E+02  0.50128499106E+02  0.47000000000E+01 0.  1.
         -5    1    4    4    0  502 -0.29973599736E+02  0.42366519754E+02 -0.88838801141E+02  0.10299398655E+03  0.47000000000E+01 0.  1.
          5    1    5    5  503    0  0.53201462390E+02 -0.34348753342E+02 -0.87273660277E+00  0.63506567580E+02  0.47000000000E+01 0. -1.
         -5    1    5    5    0  503  0.31891845399E+00  0.32228645649E+02 -0.10201172091E+03  0.10708533286E+03  0.47000000000E+01 0. -1.
<mgrwt>
<rscale>  0 0.27301811E+03</rscale>
<asrwt>0</asrwt>
<pdfrwt beam="1">  1        3 0.11521771E-01 0.27301811E+03</pdfrwt>
<pdfrwt beam="2">  1       -3 0.38280442E-01 0.27301811E+03</pdfrwt>
<totfact> 0.99980277E+02</totfact>
</mgrwt>
</event>
<event>
 9    1  0.8175317E-001  0.2756976E+03  0.7818608E-02  0.1098062E+00
          2   -1    0    0  501    0  0.00000000000E+00  0.00000000000E+00  0.20970191156E+04  0.20970191156E+04  0.00000000000E+00 0.  1.
         -2   -1    0    0    0  501 -0.00000000000E+00 -0.00000000000E+00 -0.90615738796E+01  0.90615738796E+01  0.00000000000E+00 0.  1.
         35    2    1    2    0    0  0.00000000000E+00  0.00000000000E+00  0.20879575417E+04  0.21060806895E+04  0.27569761437E+03 0.  0.
         25    2    3    3    0    0 -0.43703544798E+02  0.19328057081E+02  0.86853389354E+03  0.87937810304E+03  0.12911680857E+03 0.  0.
         25    2    3    3    0    0  0.43703544798E+02 -0.19328057081E+02  0.12194236482E+04  0.12267025864E+04  0.12458582673E+03 0.  0.
          5    1    4    4  502    0  0.35752484645E+02  0.40211832644E+02  0.40662783414E+03  0.41019936268E+03  0.47000000000E+01 0.  1.
         -5    1    4    4    0  502 -0.79456029443E+02 -0.20883775563E+02  0.46190605940E+03  0.46917874036E+03  0.47000000000E+01 0.  1.
          5    1    5    5  503    0 -0.78036294464E+01 -0.93404191815E+01  0.10815746679E+02  0.16947284126E+02  0.47000000000E+01 0.  1.
         -5    1    5    5    0  503  0.51507174245E+02 -0.99876378996E+01  0.12086079015E+04  0.12097553023E+04  0.47000000000E+01 0.  1.
<mgrwt>
<rscale>  0 0.27569761E+03</rscale>
<asrwt>0</asrwt>
<pdfrwt beam="1">  1        2 0.32261794E+00 0.27569761E+03</pdfrwt>
<pdfrwt beam="2">  1       -2 0.13940900E-02 0.27569761E+03</pdfrwt>
<totfact> 0.86723148E+03</totfact>
</mgrwt>
</event>
<event>
 9    1  0.8175317E-001  0.2732909E+03  0.7818608E-02  0.1099411E+00
          1   -1    0    0  501    0  0.00000000000E+00  0.00000000000E+00  0.27140078370E+03  0.27140078370E+03  0.00000000000E+00 0. -1.
         -1   -1    0    0    0  501 -0.00000000000E+00 -0.00000000000E+00 -0.68798524522E+02  0.68798524522E+02  0.00000000000E+00 0. -1.
         35    2    1    2    0    0 -0.71054273576E-14  0.35527136788E-14  0.20260225918E+03  0.34019930822E+03  0.27329085951E+03 0.  0.
         25    2    3    3    0    0 -0.34544092775E+02 -0.22235535747E+02  0.52190701228E+02  0.14074255555E+03  0.12408418212E+03 0.  0.
         25    2    3    3    0    0  0.34544092775E+02  0.22235535747E+02  0.15041155795E+03  0.19945675267E+03  0.12438507155E+03 0.  0.
          5    1    4    4  502    0 -0.66143446858E+02 -0.17116183743E+02 -0.11369822805E+02  0.69421049969E+02  0.47000000000E+01 0.  1.
         -5    1    4    4    0  502  0.31599354083E+02 -0.51193520043E+01  0.63560524033E+02  0.71321505584E+02  0.47000000000E+01 0.  1.
          5    1    5    5  503    0  0.46249972593E+02  0.33907396325E+02  0.16634840327E+03  0.17601889888E+03  0.47000000000E+01 0. -1.
         -5    1    5    5    0  503 -0.11705879818E+02 -0.11671860577E+02 -0.15936845322E+02  0.23437853794E+02  0.47000000000E+01 0. -1.
<mgrwt>
<rscale>  0 0.27329086E+03</rscale>
<asrwt>0</asrwt>
<pdfrwt beam="1">  1        1 0.41753966E-01 0.27329086E+03</pdfrwt>
<pdfrwt beam="2">  1       -1 0.10584389E-01 0.27329086E+03</pdfrwt>
<totfact> 0.55114081E+03</totfact>
</mgrwt>
</event>
<event>
 9    1  0.8175317E-001  0.2775683E+03  0.7818608E-02  0.1097025E+00
         -2   -1    0    0    0  501 -0.00000000000E+00  0.00000000000E+00  0.54713144007E+03  0.54713144007E+03  0.00000000000E+00 0. -1.
          2   -1    0    0  501    0  0.00000000000E+00 -0.00000000000E+00 -0.35203685147E+02  0.35203685147E+02  0.00000000000E+00 0. -1.
         35    2    1    2    0    0  0.00000000000E+00 -0.35527136788E-14  0.51192775493E+03  0.58233512522E+03  0.27756831916E+03 0.  0.
         25    2    3    3    0    0 -0.50791304710E+02 -0.14599267140E+02  0.31664319731E+03  0.34452111970E+03  0.12505595659E+03 0.  0.
         25    2    3    3    0    0  0.50791304710E+02  0.14599267140E+02  0.19528455761E+03  0.23781400552E+03  0.12500619003E+03 0.  0.
          5    1    4    4  502    0 -0.43645577634E-01 -0.11821718637E+02 -0.85621513751E+01  0.15334776576E+02  0.47000000000E+01 0.  1.
         -5    1    4    4    0  502 -0.50747659132E+02 -0.27775485030E+01  0.32520534869E+03  0.32918634312E+03  0.47000000000E+01 0.  1.
          5    1    5    5  503    0  0.91230519139E+01 -0.42107033609E+02  0.17840211778E+02  0.46867851581E+02  0.47000000000E+01 0. -1.
         -5    1    5    5    0  503  0.41668252796E+02  0.56706300748E+02  0.17744434583E+03  0.19094615394E+03  0.47000000000E+01 0. -1.
<mgrwt>
<rscale>  0 0.27756832E+03</rscale>
<asrwt>0</asrwt>
<pdfrwt beam="1">  1        2 0.54159520E-02 0.27756832E+03</pdfrwt>
<pdfrwt beam="2">  1       -2 0.84174062E-01 0.27756832E+03</pdfrwt>
<totfact> 0.17958534E+03</totfact>
</mgrwt>
</event>
<event>
 9    1  0.8175317E-001  0.2723305E+03  0.7818608E-02  0.1099953E+00
          2   -1    0    0  501    0  0.00000000000E+00  0.00000000000E+00  0.37181047607E+04  0.37181047607E+04  0.00000000000E+00 0.  1.
         -2   -1    0    0    0  501 -0.00000000000E+00 -0.00000000000E+00 -0.49866737682E+01  0.49866737682E+01  0.00000000000E+00 0.  1.
         35    2    1    2    0    0 -0.35527136788E-14  0.00000000000E+00  0.37131180870E+04  0.37230914345E+04  0.27233050125E+03 0.  0.
         25    2    3    3    0    0 -0.31807669509E+02  0.24787720492E+02  0.23275899725E+04  0.23313206352E+04  0.12551758980E+03 0.  0.
         25    2    3    3    0    0  0.31807669509E+02 -0.24787720492E+02  0.13855281145E+04  0.13917707993E+04  0.12534609184E+03 0.  0.
          5    1    4    4  502    0 -0.57889924393E+02 -0.33692232376E+02  0.12896294155E+04  0.12913762152E+04  0.47000000000E+01 0.  1.
         -5    1    4    4    0  502  0.26082254884E+02  0.58479952868E+02  0.10379605570E+04  0.10399444201E+04  0.47000000000E+01 0.  1.
          5    1    5    5  503    0  0.20914543997E+02 -0.33674421424E+02  0.13689510529E+04  0.13695329350E+04  0.47000000000E+01 0.  1.
         -5    1    5    5    0  503  0.10893125512E+02  0.88867009323E+01  0.16577061621E+02  0.22237864305E+02  0.47000000000E+01 0.  1.
<mgrwt>
<rscale>  0 0.27233050E+03</rscale>
<asrwt>0</asrwt>
<pdfrwt beam="1">  1        2 0.57201390E+00 0.27233050E+03</pdfrwt>
<pdfrwt beam="2">  1       -2 0.76718355E-03 0.27233050E+03</pdfrwt>
<totfact> 0.22558269E+03</totfact>
</mgrwt>
</event>
<event>
 9    1  0.8175317E-001  0.2756464E+03  0.7818608E-02  0.1098091E+00
         -2   -1    0    0    0  501 -0.00000000000E+00  0.00000000000E+00  0.15537380125E+03  0.15537380125E+03  0.00000000000E+00 0.  1.
          2   -1    0    0  501    0  0.00000000000E+00 -0.00000000000E+00 -0.12225509741E+03  0.12225509741E+03  0.00000000000E+00 0.  1.
         35    2    1    2    0    0  0.00000000000E+00  0.00000000000E+00  0.33118703842E+02  0.27762889866E+03  0.27564643446E+03 0.  0.
         25    2    3    3    0    0  0.51547249927E+02 -0.26783787482E+02  0.10122101006E+02  0.13807933787E+03  0.12485574225E+03 0.  0.
         25    2    3    3    0    0 -0.51547249927E+02  0.26783787482E+02  0.22996602836E+02  0.13954956079E+03  0.12478279500E+03 0.  0.
          5    1    4    4  502    0  0.26413529267E+02  0.28717645870E+02  0.51128921782E+02  0.64487474406E+02  0.47000000000E+01 0. -1.
         -5    1    4    4    0  502  0.25133720659E+02 -0.55501433352E+02 -0.41006820776E+02  0.73591863466E+02  0.47000000000E+01 0. -1.
          5    1    5    5  503    0  0.29432491005E+02  0.39986730261E+02  0.28033817526E+02  0.57211843606E+02  0.47000000000E+01 0. -1.
         -5    1    5    5    0  503 -0.80979740931E+02 -0.13202942779E+02 -0.50372146909E+01  0.82337717185E+02  0.47000000000E+01 0. -1.
<mgrwt>
<rscale>  0 0.27564643E+03</rscale>
<asrwt>0</asrwt>
<pdfrwt beam="1">  1        2 0.18808477E-01 0.27564643E+03</pdfrwt>
<pdfrwt beam="2">  1       -2 0.23903662E-01 0.27564643E+03</pdfrwt>
<totfact> 0.45619073E+03</totfact>
</mgrwt>
</event>
<event>
 9    1  0.8175317E-001  0.2767012E+03  0.7818608E-02  0.1097504E+00
          1   -1    0    0  501    0  0.00000000000E+00  0.00000000000E+00  0.62225345936E+03  0.62225345936E+03  0.00000000000E+00 0.  1.
         -1   -1    0    0    0  501 -0.00000000000E+00 -0.00000000000E+00 -0.30760604044E+02  0.30760604044E+02  0.00000000000E+00 0.  1.
         35    2    1    2    0    0  0.00000000000E+00  0.00000000000E+00  0.59149285532E+03  0.65301406341E+03  0.27670122716E+03 0.  0.
         25    2    3    3    0    0  0.18610615667E+02 -0.56090377777E+02  0.26564142659E+03  0.29935684459E+03  0.12472637007E+03 0.  0.
         25    2    3    3    0    0 -0.18610615667E+02  0.56090377777E+02  0.32585142873E+03  0.35365721881E+03  0.12410394562E+03 0.  0.
          5    1    4    4  502    0 -0.39940851165E+02 -0.62755021325E+02  0.18430689895E+03  0.19880791557E+03  0.47000000000E+01 0. -1.
         -5    1    4    4    0  502  0.58551466832E+02  0.66646435473E+01  0.81334527643E+02  0.10054892903E+03  0.47000000000E+01 0. -1.
          5    1    5    5  503    0 -0.69662131949E+02  0.14234283578E+02  0.17163937188E+03  0.18584292140E+03  0.47000000000E+01 0. -1.
         -5    1    5    5    0  503  0.51051516283E+02  0.41856094200E+02  0.15421205685E+03  0.16781429741E+03  0.47000000000E+01 0. -1.
<mgrwt>
<rscale>  0 0.27670123E+03</rscale>
<asrwt>0</asrwt>
<pdfrwt beam="1">  1        1 0.95731292E-01 0.27670123E+03</pdfrwt>
<pdfrwt beam="2">  1       -1 0.47324011E-02 0.27670123E+03</pdfrwt>
<totfact> 0.63670325E+03</totfact>
</mgrwt>
</event>
<event>
 9    1  0.8175317E-001  0.2781205E+03  0.7818608E-02  0.1096720E+00
          2   -1    0    0  501    0  0.00000000000E+00  0.00000000000E+00  0.21223648668E+04  0.21223648668E+04  0.00000000000E+00 0.  1.
         -2   -1    0    0    0  501 -0.00000000000E+00 -0.00000000000E+00 -0.91114205761E+01  0.91114205761E+01  0.00000000000E+00 0.  1.
         35    2    1    2    0    0 -0.71054273576E-14  0.00000000000E+00  0.21132534462E+04  0.21314762873E+04  0.27812054161E+03 0.  0.
         25    2    3    3    0    0  0.35784432921E+02  0.14058236604E+02  0.14190117972E+04  0.14249247203E+04  0.12384594630E+03 0.  0.
         25    2    3    3    0    0 -0.35784432921E+02 -0.14058236604E+02  0.69424164901E+03  0.70655156702E+03  0.12556070234E+03 0.  0.
          5    1    4    4  502    0 -0.95353522058E+01  0.53876800063E+02  0.10066635159E+04  0.10081602833E+04  0.47000000000E+01 0. -1.
         -5    1    4    4    0  502  0.45319785127E+02 -0.39818563459E+02  0.41234828126E+03  0.41676443704E+03  0.47000000000E+01 0. -1.
          5    1    5    5  503    0  0.44309919206E+02 -0.23188630833E+02  0.29114015909E+03  0.29544164191E+03  0.47000000000E+01 0.  1.
         -5    1    5    5    0  503 -0.80094352127E+02  0.91303942294E+01  0.40310148993E+03  0.41110992511E+03  0.47000000000E+01 0.  1.
<mgrwt>
<rscale>  0 0.27812054E+03</rscale>
<asrwt>0</asrwt>
<pdfrwt beam="1">  1        2 0.32651728E+00 0.27812054E+03</pdfrwt>
<pdfrwt beam="2">  1       -2 0.14017587E-02 0.27812054E+03</pdfrwt>
<totfact> 0.83419824E+03</totfact>
</mgrwt>
</event>
<event>
 9    1  0.8175317E-001  0.2759785E+03  0.7818608E-02  0.1097906E+00
          1   -1    0    0  501    0  0.00000000000E+00  0.00000000000E+00  0.37411406915E+03  0.37411406915E+03  0.00000000000E+00 0.  1.
         -1   -1    0    0    0  501 -0.00000000000E+00 -0.00000000000E+00 -0.50896345782E+02  0.50896345782E+02  0.00000000000E+00 0.  1.
         35    2    1    2    0    0 -0.71054273576E-14  0.00000000000E+00  0.32321772337E+03  0.42501041494E+03  0.27597854283E+03 0.  0.
         25    2    3    3    0    0  0.56953094251E+02 -0.27713236317E+01  0.15104971621E+03  0.20447815580E+03  0.12547495468E+03 0.  0.
         25    2    3    3    0    0 -0.56953094251E+02  0.27713236317E+01  0.17216800716E+03  0.22053225913E+03  0.12546441508E+03 0.  0.
          5    1    4    4  502    0  0.51562732602E+02 -0.55959336597E+02  0.53488203560E+02  0.93130234971E+02  0.47000000000E+01 0.  1.
         -5    1    4    4    0  502  0.53903616496E+01  0.53188012965E+02  0.97561512654E+02  0.11134792083E+03  0.47000000000E+01 0.  1.
          5    1    5    5  503    0 -0.17177317709E+01 -0.55681442732E+02  0.55693502073E+02  0.78912798963E+02  0.47000000000E+01 0. -1.
         -5    1    5    5    0  503 -0.55235362480E+02  0.58452766364E+02  0.11647450509E+03  0.14161946017E+03  0.47000000000E+01 0. -1.
<mgrwt>
<rscale>  0 0.27597854E+03</rscale>
<asrwt>0</asrwt>
<pdfrwt beam="1">  1        1 0.57556009E-01 0.27597854E+03</pdfrwt>
<pdfrwt beam="2">  1       -1 0.78302073E-02 0.27597854E+03</pdfrwt>
<totfact> 0.58443576E+03</totfact>
</mgrwt>
</event>
<event>
 9    1  0.8175317E-001  0.2720139E+03  0.7818608E-02  0.1100133E+00
          2   -1    0    0  501    0  0.00000000000E+00  0.00000000000E+00  0.11913008349E+04  0.11913008349E+04  0.00000000000E+00 0. -1.
         -2   -1    0    0    0  501 -0.00000000000E+00 -0.00000000000E+00 -0.15527467764E+02  0.15527467764E+02  0.00000000000E+00 0. -1.
         35    2    1    2    0    0  0.35527136788E-14  0.00000000000E+00  0.11757733671E+04  0.12068283026E+04  0.27201386223E+03 0.  0.
         25    2    3    3    0    0  0.14374253696E+02 -0.19355263986E+02  0.76211336933E+03  0.77392662739E+03  0.13253071889E+03 0.  0.
         25    2    3    3    0    0 -0.14374253696E+02  0.19355263986E+02  0.41365999778E+03  0.43290167525E+03  0.12533164509E+03 0.  0.
          5    1    4    4  502    0  0.16030668444E+02 -0.64730141904E+02  0.22096042598E+03  0.23085184308E+03  0.47000000000E+01 0. -1.
         -5    1    4    4    0  502 -0.16564147477E+01  0.45374877918E+02  0.54115294335E+03  0.54307478431E+03  0.47000000000E+01 0. -1.
          5    1    5    5  503    0 -0.49092249357E+02  0.39113064712E+02  0.11119803684E+03  0.12777704870E+03  0.47000000000E+01 0. -1.
         -5    1    5    5    0  503  0.34717995661E+02 -0.19757800726E+02  0.30246196094E+03  0.30512462656E+03  0.47000000000E+01 0. -1.
<mgrwt>
<rscale>  0 0.27201386E+03</rscale>
<asrwt>0</asrwt>
<pdfrwt beam="1">  1        2 0.18327698E+00 0.27201386E+03</pdfrwt>
<pdfrwt beam="2">  1       -2 0.23888421E-02 0.27201386E+03</pdfrwt>
<totfact> 0.11995088E+04</totfact>
</mgrwt>
</event>
<event>
 9    1  0.8175317E-001  0.2754808E+03  0.7818608E-02  0.1098183E+00
         -3   -1    0    0    0  501 -0.00000000000E+00  0.00000000000E+00  0.59610039643E+03  0.59610039643E+03  0.00000000000E+00 0. -1.
          3   -1    0    0  501    0  0.00000000000E+00 -0.00000000000E+00 -0.31827551974E+02  0.31827551974E+02  0.00000000000E+00 0. -1.
         35    2    1    2    0    0  0.00000000000E+00 -0.14210854715E-13  0.56427284446E+03  0.62792794840E+03  0.27548078952E+03 0.  0.
         25    2    3    3    0    0 -0.41600786192E+02 -0.41763598903E+02  0.28316682082E+03  0.31469195119E+03  0.12398690304E+03 0.  0.
         25    2    3    3    0    0  0.41600786192E+02  0.41763598903E+02  0.28110602363E+03  0.31323599721E+03  0.12498547844E+03 0.  0.
          5    1    4    4  502    0 -0.26533471734E+02  0.20251873237E+02  0.11540075893E+02  0.35629016875E+02  0.47000000000E+01 0. -1.
         -5    1    4    4    0  502 -0.15067314458E+02 -0.62015472140E+02  0.27162674493E+03  0.27906293432E+03  0.47000000000E+01 0. -1.
          5    1    5    5  503    0  0.16883224699E+02 -0.39796704589E+02  0.46877292939E+02  0.63940531478E+02  0.47000000000E+01 0. -1.
         -5    1    5    5    0  503  0.24717561492E+02  0.81560303492E+02  0.23422873069E+03  0.24929546573E+03  0.47000000000E+01 0. -1.
<mgrwt>
<rscale>  0 0.27548079E+03</rscale>
<asrwt>0</asrwt>
<pdfrwt beam="1">  1        3 0.48965469E-02 0.27548079E+03</pdfrwt>
<pdfrwt beam="2">  1       -3 0.91707745E-01 0.27548079E+03</pdfrwt>
<totfact> 0.65903195E+02</totfact>
</mgrwt>
</event>
<event>
 9    1  0.8175317E-001  0.2709119E+03  0.7818608E-02  0.1100759E+00
          2   -1    0    0  501    0  0.00000000000E+00  0.00000000000E+00  0.92186737675E+03  0.92186737675E+03  0.00000000000E+00 0.  1.
         -2   -1    0    0    0  501 -0.00000000000E+00 -0.00000000000E+00 -0.19903418606E+02  0.19903418606E+02  0.00000000000E+00 0.  1.
         35    2    1    2    0    0 -0.71054273576E-14  0.00000000000E+00  0.90196395814E+03  0.94177079535E+03  0.27091188456E+03 0.  0.
         25    2    3    3    0    0  0.11768592294E+02 -0.41752427225E+02  0.54715604015E+03  0.56290249828E+03  0.12489085377E+03 0.  0.
         25    2    3    3    0    0 -0.11768592294E+02  0.41752427225E+02  0.35480791799E+03  0.37886829707E+03  0.12558169817E+03 0.  0.
          5    1    4    4  502    0 -0.32392804726E+02 -0.79261837490E+01  0.38331445514E+02  0.51024581351E+02  0.47000000000E+01 0.  1.
         -5    1    4    4    0  502  0.44161397020E+02 -0.33826243476E+02  0.50882459463E+03  0.51187791693E+03  0.47000000000E+01 0.  1.
          5    1    5    5  503    0 -0.60489224533E+02  0.41104231046E+01  0.24939752232E+03  0.25670421890E+03  0.47000000000E+01 0. -1.
         -5    1    5    5    0  503  0.48720632238E+02  0.37642004120E+02  0.10541039567E+03  0.12216407817E+03  0.47000000000E+01 0. -1.
<mgrwt>
<rscale>  0 0.27091188E+03</rscale>
<asrwt>0</asrwt>
<pdfrwt beam="1">  1        2 0.14182572E+00 0.27091188E+03</pdfrwt>
<pdfrwt beam="2">  1       -2 0.30620651E-02 0.27091188E+03</pdfrwt>
<totfact> 0.12036584E+04</totfact>
</mgrwt>
</event>
<event>
 9    1  0.8175317E-001  0.2746746E+03  0.7818608E-02  0.1098634E+00
         -1   -1    0    0    0  501 -0.00000000000E+00  0.00000000000E+00  0.53307367795E+03  0.53307367795E+03  0.00000000000E+00 0. -1.
          1   -1    0    0  501    0  0.00000000000E+00 -0.00000000000E+00 -0.35382592191E+02  0.35382592191E+02  0.00000000000E+00 0. -1.
         35    2    1    2    0    0  0.00000000000E+00  0.35527136788E-14  0.49769108576E+03  0.56845627014E+03  0.27467456056E+03 0.  0.
         25    2    3    3    0    0  0.32259126083E+02 -0.22256024156E+02  0.16231549274E+03  0.20855784272E+03  0.12495628336E+03 0.  0.
         25    2    3    3    0    0 -0.32259126083E+02  0.22256024156E+02  0.33537559302E+03  0.35989842742E+03  0.12455564153E+03 0.  0.
          5    1    4    4  502    0  0.60807983182E+02 -0.48140713293E+02  0.57145193151E+02  0.96451035221E+02  0.47000000000E+01 0.  1.
         -5    1    4    4    0  502 -0.28548857099E+02  0.25884689137E+02  0.10517029959E+03  0.11210680750E+03  0.47000000000E+01 0.  1.
          5    1    5    5  503    0 -0.76459956057E+02  0.25323700668E+02  0.26112561469E+03  0.27330585677E+03  0.47000000000E+01 0. -1.
         -5    1    5    5    0  503  0.44200829975E+02 -0.30676765120E+01  0.74249978329E+02  0.86592570649E+02  0.47000000000E+01 0. -1.
<mgrwt>
<rscale>  0 0.27467456E+03</rscale>
<asrwt>0</asrwt>
<pdfrwt beam="1">  1        1 0.54434761E-02 0.27467456E+03</pdfrwt>
<pdfrwt beam="2">  1       -1 0.82011329E-01 0.27467456E+03</pdfrwt>
<totfact> 0.22862775E+03</totfact>
</mgrwt>
</event>
<event>
 9    1  0.8175317E-001  0.2735567E+03  0.7818608E-02  0.1099261E+00
         -2   -1    0    0    0  501 -0.00000000000E+00  0.00000000000E+00  0.21681075595E+02  0.21681075595E+02  0.00000000000E+00 0.  1.
          2   -1    0    0  501    0  0.00000000000E+00 -0.00000000000E+00 -0.86288698131E+03  0.86288698131E+03  0.00000000000E+00 0.  1.
         35    2    1    2    0    0  0.71054273576E-14  0.35527136788E-14 -0.84120590571E+03  0.88456805690E+03  0.27355670616E+03 0.  0.
         25    2    3    3    0    0 -0.14798026164E+01 -0.11152998741E+02 -0.60255241184E+03  0.61444374197E+03  0.11977113107E+03 0.  0.
         25    2    3    3    0    0  0.14798026164E+01  0.11152998741E+02 -0.23865349387E+03  0.27012431493E+03  0.12603601145E+03 0.  0.
          5    1    4    4  502    0  0.18121422551E+02 -0.26459127959E+02 -0.40735872201E+02  0.52057398048E+02  0.47000000000E+01 0.  1.
         -5    1    4    4    0  502 -0.19601225168E+02  0.15306129218E+02 -0.56181653964E+03  0.56238634392E+03  0.47000000000E+01 0.  1.
          5    1    5    5  503    0 -0.40872286308E+02  0.50932163201E+02 -0.97887054465E+02  0.11776499679E+03  0.47000000000E+01 0. -1.
         -5    1    5    5    0  503  0.42352088925E+02 -0.39779164460E+02 -0.14076643941E+03  0.15235931814E+03  0.47000000000E+01 0. -1.
<mgrwt>
<rscale>  0 0.27355671E+03</rscale>
<asrwt>0</asrwt>
<pdfrwt beam="1">  1        2 0.13275187E+00 0.27355671E+03</pdfrwt>
<pdfrwt beam="2">  1       -2 0.33355493E-02 0.27355671E+03</pdfrwt>
<totfact> 0.11574925E+04</totfact>
</mgrwt>
</event>
<event>
 9    1  0.8175317E-001  0.2708254E+03  0.7818608E-02  0.1100808E+00
         -1   -1    0    0    0  501 -0.00000000000E+00  0.00000000000E+00  0.44803081849E+03  0.44803081849E+03  0.00000000000E+00 0. -1.
          1   -1    0    0  501    0  0.00000000000E+00 -0.00000000000E+00 -0.40927108045E+02  0.40927108045E+02  0.00000000000E+00 0. -1.
         35    2    1    2    0    0 -0.88817841970E-15  0.00000000000E+00  0.40710371044E+03  0.48895792653E+03  0.27082544722E+03 0.  0.
         25    2    3    3    0    0  0.35283450310E+01  0.14448688987E+02  0.12767528562E+03  0.18293873369E+03  0.13017061071E+03 0.  0.
         25    2    3    3    0    0 -0.35283450310E+01 -0.14448688987E+02  0.27942842482E+03  0.30601919284E+03  0.12388013545E+03 0.  0.
          5    1    4    4  502    0  0.64309550215E+01  0.43322421525E+02  0.14311010338E+03  0.14973570409E+03  0.47000000000E+01 0.  1.
         -5    1    4    4    0  502 -0.29026099905E+01 -0.28873732538E+02 -0.15434817758E+02  0.33203029601E+02  0.47000000000E+01 0.  1.
          5    1    5    5  503    0  0.45380623271E+01 -0.62568491010E+02  0.86471835605E+02  0.10693399099E+03  0.47000000000E+01 0. -1.
         -5    1    5    5    0  503 -0.80664073581E+01  0.48119802023E+02  0.19295658921E+03  0.19908520185E+03  0.47000000000E+01 0. -1.
<mgrwt>
<rscale>  0 0.27082545E+03</rscale>
<asrwt>0</asrwt>
<pdfrwt beam="1">  1        1 0.62964785E-02 0.27082545E+03</pdfrwt>
<pdfrwt beam="2">  1       -1 0.68927815E-01 0.27082545E+03</pdfrwt>
<totfact> 0.26649046E+03</totfact>
</mgrwt>
</event>
<event>
 9    1  0.8175317E-001  0.2734732E+03  0.7818608E-02  0.1099308E+00
          1   -1    0    0  501    0  0.00000000000E+00  0.00000000000E+00  0.15162315966E+03  0.15162315966E+03  0.00000000000E+00 0.  1.
         -1   -1    0    0    0  501 -0.00000000000E+00 -0.00000000000E+00 -0.12331162400E+03  0.12331162400E+03  0.00000000000E+00 0.  1.
         35    2    1    2    0    0 -0.35527136788E-14  0.00000000000E+00  0.28311535656E+02  0.27493478366E+03  0.27347320201E+03 0.  0.
         25    2    3    3    0    0  0.11031626737E+02 -0.14924240993E+02  0.34337036551E+02  0.13382133640E+03  0.12800268840E+03 0.  0.
         25    2    3    3    0    0 -0.11031626737E+02  0.14924240993E+02 -0.60255008953E+01  0.14111344726E+03  0.13975789273E+03 0.  0.
          5    1    4    4  502    0 -0.19284796104E+02  0.17422282485E+02 -0.39531641109E+02  0.47542401459E+02  0.47000000000E+01 0.  1.
         -5    1    4    4    0  502  0.30316422840E+02 -0.32346523478E+02  0.73868677660E+02  0.86278934939E+02  0.47000000000E+01 0.  1.
          5    1    5    5  503    0  0.33161422863E+02  0.47565864440E+02  0.38904615147E+02  0.69984644787E+02  0.47000000000E+01 0.  1.
         -5    1    5    5    0  503 -0.44193049600E+02 -0.32641623447E+02 -0.44930116042E+02  0.71128802477E+02  0.47000000000E+01 0.  1.
<mgrwt>
<rscale>  0 0.27347320E+03</rscale>
<asrwt>0</asrwt>
<pdfrwt beam="1">  1        1 0.23326640E-01 0.27347320E+03</pdfrwt>
<pdfrwt beam="2">  1       -1 0.18971019E-01 0.27347320E+03</pdfrwt>
<totfact> 0.45677524E+03</totfact>
</mgrwt>
</event>
<event>
 9    1  0.8175317E-001  0.2747171E+03  0.7818608E-02  0.1098610E+00
          1   -1    0    0  501    0  0.00000000000E+00  0.00000000000E+00  0.72956577606E+03  0.72956577606E+03  0.00000000000E+00 0.  1.
         -1   -1    0    0    0  501 -0.00000000000E+00 -0.00000000000E+00 -0.25861100101E+02  0.25861100101E+02  0.00000000000E+00 0.  1.
         35    2    1    2    0    0  0.71054273576E-14  0.35527136788E-14  0.70370467596E+03  0.75542687616E+03  0.27471711680E+03 0.  0.
         25    2    3    3    0    0 -0.57616821649E+02  0.10959336611E+00  0.33583413142E+03  0.36266557456E+03  0.12418552651E+03 0.  0.
         25    2    3    3    0    0  0.57616821649E+02 -0.10959336611E+00  0.36787054453E+03  0.39276130160E+03  0.12495196017E+03 0.  0.
          5    1    4    4  502    0 -0.70380922251E+02  0.29485515081E+02  0.31505478786E+03  0.32419820970E+03  0.47000000000E+01 0.  1.
         -5    1    4    4    0  502  0.12764100603E+02 -0.29375921715E+02  0.20779343565E+02  0.38467364867E+02  0.47000000000E+01 0.  1.
          5    1    5    5  503    0  0.71663488756E+02 -0.44081670118E+02  0.17284802268E+03  0.19229502907E+03  0.47000000000E+01 0.  1.
         -5    1    5    5    0  503 -0.14046667108E+02  0.43972076752E+02  0.19502252185E+03  0.20046627253E+03  0.47000000000E+01 0.  1.
<mgrwt>
<rscale>  0 0.27471712E+03</rscale>
<asrwt>0</asrwt>
<pdfrwt beam="1">  1        1 0.11224087E+00 0.27471712E+03</pdfrwt>
<pdfrwt beam="2">  1       -1 0.39786313E-02 0.27471712E+03</pdfrwt>
<totfact> 0.65557646E+03</totfact>
</mgrwt>
</event>
<event>
 9    1  0.8175317E-001  0.2865163E+03  0.7818608E-02  0.1092182E+00
         -1   -1    0    0    0  501 -0.00000000000E+00  0.00000000000E+00  0.15470017565E+03  0.15470017565E+03  0.00000000000E+00 0. -1.
          1   -1    0    0  501    0  0.00000000000E+00 -0.00000000000E+00 -0.13266237737E+03  0.13266237737E+03  0.00000000000E+00 0. -1.
         35    2    1    2    0    0 -0.71054273576E-14  0.71054273576E-14  0.22037798280E+02  0.28736255302E+03  0.28651626886E+03 0.  0.
         25    2    3    3    0    0  0.53619676487E+02  0.35835383621E+02 -0.80034067967E+01  0.14232731440E+03  0.12662450584E+03 0.  0.
         25    2    3    3    0    0 -0.53619676487E+02 -0.35835383621E+02  0.30041205077E+02  0.14503523862E+03  0.12638632051E+03 0.  0.
          5    1    4    4  502    0 -0.59116138463E+01  0.35670570671E+02  0.48122045875E+02  0.60375144633E+02  0.47000000000E+01 0. -1.
         -5    1    4    4    0  502  0.59531290333E+02  0.16481295011E+00 -0.56125452672E+02  0.81952169768E+02  0.47000000000E+01 0. -1.
          5    1    5    5  503    0 -0.98118388899E+01 -0.40898868507E+02 -0.42521440350E+02  0.59992937226E+02  0.47000000000E+01 0.  1.
         -5    1    5    5    0  503 -0.43807837597E+02  0.50634848865E+01  0.72562645427E+02  0.85042301389E+02  0.47000000000E+01 0.  1.
<mgrwt>
<rscale>  0 0.28651627E+03</rscale>
<asrwt>0</asrwt>
<pdfrwt beam="1">  1        1 0.20409597E-01 0.28651627E+03</pdfrwt>
<pdfrwt beam="2">  1       -1 0.23800027E-01 0.28651627E+03</pdfrwt>
<totfact> 0.37458386E+03</totfact>
</mgrwt>
</event>
<event>
 8    1  0.8175317E-001  0.3614195E+03  0.7818608E-02  0.1058023E+00
         -2   -1    0    0    0  501 -0.00000000000E+00  0.00000000000E+00  0.11799271981E+02  0.11799271981E+02  0.00000000000E+00 0.  1.
          2   -1    0    0  501    0  0.00000000000E+00 -0.00000000000E+00 -0.27676301882E+04  0.27676301882E+04  0.00000000000E+00 0.  1.
         25    2    1    2    0    0 -0.67363642450E+02 -0.79240430189E+02 -0.77560537231E+03  0.79254271716E+03  0.12547254225E+03 0.  0.
         25    2    1    2    0    0  0.67363642450E+02  0.79240430189E+02 -0.19802255440E+04  0.19868867431E+04  0.12493525826E+03 0.  0.
          5    1    3    3  502    0 -0.92302221036E+02 -0.84205998599E+02 -0.72511859477E+03  0.73581887492E+03  0.47000000000E+01 0. -1.
         -5    1    3    3    0  502  0.24938578587E+02  0.49655684099E+01 -0.50486777541E+02  0.56723842236E+02  0.47000000000E+01 0. -1.
          5    1    4    4  503    0  0.72726627543E+02  0.99555466502E+02 -0.11922181528E+04  0.11985852774E+04  0.47000000000E+01 0.  1.
         -5    1    4    4    0  503 -0.53629850935E+01 -0.20315036312E+02 -0.78800739116E+03  0.78830146571E+03  0.47000000000E+01 0.  1.
<mgrwt>
<rscale>  0 0.36141954E+03</rscale>
<asrwt>0</asrwt>
<pdfrwt beam="1">  1        2 0.42578963E+00 0.36141954E+03</pdfrwt>
<pdfrwt beam="2">  1       -2 0.18152710E-02 0.36141954E+03</pdfrwt>
<totfact> 0.25149130E+03</totfact>
</mgrwt>
</event>
<event>
 9    1  0.8175317E-001  0.2703761E+03  0.7818608E-02  0.1101065E+00
          2   -1    0    0  501    0  0.00000000000E+00  0.00000000000E+00  0.23327860109E+04  0.23327860109E+04  0.00000000000E+00 0.  1.
         -2   -1    0    0    0  501 -0.00000000000E+00 -0.00000000000E+00 -0.78343244186E+01  0.78343244186E+01  0.00000000000E+00 0.  1.
         35    2    1    2    0    0  0.17763568394E-14  0.14210854715E-13  0.23249516865E+04  0.23406203353E+04  0.27037605226E+03 0.  0.
         25    2    3    3    0    0 -0.20447520121E+01 -0.47704603850E+02  0.13511523837E+04  0.13576820891E+04  0.12412888812E+03 0.  0.
         25    2    3    3    0    0  0.20447520121E+01  0.47704603850E+02  0.97379930279E+03  0.98293824622E+03  0.12491038198E+03 0.  0.
          5    1    4    4  502    0  0.13945741048E+02  0.12093225068E+02  0.10512419354E+04  0.10514144884E+04  0.47000000000E+01 0.  1.
         -5    1    4    4    0  502 -0.15990493060E+02 -0.59797828918E+02  0.29991044834E+03  0.30626760070E+03  0.47000000000E+01 0.  1.
          5    1    5    5  503    0 -0.34545067776E+02  0.77981576168E+02  0.57963582086E+03  0.58589611943E+03  0.47000000000E+01 0.  1.
         -5    1    5    5    0  503  0.36589819788E+02 -0.30276972319E+02  0.39416348192E+03  0.39704212679E+03  0.47000000000E+01 0.  1.
<mgrwt>
<rscale>  0 0.27037605E+03</rscale>
<asrwt>0</asrwt>
<pdfrwt beam="1">  1        2 0.35888960E+00 0.27037605E+03</pdfrwt>
<pdfrwt beam="2">  1       -2 0.12052825E-02 0.27037605E+03</pdfrwt>
<totfact> 0.80299307E+03</totfact>
</mgrwt>
</event>
<event>
 9    1  0.8175317E-001  0.2733126E+03  0.7818608E-02  0.1099399E+00
          3   -1    0    0  501    0  0.00000000000E+00  0.00000000000E+00  0.14627761250E+04  0.14627761250E+04  0.00000000000E+00 0.  1.
         -3   -1    0    0    0  501 -0.00000000000E+00 -0.00000000000E+00 -0.12766778921E+02  0.12766778921E+02  0.00000000000E+00 0.  1.
         35    2    1    2    0    0  0.00000000000E+00  0.00000000000E+00  0.14500093460E+04  0.14755429039E+04  0.27331256391E+03 0.  0.
         25    2    3    3    0    0 -0.46202219032E+02 -0.27303216949E+02  0.79857739318E+03  0.81009564227E+03  0.12509590737E+03 0.  0.
         25    2    3    3    0    0  0.46202219032E+02  0.27303216949E+02  0.65143195286E+03  0.66544726160E+03  0.12480528061E+03 0.  0.
          5    1    4    4  502    0 -0.19814222436E+01  0.13894230620E+02  0.73065328363E+01  0.16506092836E+02  0.47000000000E+01 0. -1.
         -5    1    4    4    0  502 -0.44220796789E+02 -0.41197447569E+02  0.79127086034E+03  0.79358954944E+03  0.47000000000E+01 0. -1.
          5    1    5    5  503    0  0.26088047949E+02 -0.36932434115E+02  0.99348081880E+02  0.10925530792E+03  0.47000000000E+01 0.  1.
         -5    1    5    5    0  503  0.20114171083E+02  0.64235651064E+02  0.55208387098E+03  0.55619195368E+03  0.47000000000E+01 0.  1.
<mgrwt>
<rscale>  0 0.27331256E+03</rscale>
<asrwt>0</asrwt>
<pdfrwt beam="1">  1        3 0.22504235E+00 0.27331256E+03</pdfrwt>
<pdfrwt beam="2">  1       -3 0.19641210E-02 0.27331256E+03</pdfrwt>
<totfact> 0.28332222E+02</totfact>
</mgrwt>
</event>
<event>
 9    1  0.8175317E-001  0.2758544E+03  0.7818608E-02  0.1097975E+00
         -2   -1    0    0    0  501 -0.00000000000E+00  0.00000000000E+00  0.12062509070E+03  0.12062509070E+03  0.00000000000E+00 0. -1.
          2   -1    0    0  501    0  0.00000000000E+00 -0.00000000000E+00 -0.15771103660E+03  0.15771103660E+03  0.00000000000E+00 0. -1.
         35    2    1    2    0    0  0.00000000000E+00 -0.71054273576E-14 -0.37085945899E+02  0.27833612730E+03  0.27585436806E+03 0.  0.
         25    2    3    3    0    0 -0.56593353613E+02 -0.10730050923E+02 -0.37807930336E+01  0.13762903314E+03  0.12493804345E+03 0.  0.
         25    2    3    3    0    0  0.56593353613E+02  0.10730050923E+02 -0.33305152866E+02  0.14070709415E+03  0.12398109320E+03 0.  0.
          5    1    4    4  502    0  0.17489779245E+02 -0.45924724175E+02  0.18153466306E+02  0.52598583702E+02  0.47000000000E+01 0.  1.
         -5    1    4    4    0  502 -0.74083132859E+02  0.35194673252E+02 -0.21934259340E+02  0.85030449442E+02  0.47000000000E+01 0.  1.
          5    1    5    5  503    0  0.41878429013E+01  0.45394960891E+02 -0.57221766487E+02  0.73312079921E+02  0.47000000000E+01 0. -1.
         -5    1    5    5    0  503  0.52405510712E+02 -0.34664909969E+02  0.23916613621E+02  0.67395014231E+02  0.47000000000E+01 0. -1.
<mgrwt>
<rscale>  0 0.27585437E+03</rscale>
<asrwt>0</asrwt>
<pdfrwt beam="1">  1        2 0.24263236E-01 0.27585437E+03</pdfrwt>
<pdfrwt beam="2">  1       -2 0.18557706E-01 0.27585437E+03</pdfrwt>
<totfact> 0.52825715E+03</totfact>
</mgrwt>
</event>
<event>
 9    1  0.8175317E-001  0.2742572E+03  0.7818608E-02  0.1098868E+00
         -2   -1    0    0    0  501 -0.00000000000E+00  0.00000000000E+00  0.13066177788E+02  0.13066177788E+02  0.00000000000E+00 0. -1.
          2   -1    0    0  501    0  0.00000000000E+00 -0.00000000000E+00 -0.14391550398E+04  0.14391550398E+04  0.00000000000E+00 0. -1.
         35    2    1    2    0    0 -0.17763568394E-14 -0.71054273576E-14 -0.14260888620E+04  0.14522212176E+04  0.27425721952E+03 0.  0.
         25    2    3    3    0    0  0.11849778596E+01 -0.37590088517E+02 -0.93171715586E+03  0.94082105597E+03  0.12503192355E+03 0.  0.
         25    2    3    3    0    0 -0.11849778596E+01  0.37590088517E+02 -0.49437170615E+03  0.51140016161E+03  0.12534880347E+03 0.  0.
          5    1    4    4  502    0  0.30027334434E+02 -0.47469675070E+02 -0.87000052854E+03  0.87182453540E+03  0.47000000000E+01 0. -1.
         -5    1    4    4    0  502 -0.28842356574E+02  0.98795865528E+01 -0.61716627319E+02  0.68996520571E+02  0.47000000000E+01 0. -1.
          5    1    5    5  503    0  0.13773699521E+02  0.37812147275E+02 -0.49405724225E+03  0.49571576725E+03  0.47000000000E+01 0. -1.
         -5    1    5    5    0  503 -0.14958677381E+02 -0.22205875806E+00 -0.31446389956E+00  0.15684394365E+02  0.47000000000E+01 0. -1.
<mgrwt>
<rscale>  0 0.27425722E+03</rscale>
<asrwt>0</asrwt>
<pdfrwt beam="1">  1        2 0.22140839E+00 0.27425722E+03</pdfrwt>
<pdfrwt beam="2">  1       -2 0.20101819E-02 0.27425722E+03</pdfrwt>
<totfact> 0.11287927E+04</totfact>
</mgrwt>
</event>
<event>
 9    1  0.8175317E-001  0.2755048E+03  0.7818608E-02  0.1098170E+00
         -2   -1    0    0    0  501 -0.00000000000E+00  0.00000000000E+00  0.20620515337E+02  0.20620515337E+02  0.00000000000E+00 0.  1.
          2   -1    0    0  501    0  0.00000000000E+00 -0.00000000000E+00 -0.92023530205E+03  0.92023530205E+03  0.00000000000E+00 0.  1.
         35    2    1    2    0    0  0.00000000000E+00  0.71054273576E-14 -0.89961478671E+03  0.94085581739E+03  0.27550481781E+03 0.  0.
         25    2    3    3    0    0 -0.51715032010E+02  0.15192475602E+02 -0.36512643334E+03  0.38905195751E+03  0.12304006447E+03 0.  0.
         25    2    3    3    0    0  0.51715032010E+02 -0.15192475602E+02 -0.53448835337E+03  0.55180385988E+03  0.12611282265E+03 0.  0.
          5    1    4    4  502    0  0.17713834551E+02  0.52199464666E+02 -0.16083901621E+03  0.17008775141E+03  0.47000000000E+01 0. -1.
         -5    1    4    4    0  502 -0.69428866561E+02 -0.37006989064E+02 -0.20428741713E+03  0.21896420609E+03  0.47000000000E+01 0. -1.
          5    1    5    5  503    0 -0.78216535563E+00  0.46703236989E+02 -0.29934178437E+03  0.30300065676E+03  0.47000000000E+01 0.  1.
         -5    1    5    5    0  503  0.52497197365E+02 -0.61895712590E+02 -0.23514656900E+03  0.24880320312E+03  0.47000000000E+01 0.  1.
<mgrwt>
<rscale>  0 0.27550482E+03</rscale>
<asrwt>0</asrwt>
<pdfrwt beam="1">  1        2 0.14157465E+00 0.27550482E+03</pdfrwt>
<pdfrwt beam="2">  1       -2 0.31723873E-02 0.27550482E+03</pdfrwt>
<totfact> 0.11452091E+04</totfact>
</mgrwt>
</event>
<event>
 9    1  0.8175317E-001  0.2659606E+03  0.7818608E-02  0.1103614E+00
         -2   -1    0    0    0  501 -0.00000000000E+00  0.00000000000E+00  0.49905256060E+03  0.49905256060E+03  0.00000000000E+00 0.  1.
          2   -1    0    0  501    0  0.00000000000E+00 -0.00000000000E+00 -0.35434667307E+02  0.35434667307E+02  0.00000000000E+00 0.  1.
         35    2    1    2    0    0  0.00000000000E+00  0.71054273576E-14  0.46361789329E+03  0.53448722790E+03  0.26596060952E+03 0.  0.
         25    2    3    3    0    0  0.11907414513E+02  0.40717566798E+02  0.28277824227E+03  0.31061045312E+03  0.12130792440E+03 0.  0.
         25    2    3    3    0    0 -0.11907414513E+02 -0.40717566798E+02  0.18083965102E+03  0.22387677478E+03  0.12497249353E+03 0.  0.
          5    1    4    4  502    0  0.23947466386E+02  0.72145957444E+02  0.10558214556E+03  0.13018525179E+03  0.47000000000E+01 0.  1.
         -5    1    4    4    0  502 -0.12040051873E+02 -0.31428390646E+02  0.17719609671E+03  0.18042520133E+03  0.47000000000E+01 0.  1.
          5    1    5    5  503    0 -0.20957982192E+02 -0.71699121146E+02  0.52415738427E+02  0.91375601916E+02  0.47000000000E+01 0. -1.
         -5    1    5    5    0  503  0.90505676794E+01  0.30981554348E+02  0.12842391259E+03  0.13250117287E+03  0.47000000000E+01 0. -1.
<mgrwt>
<rscale>  0 0.26596061E+03</rscale>
<asrwt>0</asrwt>
<pdfrwt beam="1">  1        2 0.54514876E-02 0.26596061E+03</pdfrwt>
<pdfrwt beam="2">  1       -2 0.76777312E-01 0.26596061E+03</pdfrwt>
<totfact> 0.21786979E+03</totfact>
</mgrwt>
</event>
<event>
 9    1  0.8175317E-001  0.2755381E+03  0.7818608E-02  0.1098151E+00
         -3   -1    0    0    0  501 -0.00000000000E+00  0.00000000000E+00  0.43370200069E+02  0.43370200069E+02  0.00000000000E+00 0. -1.
          3   -1    0    0  501    0  0.00000000000E+00 -0.00000000000E+00 -0.43763498033E+03  0.43763498033E+03  0.00000000000E+00 0. -1.
         35    2    1    2    0    0  0.00000000000E+00  0.00000000000E+00 -0.39426478026E+03  0.48100518040E+03  0.27553814004E+03 0.  0.
         25    2    3    3    0    0 -0.43828254980E+01  0.54042607024E+02 -0.16625750251E+03  0.21546015731E+03  0.12586385388E+03 0.  0.
         25    2    3    3    0    0  0.43828254980E+01 -0.54042607024E+02 -0.22800727775E+03  0.26554502309E+03  0.12484801980E+03 0.  0.
          5    1    4    4  502    0  0.11004840988E+02  0.57128308686E+02 -0.11067910462E+02  0.59408238659E+02  0.47000000000E+01 0.  1.
         -5    1    4    4    0  502 -0.15387666486E+02 -0.30857016625E+01 -0.15518959205E+03  0.15605191865E+03  0.47000000000E+01 0.  1.
          5    1    5    5  503    0 -0.13535022034E+02 -0.47172522276E+02 -0.23824545207E+03  0.24329288751E+03  0.47000000000E+01 0. -1.
         -5    1    5    5    0  503  0.17917847532E+02 -0.68700847477E+01  0.10238174319E+02  0.22252135583E+02  0.47000000000E+01 0. -1.
<mgrwt>
<rscale>  0 0.27553814E+03</rscale>
<asrwt>0</asrwt>
<pdfrwt beam="1">  1        3 0.67328461E-01 0.27553814E+03</pdfrwt>
<pdfrwt beam="2">  1       -3 0.66723383E-02 0.27553814E+03</pdfrwt>
<totfact> 0.78842857E+02</totfact>
</mgrwt>
</event>
<event>
 9    1  0.8175317E-001  0.2753511E+03  0.7818608E-02  0.1098255E+00
          2   -1    0    0  501    0  0.00000000000E+00  0.00000000000E+00  0.21584234433E+04  0.21584234433E+04  0.00000000000E+00 0. -1.
         -2   -1    0    0    0  501 -0.00000000000E+00 -0.00000000000E+00 -0.87816687747E+01  0.87816687747E+01  0.00000000000E+00 0. -1.
         35    2    1    2    0    0  0.00000000000E+00  0.00000000000E+00  0.21496417745E+04  0.21672051121E+04  0.27535111952E+03 0.  0.
         25    2    3    3    0    0  0.54046687273E+02  0.50844694436E+00  0.12380559924E+04  0.12455147242E+04  0.12491190844E+03 0.  0.
         25    2    3    3    0    0 -0.54046687273E+02 -0.50844694436E+00  0.91158578210E+03  0.92169038788E+03  0.12491288992E+03 0.  0.
          5    1    4    4  502    0  0.84097254651E+01  0.59171365288E+02  0.45677977957E+03  0.46069711414E+03  0.47000000000E+01 0. -1.
         -5    1    4    4    0  502  0.45636961808E+02 -0.58662918343E+02  0.78127621286E+03  0.78481761005E+03  0.47000000000E+01 0. -1.
          5    1    5    5  503    0 -0.84106553798E+02  0.17448832170E+02  0.80080939756E+03  0.80541675880E+03  0.47000000000E+01 0. -1.
         -5    1    5    5    0  503  0.30059866525E+02 -0.17957279114E+02  0.11077638453E+03  0.11627362908E+03  0.47000000000E+01 0. -1.
<mgrwt>
<rscale>  0 0.27535112E+03</rscale>
<asrwt>0</asrwt>
<pdfrwt beam="1">  1        2 0.33206472E+00 0.27535112E+03</pdfrwt>
<pdfrwt beam="2">  1       -2 0.13510277E-02 0.27535112E+03</pdfrwt>
<totfact> 0.84241318E+03</totfact>
</mgrwt>
</event>
<event>
 9    1  0.8175317E-001  0.2742190E+03  0.7818608E-02  0.1098889E+00
          4   -1    0    0  501    0  0.00000000000E+00  0.00000000000E+00  0.34870053203E+03  0.34870053203E+03  0.00000000000E+00 0. -1.
         -4   -1    0    0    0  501 -0.00000000000E+00 -0.00000000000E+00 -0.53911636243E+02  0.53911636243E+02  0.00000000000E+00 0. -1.
         35    2    1    2    0    0  0.71054273576E-14  0.00000000000E+00  0.29478889578E+03  0.40261216827E+03  0.27421900912E+03 0.  0.
         25    2    3    3    0    0 -0.36466604738E+02 -0.23012031711E+02  0.89420801219E+02  0.15914116686E+03  0.12438032173E+03 0.  0.
         25    2    3    3    0    0  0.36466604738E+02  0.23012031711E+02  0.20536809457E+03  0.24347100142E+03  0.12346135995E+03 0.  0.
          5    1    4    4  502    0 -0.63315475519E+02 -0.27039281025E+01  0.10422210689E+03  0.12206759697E+03  0.47000000000E+01 0. -1.
         -5    1    4    4    0  502  0.26848870780E+02 -0.20308103609E+02 -0.14801305666E+02  0.37073569882E+02  0.47000000000E+01 0. -1.
          5    1    5    5  503    0  0.19160626352E+02 -0.24605713313E+02 -0.36369445471E+00  0.31540339305E+02  0.47000000000E+01 0.  1.
         -5    1    5    5    0  503  0.17305978386E+02  0.47617745024E+02  0.20573178902E+03  0.21193066211E+03  0.47000000000E+01 0.  1.
<mgrwt>
<rscale>  0 0.27421901E+03</rscale>
<asrwt>0</asrwt>
<pdfrwt beam="1">  1        4 0.53646234E-01 0.27421901E+03</pdfrwt>
<pdfrwt beam="2">  1       -4 0.82940981E-02 0.27421901E+03</pdfrwt>
<totfact> 0.65337122E+02</totfact>
</mgrwt>
</event>
<event>
 9    1  0.8175317E-001  0.2722021E+03  0.7818608E-02  0.1100026E+00
         -1   -1    0    0    0  501 -0.00000000000E+00  0.00000000000E+00  0.13817283772E+02  0.13817283772E+02  0.00000000000E+00 0.  1.
          1   -1    0    0  501    0  0.00000000000E+00 -0.00000000000E+00 -0.13406033232E+04  0.13406033232E+04  0.00000000000E+00 0.  1.
         35    2    1    2    0    0  0.00000000000E+00  0.00000000000E+00 -0.13267860395E+04  0.13544206070E+04  0.27220210538E+03 0.  0.
         25    2    3    3    0    0 -0.34653286487E+02 -0.68501633105E+00 -0.45379373129E+03  0.47203970075E+03  0.12526535443E+03 0.  0.
         25    2    3    3    0    0  0.34653286487E+02  0.68501633105E+00 -0.87299230819E+03  0.88238090626E+03  0.12360895628E+03 0.  0.
          5    1    4    4  502    0 -0.27929071182E+02 -0.14264179983E+02 -0.45502344849E+03  0.45612709690E+03  0.47000000000E+01 0.  1.
         -5    1    4    4    0  502 -0.67242153043E+01  0.13579163651E+02  0.12297172089E+01  0.15912603852E+02  0.47000000000E+01 0.  1.
          5    1    5    5  503    0  0.11718045825E+02  0.61402059200E+02 -0.47155490504E+03  0.47570331504E+03  0.47000000000E+01 0.  1.
         -5    1    5    5    0  503  0.22935240662E+02 -0.60717042869E+02 -0.40143740315E+03  0.40667759123E+03  0.47000000000E+01 0.  1.
<mgrwt>
<rscale>  0 0.27220211E+03</rscale>
<asrwt>0</asrwt>
<pdfrwt beam="1">  1        1 0.20624672E+00 0.27220211E+03</pdfrwt>
<pdfrwt beam="2">  1       -1 0.21257354E-02 0.27220211E+03</pdfrwt>
<totfact> 0.57392204E+03</totfact>
</mgrwt>
</event>
<event>
 9    1  0.8175317E-001  0.3108934E+03  0.7818608E-02  0.1079918E+00
         -2   -1    0    0    0  501 -0.00000000000E+00  0.00000000000E+00  0.20097740244E+02  0.20097740244E+02  0.00000000000E+00 0.  1.
          2   -1    0    0  501    0  0.00000000000E+00 -0.00000000000E+00 -0.12023083761E+04  0.12023083761E+04  0.00000000000E+00 0.  1.
         35    2    1    2    0    0  0.10658141036E-13  0.10658141036E-13 -0.11822106359E+04  0.12224061163E+04  0.31089343149E+03 0.  0.
         25    2    3    3    0    0 -0.31012654141E+02 -0.30919729656E+02 -0.27599343736E+03  0.30656192715E+03  0.12605563578E+03 0.  0.
         25    2    3    3    0    0  0.31012654141E+02  0.30919729656E+02 -0.90621719850E+03  0.91584418920E+03  0.12499261433E+03 0.  0.
          5    1    4    4  502    0 -0.78152737894E+02 -0.43594826948E+01 -0.17842169873E+03  0.19489291446E+03  0.47000000000E+01 0.  1.
         -5    1    4    4    0  502  0.47140083753E+02 -0.26560246961E+02 -0.97571738633E+02  0.11166901269E+03  0.47000000000E+01 0.  1.
          5    1    5    5  503    0  0.22752178886E+02  0.77639813569E+02 -0.66839381275E+03  0.67328892848E+03  0.47000000000E+01 0.  1.
         -5    1    5    5    0  503  0.82604752543E+01 -0.46720083914E+02 -0.23782338575E+03  0.24255526072E+03  0.47000000000E+01 0.  1.
<mgrwt>
<rscale>  0 0.31089343E+03</rscale>
<asrwt>0</asrwt>
<pdfrwt beam="1">  1        2 0.18497052E+00 0.31089343E+03</pdfrwt>
<pdfrwt beam="2">  1       -2 0.30919600E-02 0.31089343E+03</pdfrwt>
<totfact> 0.80827677E+03</totfact>
</mgrwt>
</event>
<event>
 9    1  0.8175317E-001  0.2756732E+03  0.7818608E-02  0.1098076E+00
          2   -1    0    0  501    0  0.00000000000E+00  0.00000000000E+00  0.72235082068E+03  0.72235082068E+03  0.00000000000E+00 0. -1.
         -2   -1    0    0    0  501 -0.00000000000E+00 -0.00000000000E+00 -0.26301523895E+02  0.26301523895E+02  0.00000000000E+00 0. -1.
         35    2    1    2    0    0  0.00000000000E+00  0.14210854715E-13  0.69604929679E+03  0.74865234458E+03  0.27567319326E+03 0.  0.
         25    2    3    3    0    0 -0.35308697653E+02 -0.46636962622E+02  0.33088413514E+03  0.35846116186E+03  0.12485344713E+03 0.  0.
         25    2    3    3    0    0  0.35308697653E+02  0.46636962622E+02  0.36516516165E+03  0.39019118272E+03  0.12442609605E+03 0.  0.
          5    1    4    4  502    0 -0.56761374696E+02 -0.57468556506E+02  0.32262866413E+03  0.33261965300E+03  0.47000000000E+01 0. -1.
         -5    1    4    4    0  502  0.21452677042E+02  0.10831593884E+02  0.82554710081E+01  0.25841508855E+02  0.47000000000E+01 0. -1.
          5    1    5    5  503    0  0.29614890835E+02  0.89461024397E+01  0.98485841201E+01  0.32804864231E+02  0.47000000000E+01 0.  1.
         -5    1    5    5    0  503  0.56938068182E+01  0.37690860182E+02  0.35531657753E+03  0.35738631849E+03  0.47000000000E+01 0.  1.
<mgrwt>
<rscale>  0 0.27567319E+03</rscale>
<asrwt>0</asrwt>
<pdfrwt beam="1">  1        2 0.11113088E+00 0.27567319E+03</pdfrwt>
<pdfrwt beam="2">  1       -2 0.40463888E-02 0.27567319E+03</pdfrwt>
<totfact> 0.10857053E+04</totfact>
</mgrwt>
</event>
<event>
 9    1  0.8175317E-001  0.2860875E+03  0.7818608E-02  0.1092410E+00
         -3   -1    0    0    0  501 -0.00000000000E+00  0.00000000000E+00  0.52174438547E+02  0.52174438547E+02  0.00000000000E+00 0.  1.
          3   -1    0    0  501    0  0.00000000000E+00 -0.00000000000E+00 -0.39217506948E+03  0.39217506948E+03  0.00000000000E+00 0.  1.
         35    2    1    2    0    0  0.00000000000E+00 -0.14210854715E-13 -0.34000063094E+03  0.44434950803E+03  0.28608749754E+03 0.  0.
         25    2    3    3    0    0  0.71492993224E+01 -0.32733682061E+02 -0.26366803307E+03  0.29379805211E+03  0.12519527682E+03 0.  0.
         25    2    3    3    0    0 -0.71492993224E+01  0.32733682061E+02 -0.76332597865E+02  0.15055145592E+03  0.12536534194E+03 0.  0.
          5    1    4    4  502    0  0.16190883271E+02  0.41378971541E+02 -0.48256061106E+02  0.65765503270E+02  0.47000000000E+01 0.  1.
         -5    1    4    4    0  502 -0.90415839488E+01 -0.74112653602E+02 -0.21541197197E+03  0.22803254884E+03  0.47000000000E+01 0.  1.
          5    1    5    5  503    0 -0.57306502557E+02  0.32987551628E+02 -0.96651916411E+01  0.66990445044E+02  0.47000000000E+01 0.  1.
         -5    1    5    5    0  503  0.50157203234E+02 -0.25386956732E+00 -0.66667406224E+02  0.83561010876E+02  0.47000000000E+01 0.  1.
<mgrwt>
<rscale>  0 0.28608750E+03</rscale>
<asrwt>0</asrwt>
<pdfrwt beam="1">  1        3 0.60334628E-01 0.28608750E+03</pdfrwt>
<pdfrwt beam="2">  1       -3 0.80268365E-02 0.28608750E+03</pdfrwt>
<totfact> 0.73689327E+02</totfact>
</mgrwt>
</event>
<event>
 9    1  0.8175317E-001  0.2725410E+03  0.7818608E-02  0.1099834E+00
          2   -1    0    0  501    0  0.00000000000E+00  0.00000000000E+00  0.39968533210E+03  0.39968533210E+03  0.00000000000E+00 0.  1.
         -2   -1    0    0    0  501 -0.00000000000E+00 -0.00000000000E+00 -0.46460682064E+02  0.46460682064E+02  0.00000000000E+00 0.  1.
         35    2    1    2    0    0 -0.35527136788E-14  0.14210854715E-13  0.35322465003E+03  0.44614601416E+03  0.27254102913E+03 0.  0.
         25    2    3    3    0    0  0.23558448491E+02  0.43541693203E+02  0.19798669368E+03  0.23933688990E+03  0.12503014217E+03 0.  0.
         25    2    3    3    0    0 -0.23558448491E+02 -0.43541693203E+02  0.15523795636E+03  0.20680912426E+03  0.12735898571E+03 0.  0.
          5    1    4    4  502    0 -0.45235499998E+02  0.44609352567E+02  0.11471176786E+03  0.13121404072E+03  0.47000000000E+01 0. -1.
         -5    1    4    4    0  502  0.68793948489E+02 -0.10676593640E+01  0.83274925820E+02  0.10812284918E+03  0.47000000000E+01 0. -1.
          5    1    5    5  503    0 -0.14281780657E+02  0.34542889246E+02  0.10931943851E+03  0.11562875980E+03  0.47000000000E+01 0.  1.
         -5    1    5    5    0  503 -0.92766678340E+01 -0.78084582449E+02  0.45918517846E+02  0.91180364462E+02  0.47000000000E+01 0.  1.
<mgrwt>
<rscale>  0 0.27254103E+03</rscale>
<asrwt>0</asrwt>
<pdfrwt beam="1">  1        2 0.61490049E-01 0.27254103E+03</pdfrwt>
<pdfrwt beam="2">  1       -2 0.71477975E-02 0.27254103E+03</pdfrwt>
<totfact> 0.89478296E+03</totfact>
</mgrwt>
</event>
<event>
 9    1  0.8175317E-001  0.2735016E+03  0.7818608E-02  0.1099292E+00
         -1   -1    0    0    0  501 -0.00000000000E+00  0.00000000000E+00  0.58100727536E+02  0.58100727536E+02  0.00000000000E+00 0. -1.
          1   -1    0    0  501    0  0.00000000000E+00 -0.00000000000E+00 -0.32186822540E+03  0.32186822540E+03  0.00000000000E+00 0. -1.
         35    2    1    2    0    0 -0.71054273576E-14  0.35527136788E-14 -0.26376749787E+03  0.37996895294E+03  0.27350157635E+03 0.  0.
         25    2    3    3    0    0  0.20411591024E+02 -0.16656695582E+02 -0.20963039850E+03  0.24564245508E+03  0.12530456179E+03 0.  0.
         25    2    3    3    0    0 -0.20411591024E+02  0.16656695582E+02 -0.54137099362E+02  0.13432649786E+03  0.12007790781E+03 0.  0.
          5    1    4    4  502    0  0.10662861982E+02 -0.62451136724E+00  0.15656335752E+02  0.19526840228E+02  0.47000000000E+01 0. -1.
         -5    1    4    4    0  502  0.97487290413E+01 -0.16032184215E+02 -0.22528673426E+03  0.22611561485E+03  0.47000000000E+01 0. -1.
          5    1    5    5  503    0  0.42428933844E+02 -0.21320239022E+02 -0.32149071456E+02  0.57536247832E+02  0.47000000000E+01 0. -1.
         -5    1    5    5    0  503 -0.62840524868E+02  0.37976934604E+02 -0.21988027906E+02  0.76790250024E+02  0.47000000000E+01 0. -1.
<mgrwt>
<rscale>  0 0.27350158E+03</rscale>
<asrwt>0</asrwt>
<pdfrwt beam="1">  1        1 0.49518189E-01 0.27350158E+03</pdfrwt>
<pdfrwt beam="2">  1       -1 0.89385734E-02 0.27350158E+03</pdfrwt>
<totfact> 0.57730664E+03</totfact>
</mgrwt>
</event>
<event>
 9    1  0.8175317E-001  0.2787063E+03  0.7818608E-02  0.1096398E+00
          1   -1    0    0  501    0  0.00000000000E+00  0.00000000000E+00  0.75622853302E+02  0.75622853302E+02  0.00000000000E+00 0.  1.
         -1   -1    0    0    0  501 -0.00000000000E+00 -0.00000000000E+00 -0.25679144227E+03  0.25679144227E+03  0.00000000000E+00 0.  1.
         35    2    1    2    0    0 -0.35527136788E-14  0.00000000000E+00 -0.18116858897E+03  0.33241429557E+03  0.27870630827E+03 0.  0.
         25    2    3    3    0    0  0.64058758915E+01  0.12934833898E+02 -0.26641355641E+02  0.13209272537E+03  0.12857052964E+03 0.  0.
         25    2    3    3    0    0 -0.64058758915E+01 -0.12934833898E+02 -0.15452723332E+03  0.20032157020E+03  0.12665591369E+03 0.  0.
          5    1    4    4  502    0  0.18652550144E+02  0.30306099354E+02 -0.72739207785E+02  0.81113868322E+02  0.47000000000E+01 0.  1.
         -5    1    4    4    0  502 -0.12246674253E+02 -0.17371265456E+02  0.46097852145E+02  0.50978857051E+02  0.47000000000E+01 0.  1.
          5    1    5    5  503    0  0.31612654177E+02 -0.51760374544E+02 -0.12325531793E+03  0.13744984422E+03  0.47000000000E+01 0.  1.
         -5    1    5    5    0  503 -0.38018530069E+02  0.38825540646E+02 -0.31271915393E+02  0.62871725978E+02  0.47000000000E+01 0.  1.
<mgrwt>
<rscale>  0 0.27870631E+03</rscale>
<asrwt>0</asrwt>
<pdfrwt beam="1">  1        1 0.11634285E-01 0.27870631E+03</pdfrwt>
<pdfrwt beam="2">  1       -1 0.39506376E-01 0.27870631E+03</pdfrwt>
<totfact> 0.32888156E+03</totfact>
</mgrwt>
</event>
<event>
 9    1  0.8175317E-001  0.2749897E+03  0.7818608E-02  0.1098457E+00
         -2   -1    0    0    0  501 -0.00000000000E+00  0.00000000000E+00  0.17476735988E+03  0.17476735988E+03  0.00000000000E+00 0. -1.
          2   -1    0    0  501    0  0.00000000000E+00 -0.00000000000E+00 -0.10817143750E+03  0.10817143750E+03  0.00000000000E+00 0. -1.
         35    2    1    2    0    0  0.00000000000E+00  0.14210854715E-13  0.66595922370E+02  0.28293879738E+03  0.27498972015E+03 0.  0.
         25    2    3    3    0    0  0.23894188932E+02 -0.46884288178E+02  0.48422218942E+02  0.14390046096E+03  0.12487418722E+03 0.  0.
         25    2    3    3    0    0 -0.23894188932E+02  0.46884288178E+02  0.18173703428E+02  0.13903833642E+03  0.12740607033E+03 0.  0.
          5    1    4    4  502    0  0.32085378944E+02  0.19520475707E+02  0.64629519632E+02  0.74897164978E+02  0.47000000000E+01 0. -1.
         -5    1    4    4    0  502 -0.81911900115E+01 -0.66404763885E+02 -0.16207300690E+02  0.69003295980E+02  0.47000000000E+01 0. -1.
          5    1    5    5  503    0 -0.14704573294E+02  0.61633789532E+02  0.63767886288E+02  0.90018785870E+02  0.47000000000E+01 0. -1.
         -5    1    5    5    0  503 -0.91896156382E+01 -0.14749501354E+02 -0.45594182860E+02  0.49019550553E+02  0.47000000000E+01 0. -1.
<mgrwt>
<rscale>  0 0.27498972E+03</rscale>
<asrwt>0</asrwt>
<pdfrwt beam="1">  1        2 0.16641760E-01 0.27498972E+03</pdfrwt>
<pdfrwt beam="2">  1       -2 0.26887286E-01 0.27498972E+03</pdfrwt>
<totfact> 0.42714405E+03</totfact>
</mgrwt>
</event>
<event>
 9    1  0.8175317E-001  0.2730787E+03  0.7818608E-02  0.1099530E+00
          3   -1    0    0  501    0  0.00000000000E+00  0.00000000000E+00  0.68233112468E+03  0.68233112468E+03  0.00000000000E+00 0.  1.
         -3   -1    0    0    0  501 -0.00000000000E+00 -0.00000000000E+00 -0.27322508299E+02  0.27322508299E+02  0.00000000000E+00 0.  1.
         35    2    1    2    0    0  0.00000000000E+00  0.71054273576E-14  0.65500861638E+03  0.70965363298E+03  0.27307872723E+03 0.  0.
         25    2    3    3    0    0  0.52346061790E+02  0.16950707994E+01  0.35886340811E+03  0.38344130666E+03  0.12450424299E+03 0.  0.
         25    2    3    3    0    0 -0.52346061790E+02 -0.16950707994E+01  0.29614520828E+03  0.32621232633E+03  0.12637054250E+03 0.  0.
          5    1    4    4  502    0  0.32605161435E+02 -0.57659806922E+02  0.12790923020E+03  0.14412012717E+03  0.47000000000E+01 0. -1.
         -5    1    4    4    0  502  0.19740900354E+02  0.59354877721E+02  0.23095417791E+03  0.23932117948E+03  0.47000000000E+01 0. -1.
          5    1    5    5  503    0  0.27467532494E+02 -0.36144795531E+02  0.14233624144E+03  0.14947443665E+03  0.47000000000E+01 0. -1.
         -5    1    5    5    0  503 -0.79813594284E+02  0.34449724731E+02  0.15380896684E+03  0.17673788967E+03  0.47000000000E+01 0. -1.
<mgrwt>
<rscale>  0 0.27307873E+03</rscale>
<asrwt>0</asrwt>
<pdfrwt beam="1">  1        3 0.10497401E+00 0.27307873E+03</pdfrwt>
<pdfrwt beam="2">  1       -3 0.42034633E-02 0.27307873E+03</pdfrwt>
<totfact> 0.61734240E+02</totfact>
</mgrwt>
</event>
<event>
 9    1  0.8175317E-001  0.2772867E+03  0.7818608E-02  0.1097180E+00
         -2   -1    0    0    0  501 -0.00000000000E+00  0.00000000000E+00  0.63404330130E+02  0.63404330130E+02  0.00000000000E+00 0.  1.
          2   -1    0    0  501    0  0.00000000000E+00 -0.00000000000E+00 -0.30316509933E+03  0.30316509933E+03  0.00000000000E+00 0.  1.
         35    2    1    2    0    0 -0.35527136788E-14  0.00000000000E+00 -0.23976076920E+03  0.36656942946E+03  0.27728671113E+03 0.  0.
         25    2    3    3    0    0  0.15605550103E+02 -0.26224083415E+02 -0.47211477359E+02  0.13666544473E+03  0.12456839264E+03 0.  0.
         25    2    3    3    0    0 -0.15605550103E+02  0.26224083415E+02 -0.19254929184E+03  0.22990398473E+03  0.12185801845E+03 0.  0.
          5    1    4    4  502    0  0.10953026745E+02 -0.63509809954E+02  0.12637497844E+02  0.65842699725E+02  0.47000000000E+01 0. -1.
         -5    1    4    4    0  502  0.46525233578E+01  0.37285726540E+02 -0.59848975204E+02  0.70822745005E+02  0.47000000000E+01 0. -1.
          5    1    5    5  503    0  0.26463857581E+02  0.54080135173E+01 -0.17862873390E+03  0.18072049398E+03  0.47000000000E+01 0. -1.
         -5    1    5    5    0  503 -0.42069407684E+02  0.20816069897E+02 -0.13920557933E+02  0.49183490747E+02  0.47000000000E+01 0. -1.
<mgrwt>
<rscale>  0 0.27728671E+03</rscale>
<asrwt>0</asrwt>
<pdfrwt beam="1">  1        2 0.46640784E-01 0.27728671E+03</pdfrwt>
<pdfrwt beam="2">  1       -2 0.97545124E-02 0.27728671E+03</pdfrwt>
<totfact> 0.74119583E+03</totfact>
</mgrwt>
</event>
<event>
 9    1  0.8175317E-001  0.2764198E+03  0.7818608E-02  0.1097661E+00
          1   -1    0    0  501    0  0.00000000000E+00  0.00000000000E+00  0.22085610435E+02  0.22085610435E+02  0.00000000000E+00 0. -1.
         -1   -1    0    0    0  501 -0.00000000000E+00 -0.00000000000E+00 -0.86490614502E+03  0.86490614502E+03  0.00000000000E+00 0. -1.
         35    2    1    2    0    0  0.35527136788E-14 -0.71054273576E-14 -0.84282053459E+03  0.88699175546E+03  0.27641982694E+03 0.  0.
         25    2    3    3    0    0 -0.78880561730E+00 -0.26690868254E+01 -0.59087878315E+03  0.60395102774E+03  0.12494543329E+03 0.  0.
         25    2    3    3    0    0  0.78880561730E+00  0.26690868254E+01 -0.25194175144E+03  0.28304072772E+03  0.12895604363E+03 0.  0.
          5    1    4    4  502    0  0.28848485165E+02 -0.49828087008E+02 -0.42498833852E+03  0.42889655073E+03  0.47000000000E+01 0. -1.
         -5    1    4    4    0  502 -0.29637290782E+02  0.47159000183E+02 -0.16589044463E+03  0.17505447701E+03  0.47000000000E+01 0. -1.
          5    1    5    5  503    0  0.23973922108E+02 -0.37252252497E+02 -0.22503066040E+03  0.22939783647E+03  0.47000000000E+01 0.  1.
         -5    1    5    5    0  503 -0.23185116491E+02  0.39921339322E+02 -0.26911091040E+02  0.53642891244E+02  0.47000000000E+01 0.  1.
<mgrwt>
<rscale>  0 0.27641983E+03</rscale>
<asrwt>0</asrwt>
<pdfrwt beam="1">  1        1 0.33977860E-02 0.27641983E+03</pdfrwt>
<pdfrwt beam="2">  1       -1 0.13306249E+00 0.27641983E+03</pdfrwt>
<totfact> 0.14690901E+03</totfact>
</mgrwt>
</event>
<event>
 9    1  0.8175317E-001  0.2747247E+03  0.7818608E-02  0.1098606E+00
         -4   -1    0    0    0  501 -0.00000000000E+00  0.00000000000E+00  0.10698230120E+03  0.10698230120E+03  0.00000000000E+00 0.  1.
          4   -1    0    0  501    0  0.00000000000E+00 -0.00000000000E+00 -0.17636945173E+03  0.17636945173E+03  0.00000000000E+00 0.  1.
         35    2    1    2    0    0  0.00000000000E+00  0.00000000000E+00 -0.69387150535E+02  0.28335175293E+03  0.27472466076E+03 0.  0.
         25    2    3    3    0    0  0.25133261691E+02 -0.15117793116E+02 -0.84726246037E+02  0.15363161384E+03  0.12475539064E+03 0.  0.
         25    2    3    3    0    0 -0.25133261691E+02  0.15117793116E+02  0.15339095501E+02  0.12972013909E+03  0.12542646500E+03 0.  0.
          5    1    4    4  502    0 -0.45029832030E+02  0.19927878019E+02 -0.29499386405E+02  0.57594356436E+02  0.47000000000E+01 0. -1.
         -5    1    4    4    0  502  0.70163093721E+02 -0.35045671135E+02 -0.55226859631E+02  0.96037257408E+02  0.47000000000E+01 0. -1.
          5    1    5    5  503    0 -0.68969061687E+02  0.32704657112E+02  0.26543130262E+02  0.80950317053E+02  0.47000000000E+01 0. -1.
         -5    1    5    5    0  503  0.43835799997E+02 -0.17586863996E+02 -0.11204034761E+02  0.48769822036E+02  0.47000000000E+01 0. -1.
<mgrwt>
<rscale>  0 0.27472466E+03</rscale>
<asrwt>0</asrwt>
<pdfrwt beam="1">  1        4 0.27133762E-01 0.27472466E+03</pdfrwt>
<pdfrwt beam="2">  1       -4 0.16458816E-01 0.27472466E+03</pdfrwt>
<totfact> 0.77126551E+02</totfact>
</mgrwt>
</event>
<event>
 9    1  0.8175317E-001  0.2750879E+03  0.7818608E-02  0.1098402E+00
         -2   -1    0    0    0  501 -0.00000000000E+00  0.00000000000E+00  0.17068968228E+02  0.17068968228E+02  0.00000000000E+00 0.  1.
          2   -1    0    0  501    0  0.00000000000E+00 -0.00000000000E+00 -0.11083472187E+04  0.11083472187E+04  0.00000000000E+00 0.  1.
         35    2    1    2    0    0  0.00000000000E+00  0.00000000000E+00 -0.10912782505E+04  0.11254161870E+04  0.27508793839E+03 0.  0.
         25    2    3    3    0    0  0.68870912874E+01  0.57313119838E+02 -0.53547378626E+03  0.55277274525E+03  0.12447211088E+03 0.  0.
         25    2    3    3    0    0 -0.68870912874E+01 -0.57313119838E+02 -0.55580446426E+03  0.57264344173E+03  0.12517860492E+03 0.  0.
          5    1    4    4  502    0  0.59267839653E+02  0.22376459127E+02 -0.37468120821E+03  0.38002826280E+03  0.47000000000E+01 0.  1.
         -5    1    4    4    0  502 -0.52380748365E+02  0.34936660712E+02 -0.16079257805E+03  0.17274448245E+03  0.47000000000E+01 0.  1.
          5    1    5    5  503    0 -0.36536620936E+02 -0.36293582547E+02 -0.78924179564E+02  0.94357113793E+02  0.47000000000E+01 0. -1.
         -5    1    5    5    0  503  0.29649529648E+02 -0.21019537291E+02 -0.47688028470E+03  0.47828632794E+03  0.47000000000E+01 0. -1.
<mgrwt>
<rscale>  0 0.27508794E+03</rscale>
<asrwt>0</asrwt>
<pdfrwt beam="1">  1        2 0.17051497E+00 0.27508794E+03</pdfrwt>
<pdfrwt beam="2">  1       -2 0.26259949E-02 0.27508794E+03</pdfrwt>
<totfact> 0.11646578E+04</totfact>
</mgrwt>
</event>
<event>
 9    1  0.8175317E-001  0.2735823E+03  0.7818608E-02  0.1099247E+00
         -2   -1    0    0    0  501 -0.00000000000E+00  0.00000000000E+00  0.11724201202E+02  0.11724201202E+02  0.00000000000E+00 0.  1.
          2   -1    0    0  501    0  0.00000000000E+00 -0.00000000000E+00 -0.15959992845E+04  0.15959992845E+04  0.00000000000E+00 0.  1.
         35    2    1    2    0    0  0.00000000000E+00 -0.71054273576E-14 -0.15842750833E+04  0.16077234857E+04  0.27358228546E+03 0.  0.
         25    2    3    3    0    0 -0.35941052482E+02  0.42606135980E+02 -0.79474688102E+03  0.80641957782E+03  0.12483144044E+03 0.  0.
         25    2    3    3    0    0  0.35941052482E+02 -0.42606135980E+02 -0.78952820225E+03  0.80130390785E+03  0.12500451399E+03 0.  0.
          5    1    4    4  502    0 -0.37198771268E+02 -0.38863870922E+02 -0.36760665408E+03  0.37155200332E+03  0.47000000000E+01 0. -1.
         -5    1    4    4    0  502  0.12577187858E+01  0.81470006901E+02 -0.42714022694E+03  0.43486757450E+03  0.47000000000E+01 0. -1.
          5    1    5    5  503    0  0.64846976550E+02 -0.70334207963E+02 -0.51532347325E+03  0.52414921851E+03  0.47000000000E+01 0. -1.
         -5    1    5    5    0  503 -0.28905924067E+02  0.27728071984E+02 -0.27420472899E+03  0.27715468934E+03  0.47000000000E+01 0. -1.
<mgrwt>
<rscale>  0 0.27358229E+03</rscale>
<asrwt>0</asrwt>
<pdfrwt beam="1">  1        2 0.24553840E+00 0.27358229E+03</pdfrwt>
<pdfrwt beam="2">  1       -2 0.18037229E-02 0.27358229E+03</pdfrwt>
<totfact> 0.10912909E+04</totfact>
</mgrwt>
</event>
<event>
 9    1  0.8175317E-001  0.2731259E+03  0.7818608E-02  0.1099504E+00
         -3   -1    0    0    0  501 -0.00000000000E+00  0.00000000000E+00  0.50069831203E+02  0.50069831203E+02  0.00000000000E+00 0. -1.
          3   -1    0    0  501    0  0.00000000000E+00 -0.00000000000E+00 -0.37246857358E+03  0.37246857358E+03  0.00000000000E+00 0. -1.
         35    2    1    2    0    0  0.00000000000E+00 -0.35527136788E-14 -0.32239874238E+03  0.42253840478E+03  0.27312589484E+03 0.  0.
         25    2    3    3    0    0 -0.34348296671E+02  0.38523362592E+01 -0.19862141365E+03  0.24302488126E+03  0.13570549352E+03 0.  0.
         25    2    3    3    0    0  0.34348296671E+02 -0.38523362592E+01 -0.12377732873E+03  0.17951352352E+03  0.12533807100E+03 0.  0.
          5    1    4    4  502    0 -0.73593967522E+02 -0.31328570998E+02 -0.15485576731E+03  0.17435581460E+03  0.47000000000E+01 0.  1.
         -5    1    4    4    0  502  0.39245670851E+02  0.35180907258E+02 -0.43765646340E+02  0.68669066657E+02  0.47000000000E+01 0.  1.
          5    1    5    5  503    0 -0.21281234954E+02 -0.20260591010E+02  0.11773083971E+02  0.32001218967E+02  0.47000000000E+01 0.  1.
         -5    1    5    5    0  503  0.55629531625E+02  0.16408254751E+02 -0.13555041270E+03  0.14751230456E+03  0.47000000000E+01 0.  1.
<mgrwt>
<rscale>  0 0.27312589E+03</rscale>
<asrwt>0</asrwt>
<pdfrwt beam="1">  1        3 0.57302857E-01 0.27312589E+03</pdfrwt>
<pdfrwt beam="2">  1       -3 0.77030510E-02 0.27312589E+03</pdfrwt>
<totfact> 0.87322971E+02</totfact>
</mgrwt>
</event>
<event>
 9    1  0.8175317E-001  0.2757580E+03  0.7818608E-02  0.1098029E+00
         -2   -1    0    0    0  501 -0.00000000000E+00  0.00000000000E+00  0.65783279284E+02  0.65783279284E+02  0.00000000000E+00 0.  1.
          2   -1    0    0  501    0  0.00000000000E+00 -0.00000000000E+00 -0.28898850836E+03  0.28898850836E+03  0.00000000000E+00 0.  1.
         35    2    1    2    0    0  0.10658141036E-13 -0.71054273576E-14 -0.22320522907E+03  0.35477178764E+03  0.27575795006E+03 0.  0.
         25    2    3    3    0    0 -0.26579697710E+02  0.30109937371E+02 -0.16365892487E+03  0.20975654381E+03  0.12490186277E+03 0.  0.
         25    2    3    3    0    0  0.26579697710E+02 -0.30109937371E+02 -0.59546304202E+02  0.14501524383E+03  0.12597845030E+03 0.  0.
          5    1    4    4  502    0  0.79223736537E+01  0.43002171452E+02 -0.21455101042E+01  0.44030034834E+02  0.47000000000E+01 0. -1.
         -5    1    4    4    0  502 -0.34502071364E+02 -0.12892234082E+02 -0.16151341477E+03  0.16572650898E+03  0.47000000000E+01 0. -1.
          5    1    5    5  503    0 -0.43714525602E+02  0.16162818172E+02 -0.30338915230E+02  0.55809821870E+02  0.47000000000E+01 0.  1.
         -5    1    5    5    0  503  0.70294223312E+02 -0.46272755543E+02 -0.29207388972E+02  0.89205421960E+02  0.47000000000E+01 0.  1.
<mgrwt>
<rscale>  0 0.27575795E+03</rscale>
<asrwt>0</asrwt>
<pdfrwt beam="1">  1        2 0.44459770E-01 0.27575795E+03</pdfrwt>
<pdfrwt beam="2">  1       -2 0.10120505E-01 0.27575795E+03</pdfrwt>
<totfact> 0.73586287E+03</totfact>
</mgrwt>
</event>
<event>
 9    1  0.8175317E-001  0.2731751E+03  0.7818608E-02  0.1099476E+00
          2   -1    0    0  501    0  0.00000000000E+00  0.00000000000E+00  0.33920613286E+03  0.33920613286E+03  0.00000000000E+00 0. -1.
         -2   -1    0    0    0  501 -0.00000000000E+00 -0.00000000000E+00 -0.54999460298E+02  0.54999460298E+02  0.00000000000E+00 0. -1.
         35    2    1    2    0    0  0.00000000000E+00  0.00000000000E+00  0.28420667256E+03  0.39420559316E+03  0.27317506648E+03 0.  0.
         25    2    3    3    0    0  0.42453377149E+02  0.88187139956E+01  0.87369496827E+02  0.15717782192E+03  0.12325331550E+03 0.  0.
         25    2    3    3    0    0 -0.42453377149E+02 -0.88187139956E+01  0.19683717573E+03  0.23702777123E+03  0.12472863199E+03 0.  0.
          5    1    4    4  502    0  0.36330911628E+02 -0.54814245922E+02  0.51997345679E+02  0.83966366203E+02  0.47000000000E+01 0. -1.
         -5    1    4    4    0  502  0.61224655210E+01  0.63632959917E+02  0.35372151148E+02  0.73211455721E+02  0.47000000000E+01 0. -1.
          5    1    5    5  503    0 -0.53500775020E+02 -0.47318686333E+02  0.57029025754E+02  0.91519346493E+02  0.47000000000E+01 0. -1.
         -5    1    5    5    0  503  0.11047397871E+02  0.38499972338E+02  0.13980814998E+03  0.14550842474E+03  0.47000000000E+01 0. -1.
<mgrwt>
<rscale>  0 0.27317507E+03</rscale>
<asrwt>0</asrwt>
<pdfrwt beam="1">  1        2 0.52185558E-01 0.27317507E+03</pdfrwt>
<pdfrwt beam="2">  1       -2 0.84614556E-02 0.27317507E+03</pdfrwt>
<totfact> 0.82145643E+03</totfact>
</mgrwt>
</event>
<event>
 9    1  0.8175317E-001  0.3003545E+03  0.7818608E-02  0.1085064E+00
         -2   -1    0    0    0  501 -0.00000000000E+00  0.00000000000E+00  0.20686725711E+03  0.20686725711E+03  0.00000000000E+00 0. -1.
          2   -1    0    0  501    0  0.00000000000E+00 -0.00000000000E+00 -0.10902260177E+03  0.10902260177E+03  0.00000000000E+00 0. -1.
         35    2    1    2    0    0  0.00000000000E+00  0.35527136788E-14  0.97844655340E+02  0.31588985889E+03  0.30035450116E+03 0.  0.
         25    2    3    3    0    0  0.21799361851E+01  0.28680543746E+02  0.12893696371E+03  0.18196778991E+03  0.12514076171E+03 0.  0.
         25    2    3    3    0    0 -0.21799361851E+01 -0.28680543746E+02 -0.31092308374E+02  0.13392206898E+03  0.12704748407E+03 0.  0.
          5    1    4    4  502    0  0.14513944404E+02 -0.22329517451E+02  0.12635269426E+03  0.12921437722E+03  0.47000000000E+01 0. -1.
         -5    1    4    4    0  502 -0.12334008219E+02  0.51010061197E+02  0.25842694514E+01  0.52753412692E+02  0.47000000000E+01 0. -1.
          5    1    5    5  503    0 -0.15319684132E+02  0.40596322578E+02 -0.44123415995E+02  0.62062226578E+02  0.47000000000E+01 0. -1.
         -5    1    5    5    0  503  0.13139747947E+02 -0.69276866324E+02  0.13031107621E+02  0.71859842399E+02  0.47000000000E+01 0. -1.
<mgrwt>
<rscale>  0 0.30035450E+03</rscale>
<asrwt>0</asrwt>
<pdfrwt beam="1">  1        2 0.16772708E-01 0.30035450E+03</pdfrwt>
<pdfrwt beam="2">  1       -2 0.31825732E-01 0.30035450E+03</pdfrwt>
<totfact> 0.31265437E+03</totfact>
</mgrwt>
</event>
<event>
 9    1  0.8175317E-001  0.2736176E+03  0.7818608E-02  0.1099227E+00
         -2   -1    0    0    0  501 -0.00000000000E+00  0.00000000000E+00  0.61063167710E+03  0.61063167710E+03  0.00000000000E+00 0. -1.
          2   -1    0    0  501    0  0.00000000000E+00 -0.00000000000E+00 -0.30651278801E+02  0.30651278801E+02  0.00000000000E+00 0. -1.
         35    2    1    2    0    0  0.71054273576E-14  0.00000000000E+00  0.57998039830E+03  0.64128295590E+03  0.27361755630E+03 0.  0.
         25    2    3    3    0    0 -0.36743529674E+02  0.24516160906E+02  0.37291977963E+03  0.39552259164E+03  0.12416855214E+03 0.  0.
         25    2    3    3    0    0  0.36743529674E+02 -0.24516160906E+02  0.20706061867E+03  0.24576036426E+03  0.12479153705E+03 0.  0.
          5    1    4    4  502    0  0.34640348839E+02 -0.21744230951E+02  0.73785634694E+02  0.84493640202E+02  0.47000000000E+01 0.  1.
         -5    1    4    4    0  502 -0.71383878513E+02  0.46260391857E+02  0.29913414494E+03  0.31102895144E+03  0.47000000000E+01 0.  1.
          5    1    5    5  503    0  0.59952476260E+02  0.20674852930E+01  0.34077088671E+02  0.69151369310E+02  0.47000000000E+01 0. -1.
         -5    1    5    5    0  503 -0.23208946586E+02 -0.26583646199E+02  0.17298353000E+03  0.17660899495E+03  0.47000000000E+01 0. -1.
<mgrwt>
<rscale>  0 0.27361756E+03</rscale>
<asrwt>0</asrwt>
<pdfrwt beam="1">  1        2 0.47155818E-02 0.27361756E+03</pdfrwt>
<pdfrwt beam="2">  1       -2 0.93943326E-01 0.27361756E+03</pdfrwt>
<totfact> 0.16823117E+03</totfact>
</mgrwt>
</event>
<event>
 9    1  0.8175317E-001  0.2785712E+03  0.7818608E-02  0.1096472E+00
         -2   -1    0    0    0  501 -0.00000000000E+00  0.00000000000E+00  0.85557873493E+01  0.85557873493E+01  0.00000000000E+00 0. -1.
          2   -1    0    0  501    0  0.00000000000E+00 -0.00000000000E+00 -0.22675275826E+04  0.22675275826E+04  0.00000000000E+00 0. -1.
         35    2    1    2    0    0  0.17763568394E-14  0.71054273576E-14 -0.22589717953E+04  0.22760833700E+04  0.27857123904E+03 0.  0.
         25    2    3    3    0    0 -0.15905552664E+02 -0.40346123478E+02 -0.83178222153E+03  0.84229738523E+03  0.12538909373E+03 0.  0.
         25    2    3    3    0    0  0.15905552664E+02  0.40346123478E+02 -0.14271895737E+04  0.14337859847E+04  0.13035096608E+03 0.  0.
          5    1    4    4  502    0 -0.28044122384E+01 -0.38450043452E+01 -0.76425781797E+03  0.76428708684E+03  0.47000000000E+01 0.  1.
         -5    1    4    4    0  502 -0.13101140426E+02 -0.36501119133E+02 -0.67524403569E+02  0.78010298395E+02  0.47000000000E+01 0.  1.
          5    1    5    5  503    0 -0.43924606376E+02  0.57614980643E+02 -0.63445520639E+03  0.63859561223E+03  0.47000000000E+01 0. -1.
         -5    1    5    5    0  503  0.59830159040E+02 -0.17268857165E+02 -0.79273436734E+03  0.79519037251E+03  0.47000000000E+01 0. -1.
<mgrwt>
<rscale>  0 0.27857124E+03</rscale>
<asrwt>0</asrwt>
<pdfrwt beam="1">  1        2 0.34885090E+00 0.27857124E+03</pdfrwt>
<pdfrwt beam="2">  1       -2 0.13162731E-02 0.27857124E+03</pdfrwt>
<totfact> 0.76549647E+03</totfact>
</mgrwt>
</event>
<event>
 9    1  0.8175317E-001  0.2749392E+03  0.7818608E-02  0.1098486E+00
         -1   -1    0    0    0  501 -0.00000000000E+00  0.00000000000E+00  0.26771094539E+02  0.26771094539E+02  0.00000000000E+00 0. -1.
          1   -1    0    0  501    0  0.00000000000E+00 -0.00000000000E+00 -0.70590654530E+03  0.70590654530E+03  0.00000000000E+00 0. -1.
         35    2    1    2    0    0  0.71054273576E-14  0.35527136788E-14 -0.67913545076E+03  0.73267763984E+03  0.27493919953E+03 0.  0.
         25    2    3    3    0    0  0.56585353200E+02 -0.73369503834E+01 -0.32374706434E+03  0.35180294769E+03  0.12528934230E+03 0.  0.
         25    2    3    3    0    0 -0.56585353200E+02  0.73369503834E+01 -0.35538838642E+03  0.38087469215E+03  0.12453470553E+03 0.  0.
          5    1    4    4  502    0 -0.18410046635E+02  0.42497414239E+02 -0.91348658071E+02  0.10252622770E+03  0.47000000000E+01 0.  1.
         -5    1    4    4    0  502  0.74995399835E+02 -0.49834364622E+02 -0.23239840627E+03  0.24927671999E+03  0.47000000000E+01 0.  1.
          5    1    5    5  503    0  0.14972976325E+02 -0.31739944711E+02 -0.33344938952E+02  0.48637321719E+02  0.47000000000E+01 0.  1.
         -5    1    5    5    0  503 -0.71558329525E+02  0.39076895094E+02 -0.32204344747E+03  0.33223737043E+03  0.47000000000E+01 0.  1.
<mgrwt>
<rscale>  0 0.27493920E+03</rscale>
<asrwt>0</asrwt>
<pdfrwt beam="1">  1        1 0.10860101E+00 0.27493920E+03</pdfrwt>
<pdfrwt beam="2">  1       -1 0.41186298E-02 0.27493920E+03</pdfrwt>
<totfact> 0.65369606E+03</totfact>
</mgrwt>
</event>
<event>
 9    1  0.8175317E-001  0.2786923E+03  0.7818608E-02  0.1096405E+00
          1   -1    0    0  501    0  0.00000000000E+00  0.00000000000E+00  0.12628062254E+04  0.12628062254E+04  0.00000000000E+00 0. -1.
         -1   -1    0    0    0  501 -0.00000000000E+00 -0.00000000000E+00 -0.15376352691E+02  0.15376352691E+02  0.00000000000E+00 0. -1.
         35    2    1    2    0    0  0.71054273576E-14  0.00000000000E+00  0.12474298727E+04  0.12781825781E+04  0.27869233144E+03 0.  0.
         25    2    3    3    0    0 -0.42729880718E+02  0.44963066281E+02  0.62704287942E+03  0.64234788417E+03  0.12482191966E+03 0.  0.
         25    2    3    3    0    0  0.42729880718E+02 -0.44963066281E+02  0.62038699327E+03  0.63583469390E+03  0.12473258001E+03 0.  0.
          5    1    4    4  502    0  0.29984059354E+01  0.62380109624E+02  0.14687666613E+03  0.15967189348E+03  0.47000000000E+01 0.  1.
         -5    1    4    4    0  502 -0.45728286654E+02 -0.17417043343E+02  0.48016621329E+03  0.48267599068E+03  0.47000000000E+01 0.  1.
          5    1    5    5  503    0  0.26726571231E+02 -0.14468802726E+02  0.58645327848E+03  0.58725905161E+03  0.47000000000E+01 0.  1.
         -5    1    5    5    0  503  0.16003309488E+02 -0.30494263555E+02  0.33933714788E+02  0.48575642288E+02  0.47000000000E+01 0.  1.
<mgrwt>
<rscale>  0 0.27869233E+03</rscale>
<asrwt>0</asrwt>
<pdfrwt beam="1">  1        1 0.19427780E+00 0.27869233E+03</pdfrwt>
<pdfrwt beam="2">  1       -1 0.23655937E-02 0.27869233E+03</pdfrwt>
<totfact> 0.55477534E+03</totfact>
</mgrwt>
</event>
<event>
 9    1  0.8175317E-001  0.2712209E+03  0.7818608E-02  0.1100583E+00
         -2   -1    0    0    0  501 -0.00000000000E+00  0.00000000000E+00  0.15760966812E+02  0.15760966812E+02  0.00000000000E+00 0.  1.
          2   -1    0    0  501    0  0.00000000000E+00 -0.00000000000E+00 -0.11668189441E+04  0.11668189441E+04  0.00000000000E+00 0.  1.
         35    2    1    2    0    0 -0.71054273576E-14  0.17763568394E-14 -0.11510579773E+04  0.11825799109E+04  0.27122090372E+03 0.  0.
         25    2    3    3    0    0  0.31880779738E+02  0.91776845324E+01 -0.41740770762E+03  0.43751778464E+03  0.12685426080E+03 0.  0.
         25    2    3    3    0    0 -0.31880779738E+02 -0.91776845324E+01 -0.73365026968E+03  0.74506212629E+03  0.12559554058E+03 0.  0.
          5    1    4    4  502    0  0.68513803795E+02  0.31483212133E+02 -0.16531443672E+03  0.18175887033E+03  0.47000000000E+01 0. -1.
         -5    1    4    4    0  502 -0.36633024057E+02 -0.22305527601E+02 -0.25209327091E+03  0.25575891431E+03  0.47000000000E+01 0. -1.
          5    1    5    5  503    0 -0.74578099698E+02 -0.18553403665E+02 -0.58503200338E+03  0.59007682273E+03  0.47000000000E+01 0. -1.
         -5    1    5    5    0  503  0.42697319960E+02  0.93757191327E+01 -0.14861826630E+03  0.15498530356E+03  0.47000000000E+01 0. -1.
<mgrwt>
<rscale>  0 0.27122090E+03</rscale>
<asrwt>0</asrwt>
<pdfrwt beam="1">  1        2 0.17951061E+00 0.27122090E+03</pdfrwt>
<pdfrwt beam="2">  1       -2 0.24247641E-02 0.27122090E+03</pdfrwt>
<totfact> 0.12116569E+04</totfact>
</mgrwt>
</event>
<event>
 9    1  0.8175317E-001  0.2737570E+03  0.7818608E-02  0.1099148E+00
          2   -1    0    0  501    0  0.00000000000E+00  0.00000000000E+00  0.34482379941E+03  0.34482379941E+03  0.00000000000E+00 0. -1.
         -2   -1    0    0    0  501 -0.00000000000E+00 -0.00000000000E+00 -0.54334203823E+02  0.54334203823E+02  0.00000000000E+00 0. -1.
         35    2    1    2    0    0  0.00000000000E+00 -0.35527136788E-14  0.29048959559E+03  0.39915800323E+03  0.27375702073E+03 0.  0.
         25    2    3    3    0    0  0.31975106573E+02  0.11664964865E+01  0.21553390927E+03  0.25136150045E+03  0.12531548072E+03 0.  0.
         25    2    3    3    0    0 -0.31975106573E+02 -0.11664964865E+01  0.74955686314E+02  0.14779650278E+03  0.12329510602E+03 0.  0.
          5    1    4    4  502    0 -0.72151575118E+01  0.30646328164E+02  0.19567037507E+03  0.19824288539E+03  0.47000000000E+01 0. -1.
         -5    1    4    4    0  502  0.39190264085E+02 -0.29479831677E+02  0.19863534201E+02  0.53118615058E+02  0.47000000000E+01 0. -1.
          5    1    5    5  503    0  0.20284903822E+02  0.40637043806E+02  0.65794262284E+02  0.80086338422E+02  0.47000000000E+01 0.  1.
         -5    1    5    5    0  503 -0.52260010395E+02 -0.41803540293E+02  0.91614240301E+01  0.67710164360E+02  0.47000000000E+01 0.  1.
<mgrwt>
<rscale>  0 0.27375702E+03</rscale>
<asrwt>0</asrwt>
<pdfrwt beam="1">  1        2 0.53049814E-01 0.27375702E+03</pdfrwt>
<pdfrwt beam="2">  1       -2 0.83591085E-02 0.27375702E+03</pdfrwt>
<totfact> 0.82264860E+03</totfact>
</mgrwt>
</event>
<event>
 9    1  0.8175317E-001  0.2780687E+03  0.7818608E-02  0.1096748E+00
          2   -1    0    0  501    0  0.00000000000E+00  0.00000000000E+00  0.17962981782E+03  0.17962981782E+03  0.00000000000E+00 0.  1.
         -2   -1    0    0    0  501 -0.00000000000E+00 -0.00000000000E+00 -0.10761323324E+03  0.10761323324E+03  0.00000000000E+00 0.  1.
         35    2    1    2    0    0  0.00000000000E+00  0.00000000000E+00  0.72016584579E+02  0.28724305107E+03  0.27806866406E+03 0.  0.
         25    2    3    3    0    0 -0.77797045974E+01  0.69537935176E+01 -0.28578631294E+02  0.12857683953E+03  0.12492552361E+03 0.  0.
         25    2    3    3    0    0  0.77797045974E+01 -0.69537935176E+01  0.10059521587E+03  0.15866621154E+03  0.12225665699E+03 0.  0.
          5    1    4    4  502    0 -0.19042455517E+02  0.62470453675E+02 -0.29290808680E+02  0.71730148248E+02  0.47000000000E+01 0. -1.
         -5    1    4    4    0  502  0.11262750920E+02 -0.55516660157E+02  0.71217738620E+00  0.56846691284E+02  0.47000000000E+01 0. -1.
          5    1    5    5  503    0  0.27931681004E+02  0.52042084078E+02  0.39218122093E+02  0.71054263907E+02  0.47000000000E+01 0. -1.
         -5    1    5    5    0  503 -0.20151976406E+02 -0.58995877595E+02  0.61377093780E+02  0.87611947628E+02  0.47000000000E+01 0. -1.
<mgrwt>
<rscale>  0 0.27806866E+03</rscale>
<asrwt>0</asrwt>
<pdfrwt beam="1">  1        2 0.27635357E-01 0.27806866E+03</pdfrwt>
<pdfrwt beam="2">  1       -2 0.16555882E-01 0.27806866E+03</pdfrwt>
<totfact> 0.55386643E+03</totfact>
</mgrwt>
</event>
<event>
 9    1  0.8175317E-001  0.2790218E+03  0.7818608E-02  0.1096224E+00
          2   -1    0    0  501    0  0.00000000000E+00  0.00000000000E+00  0.75104435788E+03  0.75104435788E+03  0.00000000000E+00 0.  1.
         -2   -1    0    0    0  501 -0.00000000000E+00 -0.00000000000E+00 -0.25914962647E+02  0.25914962647E+02  0.00000000000E+00 0.  1.
         35    2    1    2    0    0  0.00000000000E+00 -0.71054273576E-14  0.72512939523E+03  0.77695932053E+03  0.27902176604E+03 0.  0.
         25    2    3    3    0    0  0.50959360967E+02 -0.20934733512E+02  0.43349577136E+03  0.45462047646E+03  0.12540364544E+03 0.  0.
         25    2    3    3    0    0 -0.50959360967E+02  0.20934733512E+02  0.29163362388E+03  0.32233884407E+03  0.12576581525E+03 0.  0.
          5    1    4    4  502    0  0.34071781554E+02  0.51431054322E+02  0.21879584502E+03  0.22737579345E+03  0.47000000000E+01 0. -1.
         -5    1    4    4    0  502  0.16887579413E+02 -0.72365787834E+02  0.21469992633E+03  0.22724468301E+03  0.47000000000E+01 0. -1.
          5    1    5    5  503    0 -0.73411845749E+02  0.57801286230E+02  0.18855972825E+03  0.21049263385E+03  0.47000000000E+01 0.  1.
         -5    1    5    5    0  503  0.22452484782E+02 -0.36866552718E+02  0.10307389562E+03  0.11184621022E+03  0.47000000000E+01 0.  1.
<mgrwt>
<rscale>  0 0.27902177E+03</rscale>
<asrwt>0</asrwt>
<pdfrwt beam="1">  1        2 0.11554527E+00 0.27902177E+03</pdfrwt>
<pdfrwt beam="2">  1       -2 0.39869179E-02 0.27902177E+03</pdfrwt>
<totfact> 0.10584851E+04</totfact>
</mgrwt>
</event>
<event>
 9    1  0.8175317E-001  0.2769262E+03  0.7818608E-02  0.1097380E+00
         -2   -1    0    0    0  501 -0.00000000000E+00  0.00000000000E+00  0.98001064792E+02  0.98001064792E+02  0.00000000000E+00 0. -1.
          2   -1    0    0  501    0  0.00000000000E+00 -0.00000000000E+00 -0.19563087371E+03  0.19563087371E+03  0.00000000000E+00 0. -1.
         35    2    1    2    0    0  0.00000000000E+00  0.71054273576E-14 -0.97629808914E+02  0.29363193850E+03  0.27692622793E+03 0.  0.
         25    2    3    3    0    0  0.34426004875E+02 -0.41660499658E+02 -0.55189122224E+02  0.14694217042E+03  0.12500166075E+03 0.  0.
         25    2    3    3    0    0 -0.34426004875E+02  0.41660499658E+02 -0.42440686690E+02  0.14668976808E+03  0.12959910929E+03 0.  0.
          5    1    4    4  502    0  0.10014006269E+02 -0.67924670808E+02 -0.78128517724E+02  0.10411626438E+03  0.47000000000E+01 0.  1.
         -5    1    4    4    0  502  0.24411998606E+02  0.26264171150E+02  0.22939395500E+02  0.42825906039E+02  0.47000000000E+01 0.  1.
          5    1    5    5  503    0  0.49263567039E+01  0.48272329384E+02 -0.78694992079E+02  0.92571478074E+02  0.47000000000E+01 0.  1.
         -5    1    5    5    0  503 -0.39352361579E+02 -0.66118297263E+01  0.36254305388E+02  0.54118290008E+02  0.47000000000E+01 0.  1.
<mgrwt>
<rscale>  0 0.27692623E+03</rscale>
<asrwt>0</asrwt>
<pdfrwt beam="1">  1        2 0.30097057E-01 0.27692623E+03</pdfrwt>
<pdfrwt beam="2">  1       -2 0.15077087E-01 0.27692623E+03</pdfrwt>
<totfact> 0.58891676E+03</totfact>
</mgrwt>
</event>
<event>
 9    1  0.8175317E-001  0.2704298E+03  0.7818608E-02  0.1101034E+00
          1   -1    0    0  501    0  0.00000000000E+00  0.00000000000E+00  0.84096580463E+03  0.84096580463E+03  0.00000000000E+00 0.  1.
         -1   -1    0    0    0  501 -0.00000000000E+00 -0.00000000000E+00 -0.21740561316E+02  0.21740561316E+02  0.00000000000E+00 0.  1.
         35    2    1    2    0    0  0.00000000000E+00 -0.13322676296E-14  0.81922524331E+03  0.86270636594E+03  0.27042979599E+03 0.  0.
         25    2    3    3    0    0  0.16709693213E+02  0.91852528396E+00  0.25604723455E+03  0.28543825932E+03  0.12503901801E+03 0.  0.
         25    2    3    3    0    0 -0.16709693213E+02 -0.91852528396E+00  0.56317800876E+03  0.57726810663E+03  0.12565404825E+03 0.  0.
          5    1    4    4  502    0  0.61465892318E+02  0.31630601212E+01  0.21766590632E+03  0.22624897269E+03  0.47000000000E+01 0.  1.
         -5    1    4    4    0  502 -0.44756199105E+02 -0.22445348372E+01  0.38381328227E+02  0.59189286627E+02  0.47000000000E+01 0.  1.
          5    1    5    5  503    0 -0.49618089881E+02  0.35961634063E+02  0.16624569283E+03  0.17724252976E+03  0.47000000000E+01 0. -1.
         -5    1    5    5    0  503  0.32908396668E+02 -0.36880159347E+02  0.39693231593E+03  0.40002557687E+03  0.47000000000E+01 0. -1.
<mgrwt>
<rscale>  0 0.27042980E+03</rscale>
<asrwt>0</asrwt>
<pdfrwt beam="1">  1        1 0.12937933E+00 0.27042980E+03</pdfrwt>
<pdfrwt beam="2">  1       -1 0.33447024E-02 0.27042980E+03</pdfrwt>
<totfact> 0.68239479E+03</totfact>
</mgrwt>
</event>
<event>
 9    1  0.8175317E-001  0.2769123E+03  0.7818608E-02  0.1097387E+00
         -1   -1    0    0    0  501 -0.00000000000E+00  0.00000000000E+00  0.32395914425E+02  0.32395914425E+02  0.00000000000E+00 0.  1.
          1   -1    0    0  501    0  0.00000000000E+00 -0.00000000000E+00 -0.59174451983E+03  0.59174451983E+03  0.00000000000E+00 0.  1.
         35    2    1    2    0    0  0.00000000000E+00 -0.71054273576E-14 -0.55934860541E+03  0.62414043426E+03  0.27691229533E+03 0.  0.
         25    2    3    3    0    0 -0.54604652276E+01 -0.54644316888E+02 -0.33091718378E+03  0.35815188149E+03  0.12550207028E+03 0.  0.
         25    2    3    3    0    0  0.54604652276E+01  0.54644316888E+02 -0.22843142162E+03  0.26598855277E+03  0.12471238018E+03 0.  0.
          5    1    4    4  502    0  0.13378110454E+02 -0.86825741391E+02 -0.28783333700E+03  0.30097807743E+03  0.47000000000E+01 0. -1.
         -5    1    4    4    0  502 -0.18838575682E+02  0.32181424503E+02 -0.43083846787E+02  0.57173804060E+02  0.47000000000E+01 0. -1.
          5    1    5    5  503    0  0.27400141576E+02  0.86840253842E+02 -0.12026243458E+03  0.15092097474E+03  0.47000000000E+01 0. -1.
         -5    1    5    5    0  503 -0.21939676348E+02 -0.32195936954E+02 -0.10816898705E+03  0.11506757803E+03  0.47000000000E+01 0. -1.
<mgrwt>
<rscale>  0 0.27691230E+03</rscale>
<asrwt>0</asrwt>
<pdfrwt beam="1">  1        1 0.91037623E-01 0.27691230E+03</pdfrwt>
<pdfrwt beam="2">  1       -1 0.49839866E-02 0.27691230E+03</pdfrwt>
<totfact> 0.63197662E+03</totfact>
</mgrwt>
</event>
<event>
 9    1  0.8175317E-001  0.2903736E+03  0.7818608E-02  0.1090154E+00
         -1   -1    0    0    0  501 -0.00000000000E+00  0.00000000000E+00  0.27446018995E+03  0.27446018995E+03  0.00000000000E+00 0.  1.
          1   -1    0    0  501    0  0.00000000000E+00 -0.00000000000E+00 -0.76802446382E+02  0.76802446382E+02  0.00000000000E+00 0.  1.
         35    2    1    2    0    0 -0.71054273576E-14 -0.14210854715E-13  0.19765774357E+03  0.35126263633E+03  0.29037364910E+03 0.  0.
         25    2    3    3    0    0  0.36460945678E+02 -0.64412047312E+02  0.94041778361E+02  0.17290126779E+03  0.12479054423E+03 0.  0.
         25    2    3    3    0    0 -0.36460945678E+02  0.64412047312E+02  0.10361596521E+03  0.17836136854E+03  0.12489274256E+03 0.  0.
          5    1    4    4  502    0 -0.20222783584E+02 -0.14480212717E+02  0.93862133435E+02  0.97215367248E+02  0.47000000000E+01 0. -1.
         -5    1    4    4    0  502  0.56683729261E+02 -0.49931834595E+02  0.17964492593E+00  0.75685900545E+02  0.47000000000E+01 0. -1.
          5    1    5    5  503    0 -0.61169421900E+02  0.53757722014E+02  0.12104145824E+03  0.14596134922E+03  0.47000000000E+01 0.  1.
         -5    1    5    5    0  503  0.24708476222E+02  0.10654325298E+02 -0.17425493034E+02  0.32400019325E+02  0.47000000000E+01 0.  1.
<mgrwt>
<rscale>  0 0.29037365E+03</rscale>
<asrwt>0</asrwt>
<pdfrwt beam="1">  1        1 0.11815761E-01 0.29037365E+03</pdfrwt>
<pdfrwt beam="2">  1       -1 0.42224644E-01 0.29037365E+03</pdfrwt>
<totfact> 0.28638781E+03</totfact>
</mgrwt>
</event>
<event>
 9    1  0.8175317E-001  0.2735499E+03  0.7818608E-02  0.1099265E+00
          2   -1    0    0  501    0  0.00000000000E+00  0.00000000000E+00  0.24434077229E+02  0.24434077229E+02  0.00000000000E+00 0. -1.
         -2   -1    0    0    0  501 -0.00000000000E+00 -0.00000000000E+00 -0.76562689473E+03  0.76562689473E+03  0.00000000000E+00 0. -1.
         35    2    1    2    0    0  0.00000000000E+00 -0.71054273576E-14 -0.74119281750E+03  0.79006097196E+03  0.27354989800E+03 0.  0.
         25    2    3    3    0    0 -0.54042547427E+02 -0.55286464131E+01 -0.40309645926E+03  0.42545903162E+03  0.12480973221E+03 0.  0.
         25    2    3    3    0    0  0.54042547427E+02  0.55286464131E+01 -0.33809635824E+03  0.36460194034E+03  0.12519690324E+03 0.  0.
          5    1    4    4  502    0  0.62265398639E+00 -0.57639769757E+02 -0.13450332822E+03  0.14641026623E+03  0.47000000000E+01 0.  1.
         -5    1    4    4    0  502 -0.54665201413E+02  0.52111123344E+02 -0.26859313104E+03  0.27904876539E+03  0.47000000000E+01 0.  1.
          5    1    5    5  503    0  0.24295072671E+02  0.46998430942E+02 -0.53358433937E+02  0.75288216470E+02  0.47000000000E+01 0. -1.
         -5    1    5    5    0  503  0.29747474756E+02 -0.41469784528E+02 -0.28473792430E+03  0.28931372387E+03  0.47000000000E+01 0. -1.
<mgrwt>
<rscale>  0 0.27354990E+03</rscale>
<asrwt>0</asrwt>
<pdfrwt beam="1">  1        2 0.37590893E-02 0.27354990E+03</pdfrwt>
<pdfrwt beam="2">  1       -2 0.11778874E+00 0.27354990E+03</pdfrwt>
<totfact> 0.13387612E+03</totfact>
</mgrwt>
</event>
<event>
 9    1  0.8175317E-001  0.2734045E+03  0.7818608E-02  0.1099347E+00
         -2   -1    0    0    0  501 -0.00000000000E+00  0.00000000000E+00  0.11327237889E+03  0.11327237889E+03  0.00000000000E+00 0.  1.
          2   -1    0    0  501    0  0.00000000000E+00 -0.00000000000E+00 -0.16497842484E+03  0.16497842484E+03  0.00000000000E+00 0.  1.
         35    2    1    2    0    0  0.00000000000E+00 -0.35527136788E-14 -0.51706045948E+02  0.27825080374E+03  0.27340445240E+03 0.  0.
         25    2    3    3    0    0 -0.32162477724E+02  0.36768555910E+01  0.21183181715E+02  0.13126769709E+03  0.12543738227E+03 0.  0.
         25    2    3    3    0    0  0.32162477724E+02 -0.36768555910E+01 -0.72889227663E+02  0.14698310665E+03  0.12346355693E+03 0.  0.
          5    1    4    4  502    0  0.29311669593E+01  0.61317011144E+02  0.53904225535E+01  0.61802218817E+02  0.47000000000E+01 0.  1.
         -5    1    4    4    0  502 -0.35093644684E+02 -0.57640155553E+02  0.15792759162E+02  0.69465478270E+02  0.47000000000E+01 0.  1.
          5    1    5    5  503    0  0.35451771131E+02  0.25558806310E+02 -0.98392698617E+02  0.10776499338E+03  0.47000000000E+01 0.  1.
         -5    1    5    5    0  503 -0.32892934064E+01 -0.29235661901E+02  0.25503470954E+02  0.39218113272E+02  0.47000000000E+01 0.  1.
<mgrwt>
<rscale>  0 0.27340445E+03</rscale>
<asrwt>0</asrwt>
<pdfrwt beam="1">  1        2 0.25381296E-01 0.27340445E+03</pdfrwt>
<pdfrwt beam="2">  1       -2 0.17426520E-01 0.27340445E+03</pdfrwt>
<totfact> 0.55834374E+03</totfact>
</mgrwt>
</event>
<event>
 9    1  0.8175317E-001  0.2713937E+03  0.7818608E-02  0.1100485E+00
          2   -1    0    0  501    0  0.00000000000E+00  0.00000000000E+00  0.97063106065E+03  0.97063106065E+03  0.00000000000E+00 0. -1.
         -2   -1    0    0    0  501 -0.00000000000E+00 -0.00000000000E+00 -0.18970781552E+02  0.18970781552E+02  0.00000000000E+00 0. -1.
         35    2    1    2    0    0 -0.71054273576E-14  0.00000000000E+00  0.95166027910E+03  0.98960184220E+03  0.27139366109E+03 0.  0.
         25    2    3    3    0    0  0.69103147454E+01 -0.97755502766E+01  0.29820452113E+03  0.32424584611E+03  0.12675219313E+03 0.  0.
         25    2    3    3    0    0 -0.69103147454E+01  0.97755502766E+01  0.65345575797E+03  0.66535599610E+03  0.12470308771E+03 0.  0.
          5    1    4    4  502    0 -0.38987269429E+02  0.18303105899E+02  0.24367206901E+03  0.24749379402E+03  0.47000000000E+01 0. -1.
         -5    1    4    4    0  502  0.45897584174E+02 -0.28078656176E+02  0.54532452126E+02  0.76752052093E+02  0.47000000000E+01 0. -1.
          5    1    5    5  503    0 -0.47070778732E+02  0.36582103970E+02  0.51865977719E+03  0.52209574123E+03  0.47000000000E+01 0. -1.
         -5    1    5    5    0  503  0.40160463986E+02 -0.26806553694E+02  0.13479598078E+03  0.14326025486E+03  0.47000000000E+01 0. -1.
<mgrwt>
<rscale>  0 0.27139366E+03</rscale>
<asrwt>0</asrwt>
<pdfrwt beam="1">  1        2 0.14932782E+00 0.27139366E+03</pdfrwt>
<pdfrwt beam="2">  1       -2 0.29185825E-02 0.27139366E+03</pdfrwt>
<totfact> 0.12046450E+04</totfact>
</mgrwt>
</event>
<event>
 9    1  0.8175317E-001  0.2730263E+03  0.7818608E-02  0.1099560E+00
          4   -1    0    0  501    0  0.00000000000E+00  0.00000000000E+00  0.19229539825E+04  0.19229539825E+04  0.00000000000E+00 0. -1.
         -4   -1    0    0    0  501 -0.00000000000E+00 -0.00000000000E+00 -0.96912596529E+01  0.96912596529E+01  0.00000000000E+00 0. -1.
         35    2    1    2    0    0  0.00000000000E+00 -0.71054273576E-14  0.19132627228E+04  0.19326452421E+04  0.27302634558E+03 0.  0.
         25    2    3    3    0    0  0.32907669212E+02 -0.45116160222E+02  0.91379033301E+03  0.92389289226E+03  0.12428564301E+03 0.  0.
         25    2    3    3    0    0 -0.32907669212E+02  0.45116160222E+02  0.99947238983E+03  0.10087523499E+04  0.12457071391E+03 0.  0.
          5    1    4    4  502    0 -0.38284043954E+02 -0.46652119173E+02  0.53728099281E+03  0.54068016746E+03  0.47000000000E+01 0. -1.
         -5    1    4    4    0  502  0.71191713166E+02  0.15359589507E+01  0.37650934020E+03  0.38321272480E+03  0.47000000000E+01 0. -1.
          5    1    5    5  503    0 -0.37788982176E+02 -0.37242532469E+02  0.34606278314E+03  0.35013790608E+03  0.47000000000E+01 0. -1.
         -5    1    5    5    0  503  0.48813129643E+01  0.82358692691E+02  0.65340960668E+03  0.65861444380E+03  0.47000000000E+01 0. -1.
<mgrwt>
<rscale>  0 0.27302635E+03</rscale>
<asrwt>0</asrwt>
<pdfrwt beam="1">  1        4 0.29583877E+00 0.27302635E+03</pdfrwt>
<pdfrwt beam="2">  1       -4 0.14909645E-02 0.27302635E+03</pdfrwt>
<totfact> 0.11465510E+02</totfact>
</mgrwt>
</event>
<event>
 9    1  0.8175317E-001  0.2752063E+03  0.7818608E-02  0.1098336E+00
          1   -1    0    0  501    0  0.00000000000E+00  0.00000000000E+00  0.29491903820E+03  0.29491903820E+03  0.00000000000E+00 0. -1.
         -1   -1    0    0    0  501 -0.00000000000E+00 -0.00000000000E+00 -0.64202811573E+02  0.64202811573E+02  0.00000000000E+00 0. -1.
         35    2    1    2    0    0  0.71054273576E-14 -0.35527136788E-14  0.23071622662E+03  0.35912184977E+03  0.27520633306E+03 0.  0.
         25    2    3    3    0    0 -0.45638826429E+02  0.31833589813E+02  0.93176421393E+02  0.16587171374E+03  0.12544042409E+03 0.  0.
         25    2    3    3    0    0  0.45638826429E+02 -0.31833589813E+02  0.13753980523E+03  0.19325013603E+03  0.12382300730E+03 0.  0.
          5    1    4    4  502    0  0.12422087952E+01  0.65413676711E+02  0.12791114652E+02  0.66829595222E+02  0.47000000000E+01 0. -1.
         -5    1    4    4    0  502 -0.46881035224E+02 -0.33580086898E+02  0.80385306741E+02  0.99042118514E+02  0.47000000000E+01 0. -1.
          5    1    5    5  503    0  0.49700192689E+02 -0.22913688497E+02  0.15952911041E+03  0.16872099260E+03  0.47000000000E+01 0. -1.
         -5    1    5    5    0  503 -0.40613662603E+01 -0.89199013155E+01 -0.21989305182E+02  0.24529143437E+02  0.47000000000E+01 0. -1.
<mgrwt>
<rscale>  0 0.27520633E+03</rscale>
<asrwt>0</asrwt>
<pdfrwt beam="1">  1        1 0.45372159E-01 0.27520633E+03</pdfrwt>
<pdfrwt beam="2">  1       -1 0.98773557E-02 0.27520633E+03</pdfrwt>
<totfact> 0.55271842E+03</totfact>
</mgrwt>
</event>
<event>
 9    1  0.8175317E-001  0.2794070E+03  0.7818608E-02  0.1096013E+00
          3   -1    0    0  501    0  0.00000000000E+00  0.00000000000E+00  0.35489359357E+03  0.35489359357E+03  0.00000000000E+00 0.  1.
         -3   -1    0    0    0  501 -0.00000000000E+00 -0.00000000000E+00 -0.54994137574E+02  0.54994137574E+02  0.00000000000E+00 0.  1.
         35    2    1    2    0    0  0.71054273576E-14  0.71054273576E-14  0.29989945600E+03  0.40988773114E+03  0.27940699425E+03 0.  0.
         25    2    3    3    0    0  0.36103676893E+02  0.52404201865E+02  0.13847001058E+03  0.19700310781E+03  0.12484632472E+03 0.  0.
         25    2    3    3    0    0 -0.36103676893E+02 -0.52404201865E+02  0.16142944542E+03  0.21288462334E+03  0.12333175239E+03 0.  0.
          5    1    4    4  502    0  0.54021192571E+02 -0.11021791380E+01  0.80610573018E+01  0.54832241341E+02  0.47000000000E+01 0.  1.
         -5    1    4    4    0  502 -0.17917515678E+02  0.53506381002E+02  0.13040895328E+03  0.14217086646E+03  0.47000000000E+01 0.  1.
          5    1    5    5  503    0 -0.31368066185E+02 -0.58427003356E+02  0.18020033271E+03  0.19207269511E+03  0.47000000000E+01 0. -1.
         -5    1    5    5    0  503 -0.47356107077E+01  0.60228014915E+01 -0.18770887298E+02  0.20811928227E+02  0.47000000000E+01 0. -1.
<mgrwt>
<rscale>  0 0.27940699E+03</rscale>
<asrwt>0</asrwt>
<pdfrwt beam="1">  1        3 0.54599013E-01 0.27940699E+03</pdfrwt>
<pdfrwt beam="2">  1       -3 0.84606367E-02 0.27940699E+03</pdfrwt>
<totfact> 0.82854151E+02</totfact>
</mgrwt>
</event>
<event>
 9    1  0.8175317E-001  0.2754736E+03  0.7818608E-02  0.1098187E+00
         -2   -1    0    0    0  501 -0.00000000000E+00  0.00000000000E+00  0.84309729930E+02  0.84309729930E+02  0.00000000000E+00 0. -1.
          2   -1    0    0  501    0  0.00000000000E+00 -0.00000000000E+00 -0.22502066412E+03  0.22502066412E+03  0.00000000000E+00 0. -1.
         35    2    1    2    0    0  0.00000000000E+00  0.35527136788E-14 -0.14071093419E+03  0.30933039405E+03  0.27547363882E+03 0.  0.
         25    2    3    3    0    0  0.39645060850E+02 -0.27173476900E+02 -0.38188502890E+02  0.13929786440E+03  0.12504161138E+03 0.  0.
         25    2    3    3    0    0 -0.39645060850E+02  0.27173476900E+02 -0.10252243130E+03  0.17003252966E+03  0.12684669300E+03 0.  0.
          5    1    4    4  502    0  0.74269799536E+02  0.15319355555E+01 -0.53376553900E+02  0.91594194444E+02  0.47000000000E+01 0.  1.
         -5    1    4    4    0  502 -0.34624738686E+02 -0.28705412455E+02  0.15188051010E+02  0.47703669951E+02  0.47000000000E+01 0.  1.
          5    1    5    5  503    0 -0.66646996021E+02  0.51844302006E+02 -0.31941900895E+02  0.90399274122E+02  0.47000000000E+01 0. -1.
         -5    1    5    5    0  503  0.27001935171E+02 -0.24670825107E+02 -0.70580530408E+02  0.79633255535E+02  0.47000000000E+01 0. -1.
<mgrwt>
<rscale>  0 0.27547364E+03</rscale>
<asrwt>0</asrwt>
<pdfrwt beam="1">  1        2 0.34618564E-01 0.27547364E+03</pdfrwt>
<pdfrwt beam="2">  1       -2 0.12970728E-01 0.27547364E+03</pdfrwt>
<totfact> 0.64684474E+03</totfact>
</mgrwt>
</event>
<event>
 9    1  0.8175317E-001  0.2705679E+03  0.7818608E-02  0.1100955E+00
          2   -1    0    0  501    0  0.00000000000E+00  0.00000000000E+00  0.12490359909E+04  0.12490359909E+04  0.00000000000E+00 0. -1.
         -2   -1    0    0    0  501 -0.00000000000E+00 -0.00000000000E+00 -0.14652699865E+02  0.14652699865E+02  0.00000000000E+00 0. -1.
         35    2    1    2    0    0  0.00000000000E+00 -0.10658141036E-13  0.12343832911E+04  0.12636886908E+04  0.27056791750E+03 0.  0.
         25    2    3    3    0    0 -0.39998156714E+02  0.26620041971E+02  0.49572969157E+03  0.51305419098E+03  0.12315923273E+03 0.  0.
         25    2    3    3    0    0  0.39998156714E+02 -0.26620041971E+02  0.73865359949E+03  0.75063449980E+03  0.12463760702E+03 0.  0.
          5    1    4    4  502    0 -0.72554484470E+02  0.24118460685E+02  0.45108889631E+03  0.45754686726E+03  0.47000000000E+01 0. -1.
         -5    1    4    4    0  502  0.32556327756E+02  0.25015812859E+01  0.44640795257E+02  0.55507323725E+02  0.47000000000E+01 0. -1.
          5    1    5    5  503    0  0.51242342811E+02 -0.69857063216E+02  0.54316290982E+03  0.55004892835E+03  0.47000000000E+01 0. -1.
         -5    1    5    5    0  503 -0.11244186097E+02  0.43237021245E+02  0.19549068967E+03  0.20058557145E+03  0.47000000000E+01 0. -1.
<mgrwt>
<rscale>  0 0.27056792E+03</rscale>
<asrwt>0</asrwt>
<pdfrwt beam="1">  1        2 0.19215930E+00 0.27056792E+03</pdfrwt>
<pdfrwt beam="2">  1       -2 0.22542625E-02 0.27056792E+03</pdfrwt>
<totfact> 0.12120211E+04</totfact>
</mgrwt>
</event>
<event>
 9    1  0.8175317E-001  0.2767118E+03  0.7818608E-02  0.1097499E+00
          2   -1    0    0  501    0  0.00000000000E+00  0.00000000000E+00  0.34116981170E+03  0.34116981170E+03  0.00000000000E+00 0. -1.
         -2   -1    0    0    0  501 -0.00000000000E+00 -0.00000000000E+00 -0.56108008096E+02  0.56108008096E+02  0.00000000000E+00 0. -1.
         35    2    1    2    0    0  0.00000000000E+00  0.00000000000E+00  0.28506180360E+03  0.39727781979E+03  0.27671182524E+03 0.  0.
         25    2    3    3    0    0  0.45399226856E+02 -0.51118798147E+02  0.14175456321E+03  0.19611916522E+03  0.11702200415E+03 0.  0.
         25    2    3    3    0    0 -0.45399226856E+02  0.51118798147E+02  0.14330724039E+03  0.20115865457E+03  0.12350553768E+03 0.  0.
          5    1    4    4  502    0 -0.12351583092E+02 -0.32657992978E+02 -0.65470163037E+01  0.35833776422E+02  0.47000000000E+01 0. -1.
         -5    1    4    4    0  502  0.57750809948E+02 -0.18460805169E+02  0.14830157951E+03  0.16028538880E+03  0.47000000000E+01 0. -1.
          5    1    5    5  503    0 -0.79670482967E+01  0.81496910115E+02  0.50082620828E+02  0.96101920511E+02  0.47000000000E+01 0. -1.
         -5    1    5    5    0  503 -0.37432178559E+02 -0.30378111968E+02  0.93224619563E+02  0.10505673406E+03  0.47000000000E+01 0. -1.
<mgrwt>
<rscale>  0 0.27671183E+03</rscale>
<asrwt>0</asrwt>
<pdfrwt beam="1">  1        2 0.52487662E-01 0.27671183E+03</pdfrwt>
<pdfrwt beam="2">  1       -2 0.86320015E-02 0.27671183E+03</pdfrwt>
<totfact> 0.79157883E+03</totfact>
</mgrwt>
</event>
<event>
 9    1  0.8175317E-001  0.2805259E+03  0.7818608E-02  0.1095402E+00
         -1   -1    0    0    0  501 -0.00000000000E+00  0.00000000000E+00  0.87307607556E+02  0.87307607556E+02  0.00000000000E+00 0.  1.
          1   -1    0    0  501    0  0.00000000000E+00 -0.00000000000E+00 -0.22533765147E+03  0.22533765147E+03  0.00000000000E+00 0.  1.
         35    2    1    2    0    0  0.35527136788E-14  0.53290705182E-14 -0.13803004391E+03  0.31264525902E+03  0.28052587219E+03 0.  0.
         25    2    3    3    0    0 -0.43762862597E+01 -0.85919317092E+01 -0.57936614623E+00  0.12662152359E+03  0.12625253027E+03 0.  0.
         25    2    3    3    0    0  0.43762862597E+01  0.85919317092E+01 -0.13745067777E+03  0.18602373544E+03  0.12497667044E+03 0.  0.
          5    1    4    4  502    0 -0.52084461593E+02  0.66101069805E+00  0.37790426377E+02  0.64524680552E+02  0.47000000000E+01 0. -1.
         -5    1    4    4    0  502  0.47708175333E+02 -0.92529424073E+01 -0.38369792524E+02  0.62096843036E+02  0.47000000000E+01 0. -1.
          5    1    5    5  503    0 -0.13747451103E+02  0.62435947544E+02 -0.48543633493E+02  0.80410287341E+02  0.47000000000E+01 0. -1.
         -5    1    5    5    0  503  0.18123737363E+02 -0.53844015835E+02 -0.88907044274E+02  0.10561344810E+03  0.47000000000E+01 0. -1.
<mgrwt>
<rscale>  0 0.28052587E+03</rscale>
<asrwt>0</asrwt>
<pdfrwt beam="1">  1        1 0.34667331E-01 0.28052587E+03</pdfrwt>
<pdfrwt beam="2">  1       -1 0.13431940E-01 0.28052587E+03</pdfrwt>
<totfact> 0.48021274E+03</totfact>
</mgrwt>
</event>
<event>
 9    1  0.8175317E-001  0.2889417E+03  0.7818608E-02  0.1090903E+00
         -1   -1    0    0    0  501 -0.00000000000E+00  0.00000000000E+00  0.37489202032E+02  0.37489202032E+02  0.00000000000E+00 0. -1.
          1   -1    0    0  501    0  0.00000000000E+00 -0.00000000000E+00 -0.55674230684E+03  0.55674230684E+03  0.00000000000E+00 0. -1.
         35    2    1    2    0    0  0.00000000000E+00  0.00000000000E+00 -0.51925310481E+03  0.59423150887E+03  0.28894168838E+03 0.  0.
         25    2    3    3    0    0  0.30914988434E+02  0.43347279186E+02 -0.15735222186E+03  0.20763705595E+03  0.12457408301E+03 0.  0.
         25    2    3    3    0    0 -0.30914988434E+02 -0.43347279186E+02 -0.36190088295E+03  0.38659445292E+03  0.12509316058E+03 0.  0.
          5    1    4    4  502    0 -0.62826492196E+01  0.52515200965E+02 -0.83917376203E+01  0.53757132307E+02  0.47000000000E+01 0.  1.
         -5    1    4    4    0  502  0.37197637654E+02 -0.91679217793E+01 -0.14896048424E+03  0.15387992365E+03  0.47000000000E+01 0.  1.
          5    1    5    5  503    0 -0.59248142287E+02 -0.46461951873E+02 -0.11205025521E+03  0.13507925462E+03  0.47000000000E+01 0. -1.
         -5    1    5    5    0  503  0.28333153853E+02  0.31146726875E+01 -0.24985062774E+03  0.25151519830E+03  0.47000000000E+01 0. -1.
<mgrwt>
<rscale>  0 0.28894169E+03</rscale>
<asrwt>0</asrwt>
<pdfrwt beam="1">  1        1 0.85652661E-01 0.28894169E+03</pdfrwt>
<pdfrwt beam="2">  1       -1 0.57675696E-02 0.28894169E+03</pdfrwt>
<totfact> 0.55239018E+03</totfact>
</mgrwt>
</event>
<event>
 9    1  0.8175317E-001  0.2744183E+03  0.7818608E-02  0.1098777E+00
          2   -1    0    0  501    0  0.00000000000E+00  0.00000000000E+00  0.24470240281E+04  0.24470240281E+04  0.00000000000E+00 0. -1.
         -2   -1    0    0    0  501 -0.00000000000E+00 -0.00000000000E+00 -0.76935691074E+01  0.76935691074E+01  0.00000000000E+00 0. -1.
         35    2    1    2    0    0 -0.10658141036E-13  0.71054273576E-14  0.24393304590E+04  0.24547175972E+04  0.27441828268E+03 0.  0.
         25    2    3    3    0    0  0.17495602280E+02 -0.53817300650E+02  0.11108815948E+04  0.11193511074E+04  0.12524610190E+03 0.  0.
         25    2    3    3    0    0 -0.17495602280E+02  0.53817300650E+02  0.13284488642E+04  0.13353664898E+04  0.12338913792E+03 0.  0.
          5    1    4    4  502    0 -0.46697671775E+02 -0.12977332249E+02  0.22569247339E+03  0.23088582946E+03  0.47000000000E+01 0.  1.
         -5    1    4    4    0  502  0.64193274055E+02 -0.40839968401E+02  0.88518912140E+03  0.88846527794E+03  0.47000000000E+01 0.  1.
          5    1    5    5  503    0 -0.44028844381E+02  0.80922959582E+02  0.10874801539E+04  0.10913854680E+04  0.47000000000E+01 0.  1.
         -5    1    5    5    0  503  0.26533242101E+02 -0.27105658933E+02  0.24096871025E+03  0.24398102181E+03  0.47000000000E+01 0.  1.
<mgrwt>
<rscale>  0 0.27441828E+03</rscale>
<asrwt>0</asrwt>
<pdfrwt beam="1">  1        2 0.37646461E+00 0.27441828E+03</pdfrwt>
<pdfrwt beam="2">  1       -2 0.11836280E-02 0.27441828E+03</pdfrwt>
<totfact> 0.71509813E+03</totfact>
</mgrwt>
</event>
<event>
 9    1  0.8175317E-001  0.2743392E+03  0.7818608E-02  0.1098822E+00
         -2   -1    0    0    0  501 -0.00000000000E+00  0.00000000000E+00  0.11272941453E+03  0.11272941453E+03  0.00000000000E+00 0. -1.
          2   -1    0    0  501    0  0.00000000000E+00 -0.00000000000E+00 -0.16690855249E+03  0.16690855249E+03  0.00000000000E+00 0. -1.
         35    2    1    2    0    0 -0.71054273576E-14  0.00000000000E+00 -0.54179137959E+02  0.27963796701E+03  0.27433923089E+03 0.  0.
         25    2    3    3    0    0 -0.15724898340E+01 -0.44073901288E+02  0.12374380362E+02  0.13097285559E+03  0.12270200534E+03 0.  0.
         25    2    3    3    0    0  0.15724898340E+01  0.44073901288E+02 -0.66553518320E+02  0.14866511142E+03  0.12540718901E+03 0.  0.
          5    1    4    4  502    0 -0.39139924239E+02  0.28324517865E+02  0.76010706859E+01  0.49133270371E+02  0.47000000000E+01 0.  1.
         -5    1    4    4    0  502  0.37567434405E+02 -0.72398419154E+02  0.47733096758E+01  0.81839585220E+02  0.47000000000E+01 0.  1.
          5    1    5    5  503    0  0.54777063480E+02  0.55127701038E+02 -0.32527220443E+02  0.84378315787E+02  0.47000000000E+01 0. -1.
         -5    1    5    5    0  503 -0.53204573646E+02 -0.11053799750E+02 -0.34026297877E+02  0.64286795635E+02  0.47000000000E+01 0. -1.
<mgrwt>
<rscale>  0 0.27433923E+03</rscale>
<asrwt>0</asrwt>
<pdfrwt beam="1">  1        2 0.25678239E-01 0.27433923E+03</pdfrwt>
<pdfrwt beam="2">  1       -2 0.17342987E-01 0.27433923E+03</pdfrwt>
<totfact> 0.55568406E+03</totfact>
</mgrwt>
</event>
<event>
 9    1  0.8175317E-001  0.2771027E+03  0.7818608E-02  0.1097282E+00
          2   -1    0    0  501    0  0.00000000000E+00  0.00000000000E+00  0.25187608780E+03  0.25187608780E+03  0.00000000000E+00 0. -1.
         -2   -1    0    0    0  501 -0.00000000000E+00 -0.00000000000E+00 -0.76213978985E+02  0.76213978985E+02  0.00000000000E+00 0. -1.
         35    2    1    2    0    0  0.00000000000E+00  0.00000000000E+00  0.17566210882E+03  0.32809006678E+03  0.27710271642E+03 0.  0.
         25    2    3    3    0    0  0.39461597383E+02  0.44523797284E+02  0.99995855101E+02  0.17053349474E+03  0.12467123003E+03 0.  0.
         25    2    3    3    0    0 -0.39461597383E+02 -0.44523797284E+02  0.75666253715E+02  0.15755657205E+03  0.12473614252E+03 0.  0.
          5    1    4    4  502    0 -0.53700320098E+00 -0.73197115408E+01  0.10437580258E+03  0.10473903147E+03  0.47000000000E+01 0. -1.
         -5    1    4    4    0  502  0.39998600584E+02  0.51843508825E+02 -0.43799474810E+01  0.65794463262E+02  0.47000000000E+01 0. -1.
          5    1    5    5  503    0  0.23661341943E+02 -0.51807115462E+01 -0.23117977253E+02  0.33811680629E+02  0.47000000000E+01 0. -1.
         -5    1    5    5    0  503 -0.63122939327E+02 -0.39343085738E+02  0.98784230968E+02  0.12374489142E+03  0.47000000000E+01 0. -1.
<mgrwt>
<rscale>  0 0.27710272E+03</rscale>
<asrwt>0</asrwt>
<pdfrwt beam="1">  1        2 0.38750167E-01 0.27710272E+03</pdfrwt>
<pdfrwt beam="2">  1       -2 0.11725228E-01 0.27710272E+03</pdfrwt>
<totfact> 0.67426232E+03</totfact>
</mgrwt>
</event>
