<event>
 4    1  0.1807309E-004  0.2502624E+03  0.7818608E-02  0.1113139E+00
         -2   -1    0    0    0  501 -0.00000000000E+00  0.00000000000E+00  0.31483356077E+03  0.31483356077E+03  0.00000000000E+00 0.  1.
          2   -1    0    0  501    0  0.00000000000E+00 -0.00000000000E+00 -0.49733648277E+02  0.49733648277E+02  0.00000000000E+00 0.  1.
         25    1    1    2    0    0 -0.17395225619E+02  0.23519972442E+02  0.16175889736E+03  0.20352327595E+03  0.12000000000E+03 0.  0.
         25    1    1    2    0    0  0.17395225619E+02 -0.23519972442E+02  0.10334101513E+03  0.16104393309E+03  0.12000000000E+03 0.  0.
<mgrwt>
<rscale>  0 0.25026243E+03</rscale>
<asrwt>0</asrwt>
<pdfrwt beam="1">  1        2 0.76513307E-02 0.25026243E+03</pdfrwt>
<pdfrwt beam="2">  1       -2 0.48435931E-01 0.25026243E+03</pdfrwt>
<totfact> 0.36526446E+03</totfact>
</mgrwt>
</event>
<event>
 4    1  0.1807309E-004  0.2735911E+03  0.7818608E-02  0.1099242E+00
          2   -1    0    0  501    0  0.00000000000E+00  0.00000000000E+00  0.44214217805E+02  0.44214217805E+02  0.00000000000E+00 0. -1.
         -2   -1    0    0    0  501 -0.00000000000E+00 -0.00000000000E+00 -0.42323530308E+03  0.42323530308E+03  0.00000000000E+00 0. -1.
         25    1    1    2    0    0  0.13226305780E+02  0.62606302200E+02 -0.16425295026E+03  0.21324520137E+03  0.12000000000E+03 0.  0.
         25    1    1    2    0    0 -0.13226305780E+02 -0.62606302200E+02 -0.21476813502E+03  0.25420431951E+03  0.12000000000E+03 0.  0.
<mgrwt>
<rscale>  0 0.27359107E+03</rscale>
<asrwt>0</asrwt>
<pdfrwt beam="1">  1        2 0.68021870E-02 0.27359107E+03</pdfrwt>
<pdfrwt beam="2">  1       -2 0.65113127E-01 0.27359107E+03</pdfrwt>
<totfact> 0.23280025E+03</totfact>
</mgrwt>
</event>
<event>
 4    1  0.1807309E-004  0.5243210E+03  0.7818608E-02  0.1007619E+00
         -1   -1    0    0    0  501 -0.00000000000E+00  0.00000000000E+00  0.30663116324E+02  0.30663116324E+02  0.00000000000E+00 0.  1.
          1   -1    0    0  501    0  0.00000000000E+00 -0.00000000000E+00 -0.22413942174E+04  0.22413942174E+04  0.00000000000E+00 0.  1.
         25    1    1    2    0    0 -0.28702590898E+02  0.10991378361E+03 -0.22341522924E+03  0.27788350654E+03  0.12000000000E+03 0.  0.
         25    1    1    2    0    0  0.28702590898E+02 -0.10991378361E+03 -0.19873158718E+04  0.19941738272E+04  0.12000000000E+03 0.  0.
<mgrwt>
<rscale>  0 0.52432101E+03</rscale>
<asrwt>0</asrwt>
<pdfrwt beam="1">  1        1 0.34482991E+00 0.52432101E+03</pdfrwt>
<pdfrwt beam="2">  1       -1 0.47174021E-02 0.52432101E+03</pdfrwt>
<totfact> 0.43712459E+02</totfact>
</mgrwt>
</event>
<event>
 4    1  0.1807309E-004  0.2832981E+03  0.7818608E-02  0.1093901E+00
          2   -1    0    0  501    0  0.00000000000E+00  0.00000000000E+00  0.23162916847E+03  0.23162916847E+03  0.00000000000E+00 0.  1.
         -2   -1    0    0    0  501 -0.00000000000E+00 -0.00000000000E+00 -0.86623174908E+02  0.86623174908E+02  0.00000000000E+00 0.  1.
         25    1    1    2    0    0 -0.33235777524E+02 -0.34648000817E+02  0.73917862849E+01  0.12945941207E+03  0.12000000000E+03 0.  0.
         25    1    1    2    0    0  0.33235777524E+02  0.34648000817E+02  0.13761420728E+03  0.18879293131E+03  0.12000000000E+03 0.  0.
<mgrwt>
<rscale>  0 0.28329810E+03</rscale>
<asrwt>0</asrwt>
<pdfrwt beam="1">  1        2 0.35635257E-01 0.28329810E+03</pdfrwt>
<pdfrwt beam="2">  1       -2 0.13326642E-01 0.28329810E+03</pdfrwt>
<totfact> 0.60035681E+03</totfact>
</mgrwt>
</event>
<event>
 4    1  0.1807309E-004  0.3092594E+03  0.7818608E-02  0.1080701E+00
          2   -1    0    0  501    0  0.00000000000E+00  0.00000000000E+00  0.10419670734E+04  0.10419670734E+04  0.00000000000E+00 0.  1.
         -2   -1    0    0    0  501 -0.00000000000E+00 -0.00000000000E+00 -0.22947306419E+02  0.22947306419E+02  0.00000000000E+00 0.  1.
         25    1    1    2    0    0 -0.49993486396E+02  0.83291580518E+02  0.53903151597E+03  0.56070652865E+03  0.12000000000E+03 0.  0.
         25    1    1    2    0    0  0.49993486396E+02 -0.83291580518E+02  0.47998825101E+03  0.50420785116E+03  0.12000000000E+03 0.  0.
<mgrwt>
<rscale>  0 0.30925936E+03</rscale>
<asrwt>0</asrwt>
<pdfrwt beam="1">  1        2 0.16030259E+00 0.30925936E+03</pdfrwt>
<pdfrwt beam="2">  1       -2 0.35303556E-02 0.30925936E+03</pdfrwt>
<totfact> 0.82268452E+03</totfact>
</mgrwt>
</event>
<event>
 4    1  0.1807309E-004  0.5090809E+03  0.7818608E-02  0.1011435E+00
          2   -1    0    0  501    0  0.00000000000E+00  0.00000000000E+00  0.58021460991E+03  0.58021460991E+03  0.00000000000E+00 0.  1.
         -2   -1    0    0    0  501 -0.00000000000E+00 -0.00000000000E+00 -0.11166704897E+03  0.11166704897E+03  0.00000000000E+00 0.  1.
         25    1    1    2    0    0  0.19811755319E+03  0.97412896629E+02  0.28949685807E+03  0.38333832073E+03  0.12000000000E+03 0.  0.
         25    1    1    2    0    0 -0.19811755319E+03 -0.97412896629E+02  0.17905070288E+03  0.30854333815E+03  0.12000000000E+03 0.  0.
<mgrwt>
<rscale>  0 0.50908095E+03</rscale>
<asrwt>0</asrwt>
<pdfrwt beam="1">  1        2 0.89263784E-01 0.50908095E+03</pdfrwt>
<pdfrwt beam="2">  1       -2 0.17179546E-01 0.50908095E+03</pdfrwt>
<totfact> 0.14357658E+03</totfact>
</mgrwt>
</event>
<event>
 4    1  0.1807309E-004  0.2792523E+03  0.7818608E-02  0.1096098E+00
         -1   -1    0    0    0  501 -0.00000000000E+00  0.00000000000E+00  0.83020893462E+02  0.83020893462E+02  0.00000000000E+00 0.  1.
          1   -1    0    0  501    0  0.00000000000E+00 -0.00000000000E+00 -0.23482598140E+03  0.23482598140E+03  0.00000000000E+00 0.  1.
         25    1    1    2    0    0 -0.62688417519E+02  0.25998281899E+02 -0.50714605319E+02  0.14689356536E+03  0.12000000000E+03 0.  0.
         25    1    1    2    0    0  0.62688417519E+02 -0.25998281899E+02 -0.10109048262E+03  0.17095330950E+03  0.12000000000E+03 0.  0.
<mgrwt>
<rscale>  0 0.27925231E+03</rscale>
<asrwt>0</asrwt>
<pdfrwt beam="1">  1        1 0.36127073E-01 0.27925231E+03</pdfrwt>
<pdfrwt beam="2">  1       -1 0.12772445E-01 0.27925231E+03</pdfrwt>
<totfact> 0.49343078E+03</totfact>
</mgrwt>
</event>
<event>
 4    1  0.1807309E-004  0.2744577E+03  0.7818608E-02  0.1098755E+00
          3   -1    0    0  501    0  0.00000000000E+00  0.00000000000E+00  0.40902118733E+02  0.40902118733E+02  0.00000000000E+00 0. -1.
         -3   -1    0    0    0  501 -0.00000000000E+00 -0.00000000000E+00 -0.46041035350E+03  0.46041035350E+03  0.00000000000E+00 0. -1.
         25    1    1    2    0    0  0.34364994557E+02 -0.52115643670E+02 -0.16751499612E+03  0.21530970041E+03  0.12000000000E+03 0.  0.
         25    1    1    2    0    0 -0.34364994557E+02  0.52115643670E+02 -0.25199323865E+03  0.28600277182E+03  0.12000000000E+03 0.  0.
<mgrwt>
<rscale>  0 0.27445771E+03</rscale>
<asrwt>0</asrwt>
<pdfrwt beam="1">  1        3 0.62926338E-02 0.27445771E+03</pdfrwt>
<pdfrwt beam="2">  1       -3 0.70832360E-01 0.27445771E+03</pdfrwt>
<totfact> 0.77688799E+02</totfact>
</mgrwt>
</event>
<event>
 4    1  0.1807309E-004  0.3126141E+03  0.7818608E-02  0.1079100E+00
         -4   -1    0    0    0  501 -0.00000000000E+00  0.00000000000E+00  0.13452252807E+03  0.13452252807E+03  0.00000000000E+00 0. -1.
          4   -1    0    0  501    0  0.00000000000E+00 -0.00000000000E+00 -0.18161939633E+03  0.18161939633E+03  0.00000000000E+00 0. -1.
         25    1    1    2    0    0  0.73688941835E+01 -0.72506944885E+02 -0.93028502467E+02  0.16842167298E+03  0.12000000000E+03 0.  0.
         25    1    1    2    0    0 -0.73688941835E+01  0.72506944885E+02  0.45931634203E+02  0.14772025142E+03  0.12000000000E+03 0.  0.
<mgrwt>
<rscale>  0 0.31261414E+03</rscale>
<asrwt>0</asrwt>
<pdfrwt beam="1">  1        4 0.27941445E-01 0.31261414E+03</pdfrwt>
<pdfrwt beam="2">  1       -4 0.20695774E-01 0.31261414E+03</pdfrwt>
<totfact> 0.49106916E+02</totfact>
</mgrwt>
</event>
<event>
 4    1  0.1807309E-004  0.2716273E+03  0.7818608E-02  0.1100352E+00
          2   -1    0    0  501    0  0.00000000000E+00  0.00000000000E+00  0.10411655626E+03  0.10411655626E+03  0.00000000000E+00 0. -1.
         -2   -1    0    0    0  501 -0.00000000000E+00 -0.00000000000E+00 -0.17716055296E+03  0.17716055296E+03  0.00000000000E+00 0. -1.
         25    1    1    2    0    0 -0.35101192888E+02  0.38382262152E+02 -0.74429248133E+02  0.15048257297E+03  0.12000000000E+03 0.  0.
         25    1    1    2    0    0  0.35101192888E+02 -0.38382262152E+02  0.13852514317E+01  0.13079453625E+03  0.12000000000E+03 0.  0.
<mgrwt>
<rscale>  0 0.27162729E+03</rscale>
<asrwt>0</asrwt>
<pdfrwt beam="1">  1        2 0.16017932E-01 0.27162729E+03</pdfrwt>
<pdfrwt beam="2">  1       -2 0.27255470E-01 0.27162729E+03</pdfrwt>
<totfact> 0.43583021E+03</totfact>
</mgrwt>
</event>
<event>
 4    1  0.1807309E-004  0.2861634E+03  0.7818608E-02  0.1092369E+00
         -1   -1    0    0    0  501 -0.00000000000E+00  0.00000000000E+00  0.18191855015E+02  0.18191855015E+02  0.00000000000E+00 0.  1.
          1   -1    0    0  501    0  0.00000000000E+00 -0.00000000000E+00 -0.11253590489E+04  0.11253590489E+04  0.00000000000E+00 0.  1.
         25    1    1    2    0    0 -0.64645283572E+02 -0.72241114004E+01 -0.38211358039E+03  0.40576099959E+03  0.12000000000E+03 0.  0.
         25    1    1    2    0    0  0.64645283572E+02  0.72241114004E+01 -0.72505361347E+03  0.73778990429E+03  0.12000000000E+03 0.  0.
<mgrwt>
<rscale>  0 0.28616337E+03</rscale>
<asrwt>0</asrwt>
<pdfrwt beam="1">  1        1 0.17313214E+00 0.28616337E+03</pdfrwt>
<pdfrwt beam="2">  1       -1 0.27987473E-02 0.28616337E+03</pdfrwt>
<totfact> 0.54115847E+03</totfact>
</mgrwt>
</event>
<event>
 4    1  0.1807309E-004  0.2808486E+03  0.7818608E-02  0.1095226E+00
          3   -1    0    0  501    0  0.00000000000E+00  0.00000000000E+00  0.74793275667E+02  0.74793275667E+02  0.00000000000E+00 0. -1.
         -3   -1    0    0    0  501 -0.00000000000E+00 -0.00000000000E+00 -0.26364645785E+03  0.26364645785E+03  0.00000000000E+00 0. -1.
         25    1    1    2    0    0  0.52797238861E+00  0.19353730873E+02 -0.96932503308E+01  0.12193770851E+03  0.12000000000E+03 0.  0.
         25    1    1    2    0    0 -0.52797238861E+00 -0.19353730873E+02 -0.17915993186E+03  0.21650202502E+03  0.12000000000E+03 0.  0.
<mgrwt>
<rscale>  0 0.28084859E+03</rscale>
<asrwt>0</asrwt>
<pdfrwt beam="1">  1        3 0.11506658E-01 0.28084859E+03</pdfrwt>
<pdfrwt beam="2">  1       -3 0.40560994E-01 0.28084859E+03</pdfrwt>
<totfact> 0.89819092E+02</totfact>
</mgrwt>
</event>
<event>
 4    1  0.1807309E-004  0.3181306E+03  0.7818608E-02  0.1076513E+00
          1   -1    0    0  501    0  0.00000000000E+00  0.00000000000E+00  0.13216628348E+04  0.13216628348E+04  0.00000000000E+00 0. -1.
         -1   -1    0    0    0  501 -0.00000000000E+00 -0.00000000000E+00 -0.19143893107E+02  0.19143893107E+02  0.00000000000E+00 0. -1.
         25    1    1    2    0    0 -0.33966245001E+02 -0.97517773527E+02  0.71632760698E+03  0.73361342850E+03  0.12000000000E+03 0.  0.
         25    1    1    2    0    0  0.33966245001E+02  0.97517773527E+02  0.58619133473E+03  0.60719329943E+03  0.12000000000E+03 0.  0.
<mgrwt>
<rscale>  0 0.31813061E+03</rscale>
<asrwt>0</asrwt>
<pdfrwt beam="1">  1        1 0.20333267E+00 0.31813061E+03</pdfrwt>
<pdfrwt beam="2">  1       -1 0.29452154E-02 0.31813061E+03</pdfrwt>
<totfact> 0.36629964E+03</totfact>
</mgrwt>
</event>
<event>
 4    1  0.1807309E-004  0.2430848E+03  0.7818608E-02  0.1117755E+00
          1   -1    0    0  501    0  0.00000000000E+00  0.00000000000E+00  0.14432515746E+04  0.14432515746E+04  0.00000000000E+00 0. -1.
         -1   -1    0    0    0  501 -0.00000000000E+00 -0.00000000000E+00 -0.10235606705E+02  0.10235606705E+02  0.00000000000E+00 0. -1.
         25    1    1    2    0    0  0.56805679405E+01 -0.48600551787E+01  0.61010484014E+03  0.62183905068E+03  0.12000000000E+03 0.  0.
         25    1    1    2    0    0 -0.56805679405E+01  0.48600551787E+01  0.82291112775E+03  0.83164813062E+03  0.12000000000E+03 0.  0.
<mgrwt>
<rscale>  0 0.24308480E+03</rscale>
<asrwt>0</asrwt>
<pdfrwt beam="1">  1        1 0.22203854E+00 0.24308480E+03</pdfrwt>
<pdfrwt beam="2">  1       -1 0.15747099E-02 0.24308480E+03</pdfrwt>
<totfact> 0.75692124E+03</totfact>
</mgrwt>
</event>
<event>
 4    1  0.1807309E-004  0.2593653E+03  0.7818608E-02  0.1107525E+00
         -2   -1    0    0    0  501 -0.00000000000E+00  0.00000000000E+00  0.29275605383E+02  0.29275605383E+02  0.00000000000E+00 0. -1.
          2   -1    0    0  501    0  0.00000000000E+00 -0.00000000000E+00 -0.57445725003E+03  0.57445725003E+03  0.00000000000E+00 0. -1.
         25    1    1    2    0    0  0.19217746882E+02  0.29975132939E+02 -0.19366204750E+03  0.23059232215E+03  0.12000000000E+03 0.  0.
         25    1    1    2    0    0 -0.19217746882E+02 -0.29975132939E+02 -0.35151959714E+03  0.37314053326E+03  0.12000000000E+03 0.  0.
<mgrwt>
<rscale>  0 0.25936525E+03</rscale>
<asrwt>0</asrwt>
<pdfrwt beam="1">  1        2 0.88378046E-01 0.25936525E+03</pdfrwt>
<pdfrwt beam="2">  1       -2 0.45039389E-02 0.25936525E+03</pdfrwt>
<totfact> 0.12086815E+04</totfact>
</mgrwt>
</event>
<event>
 4    1  0.1807309E-004  0.3199174E+03  0.7818608E-02  0.1075687E+00
         -2   -1    0    0    0  501 -0.00000000000E+00  0.00000000000E+00  0.13356843851E+03  0.13356843851E+03  0.00000000000E+00 0. -1.
          2   -1    0    0  501    0  0.00000000000E+00 -0.00000000000E+00 -0.19156311596E+03  0.19156311596E+03  0.00000000000E+00 0. -1.
         25    1    1    2    0    0  0.62276482880E+02  0.78347831244E+02  0.57660592351E+01  0.15636492708E+03  0.12000000000E+03 0.  0.
         25    1    1    2    0    0 -0.62276482880E+02 -0.78347831244E+02 -0.63760736679E+02  0.16876662740E+03  0.12000000000E+03 0.  0.
<mgrwt>
<rscale>  0 0.31991740E+03</rscale>
<asrwt>0</asrwt>
<pdfrwt beam="1">  1        2 0.29471248E-01 0.31991740E+03</pdfrwt>
<pdfrwt beam="2">  1       -2 0.20548991E-01 0.31991740E+03</pdfrwt>
<totfact> 0.35902653E+03</totfact>
</mgrwt>
</event>
<event>
 4    1  0.1807309E-004  0.3163549E+03  0.7818608E-02  0.1077339E+00
         -1   -1    0    0    0  501 -0.00000000000E+00  0.00000000000E+00  0.19981124734E+02  0.19981124734E+02  0.00000000000E+00 0.  1.
          1   -1    0    0  501    0  0.00000000000E+00 -0.00000000000E+00 -0.12521874202E+04  0.12521874202E+04  0.00000000000E+00 0.  1.
         25    1    1    2    0    0  0.67098633515E+02  0.25404981119E+02 -0.91358594152E+03  0.92422232836E+03  0.12000000000E+03 0.  0.
         25    1    1    2    0    0 -0.67098633515E+02 -0.25404981119E+02 -0.31862035397E+03  0.34794621661E+03  0.12000000000E+03 0.  0.
<mgrwt>
<rscale>  0 0.31635495E+03</rscale>
<asrwt>0</asrwt>
<pdfrwt beam="1">  1        1 0.19264419E+00 0.31635495E+03</pdfrwt>
<pdfrwt beam="2">  1       -1 0.30740196E-02 0.31635495E+03</pdfrwt>
<totfact> 0.38385178E+03</totfact>
</mgrwt>
</event>
<event>
 4    1  0.1807309E-004  0.3221928E+03  0.7818608E-02  0.1074645E+00
          3   -1    0    0  501    0  0.00000000000E+00  0.00000000000E+00  0.81516902570E+02  0.81516902570E+02  0.00000000000E+00 0. -1.
         -3   -1    0    0    0  501 -0.00000000000E+00 -0.00000000000E+00 -0.31836400748E+03  0.31836400748E+03  0.00000000000E+00 0. -1.
         25    1    1    2    0    0 -0.53993570904E+02  0.39518086979E+02 -0.14028477085E+02  0.13810786751E+03  0.12000000000E+03 0.  0.
         25    1    1    2    0    0  0.53993570904E+02 -0.39518086979E+02 -0.22281862782E+03  0.26177304254E+03  0.12000000000E+03 0.  0.
<mgrwt>
<rscale>  0 0.32219279E+03</rscale>
<asrwt>0</asrwt>
<pdfrwt beam="1">  1        3 0.12541062E-01 0.32219279E+03</pdfrwt>
<pdfrwt beam="2">  1       -3 0.48979078E-01 0.32219279E+03</pdfrwt>
<totfact> 0.54085607E+02</totfact>
</mgrwt>
</event>
<event>
 4    1  0.1807309E-004  0.2554411E+03  0.7818608E-02  0.1109914E+00
          2   -1    0    0  501    0  0.00000000000E+00  0.00000000000E+00  0.10380164969E+04  0.10380164969E+04  0.00000000000E+00 0. -1.
         -2   -1    0    0    0  501 -0.00000000000E+00 -0.00000000000E+00 -0.15715107418E+02  0.15715107418E+02  0.00000000000E+00 0. -1.
         25    1    1    2    0    0 -0.42193716049E+02  0.14597143617E+01  0.46409866421E+03  0.48121721765E+03  0.12000000000E+03 0.  0.
         25    1    1    2    0    0  0.42193716049E+02 -0.14597143617E+01  0.55820272523E+03  0.57251438662E+03  0.12000000000E+03 0.  0.
<mgrwt>
<rscale>  0 0.25544111E+03</rscale>
<asrwt>0</asrwt>
<pdfrwt beam="1">  1        2 0.15969479E+00 0.25544111E+03</pdfrwt>
<pdfrwt beam="2">  1       -2 0.24177097E-02 0.25544111E+03</pdfrwt>
<totfact> 0.14450933E+04</totfact>
</mgrwt>
</event>
<event>
 4    1  0.1807309E-004  0.3172095E+03  0.7818608E-02  0.1076941E+00
         -1   -1    0    0    0  501 -0.00000000000E+00  0.00000000000E+00  0.12372805846E+02  0.12372805846E+02  0.00000000000E+00 0. -1.
          1   -1    0    0  501    0  0.00000000000E+00 -0.00000000000E+00 -0.20331250769E+04  0.20331250769E+04  0.00000000000E+00 0. -1.
         25    1    1    2    0    0  0.99720297020E+01  0.94351888279E+02 -0.74033141082E+03  0.75597110926E+03  0.12000000000E+03 0.  0.
         25    1    1    2    0    0 -0.99720297020E+01 -0.94351888279E+02 -0.12804208602E+04  0.12895267735E+04  0.12000000000E+03 0.  0.
<mgrwt>
<rscale>  0 0.31720947E+03</rscale>
<asrwt>0</asrwt>
<pdfrwt beam="1">  1        1 0.31278840E+00 0.31720947E+03</pdfrwt>
<pdfrwt beam="2">  1       -1 0.19035091E-02 0.31720947E+03</pdfrwt>
<totfact> 0.23626168E+03</totfact>
</mgrwt>
</event>
<event>
 4    1  0.1807309E-004  0.2758263E+03  0.7818608E-02  0.1097991E+00
          4   -1    0    0  501    0  0.00000000000E+00  0.00000000000E+00  0.24045445808E+03  0.24045445808E+03  0.00000000000E+00 0. -1.
         -4   -1    0    0    0  501 -0.00000000000E+00 -0.00000000000E+00 -0.79100351485E+02  0.79100351485E+02  0.00000000000E+00 0. -1.
         25    1    1    2    0    0  0.29676340596E+02  0.42971786305E+02  0.13108035114E+03  0.18522774647E+03  0.12000000000E+03 0.  0.
         25    1    1    2    0    0 -0.29676340596E+02 -0.42971786305E+02  0.30273755459E+02  0.13432706309E+03  0.12000000000E+03 0.  0.
<mgrwt>
<rscale>  0 0.27582627E+03</rscale>
<asrwt>0</asrwt>
<pdfrwt beam="1">  1        4 0.36992993E-01 0.27582627E+03</pdfrwt>
<pdfrwt beam="2">  1       -4 0.12169285E-01 0.27582627E+03</pdfrwt>
<totfact> 0.72192456E+02</totfact>
</mgrwt>
</event>
<event>
 4    1  0.1807309E-004  0.2677191E+03  0.7818608E-02  0.1102592E+00
          2   -1    0    0  501    0  0.00000000000E+00  0.00000000000E+00  0.56227574275E+03  0.56227574275E+03  0.00000000000E+00 0.  1.
         -2   -1    0    0    0  501 -0.00000000000E+00 -0.00000000000E+00 -0.31867599654E+02  0.31867599654E+02  0.00000000000E+00 0.  1.
         25    1    1    2    0    0  0.11106385005E+02  0.16522678235E+02  0.14120162413E+03  0.18637126748E+03  0.12000000000E+03 0.  0.
         25    1    1    2    0    0 -0.11106385005E+02 -0.16522678235E+02  0.38920651897E+03  0.40777207493E+03  0.12000000000E+03 0.  0.
<mgrwt>
<rscale>  0 0.26771909E+03</rscale>
<asrwt>0</asrwt>
<pdfrwt beam="1">  1        2 0.86503953E-01 0.26771909E+03</pdfrwt>
<pdfrwt beam="2">  1       -2 0.49027081E-02 0.26771909E+03</pdfrwt>
<totfact> 0.10908595E+04</totfact>
</mgrwt>
</event>
<event>
 4    1  0.1807309E-004  0.2672172E+03  0.7818608E-02  0.1102883E+00
          4   -1    0    0  501    0  0.00000000000E+00  0.00000000000E+00  0.27075095029E+03  0.27075095029E+03  0.00000000000E+00 0.  1.
         -4   -1    0    0    0  501 -0.00000000000E+00 -0.00000000000E+00 -0.65932392323E+02  0.65932392323E+02  0.00000000000E+00 0.  1.
         25    1    1    2    0    0  0.43990744585E+02  0.38827948422E+02  0.10607459478E+03  0.17057143619E+03  0.12000000000E+03 0.  0.
         25    1    1    2    0    0 -0.43990744585E+02 -0.38827948422E+02  0.98743963190E+02  0.16611190642E+03  0.12000000000E+03 0.  0.
<mgrwt>
<rscale>  0 0.26721720E+03</rscale>
<asrwt>0</asrwt>
<pdfrwt beam="1">  1        4 0.41653992E-01 0.26721720E+03</pdfrwt>
<pdfrwt beam="2">  1       -4 0.10143445E-01 0.26721720E+03</pdfrwt>
<totfact> 0.77631298E+02</totfact>
</mgrwt>
</event>
<event>
 4    1  0.1807309E-004  0.3593757E+03  0.7818608E-02  0.1058831E+00
          1   -1    0    0  501    0  0.00000000000E+00  0.00000000000E+00  0.89581376023E+02  0.89581376023E+02  0.00000000000E+00 0. -1.
         -1   -1    0    0    0  501 -0.00000000000E+00 -0.00000000000E+00 -0.36042893405E+03  0.36042893405E+03  0.00000000000E+00 0. -1.
         25    1    1    2    0    0 -0.34683180188E+02  0.84411111957E+02 -0.12992395915E+02  0.15131741857E+03  0.12000000000E+03 0.  0.
         25    1    1    2    0    0  0.34683180188E+02 -0.84411111957E+02 -0.25785516211E+03  0.29869289151E+03  0.12000000000E+03 0.  0.
<mgrwt>
<rscale>  0 0.35937568E+03</rscale>
<asrwt>0</asrwt>
<pdfrwt beam="1">  1        1 0.13781750E-01 0.35937568E+03</pdfrwt>
<pdfrwt beam="2">  1       -1 0.55450605E-01 0.35937568E+03</pdfrwt>
<totfact> 0.14152759E+03</totfact>
</mgrwt>
</event>
<event>
 4    1  0.1807309E-004  0.2787480E+03  0.7818608E-02  0.1096375E+00
         -2   -1    0    0    0  501 -0.00000000000E+00  0.00000000000E+00  0.88747936217E+02  0.88747936217E+02  0.00000000000E+00 0.  1.
          2   -1    0    0  501    0  0.00000000000E+00 -0.00000000000E+00 -0.21887951659E+03  0.21887951659E+03  0.00000000000E+00 0.  1.
         25    1    1    2    0    0 -0.29167442441E+02 -0.10465515042E+02 -0.13542728527E+03  0.18357782083E+03  0.12000000000E+03 0.  0.
         25    1    1    2    0    0  0.29167442441E+02  0.10465515042E+02  0.52957049001E+01  0.12404963198E+03  0.12000000000E+03 0.  0.
<mgrwt>
<rscale>  0 0.27874795E+03</rscale>
<asrwt>0</asrwt>
<pdfrwt beam="1">  1        2 0.33673771E-01 0.27874795E+03</pdfrwt>
<pdfrwt beam="2">  1       -2 0.13653529E-01 0.27874795E+03</pdfrwt>
<totfact> 0.61333570E+03</totfact>
</mgrwt>
</event>
<event>
 4    1  0.1807309E-004  0.4175900E+03  0.7818608E-02  0.1037854E+00
          3   -1    0    0  501    0  0.00000000000E+00  0.00000000000E+00  0.19932754522E+03  0.19932754522E+03  0.00000000000E+00 0. -1.
         -3   -1    0    0    0  501 -0.00000000000E+00 -0.00000000000E+00 -0.21871209408E+03  0.21871209408E+03  0.00000000000E+00 0. -1.
         25    1    1    2    0    0  0.27715048048E+02 -0.54641698431E+02 -0.16936796960E+03  0.21642400103E+03  0.12000000000E+03 0.  0.
         25    1    1    2    0    0 -0.27715048048E+02  0.54641698431E+02  0.14998342074E+03  0.20161563826E+03  0.12000000000E+03 0.  0.
<mgrwt>
<rscale>  0 0.41758997E+03</rscale>
<asrwt>0</asrwt>
<pdfrwt beam="1">  1        3 0.30665776E-01 0.41758997E+03</pdfrwt>
<pdfrwt beam="2">  1       -3 0.33648015E-01 0.41758997E+03</pdfrwt>
<totfact> 0.23273157E+02</totfact>
</mgrwt>
</event>
<event>
 4    1  0.1807309E-004  0.3460543E+03  0.7818608E-02  0.1064246E+00
         -1   -1    0    0    0  501 -0.00000000000E+00  0.00000000000E+00  0.35141266474E+02  0.35141266474E+02  0.00000000000E+00 0. -1.
          1   -1    0    0  501    0  0.00000000000E+00 -0.00000000000E+00 -0.85194420945E+03  0.85194420945E+03  0.00000000000E+00 0. -1.
         25    1    1    2    0    0 -0.30924867169E+02 -0.70967736062E+01 -0.99386723915E+02  0.15901079365E+03  0.12000000000E+03 0.  0.
         25    1    1    2    0    0  0.30924867169E+02  0.70967736062E+01 -0.71741621906E+03  0.72807468228E+03  0.12000000000E+03 0.  0.
<mgrwt>
<rscale>  0 0.34605432E+03</rscale>
<asrwt>0</asrwt>
<pdfrwt beam="1">  1        1 0.13106835E+00 0.34605432E+03</pdfrwt>
<pdfrwt beam="2">  1       -1 0.54063484E-02 0.34605432E+03</pdfrwt>
<totfact> 0.32740842E+03</totfact>
</mgrwt>
</event>
<event>
 4    1  0.1807309E-004  0.3106585E+03  0.7818608E-02  0.1080031E+00
         -1   -1    0    0    0  501 -0.00000000000E+00  0.00000000000E+00  0.21797875054E+02  0.21797875054E+02  0.00000000000E+00 0. -1.
          1   -1    0    0  501    0  0.00000000000E+00 -0.00000000000E+00 -0.11068588213E+04  0.11068588213E+04  0.00000000000E+00 0. -1.
         25    1    1    2    0    0 -0.51035202900E+02 -0.75104829530E+02 -0.68238604038E+03  0.69878182250E+03  0.12000000000E+03 0.  0.
         25    1    1    2    0    0  0.51035202900E+02  0.75104829530E+02 -0.40267490585E+03  0.42987487383E+03  0.12000000000E+03 0.  0.
<mgrwt>
<rscale>  0 0.31065846E+03</rscale>
<asrwt>0</asrwt>
<pdfrwt beam="1">  1        1 0.17028600E+00 0.31065846E+03</pdfrwt>
<pdfrwt beam="2">  1       -1 0.33535187E-02 0.31065846E+03</pdfrwt>
<totfact> 0.42740455E+03</totfact>
</mgrwt>
</event>
<event>
 4    1  0.1807309E-004  0.4079802E+03  0.7818608E-02  0.1041051E+00
          2   -1    0    0  501    0  0.00000000000E+00  0.00000000000E+00  0.19726535791E+03  0.19726535791E+03  0.00000000000E+00 0.  1.
         -2   -1    0    0    0  501 -0.00000000000E+00 -0.00000000000E+00 -0.21094407349E+03  0.21094407349E+03  0.00000000000E+00 0.  1.
         25    1    1    2    0    0  0.54998731404E+02  0.14971548758E+03 -0.48962544221E+02  0.20551622421E+03  0.12000000000E+03 0.  0.
         25    1    1    2    0    0 -0.54998731404E+02 -0.14971548758E+03  0.35283828645E+02  0.20269320719E+03  0.12000000000E+03 0.  0.
<mgrwt>
<rscale>  0 0.40798019E+03</rscale>
<asrwt>0</asrwt>
<pdfrwt beam="1">  1        2 0.30348516E-01 0.40798019E+03</pdfrwt>
<pdfrwt beam="2">  1       -2 0.32452935E-01 0.40798019E+03</pdfrwt>
<totfact> 0.15426348E+03</totfact>
</mgrwt>
</event>
<event>
 4    1  0.1807309E-004  0.2810923E+03  0.7818608E-02  0.1095094E+00
          2   -1    0    0  501    0  0.00000000000E+00  0.00000000000E+00  0.22248776104E+03  0.22248776104E+03  0.00000000000E+00 0.  1.
         -2   -1    0    0    0  501 -0.00000000000E+00 -0.00000000000E+00 -0.88783412195E+02  0.88783412195E+02  0.00000000000E+00 0.  1.
         25    1    1    2    0    0 -0.72093682881E+02  0.12413594514E+02  0.65440056007E+02  0.15502902106E+03  0.12000000000E+03 0.  0.
         25    1    1    2    0    0  0.72093682881E+02 -0.12413594514E+02  0.68264292839E+02  0.15624215218E+03  0.12000000000E+03 0.  0.
<mgrwt>
<rscale>  0 0.28109232E+03</rscale>
<asrwt>0</asrwt>
<pdfrwt beam="1">  1        2 0.34228886E-01 0.28109232E+03</pdfrwt>
<pdfrwt beam="2">  1       -2 0.13658987E-01 0.28109232E+03</pdfrwt>
<totfact> 0.60230390E+03</totfact>
</mgrwt>
</event>
<event>
 4    1  0.1807309E-004  0.3742657E+03  0.7818608E-02  0.1053074E+00
          1   -1    0    0  501    0  0.00000000000E+00  0.00000000000E+00  0.13591755561E+03  0.13591755561E+03  0.00000000000E+00 0.  1.
         -1   -1    0    0    0  501 -0.00000000000E+00 -0.00000000000E+00 -0.25764668804E+03  0.25764668804E+03  0.00000000000E+00 0.  1.
         25    1    1    2    0    0  0.11168630101E+03 -0.43505853735E+01 -0.15565678064E+03  0.22610128435E+03  0.12000000000E+03 0.  0.
         25    1    1    2    0    0 -0.11168630101E+03  0.43505853735E+01  0.33927648211E+02  0.16746295931E+03  0.12000000000E+03 0.  0.
<mgrwt>
<rscale>  0 0.37426572E+03</rscale>
<asrwt>0</asrwt>
<pdfrwt beam="1">  1        1 0.20910394E-01 0.37426572E+03</pdfrwt>
<pdfrwt beam="2">  1       -1 0.39637951E-01 0.37426572E+03</pdfrwt>
<totfact> 0.15190772E+03</totfact>
</mgrwt>
</event>
<event>
 4    1  0.1807309E-004  0.2603012E+03  0.7818608E-02  0.1106962E+00
          1   -1    0    0  501    0  0.00000000000E+00  0.00000000000E+00  0.11547942873E+03  0.11547942873E+03  0.00000000000E+00 0. -1.
         -1   -1    0    0    0  501 -0.00000000000E+00 -0.00000000000E+00 -0.14668563744E+03  0.14668563744E+03  0.00000000000E+00 0. -1.
         25    1    1    2    0    0 -0.39954551881E+02 -0.28878947515E+02 -0.50970249121E+01  0.12983196636E+03  0.12000000000E+03 0.  0.
         25    1    1    2    0    0  0.39954551881E+02  0.28878947515E+02 -0.26109183803E+02  0.13233309981E+03  0.12000000000E+03 0.  0.
<mgrwt>
<rscale>  0 0.26030116E+03</rscale>
<asrwt>0</asrwt>
<pdfrwt beam="1">  1        1 0.17766066E-01 0.26030116E+03</pdfrwt>
<pdfrwt beam="2">  1       -1 0.22567021E-01 0.26030116E+03</pdfrwt>
<totfact> 0.48781471E+03</totfact>
</mgrwt>
</event>
<event>
 4    1  0.1807309E-004  0.2973723E+03  0.7818608E-02  0.1086562E+00
         -3   -1    0    0    0  501 -0.00000000000E+00  0.00000000000E+00  0.88981775535E+03  0.88981775535E+03  0.00000000000E+00 0. -1.
          3   -1    0    0  501    0  0.00000000000E+00 -0.00000000000E+00 -0.24845054289E+02  0.24845054289E+02  0.00000000000E+00 0. -1.
         25    1    1    2    0    0  0.30536118288E+02  0.16041352090E+02  0.18416690505E+03  0.22250219867E+03  0.12000000000E+03 0.  0.
         25    1    1    2    0    0 -0.30536118288E+02 -0.16041352090E+02  0.68080579602E+03  0.69216061097E+03  0.12000000000E+03 0.  0.
<mgrwt>
<rscale>  0 0.29737229E+03</rscale>
<asrwt>0</asrwt>
<pdfrwt beam="1">  1        3 0.38223167E-02 0.29737229E+03</pdfrwt>
<pdfrwt beam="2">  1       -3 0.13689502E+00 0.29737229E+03</pdfrwt>
<totfact> 0.38217961E+02</totfact>
</mgrwt>
</event>
<event>
 4    1  0.1807309E-004  0.4007849E+03  0.7818608E-02  0.1043508E+00
          2   -1    0    0  501    0  0.00000000000E+00  0.00000000000E+00  0.14855705489E+04  0.14855705489E+04  0.00000000000E+00 0. -1.
         -2   -1    0    0    0  501 -0.00000000000E+00 -0.00000000000E+00 -0.27031451590E+02  0.27031451590E+02  0.00000000000E+00 0. -1.
         25    1    1    2    0    0 -0.12724679415E+03 -0.12727438510E+01  0.10983556808E+04  0.11121953821E+04  0.12000000000E+03 0.  0.
         25    1    1    2    0    0  0.12724679415E+03  0.12727438510E+01  0.36018341656E+03  0.40040661841E+03  0.12000000000E+03 0.  0.
<mgrwt>
<rscale>  0 0.40078487E+03</rscale>
<asrwt>0</asrwt>
<pdfrwt beam="1">  1        2 0.22854925E+00 0.40078487E+03</pdfrwt>
<pdfrwt beam="2">  1       -2 0.41586860E-02 0.40078487E+03</pdfrwt>
<totfact> 0.36035109E+03</totfact>
</mgrwt>
</event>
<event>
 4    1  0.1807309E-004  0.2674569E+03  0.7818608E-02  0.1102744E+00
         -3   -1    0    0    0  501 -0.00000000000E+00  0.00000000000E+00  0.46843283930E+03  0.46843283930E+03  0.00000000000E+00 0.  1.
          3   -1    0    0  501    0  0.00000000000E+00 -0.00000000000E+00 -0.38176866022E+02  0.38176866022E+02  0.00000000000E+00 0.  1.
         25    1    1    2    0    0  0.70586592077E+00 -0.56546076511E+02  0.24712442150E+03  0.28047894166E+03  0.12000000000E+03 0.  0.
         25    1    1    2    0    0 -0.70586592077E+00  0.56546076511E+02  0.18313155178E+03  0.22613076366E+03  0.12000000000E+03 0.  0.
<mgrwt>
<rscale>  0 0.26745690E+03</rscale>
<asrwt>0</asrwt>
<pdfrwt beam="1">  1        3 0.58733643E-02 0.26745690E+03</pdfrwt>
<pdfrwt beam="2">  1       -3 0.72066587E-01 0.26745690E+03</pdfrwt>
<totfact> 0.83448067E+02</totfact>
</mgrwt>
</event>
<event>
 4    1  0.1807309E-004  0.3207274E+03  0.7818608E-02  0.1075315E+00
         -2   -1    0    0    0  501 -0.00000000000E+00  0.00000000000E+00  0.14272591560E+03  0.14272591560E+03  0.00000000000E+00 0.  1.
          2   -1    0    0  501    0  0.00000000000E+00 -0.00000000000E+00 -0.18018113422E+03  0.18018113422E+03  0.00000000000E+00 0.  1.
         25    1    1    2    0    0 -0.37119745397E+02  0.51788991543E+02  0.67036645224E+02  0.15150540237E+03  0.12000000000E+03 0.  0.
         25    1    1    2    0    0  0.37119745397E+02 -0.51788991543E+02 -0.10449186384E+03  0.17140164746E+03  0.12000000000E+03 0.  0.
<mgrwt>
<rscale>  0 0.32072741E+03</rscale>
<asrwt>0</asrwt>
<pdfrwt beam="1">  1        2 0.27720174E-01 0.32072741E+03</pdfrwt>
<pdfrwt beam="2">  1       -2 0.21957833E-01 0.32072741E+03</pdfrwt>
<totfact> 0.34259210E+03</totfact>
</mgrwt>
</event>
<event>
 4    1  0.1807309E-004  0.2884801E+03  0.7818608E-02  0.1091145E+00
         -2   -1    0    0    0  501 -0.00000000000E+00  0.00000000000E+00  0.94295894686E+01  0.94295894686E+01  0.00000000000E+00 0. -1.
          2   -1    0    0  501    0  0.00000000000E+00 -0.00000000000E+00 -0.22063728687E+04  0.22063728687E+04  0.00000000000E+00 0. -1.
         25    1    1    2    0    0 -0.35526385936E+02  0.72981045917E+01 -0.16464529214E+04  0.16512185224E+04  0.12000000000E+03 0.  0.
         25    1    1    2    0    0  0.35526385936E+02 -0.72981045917E+01 -0.55049035780E+03  0.56458393571E+03  0.12000000000E+03 0.  0.
<mgrwt>
<rscale>  0 0.28848009E+03</rscale>
<asrwt>0</asrwt>
<pdfrwt beam="1">  1        2 0.33944214E+00 0.28848009E+03</pdfrwt>
<pdfrwt beam="2">  1       -2 0.14507054E-02 0.28848009E+03</pdfrwt>
<totfact> 0.71596073E+03</totfact>
</mgrwt>
</event>
<event>
 4    1  0.1807309E-004  0.2740617E+03  0.7818608E-02  0.1098977E+00
         -2   -1    0    0    0  501 -0.00000000000E+00  0.00000000000E+00  0.79029096729E+02  0.79029096729E+02  0.00000000000E+00 0. -1.
          2   -1    0    0  501    0  0.00000000000E+00 -0.00000000000E+00 -0.23760172210E+03  0.23760172210E+03  0.00000000000E+00 0. -1.
         25    1    1    2    0    0 -0.17857179519E+02  0.57083517347E+02 -0.11196476363E+03  0.17468118132E+03  0.12000000000E+03 0.  0.
         25    1    1    2    0    0  0.17857179519E+02 -0.57083517347E+02 -0.46607861744E+02  0.14194963751E+03  0.12000000000E+03 0.  0.
<mgrwt>
<rscale>  0 0.27406167E+03</rscale>
<asrwt>0</asrwt>
<pdfrwt beam="1">  1        2 0.36554111E-01 0.27406167E+03</pdfrwt>
<pdfrwt beam="2">  1       -2 0.12158323E-01 0.27406167E+03</pdfrwt>
<totfact> 0.67707870E+03</totfact>
</mgrwt>
</event>
<event>
 4    1  0.1807309E-004  0.2843385E+03  0.7818608E-02  0.1093343E+00
          2   -1    0    0  501    0  0.00000000000E+00  0.00000000000E+00  0.24242360576E+04  0.24242360576E+04  0.00000000000E+00 0. -1.
         -2   -1    0    0    0  501 -0.00000000000E+00 -0.00000000000E+00 -0.83375127918E+01  0.83375127918E+01  0.00000000000E+00 0. -1.
         25    1    1    2    0    0 -0.16080468240E+01  0.74063615737E+02  0.10539332602E+04  0.10633265359E+04  0.12000000000E+03 0.  0.
         25    1    1    2    0    0  0.16080468240E+01 -0.74063615737E+02  0.13619652847E+04  0.13692470345E+04  0.12000000000E+03 0.  0.
<mgrwt>
<rscale>  0 0.28433852E+03</rscale>
<asrwt>0</asrwt>
<pdfrwt beam="1">  1        2 0.37295883E+00 0.28433852E+03</pdfrwt>
<pdfrwt beam="2">  1       -2 0.12826962E-02 0.28433852E+03</pdfrwt>
<totfact> 0.65433996E+03</totfact>
</mgrwt>
</event>
<event>
 4    1  0.1807309E-004  0.3103025E+03  0.7818608E-02  0.1080201E+00
         -1   -1    0    0    0  501 -0.00000000000E+00  0.00000000000E+00  0.13172970323E+02  0.13172970323E+02  0.00000000000E+00 0.  1.
          1   -1    0    0  501    0  0.00000000000E+00 -0.00000000000E+00 -0.18273711884E+04  0.18273711884E+04  0.00000000000E+00 0.  1.
         25    1    1    2    0    0 -0.75950636059E+02  0.20499242597E+02 -0.12571647472E+04  0.12653268035E+04  0.12000000000E+03 0.  0.
         25    1    1    2    0    0  0.75950636059E+02 -0.20499242597E+02 -0.55703347080E+03  0.57521735514E+03  0.12000000000E+03 0.  0.
<mgrwt>
<rscale>  0 0.31030247E+03</rscale>
<asrwt>0</asrwt>
<pdfrwt beam="1">  1        1 0.28113400E+00 0.31030247E+03</pdfrwt>
<pdfrwt beam="2">  1       -1 0.20266110E-02 0.31030247E+03</pdfrwt>
<totfact> 0.29355559E+03</totfact>
</mgrwt>
</event>
<event>
 4    1  0.1807309E-004  0.2507447E+03  0.7818608E-02  0.1112835E+00
         -2   -1    0    0    0  501 -0.00000000000E+00  0.00000000000E+00  0.93951464976E+02  0.93951464976E+02  0.00000000000E+00 0. -1.
          2   -1    0    0  501    0  0.00000000000E+00 -0.00000000000E+00 -0.16730159282E+03  0.16730159282E+03  0.00000000000E+00 0. -1.
         25    1    1    2    0    0  0.14436977389E+02 -0.27113552923E+01 -0.20803765451E+01  0.12091362922E+03  0.12000000000E+03 0.  0.
         25    1    1    2    0    0 -0.14436977389E+02  0.27113552923E+01 -0.71269751296E+02  0.14033942858E+03  0.12000000000E+03 0.  0.
<mgrwt>
<rscale>  0 0.25074473E+03</rscale>
<asrwt>0</asrwt>
<pdfrwt beam="1">  1        2 0.25738706E-01 0.25074473E+03</pdfrwt>
<pdfrwt beam="2">  1       -2 0.14454072E-01 0.25074473E+03</pdfrwt>
<totfact> 0.74742957E+03</totfact>
</mgrwt>
</event>
<event>
 4    1  0.1807309E-004  0.2725736E+03  0.7818608E-02  0.1099816E+00
         -1   -1    0    0    0  501 -0.00000000000E+00  0.00000000000E+00  0.55349662239E+02  0.55349662239E+02  0.00000000000E+00 0.  1.
          1   -1    0    0  501    0  0.00000000000E+00 -0.00000000000E+00 -0.33557725666E+03  0.33557725666E+03  0.00000000000E+00 0.  1.
         25    1    1    2    0    0  0.30258596118E+02  0.46018280660E+02 -0.91671919250E+02  0.16073893608E+03  0.12000000000E+03 0.  0.
         25    1    1    2    0    0 -0.30258596118E+02 -0.46018280660E+02 -0.18855567517E+03  0.23018798282E+03  0.12000000000E+03 0.  0.
<mgrwt>
<rscale>  0 0.27257357E+03</rscale>
<asrwt>0</asrwt>
<pdfrwt beam="1">  1        1 0.51627269E-01 0.27257357E+03</pdfrwt>
<pdfrwt beam="2">  1       -1 0.85153328E-02 0.27257357E+03</pdfrwt>
<totfact> 0.58992319E+03</totfact>
</mgrwt>
</event>
<event>
 4    1  0.1807309E-004  0.2777280E+03  0.7818608E-02  0.1096936E+00
          2   -1    0    0  501    0  0.00000000000E+00  0.00000000000E+00  0.14779939401E+04  0.14779939401E+04  0.00000000000E+00 0.  1.
         -2   -1    0    0    0  501 -0.00000000000E+00 -0.00000000000E+00 -0.13046880904E+02  0.13046880904E+02  0.00000000000E+00 0.  1.
         25    1    1    2    0    0 -0.16293446994E+02  0.38786607922E+02  0.43291431201E+03  0.45120358920E+03  0.12000000000E+03 0.  0.
         25    1    1    2    0    0  0.16293446994E+02 -0.38786607922E+02  0.10320327472E+04  0.10398372318E+04  0.12000000000E+03 0.  0.
<mgrwt>
<rscale>  0 0.27772800E+03</rscale>
<asrwt>0</asrwt>
<pdfrwt beam="1">  1        2 0.22738355E+00 0.27772800E+03</pdfrwt>
<pdfrwt beam="2">  1       -2 0.20072136E-02 0.27772800E+03</pdfrwt>
<totfact> 0.10783746E+04</totfact>
</mgrwt>
</event>
<event>
 4    1  0.1807309E-004  0.3608338E+03  0.7818608E-02  0.1058254E+00
         -2   -1    0    0    0  501 -0.00000000000E+00  0.00000000000E+00  0.98892484767E+02  0.98892484767E+02  0.00000000000E+00 0. -1.
          2   -1    0    0  501    0  0.00000000000E+00 -0.00000000000E+00 -0.32914789963E+03  0.32914789963E+03  0.00000000000E+00 0. -1.
         25    1    1    2    0    0  0.84049813300E+01  0.30276349843E+02 -0.27053577578E+03  0.29761872765E+03  0.12000000000E+03 0.  0.
         25    1    1    2    0    0 -0.84049813300E+01 -0.30276349843E+02  0.40280360923E+02  0.13042165674E+03  0.12000000000E+03 0.  0.
<mgrwt>
<rscale>  0 0.36083378E+03</rscale>
<asrwt>0</asrwt>
<pdfrwt beam="1">  1        2 0.50638138E-01 0.36083378E+03</pdfrwt>
<pdfrwt beam="2">  1       -2 0.15214228E-01 0.36083378E+03</pdfrwt>
<totfact> 0.33182842E+03</totfact>
</mgrwt>
</event>
<event>
 4    1  0.1807309E-004  0.3179478E+03  0.7818608E-02  0.1076598E+00
         -2   -1    0    0    0  501 -0.00000000000E+00  0.00000000000E+00  0.23909579429E+02  0.23909579429E+02  0.00000000000E+00 0. -1.
          2   -1    0    0  501    0  0.00000000000E+00 -0.00000000000E+00 -0.10570115099E+04  0.10570115099E+04  0.00000000000E+00 0. -1.
         25    1    1    2    0    0  0.33301309090E+01  0.41219428821E+02 -0.84197289074E+03  0.85148604206E+03  0.12000000000E+03 0.  0.
         25    1    1    2    0    0 -0.33301309090E+01 -0.41219428821E+02 -0.19112903971E+03  0.22943504724E+03  0.12000000000E+03 0.  0.
<mgrwt>
<rscale>  0 0.31794780E+03</rscale>
<asrwt>0</asrwt>
<pdfrwt beam="1">  1        2 0.16261718E+00 0.31794780E+03</pdfrwt>
<pdfrwt beam="2">  1       -2 0.36783963E-02 0.31794780E+03</pdfrwt>
<totfact> 0.75786724E+03</totfact>
</mgrwt>
</event>
<event>
 4    1  0.1807309E-004  0.2576465E+03  0.7818608E-02  0.1108566E+00
          3   -1    0    0  501    0  0.00000000000E+00  0.00000000000E+00  0.70658557579E+02  0.70658557579E+02  0.00000000000E+00 0. -1.
         -3   -1    0    0    0  501 -0.00000000000E+00 -0.00000000000E+00 -0.23486789524E+03  0.23486789524E+03  0.00000000000E+00 0. -1.
         25    1    1    2    0    0  0.13207506137E+02 -0.18524496386E+02 -0.33531237477E+02  0.12665677665E+03  0.12000000000E+03 0.  0.
         25    1    1    2    0    0 -0.13207506137E+02  0.18524496386E+02 -0.13067810019E+03  0.17886967617E+03  0.12000000000E+03 0.  0.
<mgrwt>
<rscale>  0 0.25764648E+03</rscale>
<asrwt>0</asrwt>
<pdfrwt beam="1">  1        3 0.10870547E-01 0.25764648E+03</pdfrwt>
<pdfrwt beam="2">  1       -3 0.36133522E-01 0.25764648E+03</pdfrwt>
<totfact> 0.12243232E+03</totfact>
</mgrwt>
</event>
<event>
 4    1  0.1807309E-004  0.3078365E+03  0.7818608E-02  0.1081388E+00
          1   -1    0    0  501    0  0.00000000000E+00  0.00000000000E+00  0.38358265219E+03  0.38358265219E+03  0.00000000000E+00 0. -1.
         -1   -1    0    0    0  501 -0.00000000000E+00 -0.00000000000E+00 -0.61761988748E+02  0.61761988748E+02  0.00000000000E+00 0. -1.
         25    1    1    2    0    0 -0.95225574796E+02 -0.14444428826E+02  0.16637642188E+03  0.22662229673E+03  0.12000000000E+03 0.  0.
         25    1    1    2    0    0  0.95225574796E+02  0.14444428826E+02  0.15544424156E+03  0.21872234420E+03  0.12000000000E+03 0.  0.
<mgrwt>
<rscale>  0 0.30783650E+03</rscale>
<asrwt>0</asrwt>
<pdfrwt beam="1">  1        1 0.59012714E-01 0.30783650E+03</pdfrwt>
<pdfrwt beam="2">  1       -1 0.95018446E-02 0.30783650E+03</pdfrwt>
<totfact> 0.42176908E+03</totfact>
</mgrwt>
</event>
<event>
 4    1  0.1807309E-004  0.3179944E+03  0.7818608E-02  0.1076576E+00
         -1   -1    0    0    0  501 -0.00000000000E+00  0.00000000000E+00  0.88755269091E+03  0.88755269091E+03  0.00000000000E+00 0.  1.
          1   -1    0    0  501    0  0.00000000000E+00 -0.00000000000E+00 -0.28482934272E+02  0.28482934272E+02  0.00000000000E+00 0.  1.
         25    1    1    2    0    0 -0.33543918694E+02 -0.91106972254E+02  0.53939481803E+03  0.56104584892E+03  0.12000000000E+03 0.  0.
         25    1    1    2    0    0  0.33543918694E+02  0.91106972254E+02  0.31967493861E+03  0.35498977626E+03  0.12000000000E+03 0.  0.
<mgrwt>
<rscale>  0 0.31799437E+03</rscale>
<asrwt>0</asrwt>
<pdfrwt beam="1">  1        1 0.43819906E-02 0.31799437E+03</pdfrwt>
<pdfrwt beam="2">  1       -1 0.13654655E+00 0.31799437E+03</pdfrwt>
<totfact> 0.96587162E+02</totfact>
</mgrwt>
</event>
<event>
 4    1  0.1807309E-004  0.2755539E+03  0.7818608E-02  0.1098142E+00
         -2   -1    0    0    0  501 -0.00000000000E+00  0.00000000000E+00  0.83252129531E+02  0.83252129531E+02  0.00000000000E+00 0. -1.
          2   -1    0    0  501    0  0.00000000000E+00 -0.00000000000E+00 -0.22801202127E+03  0.22801202127E+03  0.00000000000E+00 0. -1.
         25    1    1    2    0    0 -0.29542651971E+02 -0.24246570295E+02 -0.92658128776E+01  0.12627953019E+03  0.12000000000E+03 0.  0.
         25    1    1    2    0    0  0.29542651971E+02  0.24246570295E+02 -0.13549407886E+03  0.18498462061E+03  0.12000000000E+03 0.  0.
<mgrwt>
<rscale>  0 0.27555389E+03</rscale>
<asrwt>0</asrwt>
<pdfrwt beam="1">  1        2 0.35078773E-01 0.27555389E+03</pdfrwt>
<pdfrwt beam="2">  1       -2 0.12808020E-01 0.27555389E+03</pdfrwt>
<totfact> 0.65086322E+03</totfact>
</mgrwt>
</event>
<event>
 4    1  0.1807309E-004  0.2614467E+03  0.7818608E-02  0.1106277E+00
          3   -1    0    0  501    0  0.00000000000E+00  0.00000000000E+00  0.52390937820E+03  0.52390937820E+03  0.00000000000E+00 0.  1.
         -3   -1    0    0    0  501 -0.00000000000E+00 -0.00000000000E+00 -0.32617459104E+02  0.32617459104E+02  0.00000000000E+00 0.  1.
         25    1    1    2    0    0  0.42195331155E+02 -0.27009391020E+02  0.21719533746E+03  0.25314771931E+03  0.12000000000E+03 0.  0.
         25    1    1    2    0    0 -0.42195331155E+02  0.27009391020E+02  0.27409658164E+03  0.30337911800E+03  0.12000000000E+03 0.  0.
<mgrwt>
<rscale>  0 0.26144669E+03</rscale>
<asrwt>0</asrwt>
<pdfrwt beam="1">  1        3 0.80601436E-01 0.26144669E+03</pdfrwt>
<pdfrwt beam="2">  1       -3 0.50180710E-02 0.26144669E+03</pdfrwt>
<totfact> 0.84123626E+02</totfact>
</mgrwt>
</event>
<event>
 4    1  0.1807309E-004  0.4303654E+03  0.7818608E-02  0.1033745E+00
          2   -1    0    0  501    0  0.00000000000E+00  0.00000000000E+00  0.12195812594E+04  0.12195812594E+04  0.00000000000E+00 0. -1.
         -2   -1    0    0    0  501 -0.00000000000E+00 -0.00000000000E+00 -0.37966796297E+02  0.37966796297E+02  0.00000000000E+00 0. -1.
         25    1    1    2    0    0 -0.10095651706E+03 -0.26975257389E+02  0.10140878559E+04  0.10264960118E+04  0.12000000000E+03 0.  0.
         25    1    1    2    0    0  0.10095651706E+03  0.26975257389E+02  0.16752660721E+03  0.23105204386E+03  0.12000000000E+03 0.  0.
<mgrwt>
<rscale>  0 0.43036539E+03</rscale>
<asrwt>0</asrwt>
<pdfrwt beam="1">  1        2 0.18762786E+00 0.43036539E+03</pdfrwt>
<pdfrwt beam="2">  1       -2 0.58410465E-02 0.43036539E+03</pdfrwt>
<totfact> 0.30093728E+03</totfact>
</mgrwt>
</event>
<event>
 4    1  0.1807309E-004  0.3318162E+03  0.7818608E-02  0.1070336E+00
          1   -1    0    0  501    0  0.00000000000E+00  0.00000000000E+00  0.22677502383E+03  0.22677502383E+03  0.00000000000E+00 0. -1.
         -1   -1    0    0    0  501 -0.00000000000E+00 -0.00000000000E+00 -0.12137796275E+03  0.12137796275E+03  0.00000000000E+00 0. -1.
         25    1    1    2    0    0  0.24434541036E+02 -0.61691866686E+02 -0.45294346700E+02  0.14441091044E+03  0.12000000000E+03 0.  0.
         25    1    1    2    0    0 -0.24434541036E+02  0.61691866686E+02  0.15069140778E+03  0.20374207614E+03  0.12000000000E+03 0.  0.
<mgrwt>
<rscale>  0 0.33181616E+03</rscale>
<asrwt>0</asrwt>
<pdfrwt beam="1">  1        1 0.34888465E-01 0.33181616E+03</pdfrwt>
<pdfrwt beam="2">  1       -1 0.18673533E-01 0.33181616E+03</pdfrwt>
<totfact> 0.28247561E+03</totfact>
</mgrwt>
</event>
<event>
 4    1  0.1807309E-004  0.3456924E+03  0.7818608E-02  0.1064397E+00
          2   -1    0    0  501    0  0.00000000000E+00  0.00000000000E+00  0.77873398157E+03  0.77873398157E+03  0.00000000000E+00 0.  1.
         -2   -1    0    0    0  501 -0.00000000000E+00 -0.00000000000E+00 -0.38364597350E+02  0.38364597350E+02  0.00000000000E+00 0.  1.
         25    1    1    2    0    0 -0.25762001770E+01 -0.10189748720E+02  0.77192685262E+02  0.14307053660E+03  0.12000000000E+03 0.  0.
         25    1    1    2    0    0  0.25762001770E+01  0.10189748720E+02  0.66317669896E+03  0.67402804232E+03  0.12000000000E+03 0.  0.
<mgrwt>
<rscale>  0 0.34569244E+03</rscale>
<asrwt>0</asrwt>
<pdfrwt beam="1">  1        2 0.11980522E+00 0.34569244E+03</pdfrwt>
<pdfrwt beam="2">  1       -2 0.59022463E-02 0.34569244E+03</pdfrwt>
<totfact> 0.55961510E+03</totfact>
</mgrwt>
</event>
<event>
 4    1  0.1807309E-004  0.4749930E+03  0.7818608E-02  0.1020520E+00
          2   -1    0    0  501    0  0.00000000000E+00  0.00000000000E+00  0.92358874074E+03  0.92358874074E+03  0.00000000000E+00 0. -1.
         -2   -1    0    0    0  501 -0.00000000000E+00 -0.00000000000E+00 -0.61071097037E+02  0.61071097037E+02  0.00000000000E+00 0. -1.
         25    1    1    2    0    0  0.64476501305E+02 -0.19387239457E+03  0.46473971089E+03  0.52165766885E+03  0.12000000000E+03 0.  0.
         25    1    1    2    0    0 -0.64476501305E+02  0.19387239457E+03  0.39777793281E+03  0.46300216893E+03  0.12000000000E+03 0.  0.
<mgrwt>
<rscale>  0 0.47499296E+03</rscale>
<asrwt>0</asrwt>
<pdfrwt beam="1">  1        2 0.14209057E+00 0.47499296E+03</pdfrwt>
<pdfrwt beam="2">  1       -2 0.93955541E-02 0.47499296E+03</pdfrwt>
<totfact> 0.21543473E+03</totfact>
</mgrwt>
</event>
<event>
 4    1  0.1807309E-004  0.3179450E+03  0.7818608E-02  0.1076599E+00
          1   -1    0    0  501    0  0.00000000000E+00  0.00000000000E+00  0.47752398501E+02  0.47752398501E+02  0.00000000000E+00 0.  1.
         -1   -1    0    0    0  501 -0.00000000000E+00 -0.00000000000E+00 -0.52923542168E+03  0.52923542168E+03  0.00000000000E+00 0.  1.
         25    1    1    2    0    0 -0.66570665021E+02  0.55509419124E+02 -0.34592310713E+03  0.37626552473E+03  0.12000000000E+03 0.  0.
         25    1    1    2    0    0  0.66570665021E+02 -0.55509419124E+02 -0.13555991605E+03  0.20072229546E+03  0.12000000000E+03 0.  0.
<mgrwt>
<rscale>  0 0.31794503E+03</rscale>
<asrwt>0</asrwt>
<pdfrwt beam="1">  1        1 0.73465227E-02 0.31794503E+03</pdfrwt>
<pdfrwt beam="2">  1       -1 0.81420835E-01 0.31794503E+03</pdfrwt>
<totfact> 0.15397769E+03</totfact>
</mgrwt>
</event>
<event>
 4    1  0.1807309E-004  0.2672728E+03  0.7818608E-02  0.1102851E+00
          2   -1    0    0  501    0  0.00000000000E+00  0.00000000000E+00  0.39574919394E+04  0.39574919394E+04  0.00000000000E+00 0.  1.
         -2   -1    0    0    0  501 -0.00000000000E+00 -0.00000000000E+00 -0.45126281998E+01  0.45126281998E+01  0.00000000000E+00 0.  1.
         25    1    1    2    0    0 -0.75265699617E+01 -0.55674160523E+02  0.22342828270E+04  0.22382082147E+04  0.12000000000E+03 0.  0.
         25    1    1    2    0    0  0.75265699617E+01  0.55674160523E+02  0.17186964842E+04  0.17237963529E+04  0.12000000000E+03 0.  0.
<mgrwt>
<rscale>  0 0.26727282E+03</rscale>
<asrwt>0</asrwt>
<pdfrwt beam="1">  1        2 0.60884214E+00 0.26727282E+03</pdfrwt>
<pdfrwt beam="2">  1       -2 0.69425366E-03 0.26727282E+03</pdfrwt>
<totfact> 0.17463544E+03</totfact>
</mgrwt>
</event>
<event>
 4    1  0.1807309E-004  0.3340293E+03  0.7818608E-02  0.1069368E+00
         -2   -1    0    0    0  501 -0.00000000000E+00  0.00000000000E+00  0.12516692387E+03  0.12516692387E+03  0.00000000000E+00 0.  1.
          2   -1    0    0  501    0  0.00000000000E+00 -0.00000000000E+00 -0.22285359094E+03  0.22285359094E+03  0.00000000000E+00 0.  1.
         25    1    1    2    0    0  0.23741683738E+02 -0.96670812666E+02  0.13539328898E+02  0.15649992650E+03  0.12000000000E+03 0.  0.
         25    1    1    2    0    0 -0.23741683738E+02  0.96670812666E+02 -0.11122599597E+03  0.19152058831E+03  0.12000000000E+03 0.  0.
<mgrwt>
<rscale>  0 0.33402933E+03</rscale>
<asrwt>0</asrwt>
<pdfrwt beam="1">  1        2 0.34285168E-01 0.33402933E+03</pdfrwt>
<pdfrwt beam="2">  1       -2 0.19256450E-01 0.33402933E+03</pdfrwt>
<totfact> 0.34024463E+03</totfact>
</mgrwt>
</event>
<event>
 4    1  0.1807309E-004  0.2657828E+03  0.7818608E-02  0.1103718E+00
          1   -1    0    0  501    0  0.00000000000E+00  0.00000000000E+00  0.27165280972E+03  0.27165280972E+03  0.00000000000E+00 0.  1.
         -1   -1    0    0    0  501 -0.00000000000E+00 -0.00000000000E+00 -0.65009904913E+02  0.65009904913E+02  0.00000000000E+00 0.  1.
         25    1    1    2    0    0 -0.46662343147E+02 -0.32790448819E+02  0.99844289807E+02  0.16619708183E+03  0.12000000000E+03 0.  0.
         25    1    1    2    0    0  0.46662343147E+02  0.32790448819E+02  0.10679861500E+03  0.17046563281E+03  0.12000000000E+03 0.  0.
<mgrwt>
<rscale>  0 0.26578279E+03</rscale>
<asrwt>0</asrwt>
<pdfrwt beam="1">  1        1 0.41792739E-01 0.26578279E+03</pdfrwt>
<pdfrwt beam="2">  1       -1 0.10001524E-01 0.26578279E+03</pdfrwt>
<totfact> 0.60034954E+03</totfact>
</mgrwt>
</event>
<event>
 4    1  0.1807309E-004  0.4228292E+03  0.7818608E-02  0.1036149E+00
         -2   -1    0    0    0  501 -0.00000000000E+00  0.00000000000E+00  0.59017438913E+02  0.59017438913E+02  0.00000000000E+00 0.  1.
          2   -1    0    0  501    0  0.00000000000E+00 -0.00000000000E+00 -0.75733766491E+03  0.75733766491E+03  0.00000000000E+00 0.  1.
         25    1    1    2    0    0 -0.81880354604E+02 -0.19014237409E+02 -0.64342645660E+03  0.65989661216E+03  0.12000000000E+03 0.  0.
         25    1    1    2    0    0  0.81880354604E+02  0.19014237409E+02 -0.54893769404E+02  0.15645849166E+03  0.12000000000E+03 0.  0.
<mgrwt>
<rscale>  0 0.42282918E+03</rscale>
<asrwt>0</asrwt>
<pdfrwt beam="1">  1        2 0.11651349E+00 0.42282918E+03</pdfrwt>
<pdfrwt beam="2">  1       -2 0.90796056E-02 0.42282918E+03</pdfrwt>
<totfact> 0.29591767E+03</totfact>
</mgrwt>
</event>
<event>
 4    1  0.1807309E-004  0.2667557E+03  0.7818608E-02  0.1103151E+00
          2   -1    0    0  501    0  0.00000000000E+00  0.00000000000E+00  0.41923317788E+04  0.41923317788E+04  0.00000000000E+00 0. -1.
         -2   -1    0    0    0  501 -0.00000000000E+00 -0.00000000000E+00 -0.42433794555E+01  0.42433794555E+01  0.00000000000E+00 0. -1.
         25    1    1    2    0    0  0.26288020254E+02 -0.42325998210E+02  0.25678603841E+04  0.25711455622E+04  0.12000000000E+03 0.  0.
         25    1    1    2    0    0 -0.26288020254E+02  0.42325998210E+02  0.16202280153E+04  0.16254295960E+04  0.12000000000E+03 0.  0.
<mgrwt>
<rscale>  0 0.26675573E+03</rscale>
<asrwt>0</asrwt>
<pdfrwt beam="1">  1        2 0.64497081E+00 0.26675573E+03</pdfrwt>
<pdfrwt beam="2">  1       -2 0.65283096E-03 0.26675573E+03</pdfrwt>
<totfact> 0.12476002E+03</totfact>
</mgrwt>
</event>
<event>
 4    1  0.1807309E-004  0.2608298E+03  0.7818608E-02  0.1106646E+00
         -1   -1    0    0    0  501 -0.00000000000E+00  0.00000000000E+00  0.13537096316E+03  0.13537096316E+03  0.00000000000E+00 0.  1.
          1   -1    0    0  501    0  0.00000000000E+00 -0.00000000000E+00 -0.12564031991E+03  0.12564031991E+03  0.00000000000E+00 0.  1.
         25    1    1    2    0    0 -0.46169253735E+02 -0.19067798397E+02 -0.57661073307E+01  0.13010929606E+03  0.12000000000E+03 0.  0.
         25    1    1    2    0    0  0.46169253735E+02  0.19067798397E+02  0.15496750578E+02  0.13090198702E+03  0.12000000000E+03 0.  0.
<mgrwt>
<rscale>  0 0.26082984E+03</rscale>
<asrwt>0</asrwt>
<pdfrwt beam="1">  1        1 0.19329280E-01 0.26082984E+03</pdfrwt>
<pdfrwt beam="2">  1       -1 0.20826302E-01 0.26082984E+03</pdfrwt>
<totfact> 0.49886104E+03</totfact>
</mgrwt>
</event>
<event>
 4    1  0.1807309E-004  0.2577237E+03  0.7818608E-02  0.1108519E+00
         -1   -1    0    0    0  501 -0.00000000000E+00  0.00000000000E+00  0.26462189302E+02  0.26462189302E+02  0.00000000000E+00 0. -1.
          1   -1    0    0  501    0  0.00000000000E+00 -0.00000000000E+00 -0.62751341702E+03  0.62751341702E+03  0.00000000000E+00 0. -1.
         25    1    1    2    0    0 -0.17874192332E+02  0.37402490017E+02 -0.24453084189E+03  0.27552452821E+03  0.12000000000E+03 0.  0.
         25    1    1    2    0    0  0.17874192332E+02 -0.37402490017E+02 -0.35652038583E+03  0.37845107811E+03  0.12000000000E+03 0.  0.
<mgrwt>
<rscale>  0 0.25772372E+03</rscale>
<asrwt>0</asrwt>
<pdfrwt beam="1">  1        1 0.96540517E-01 0.25772372E+03</pdfrwt>
<pdfrwt beam="2">  1       -1 0.40711064E-02 0.25772372E+03</pdfrwt>
<totfact> 0.78576271E+03</totfact>
</mgrwt>
</event>
<event>
 4    1  0.1807309E-004  0.2551678E+03  0.7818608E-02  0.1110082E+00
          1   -1    0    0  501    0  0.00000000000E+00  0.00000000000E+00  0.14206953035E+04  0.14206953035E+04  0.00000000000E+00 0.  1.
         -1   -1    0    0    0  501 -0.00000000000E+00 -0.00000000000E+00 -0.11457528589E+02  0.11457528589E+02  0.00000000000E+00 0.  1.
         25    1    1    2    0    0 -0.25422617576E+02 -0.29515151200E+02  0.59809737114E+03  0.61125928950E+03  0.12000000000E+03 0.  0.
         25    1    1    2    0    0  0.25422617576E+02  0.29515151200E+02  0.81114040375E+03  0.82089354257E+03  0.12000000000E+03 0.  0.
<mgrwt>
<rscale>  0 0.25516784E+03</rscale>
<asrwt>0</asrwt>
<pdfrwt beam="1">  1        1 0.21856837E+00 0.25516784E+03</pdfrwt>
<pdfrwt beam="2">  1       -1 0.17626978E-02 0.25516784E+03</pdfrwt>
<totfact> 0.66568406E+03</totfact>
</mgrwt>
</event>
<event>
 4    1  0.1807309E-004  0.2692641E+03  0.7818608E-02  0.1101702E+00
         -1   -1    0    0    0  501 -0.00000000000E+00  0.00000000000E+00  0.58029887000E+03  0.58029887000E+03  0.00000000000E+00 0.  1.
          1   -1    0    0  501    0  0.00000000000E+00 -0.00000000000E+00 -0.31235267616E+02  0.31235267616E+02  0.00000000000E+00 0.  1.
         25    1    1    2    0    0 -0.30644362937E+02  0.52368260441E+02  0.25941916414E+03  0.29219824504E+03  0.12000000000E+03 0.  0.
         25    1    1    2    0    0  0.30644362937E+02 -0.52368260441E+02  0.28964443824E+03  0.31933589258E+03  0.12000000000E+03 0.  0.
<mgrwt>
<rscale>  0 0.26926411E+03</rscale>
<asrwt>0</asrwt>
<pdfrwt beam="1">  1        1 0.48054262E-02 0.26926411E+03</pdfrwt>
<pdfrwt beam="2">  1       -1 0.89276741E-01 0.26926411E+03</pdfrwt>
<totfact> 0.22693978E+03</totfact>
</mgrwt>
</event>
<event>
 4    1  0.1807309E-004  0.2768515E+03  0.7818608E-02  0.1097421E+00
         -2   -1    0    0    0  501 -0.00000000000E+00  0.00000000000E+00  0.71425845468E+01  0.71425845468E+01  0.00000000000E+00 0. -1.
          2   -1    0    0  501    0  0.00000000000E+00 -0.00000000000E+00 -0.26827392677E+04  0.26827392677E+04  0.00000000000E+00 0. -1.
         25    1    1    2    0    0 -0.38663192458E+02 -0.48373445864E+02 -0.10420017318E+04  0.10507152049E+04  0.12000000000E+03 0.  0.
         25    1    1    2    0    0  0.38663192458E+02  0.48373445864E+02 -0.16335949514E+04  0.16391666474E+04  0.12000000000E+03 0.  0.
<mgrwt>
<rscale>  0 0.27685153E+03</rscale>
<asrwt>0</asrwt>
<pdfrwt beam="1">  1        2 0.41272962E+00 0.27685153E+03</pdfrwt>
<pdfrwt beam="2">  1       -2 0.10988578E-02 0.27685153E+03</pdfrwt>
<totfact> 0.59020029E+03</totfact>
</mgrwt>
</event>
<event>
 4    1  0.1807309E-004  0.2920775E+03  0.7818608E-02  0.1089269E+00
          3   -1    0    0  501    0  0.00000000000E+00  0.00000000000E+00  0.39428487142E+03  0.39428487142E+03  0.00000000000E+00 0.  1.
         -3   -1    0    0    0  501 -0.00000000000E+00 -0.00000000000E+00 -0.54091153153E+02  0.54091153153E+02  0.00000000000E+00 0.  1.
         25    1    1    2    0    0 -0.11924926855E+02  0.41448346777E+02  0.27937322984E+03  0.30709863380E+03  0.12000000000E+03 0.  0.
         25    1    1    2    0    0  0.11924926855E+02 -0.41448346777E+02  0.60820488427E+02  0.14127739077E+03  0.12000000000E+03 0.  0.
<mgrwt>
<rscale>  0 0.29207755E+03</rscale>
<asrwt>0</asrwt>
<pdfrwt beam="1">  1        3 0.60659209E-01 0.29207755E+03</pdfrwt>
<pdfrwt beam="2">  1       -3 0.83217161E-02 0.29207755E+03</pdfrwt>
<totfact> 0.68801674E+02</totfact>
</mgrwt>
</event>
<event>
 4    1  0.1807309E-004  0.3203757E+03  0.7818608E-02  0.1075477E+00
          2   -1    0    0  501    0  0.00000000000E+00  0.00000000000E+00  0.21067714168E+03  0.21067714168E+03  0.00000000000E+00 0. -1.
         -2   -1    0    0    0  501 -0.00000000000E+00 -0.00000000000E+00 -0.12179845852E+03  0.12179845852E+03  0.00000000000E+00 0. -1.
         25    1    1    2    0    0 -0.41147085256E+02  0.38051639908E+02  0.13794873178E+03  0.19123509753E+03  0.12000000000E+03 0.  0.
         25    1    1    2    0    0  0.41147085256E+02 -0.38051639908E+02 -0.49070048624E+02  0.14124050268E+03  0.12000000000E+03 0.  0.
<mgrwt>
<rscale>  0 0.32037572E+03</rscale>
<asrwt>0</asrwt>
<pdfrwt beam="1">  1        2 0.32411868E-01 0.32037572E+03</pdfrwt>
<pdfrwt beam="2">  1       -2 0.18738224E-01 0.32037572E+03</pdfrwt>
<totfact> 0.37870204E+03</totfact>
</mgrwt>
</event>
<event>
 4    1  0.1807309E-004  0.3423531E+03  0.7818608E-02  0.1065798E+00
          2   -1    0    0  501    0  0.00000000000E+00  0.00000000000E+00  0.54541886979E+02  0.54541886979E+02  0.00000000000E+00 0.  1.
         -2   -1    0    0    0  501 -0.00000000000E+00 -0.00000000000E+00 -0.53722754567E+03  0.53722754567E+03  0.00000000000E+00 0.  1.
         25    1    1    2    0    0 -0.10519984763E+03 -0.29815095992E+02 -0.14753164898E+03  0.21936621285E+03  0.12000000000E+03 0.  0.
         25    1    1    2    0    0  0.10519984763E+03  0.29815095992E+02 -0.33515400971E+03  0.37240321979E+03  0.12000000000E+03 0.  0.
<mgrwt>
<rscale>  0 0.34235306E+03</rscale>
<asrwt>0</asrwt>
<pdfrwt beam="1">  1        2 0.83910595E-02 0.34235306E+03</pdfrwt>
<pdfrwt beam="2">  1       -2 0.82650392E-01 0.34235306E+03</pdfrwt>
<totfact> 0.10651544E+03</totfact>
</mgrwt>
</event>
<event>
 4    1  0.1807309E-004  0.4172674E+03  0.7818608E-02  0.1037959E+00
         -3   -1    0    0    0  501 -0.00000000000E+00  0.00000000000E+00  0.12380570935E+03  0.12380570935E+03  0.00000000000E+00 0. -1.
          3   -1    0    0  501    0  0.00000000000E+00 -0.00000000000E+00 -0.35158324834E+03  0.35158324834E+03  0.00000000000E+00 0. -1.
         25    1    1    2    0    0  0.45682696487E+02  0.10817927882E+03 -0.25498778017E+03  0.30530056200E+03  0.12000000000E+03 0.  0.
         25    1    1    2    0    0 -0.45682696487E+02 -0.10817927882E+03  0.27210241180E+02  0.17008839569E+03  0.12000000000E+03 0.  0.
<mgrwt>
<rscale>  0 0.41726736E+03</rscale>
<asrwt>0</asrwt>
<pdfrwt beam="1">  1        3 0.54089730E-01 0.41726736E+03</pdfrwt>
<pdfrwt beam="2">  1       -3 0.19047032E-01 0.41726736E+03</pdfrwt>
<totfact> 0.21752179E+02</totfact>
</mgrwt>
</event>
<event>
 4    1  0.1807309E-004  0.2804881E+03  0.7818608E-02  0.1095423E+00
         -2   -1    0    0    0  501 -0.00000000000E+00  0.00000000000E+00  0.12391864255E+02  0.12391864255E+02  0.00000000000E+00 0.  1.
          2   -1    0    0  501    0  0.00000000000E+00 -0.00000000000E+00 -0.15872016857E+04  0.15872016857E+04  0.00000000000E+00 0.  1.
         25    1    1    2    0    0  0.21659289818E+02 -0.17878290412E+02 -0.11690997834E+04  0.11755777565E+04  0.12000000000E+03 0.  0.
         25    1    1    2    0    0 -0.21659289818E+02  0.17878290412E+02 -0.40571003808E+03  0.42401579346E+03  0.12000000000E+03 0.  0.
<mgrwt>
<rscale>  0 0.28048806E+03</rscale>
<asrwt>0</asrwt>
<pdfrwt beam="1">  1        2 0.24418487E+00 0.28048806E+03</pdfrwt>
<pdfrwt beam="2">  1       -2 0.19064407E-02 0.28048806E+03</pdfrwt>
<totfact> 0.10173496E+04</totfact>
</mgrwt>
</event>
<event>
 4    1  0.1807309E-004  0.3172478E+03  0.7818608E-02  0.1076923E+00
         -1   -1    0    0    0  501 -0.00000000000E+00  0.00000000000E+00  0.22410727808E+02  0.22410727808E+02  0.00000000000E+00 0.  1.
          1   -1    0    0  501    0  0.00000000000E+00 -0.00000000000E+00 -0.11227456736E+04  0.11227456736E+04  0.00000000000E+00 0.  1.
         25    1    1    2    0    0 -0.73324842022E+02 -0.60612901296E+02 -0.69948223327E+03  0.71604877691E+03  0.12000000000E+03 0.  0.
         25    1    1    2    0    0  0.73324842022E+02  0.60612901296E+02 -0.40085271251E+03  0.42910762448E+03  0.12000000000E+03 0.  0.
<mgrwt>
<rscale>  0 0.31724784E+03</rscale>
<asrwt>0</asrwt>
<pdfrwt beam="1">  1        1 0.17273012E+00 0.31724784E+03</pdfrwt>
<pdfrwt beam="2">  1       -1 0.34478039E-02 0.31724784E+03</pdfrwt>
<totfact> 0.39955167E+03</totfact>
</mgrwt>
</event>
<event>
 4    1  0.1807309E-004  0.2973776E+03  0.7818608E-02  0.1086559E+00
          1   -1    0    0  501    0  0.00000000000E+00  0.00000000000E+00  0.97079923641E+02  0.97079923641E+02  0.00000000000E+00 0.  1.
         -1   -1    0    0    0  501 -0.00000000000E+00 -0.00000000000E+00 -0.22773365251E+03  0.22773365251E+03  0.00000000000E+00 0.  1.
         25    1    1    2    0    0 -0.36180119875E+02  0.16205145813E+02 -0.15089170573E+03  0.19682457845E+03  0.12000000000E+03 0.  0.
         25    1    1    2    0    0  0.36180119875E+02 -0.16205145813E+02  0.20237976858E+02  0.12798899770E+03  0.12000000000E+03 0.  0.
<mgrwt>
<rscale>  0 0.29737764E+03</rscale>
<asrwt>0</asrwt>
<pdfrwt beam="1">  1        1 0.14935373E-01 0.29737764E+03</pdfrwt>
<pdfrwt beam="2">  1       -1 0.35035946E-01 0.29737764E+03</pdfrwt>
<totfact> 0.29215473E+03</totfact>
</mgrwt>
</event>
<event>
 4    1  0.1807309E-004  0.2656409E+03  0.7818608E-02  0.1103801E+00
          2   -1    0    0  501    0  0.00000000000E+00  0.00000000000E+00  0.17733840265E+03  0.17733840265E+03  0.00000000000E+00 0.  1.
         -2   -1    0    0    0  501 -0.00000000000E+00 -0.00000000000E+00 -0.99477995378E+02  0.99477995378E+02  0.00000000000E+00 0.  1.
         25    1    1    2    0    0  0.27528633762E+02  0.37887054605E+02  0.51952206319E+01  0.12891952878E+03  0.12000000000E+03 0.  0.
         25    1    1    2    0    0 -0.27528633762E+02 -0.37887054605E+02  0.72665186639E+02  0.14789686925E+03  0.12000000000E+03 0.  0.
<mgrwt>
<rscale>  0 0.26564088E+03</rscale>
<asrwt>0</asrwt>
<pdfrwt beam="1">  1        2 0.27282831E-01 0.26564088E+03</pdfrwt>
<pdfrwt beam="2">  1       -2 0.15304307E-01 0.26564088E+03</pdfrwt>
<totfact> 0.63914211E+03</totfact>
</mgrwt>
</event>
<event>
 4    1  0.1807309E-004  0.4476934E+03  0.7818608E-02  0.1028412E+00
         -3   -1    0    0    0  501 -0.00000000000E+00  0.00000000000E+00  0.23178723445E+03  0.23178723445E+03  0.00000000000E+00 0.  1.
          3   -1    0    0  501    0  0.00000000000E+00 -0.00000000000E+00 -0.21617821716E+03  0.21617821716E+03  0.00000000000E+00 0.  1.
         25    1    1    2    0    0 -0.15954423986E+03 -0.60500237707E+02  0.89049335830E+02  0.22681364035E+03  0.12000000000E+03 0.  0.
         25    1    1    2    0    0  0.15954423986E+03  0.60500237707E+02 -0.73440318538E+02  0.22115181126E+03  0.12000000000E+03 0.  0.
<mgrwt>
<rscale>  0 0.44769343E+03</rscale>
<asrwt>0</asrwt>
<pdfrwt beam="1">  1        3 0.33258187E-01 0.44769343E+03</pdfrwt>
<pdfrwt beam="2">  1       -3 0.35659575E-01 0.44769343E+03</pdfrwt>
<totfact> 0.17912654E+02</totfact>
</mgrwt>
</event>
<event>
 4    1  0.1807309E-004  0.2479417E+03  0.7818608E-02  0.1114613E+00
          1   -1    0    0  501    0  0.00000000000E+00  0.00000000000E+00  0.11969152764E+04  0.11969152764E+04  0.00000000000E+00 0.  1.
         -1   -1    0    0    0  501 -0.00000000000E+00 -0.00000000000E+00 -0.12840314428E+02  0.12840314428E+02  0.00000000000E+00 0.  1.
         25    1    1    2    0    0  0.22085400989E+02 -0.17815702233E+02  0.65444622992E+03  0.66596173466E+03  0.12000000000E+03 0.  0.
         25    1    1    2    0    0 -0.22085400989E+02  0.17815702233E+02  0.52962873201E+03  0.54379385612E+03  0.12000000000E+03 0.  0.
<mgrwt>
<rscale>  0 0.24794167E+03</rscale>
<asrwt>0</asrwt>
<pdfrwt beam="1">  1        1 0.18414072E+00 0.24794167E+03</pdfrwt>
<pdfrwt beam="2">  1       -1 0.19754339E-02 0.24794167E+03</pdfrwt>
<totfact> 0.80051447E+03</totfact>
</mgrwt>
</event>
<event>
 4    1  0.1807309E-004  0.3098139E+03  0.7818608E-02  0.1080435E+00
          2   -1    0    0  501    0  0.00000000000E+00  0.00000000000E+00  0.38762092982E+03  0.38762092982E+03  0.00000000000E+00 0. -1.
         -2   -1    0    0    0  501 -0.00000000000E+00 -0.00000000000E+00 -0.61906247146E+02  0.61906247146E+02  0.00000000000E+00 0. -1.
         25    1    1    2    0    0  0.15972014677E+02  0.90052193951E+02  0.11193603884E+03  0.18786745242E+03  0.12000000000E+03 0.  0.
         25    1    1    2    0    0 -0.15972014677E+02 -0.90052193951E+02  0.21377864383E+03  0.26165972454E+03  0.12000000000E+03 0.  0.
<mgrwt>
<rscale>  0 0.30981386E+03</rscale>
<asrwt>0</asrwt>
<pdfrwt beam="1">  1        2 0.59633988E-01 0.30981386E+03</pdfrwt>
<pdfrwt beam="2">  1       -2 0.95240382E-02 0.30981386E+03</pdfrwt>
<totfact> 0.59232763E+03</totfact>
</mgrwt>
</event>
<event>
 4    1  0.1807309E-004  0.2961905E+03  0.7818608E-02  0.1087161E+00
         -3   -1    0    0    0  501 -0.00000000000E+00  0.00000000000E+00  0.33855489867E+02  0.33855489867E+02  0.00000000000E+00 0. -1.
          3   -1    0    0  501    0  0.00000000000E+00 -0.00000000000E+00 -0.64781804777E+03  0.64781804777E+03  0.00000000000E+00 0. -1.
         25    1    1    2    0    0  0.59891504574E+02 -0.62382639955E+02 -0.29012997968E+03  0.32565931769E+03  0.12000000000E+03 0.  0.
         25    1    1    2    0    0 -0.59891504574E+02  0.62382639955E+02 -0.32383257822E+03  0.35601421995E+03  0.12000000000E+03 0.  0.
<mgrwt>
<rscale>  0 0.29619046E+03</rscale>
<asrwt>0</asrwt>
<pdfrwt beam="1">  1        3 0.99664317E-01 0.29619046E+03</pdfrwt>
<pdfrwt beam="2">  1       -3 0.52085368E-02 0.29619046E+03</pdfrwt>
<totfact> 0.49837848E+02</totfact>
</mgrwt>
</event>
<event>
 4    1  0.1807309E-004  0.2418968E+03  0.7818608E-02  0.1118536E+00
         -2   -1    0    0    0  501 -0.00000000000E+00  0.00000000000E+00  0.70128186004E+01  0.70128186004E+01  0.00000000000E+00 0.  1.
          2   -1    0    0  501    0  0.00000000000E+00 -0.00000000000E+00 -0.20859681087E+04  0.20859681087E+04  0.00000000000E+00 0.  1.
         25    1    1    2    0    0 -0.60680146949E+01 -0.16230417009E+01 -0.11584472405E+04  0.11646628113E+04  0.12000000000E+03 0.  0.
         25    1    1    2    0    0  0.60680146949E+01  0.16230417009E+01 -0.92050804963E+03  0.92831811601E+03  0.12000000000E+03 0.  0.
<mgrwt>
<rscale>  0 0.24189680E+03</rscale>
<asrwt>0</asrwt>
<pdfrwt beam="1">  1        2 0.32091885E+00 0.24189680E+03</pdfrwt>
<pdfrwt beam="2">  1       -2 0.10788929E-02 0.24189680E+03</pdfrwt>
<totfact> 0.12741251E+04</totfact>
</mgrwt>
</event>
<event>
 4    1  0.1807309E-004  0.2494856E+03  0.7818608E-02  0.1113630E+00
          2   -1    0    0  501    0  0.00000000000E+00  0.00000000000E+00  0.21780862102E+03  0.21780862102E+03  0.00000000000E+00 0.  1.
         -2   -1    0    0    0  501 -0.00000000000E+00 -0.00000000000E+00 -0.71442361728E+02  0.71442361728E+02  0.00000000000E+00 0.  1.
         25    1    1    2    0    0  0.26299866788E+02 -0.15372420903E+02  0.55494628857E+02  0.13567478819E+03  0.12000000000E+03 0.  0.
         25    1    1    2    0    0 -0.26299866788E+02  0.15372420903E+02  0.90871630431E+02  0.15357619456E+03  0.12000000000E+03 0.  0.
<mgrwt>
<rscale>  0 0.24948557E+03</rscale>
<asrwt>0</asrwt>
<pdfrwt beam="1">  1        2 0.33509018E-01 0.24948557E+03</pdfrwt>
<pdfrwt beam="2">  1       -2 0.10991133E-01 0.24948557E+03</pdfrwt>
<totfact> 0.87176867E+03</totfact>
</mgrwt>
</event>
<event>
 4    1  0.1807309E-004  0.2857779E+03  0.7818608E-02  0.1092574E+00
         -1   -1    0    0    0  501 -0.00000000000E+00  0.00000000000E+00  0.24157763958E+02  0.24157763958E+02  0.00000000000E+00 0. -1.
          1   -1    0    0  501    0  0.00000000000E+00 -0.00000000000E+00 -0.84516338670E+03  0.84516338670E+03  0.00000000000E+00 0. -1.
         25    1    1    2    0    0 -0.37174189135E+02  0.65298924389E+02 -0.46912544518E+03  0.49002505363E+03  0.12000000000E+03 0.  0.
         25    1    1    2    0    0  0.37174189135E+02 -0.65298924389E+02 -0.35188017756E+03  0.37929609703E+03  0.12000000000E+03 0.  0.
<mgrwt>
<rscale>  0 0.28577794E+03</rscale>
<asrwt>0</asrwt>
<pdfrwt beam="1">  1        1 0.13002511E+00 0.28577794E+03</pdfrwt>
<pdfrwt beam="2">  1       -1 0.37165799E-02 0.28577794E+03</pdfrwt>
<totfact> 0.57984844E+03</totfact>
</mgrwt>
</event>
<event>
 4    1  0.1807309E-004  0.2810108E+03  0.7818608E-02  0.1095138E+00
         -1   -1    0    0    0  501 -0.00000000000E+00  0.00000000000E+00  0.89825435560E+01  0.89825435560E+01  0.00000000000E+00 0. -1.
          1   -1    0    0  501    0  0.00000000000E+00 -0.00000000000E+00 -0.21977918246E+04  0.21977918246E+04  0.00000000000E+00 0. -1.
         25    1    1    2    0    0 -0.31533327770E+02  0.64497300901E+02 -0.12019384755E+04  0.12100455989E+04  0.12000000000E+03 0.  0.
         25    1    1    2    0    0  0.31533327770E+02 -0.64497300901E+02 -0.98687080559E+03  0.99672876928E+03  0.12000000000E+03 0.  0.
<mgrwt>
<rscale>  0 0.28101075E+03</rscale>
<asrwt>0</asrwt>
<pdfrwt beam="1">  1        1 0.33812193E+00 0.28101075E+03</pdfrwt>
<pdfrwt beam="2">  1       -1 0.13819293E-02 0.28101075E+03</pdfrwt>
<totfact> 0.29489998E+03</totfact>
</mgrwt>
</event>
<event>
 4    1  0.1807309E-004  0.3575482E+03  0.7818608E-02  0.1059559E+00
         -1   -1    0    0    0  501 -0.00000000000E+00  0.00000000000E+00  0.31035479476E+02  0.31035479476E+02  0.00000000000E+00 0. -1.
          1   -1    0    0  501    0  0.00000000000E+00 -0.00000000000E+00 -0.10297948552E+04  0.10297948552E+04  0.00000000000E+00 0. -1.
         25    1    1    2    0    0  0.77168384751E+02  0.93804111833E+02 -0.34221475528E+03  0.38244621809E+03  0.12000000000E+03 0.  0.
         25    1    1    2    0    0 -0.77168384751E+02 -0.93804111833E+02 -0.65654462049E+03  0.67838411663E+03  0.12000000000E+03 0.  0.
<mgrwt>
<rscale>  0 0.35754819E+03</rscale>
<asrwt>0</asrwt>
<pdfrwt beam="1">  1        1 0.15842998E+00 0.35754819E+03</pdfrwt>
<pdfrwt beam="2">  1       -1 0.47746890E-02 0.35754819E+03</pdfrwt>
<totfact> 0.28725857E+03</totfact>
</mgrwt>
</event>
<event>
 4    1  0.1807309E-004  0.3301294E+03  0.7818608E-02  0.1071080E+00
         -2   -1    0    0    0  501 -0.00000000000E+00  0.00000000000E+00  0.69830828949E+03  0.69830828949E+03  0.00000000000E+00 0. -1.
          2   -1    0    0  501    0  0.00000000000E+00 -0.00000000000E+00 -0.39017660190E+02  0.39017660190E+02  0.00000000000E+00 0. -1.
         25    1    1    2    0    0 -0.10313628095E+02  0.10480464291E+03  0.23605432528E+03  0.28497724222E+03  0.12000000000E+03 0.  0.
         25    1    1    2    0    0  0.10313628095E+02 -0.10480464291E+03  0.42323630402E+03  0.45234870746E+03  0.12000000000E+03 0.  0.
<mgrwt>
<rscale>  0 0.33012940E+03</rscale>
<asrwt>0</asrwt>
<pdfrwt beam="1">  1        2 0.60027175E-02 0.33012940E+03</pdfrwt>
<pdfrwt beam="2">  1       -2 0.10743204E+00 0.33012940E+03</pdfrwt>
<totfact> 0.89824757E+02</totfact>
</mgrwt>
</event>
<event>
 4    1  0.1807309E-004  0.3376871E+03  0.7818608E-02  0.1067785E+00
         -2   -1    0    0    0  501 -0.00000000000E+00  0.00000000000E+00  0.49866649485E+02  0.49866649485E+02  0.00000000000E+00 0.  1.
          2   -1    0    0  501    0  0.00000000000E+00 -0.00000000000E+00 -0.57168765217E+03  0.57168765217E+03  0.00000000000E+00 0.  1.
         25    1    1    2    0    0  0.71624674810E+02  0.59792112671E+02 -0.39620506155E+03  0.42436262981E+03  0.12000000000E+03 0.  0.
         25    1    1    2    0    0 -0.71624674810E+02 -0.59792112671E+02 -0.12561594114E+03  0.19719167185E+03  0.12000000000E+03 0.  0.
<mgrwt>
<rscale>  0 0.33768712E+03</rscale>
<asrwt>0</asrwt>
<pdfrwt beam="1">  1        2 0.87951939E-01 0.33768712E+03</pdfrwt>
<pdfrwt beam="2">  1       -2 0.76717929E-02 0.33768712E+03</pdfrwt>
<totfact> 0.54077960E+03</totfact>
</mgrwt>
</event>
<event>
 4    1  0.1807309E-004  0.3778471E+03  0.7818608E-02  0.1051732E+00
         -2   -1    0    0    0  501 -0.00000000000E+00  0.00000000000E+00  0.35119798166E+03  0.35119798166E+03  0.00000000000E+00 0. -1.
          2   -1    0    0  501    0  0.00000000000E+00 -0.00000000000E+00 -0.10162960299E+03  0.10162960299E+03  0.00000000000E+00 0. -1.
         25    1    1    2    0    0 -0.11275751887E+03 -0.92616640067E+02  0.12491196816E+03  0.22648421550E+03  0.12000000000E+03 0.  0.
         25    1    1    2    0    0  0.11275751887E+03  0.92616640067E+02  0.12465641051E+03  0.22634336916E+03  0.12000000000E+03 0.  0.
<mgrwt>
<rscale>  0 0.37784712E+03</rscale>
<asrwt>0</asrwt>
<pdfrwt beam="1">  1        2 0.15635324E-01 0.37784712E+03</pdfrwt>
<pdfrwt beam="2">  1       -2 0.54030458E-01 0.37784712E+03</pdfrwt>
<totfact> 0.12254136E+03</totfact>
</mgrwt>
</event>
<event>
 4    1  0.1807309E-004  0.3781159E+03  0.7818608E-02  0.1051632E+00
         -2   -1    0    0    0  501 -0.00000000000E+00  0.00000000000E+00  0.51654123189E+02  0.51654123189E+02  0.00000000000E+00 0.  1.
          2   -1    0    0  501    0  0.00000000000E+00 -0.00000000000E+00 -0.69196614818E+03  0.69196614818E+03  0.00000000000E+00 0.  1.
         25    1    1    2    0    0  0.12507855426E+03  0.67117800238E+02 -0.38809677015E+03  0.43031215047E+03  0.12000000000E+03 0.  0.
         25    1    1    2    0    0 -0.12507855426E+03 -0.67117800238E+02 -0.25221525485E+03  0.31330812090E+03  0.12000000000E+03 0.  0.
<mgrwt>
<rscale>  0 0.37811588E+03</rscale>
<asrwt>0</asrwt>
<pdfrwt beam="1">  1        2 0.10645633E+00 0.37811588E+03</pdfrwt>
<pdfrwt beam="2">  1       -2 0.79467882E-02 0.37811588E+03</pdfrwt>
<totfact> 0.40855200E+03</totfact>
</mgrwt>
</event>
<event>
 4    1  0.1807309E-004  0.2672062E+03  0.7818608E-02  0.1102889E+00
         -2   -1    0    0    0  501 -0.00000000000E+00  0.00000000000E+00  0.14773174555E+03  0.14773174555E+03  0.00000000000E+00 0.  1.
          2   -1    0    0  501    0  0.00000000000E+00 -0.00000000000E+00 -0.12082569468E+03  0.12082569468E+03  0.00000000000E+00 0.  1.
         25    1    1    2    0    0 -0.24895066289E+00  0.58266068389E+02  0.20892760128E+02  0.13502408721E+03  0.12000000000E+03 0.  0.
         25    1    1    2    0    0  0.24895066289E+00 -0.58266068389E+02  0.60132907429E+01  0.13353335302E+03  0.12000000000E+03 0.  0.
<mgrwt>
<rscale>  0 0.26720622E+03</rscale>
<asrwt>0</asrwt>
<pdfrwt beam="1">  1        2 0.18588568E-01 0.26720622E+03</pdfrwt>
<pdfrwt beam="2">  1       -2 0.22727961E-01 0.26720622E+03</pdfrwt>
<totfact> 0.50445085E+03</totfact>
</mgrwt>
</event>
<event>
 4    1  0.1807309E-004  0.2454173E+03  0.7818608E-02  0.1116236E+00
         -2   -1    0    0    0  501 -0.00000000000E+00  0.00000000000E+00  0.51889859700E+02  0.51889859700E+02  0.00000000000E+00 0. -1.
          2   -1    0    0  501    0  0.00000000000E+00 -0.00000000000E+00 -0.29018036554E+03  0.29018036554E+03  0.00000000000E+00 0. -1.
         25    1    1    2    0    0  0.36151143364E+01  0.20806553993E+02 -0.98877751172E+02  0.15691651098E+03  0.12000000000E+03 0.  0.
         25    1    1    2    0    0 -0.36151143364E+01 -0.20806553993E+02 -0.13941275466E+03  0.18515371426E+03  0.12000000000E+03 0.  0.
<mgrwt>
<rscale>  0 0.24541735E+03</rscale>
<asrwt>0</asrwt>
<pdfrwt beam="1">  1        2 0.44643132E-01 0.24541735E+03</pdfrwt>
<pdfrwt beam="2">  1       -2 0.79830555E-02 0.24541735E+03</pdfrwt>
<totfact> 0.10590905E+04</totfact>
</mgrwt>
</event>
<event>
 4    1  0.1807309E-004  0.4852669E+03  0.7818608E-02  0.1017698E+00
          1   -1    0    0  501    0  0.00000000000E+00  0.00000000000E+00  0.92429692955E+02  0.92429692955E+02  0.00000000000E+00 0. -1.
         -1   -1    0    0    0  501 -0.00000000000E+00 -0.00000000000E+00 -0.63692713649E+03  0.63692713649E+03  0.00000000000E+00 0. -1.
         25    1    1    2    0    0 -0.18948109055E+03 -0.55401052470E+02 -0.38370030844E+03  0.44788200119E+03  0.12000000000E+03 0.  0.
         25    1    1    2    0    0  0.18948109055E+03  0.55401052470E+02 -0.16079713510E+03  0.28147482826E+03  0.12000000000E+03 0.  0.
<mgrwt>
<rscale>  0 0.48526685E+03</rscale>
<asrwt>0</asrwt>
<pdfrwt beam="1">  1        1 0.14219953E-01 0.48526685E+03</pdfrwt>
<pdfrwt beam="2">  1       -1 0.97988788E-01 0.48526685E+03</pdfrwt>
<totfact> 0.42060579E+02</totfact>
</mgrwt>
</event>
<event>
 4    1  0.1807309E-004  0.3003284E+03  0.7818608E-02  0.1085077E+00
          3   -1    0    0  501    0  0.00000000000E+00  0.00000000000E+00  0.54242494090E+02  0.54242494090E+02  0.00000000000E+00 0.  1.
         -3   -1    0    0    0  501 -0.00000000000E+00 -0.00000000000E+00 -0.41571256511E+03  0.41571256511E+03  0.00000000000E+00 0.  1.
         25    1    1    2    0    0  0.41324352550E+02  0.80164488119E+02 -0.17462646765E+03  0.23027907085E+03  0.12000000000E+03 0.  0.
         25    1    1    2    0    0 -0.41324352550E+02 -0.80164488119E+02 -0.18684360337E+03  0.23967598835E+03  0.12000000000E+03 0.  0.
<mgrwt>
<rscale>  0 0.30032840E+03</rscale>
<asrwt>0</asrwt>
<pdfrwt beam="1">  1        3 0.83449993E-02 0.30032840E+03</pdfrwt>
<pdfrwt beam="2">  1       -3 0.63955778E-01 0.30032840E+03</pdfrwt>
<totfact> 0.61396076E+02</totfact>
</mgrwt>
</event>
<event>
 4    1  0.1807309E-004  0.6304861E+03  0.7818608E-02  0.9844101E-01
         -1   -1    0    0    0  501 -0.00000000000E+00  0.00000000000E+00  0.11266412487E+03  0.11266412487E+03  0.00000000000E+00 0.  1.
          1   -1    0    0  501    0  0.00000000000E+00 -0.00000000000E+00 -0.88207478141E+03  0.88207478141E+03  0.00000000000E+00 0.  1.
         25    1    1    2    0    0  0.10114824796E+03  0.14326016973E+03 -0.75209615869E+03  0.78153891535E+03  0.12000000000E+03 0.  0.
         25    1    1    2    0    0 -0.10114824796E+03 -0.14326016973E+03 -0.17314497854E+02  0.21319999093E+03  0.12000000000E+03 0.  0.
<mgrwt>
<rscale>  0 0.63048611E+03</rscale>
<asrwt>0</asrwt>
<pdfrwt beam="1">  1        1 0.13570382E+00 0.63048611E+03</pdfrwt>
<pdfrwt beam="2">  1       -1 0.17332942E-01 0.63048611E+03</pdfrwt>
<totfact> 0.49454113E+02</totfact>
</mgrwt>
</event>
<event>
 4    1  0.1807309E-004  0.3305451E+03  0.7818608E-02  0.1070896E+00
          2   -1    0    0  501    0  0.00000000000E+00  0.00000000000E+00  0.10823798188E+04  0.10823798188E+04  0.00000000000E+00 0. -1.
         -2   -1    0    0    0  501 -0.00000000000E+00 -0.00000000000E+00 -0.25236071283E+02  0.25236071283E+02  0.00000000000E+00 0. -1.
         25    1    1    2    0    0  0.66164740879E+02  0.14751555144E+02  0.22293162168E+03  0.26209519122E+03  0.12000000000E+03 0.  0.
         25    1    1    2    0    0 -0.66164740879E+02 -0.14751555144E+02  0.83421212586E+03  0.84552069889E+03  0.12000000000E+03 0.  0.
<mgrwt>
<rscale>  0 0.33054509E+03</rscale>
<asrwt>0</asrwt>
<pdfrwt beam="1">  1        2 0.16651994E+00 0.33054509E+03</pdfrwt>
<pdfrwt beam="2">  1       -2 0.38824734E-02 0.33054509E+03</pdfrwt>
<totfact> 0.67509215E+03</totfact>
</mgrwt>
</event>
<event>
 4    1  0.1807309E-004  0.2584844E+03  0.7818608E-02  0.1108057E+00
         -2   -1    0    0    0  501 -0.00000000000E+00  0.00000000000E+00  0.44938111575E+03  0.44938111575E+03  0.00000000000E+00 0.  1.
          2   -1    0    0  501    0  0.00000000000E+00 -0.00000000000E+00 -0.37170098148E+02  0.37170098148E+02  0.00000000000E+00 0.  1.
         25    1    1    2    0    0 -0.20813334803E+02  0.43186978143E+02  0.20180070753E+03  0.23962853659E+03  0.12000000000E+03 0.  0.
         25    1    1    2    0    0  0.20813334803E+02 -0.43186978143E+02  0.21041031007E+03  0.24692267731E+03  0.12000000000E+03 0.  0.
<mgrwt>
<rscale>  0 0.25848435E+03</rscale>
<asrwt>0</asrwt>
<pdfrwt beam="1">  1        2 0.57184769E-02 0.25848435E+03</pdfrwt>
<pdfrwt beam="2">  1       -2 0.69135553E-01 0.25848435E+03</pdfrwt>
<totfact> 0.25639315E+03</totfact>
</mgrwt>
</event>
<event>
 4    1  0.1807309E-004  0.2421265E+03  0.7818608E-02  0.1118384E+00
          2   -1    0    0  501    0  0.00000000000E+00  0.00000000000E+00  0.17286361990E+03  0.17286361990E+03  0.00000000000E+00 0.  1.
         -2   -1    0    0    0  501 -0.00000000000E+00 -0.00000000000E+00 -0.84785382706E+02  0.84785382706E+02  0.00000000000E+00 0.  1.
         25    1    1    2    0    0  0.11452217878E+02 -0.74819749083E+00  0.55916935193E+02  0.13288497558E+03  0.12000000000E+03 0.  0.
         25    1    1    2    0    0 -0.11452217878E+02  0.74819749083E+00  0.32161302006E+02  0.12476402703E+03  0.12000000000E+03 0.  0.
<mgrwt>
<rscale>  0 0.24212648E+03</rscale>
<asrwt>0</asrwt>
<pdfrwt beam="1">  1        2 0.26594403E-01 0.24212648E+03</pdfrwt>
<pdfrwt beam="2">  1       -2 0.13043905E-01 0.24212648E+03</pdfrwt>
<totfact> 0.85106190E+03</totfact>
</mgrwt>
</event>
<event>
 4    1  0.1807309E-004  0.3494989E+03  0.7818608E-02  0.1062821E+00
         -2   -1    0    0    0  501 -0.00000000000E+00  0.00000000000E+00  0.59964246961E+02  0.59964246961E+02  0.00000000000E+00 0. -1.
          2   -1    0    0  501    0  0.00000000000E+00 -0.00000000000E+00 -0.50925961275E+03  0.50925961275E+03  0.00000000000E+00 0. -1.
         25    1    1    2    0    0 -0.10795161289E+03  0.29652453714E+02 -0.12686479836E+03  0.20743070120E+03  0.12000000000E+03 0.  0.
         25    1    1    2    0    0  0.10795161289E+03 -0.29652453714E+02 -0.32243056743E+03  0.36179315852E+03  0.12000000000E+03 0.  0.
<mgrwt>
<rscale>  0 0.34949889E+03</rscale>
<asrwt>0</asrwt>
<pdfrwt beam="1">  1        2 0.78347633E-01 0.34949889E+03</pdfrwt>
<pdfrwt beam="2">  1       -2 0.92252688E-02 0.34949889E+03</pdfrwt>
<totfact> 0.46185989E+03</totfact>
</mgrwt>
</event>
<event>
 4    1  0.1807309E-004  0.3997914E+03  0.7818608E-02  0.1043852E+00
          2   -1    0    0  501    0  0.00000000000E+00  0.00000000000E+00  0.14857311247E+03  0.14857311247E+03  0.00000000000E+00 0. -1.
         -2   -1    0    0    0  501 -0.00000000000E+00 -0.00000000000E+00 -0.26894703740E+03  0.26894703740E+03  0.00000000000E+00 0. -1.
         25    1    1    2    0    0 -0.66621243017E+02 -0.14412605121E+03 -0.40716447035E+02  0.20314659170E+03  0.12000000000E+03 0.  0.
         25    1    1    2    0    0  0.66621243017E+02  0.14412605121E+03 -0.79657477902E+02  0.21437355817E+03  0.12000000000E+03 0.  0.
<mgrwt>
<rscale>  0 0.39979144E+03</rscale>
<asrwt>0</asrwt>
<pdfrwt beam="1">  1        2 0.22857402E-01 0.39979144E+03</pdfrwt>
<pdfrwt beam="2">  1       -2 0.41376467E-01 0.39979144E+03</pdfrwt>
<totfact> 0.13386689E+03</totfact>
</mgrwt>
</event>
<event>
 4    1  0.1807309E-004  0.2528148E+03  0.7818608E-02  0.1111539E+00
          1   -1    0    0  501    0  0.00000000000E+00  0.00000000000E+00  0.24749811244E+02  0.24749811244E+02  0.00000000000E+00 0. -1.
         -1   -1    0    0    0  501 -0.00000000000E+00 -0.00000000000E+00 -0.64561437488E+03  0.64561437488E+03  0.00000000000E+00 0. -1.
         25    1    1    2    0    0  0.35595162087E+02  0.15322200330E+02 -0.33370732196E+03  0.35673850663E+03  0.12000000000E+03 0.  0.
         25    1    1    2    0    0 -0.35595162087E+02 -0.15322200330E+02 -0.28715724168E+03  0.31362567949E+03  0.12000000000E+03 0.  0.
<mgrwt>
<rscale>  0 0.25281482E+03</rscale>
<asrwt>0</asrwt>
<pdfrwt beam="1">  1        1 0.38076636E-02 0.25281482E+03</pdfrwt>
<pdfrwt beam="2">  1       -1 0.99325280E-01 0.25281482E+03</pdfrwt>
<totfact> 0.24823721E+03</totfact>
</mgrwt>
</event>
<event>
 4    1  0.1807309E-004  0.2522239E+03  0.7818608E-02  0.1111907E+00
          3   -1    0    0  501    0  0.00000000000E+00  0.00000000000E+00  0.44859328906E+03  0.44859328906E+03  0.00000000000E+00 0. -1.
         -3   -1    0    0    0  501 -0.00000000000E+00 -0.00000000000E+00 -0.35453539057E+02  0.35453539057E+02  0.00000000000E+00 0. -1.
         25    1    1    2    0    0 -0.25126876785E+00 -0.46156047342E+00  0.13214519719E+03  0.17850106250E+03  0.12000000000E+03 0.  0.
         25    1    1    2    0    0  0.25126876785E+00  0.46156047342E+00  0.28099455281E+03  0.30554576561E+03  0.12000000000E+03 0.  0.
<mgrwt>
<rscale>  0 0.25222387E+03</rscale>
<asrwt>0</asrwt>
<pdfrwt beam="1">  1        3 0.69014348E-01 0.25222387E+03</pdfrwt>
<pdfrwt beam="2">  1       -3 0.54543909E-02 0.25222387E+03</pdfrwt>
<totfact> 0.10256617E+03</totfact>
</mgrwt>
</event>
<event>
 4    1  0.1807309E-004  0.2871093E+03  0.7818608E-02  0.1091868E+00
          1   -1    0    0  501    0  0.00000000000E+00  0.00000000000E+00  0.10222199253E+03  0.10222199253E+03  0.00000000000E+00 0. -1.
         -1   -1    0    0    0  501 -0.00000000000E+00 -0.00000000000E+00 -0.20159987066E+03  0.20159987066E+03  0.00000000000E+00 0. -1.
         25    1    1    2    0    0  0.24440724120E+02  0.47413364554E+02  0.11674124368E+02  0.13183952865E+03  0.12000000000E+03 0.  0.
         25    1    1    2    0    0 -0.24440724120E+02 -0.47413364554E+02 -0.11105200250E+03  0.17198233454E+03  0.12000000000E+03 0.  0.
<mgrwt>
<rscale>  0 0.28710932E+03</rscale>
<asrwt>0</asrwt>
<pdfrwt beam="1">  1        1 0.15726460E-01 0.28710932E+03</pdfrwt>
<pdfrwt beam="2">  1       -1 0.31015365E-01 0.28710932E+03</pdfrwt>
<totfact> 0.33666718E+03</totfact>
</mgrwt>
</event>
<event>
 4    1  0.1807309E-004  0.4099077E+03  0.7818608E-02  0.1040402E+00
          1   -1    0    0  501    0  0.00000000000E+00  0.00000000000E+00  0.45042022902E+03  0.45042022902E+03  0.00000000000E+00 0.  1.
         -1   -1    0    0    0  501 -0.00000000000E+00 -0.00000000000E+00 -0.93259753558E+02  0.93259753558E+02  0.00000000000E+00 0.  1.
         25    1    1    2    0    0 -0.11874815721E+03 -0.42252392827E+02  0.34993167329E+02  0.17751312994E+03  0.12000000000E+03 0.  0.
         25    1    1    2    0    0  0.11874815721E+03  0.42252392827E+02  0.32216730813E+03  0.36616685264E+03  0.12000000000E+03 0.  0.
<mgrwt>
<rscale>  0 0.40990769E+03</rscale>
<asrwt>0</asrwt>
<pdfrwt beam="1">  1        1 0.69295419E-01 0.40990769E+03</pdfrwt>
<pdfrwt beam="2">  1       -1 0.14347655E-01 0.40990769E+03</pdfrwt>
<totfact> 0.17981363E+03</totfact>
</mgrwt>
</event>
<event>
 4    1  0.1807309E-004  0.2868776E+03  0.7818608E-02  0.1091991E+00
          3   -1    0    0  501    0  0.00000000000E+00  0.00000000000E+00  0.26266966086E+03  0.26266966086E+03  0.00000000000E+00 0. -1.
         -3   -1    0    0    0  501 -0.00000000000E+00 -0.00000000000E+00 -0.78329123842E+02  0.78329123842E+02  0.00000000000E+00 0. -1.
         25    1    1    2    0    0  0.21164911677E+02  0.61321900830E+02  0.39460968260E+02  0.14200527111E+03  0.12000000000E+03 0.  0.
         25    1    1    2    0    0 -0.21164911677E+02 -0.61321900830E+02  0.14487956876E+03  0.19899351359E+03  0.12000000000E+03 0.  0.
<mgrwt>
<rscale>  0 0.28687757E+03</rscale>
<asrwt>0</asrwt>
<pdfrwt beam="1">  1        3 0.40410717E-01 0.28687757E+03</pdfrwt>
<pdfrwt beam="2">  1       -3 0.12050635E-01 0.28687757E+03</pdfrwt>
<totfact> 0.83874137E+02</totfact>
</mgrwt>
</event>
<event>
 4    1  0.1807309E-004  0.3007751E+03  0.7818608E-02  0.1084854E+00
          1   -1    0    0  501    0  0.00000000000E+00  0.00000000000E+00  0.39098504895E+03  0.39098504895E+03  0.00000000000E+00 0. -1.
         -1   -1    0    0    0  501 -0.00000000000E+00 -0.00000000000E+00 -0.57844714513E+02  0.57844714513E+02  0.00000000000E+00 0. -1.
         25    1    1    2    0    0 -0.53714191394E+02  0.33986467864E+02  0.70136998184E+02  0.15283812636E+03  0.12000000000E+03 0.  0.
         25    1    1    2    0    0  0.53714191394E+02 -0.33986467864E+02  0.26300333626E+03  0.29599163711E+03  0.12000000000E+03 0.  0.
<mgrwt>
<rscale>  0 0.30077512E+03</rscale>
<asrwt>0</asrwt>
<pdfrwt beam="1">  1        1 0.60151544E-01 0.30077512E+03</pdfrwt>
<pdfrwt beam="2">  1       -1 0.88991871E-02 0.30077512E+03</pdfrwt>
<totfact> 0.45507931E+03</totfact>
</mgrwt>
</event>
<event>
 4    1  0.1807309E-004  0.5039417E+03  0.7818608E-02  0.1012755E+00
         -1   -1    0    0    0  501 -0.00000000000E+00  0.00000000000E+00  0.57708307977E+02  0.57708307977E+02  0.00000000000E+00 0. -1.
          1   -1    0    0  501    0  0.00000000000E+00 -0.00000000000E+00 -0.11001761006E+04  0.11001761006E+04  0.00000000000E+00 0. -1.
         25    1    1    2    0    0  0.10175378923E+03  0.64146928472E+02 -0.94874999924E+03  0.96384398277E+03  0.12000000000E+03 0.  0.
         25    1    1    2    0    0 -0.10175378923E+03 -0.64146928472E+02 -0.93717793391E+02  0.19404042582E+03  0.12000000000E+03 0.  0.
<mgrwt>
<rscale>  0 0.50394167E+03</rscale>
<asrwt>0</asrwt>
<pdfrwt beam="1">  1        1 0.16925783E+00 0.50394167E+03</pdfrwt>
<pdfrwt beam="2">  1       -1 0.88782028E-02 0.50394167E+03</pdfrwt>
<totfact> 0.98157549E+02</totfact>
</mgrwt>
</event>
<event>
 4    1  0.1807309E-004  0.3566762E+03  0.7818608E-02  0.1059908E+00
         -1   -1    0    0    0  501 -0.00000000000E+00  0.00000000000E+00  0.15163373522E+03  0.15163373522E+03  0.00000000000E+00 0.  1.
          1   -1    0    0  501    0  0.00000000000E+00 -0.00000000000E+00 -0.20974537682E+03  0.20974537682E+03  0.00000000000E+00 0.  1.
         25    1    1    2    0    0 -0.11258726288E+03  0.48164671275E+01  0.40444451949E+02  0.16951355053E+03  0.12000000000E+03 0.  0.
         25    1    1    2    0    0  0.11258726288E+03 -0.48164671275E+01 -0.98556093547E+02  0.19186556151E+03  0.12000000000E+03 0.  0.
<mgrwt>
<rscale>  0 0.35667618E+03</rscale>
<asrwt>0</asrwt>
<pdfrwt beam="1">  1        1 0.32268519E-01 0.35667618E+03</pdfrwt>
<pdfrwt beam="2">  1       -1 0.23328267E-01 0.35667618E+03</pdfrwt>
<totfact> 0.21658831E+03</totfact>
</mgrwt>
</event>
<event>
 4    1  0.1807309E-004  0.2703432E+03  0.7818608E-02  0.1101083E+00
         -1   -1    0    0    0  501 -0.00000000000E+00  0.00000000000E+00  0.21457980567E+02  0.21457980567E+02  0.00000000000E+00 0. -1.
          1   -1    0    0  501    0  0.00000000000E+00 -0.00000000000E+00 -0.85149512693E+03  0.85149512693E+03  0.00000000000E+00 0. -1.
         25    1    1    2    0    0  0.48420527029E+02 -0.92644145149E+01 -0.53759466100E+03  0.55302657834E+03  0.12000000000E+03 0.  0.
         25    1    1    2    0    0 -0.48420527029E+02  0.92644145149E+01 -0.29244248536E+03  0.31992652916E+03  0.12000000000E+03 0.  0.
<mgrwt>
<rscale>  0 0.27034323E+03</rscale>
<asrwt>0</asrwt>
<pdfrwt beam="1">  1        1 0.13099922E+00 0.27034323E+03</pdfrwt>
<pdfrwt beam="2">  1       -1 0.33012285E-02 0.27034323E+03</pdfrwt>
<totfact> 0.68218771E+03</totfact>
</mgrwt>
</event>
<event>
 4    1  0.1807309E-004  0.5058673E+03  0.7818608E-02  0.1012259E+00
          2   -1    0    0  501    0  0.00000000000E+00  0.00000000000E+00  0.11302953757E+04  0.11302953757E+04  0.00000000000E+00 0.  1.
         -2   -1    0    0    0  501 -0.00000000000E+00 -0.00000000000E+00 -0.56600641013E+02  0.56600641013E+02  0.00000000000E+00 0.  1.
         25    1    1    2    0    0  0.63464285493E+02 -0.19672718857E+03  0.34271456149E+03  0.41783079460E+03  0.12000000000E+03 0.  0.
         25    1    1    2    0    0 -0.63464285493E+02  0.19672718857E+03  0.73098017316E+03  0.76906522208E+03  0.12000000000E+03 0.  0.
<mgrwt>
<rscale>  0 0.50586735E+03</rscale>
<asrwt>0</asrwt>
<pdfrwt beam="1">  1        2 0.17389158E+00 0.50586735E+03</pdfrwt>
<pdfrwt beam="2">  1       -2 0.87077918E-02 0.50586735E+03</pdfrwt>
<totfact> 0.18093370E+03</totfact>
</mgrwt>
</event>
<event>
 4    1  0.1807309E-004  0.2912197E+03  0.7818608E-02  0.1089714E+00
          2   -1    0    0  501    0  0.00000000000E+00  0.00000000000E+00  0.87200729168E+03  0.87200729168E+03  0.00000000000E+00 0.  1.
         -2   -1    0    0    0  501 -0.00000000000E+00 -0.00000000000E+00 -0.24314274508E+02  0.24314274508E+02  0.00000000000E+00 0.  1.
         25    1    1    2    0    0 -0.66975537031E+02  0.48085592043E+02  0.41748059883E+03  0.44214024599E+03  0.12000000000E+03 0.  0.
         25    1    1    2    0    0  0.66975537031E+02 -0.48085592043E+02  0.43021241834E+03  0.45418132020E+03  0.12000000000E+03 0.  0.
<mgrwt>
<rscale>  0 0.29121967E+03</rscale>
<asrwt>0</asrwt>
<pdfrwt beam="1">  1        2 0.13415494E+00 0.29121967E+03</pdfrwt>
<pdfrwt beam="2">  1       -2 0.37406583E-02 0.29121967E+03</pdfrwt>
<totfact> 0.96333694E+03</totfact>
</mgrwt>
</event>
<event>
 4    1  0.1807309E-004  0.2456373E+03  0.7818608E-02  0.1116093E+00
          2   -1    0    0  501    0  0.00000000000E+00  0.00000000000E+00  0.14714830787E+03  0.14714830787E+03  0.00000000000E+00 0. -1.
         -2   -1    0    0    0  501 -0.00000000000E+00 -0.00000000000E+00 -0.10251170503E+03  0.10251170503E+03  0.00000000000E+00 0. -1.
         25    1    1    2    0    0 -0.39848963561E+01 -0.73069259954E+01  0.47526762304E+02  0.12933701598E+03  0.12000000000E+03 0.  0.
         25    1    1    2    0    0  0.39848963561E+01  0.73069259954E+01 -0.28901594669E+01  0.12032299692E+03  0.12000000000E+03 0.  0.
<mgrwt>
<rscale>  0 0.24563733E+03</rscale>
<asrwt>0</asrwt>
<pdfrwt beam="1">  1        2 0.22638201E-01 0.24563733E+03</pdfrwt>
<pdfrwt beam="2">  1       -2 0.15771032E-01 0.24563733E+03</pdfrwt>
<totfact> 0.74656346E+03</totfact>
</mgrwt>
</event>
<event>
 4    1  0.1807309E-004  0.3600287E+03  0.7818608E-02  0.1058573E+00
          2   -1    0    0  501    0  0.00000000000E+00  0.00000000000E+00  0.70111251895E+03  0.70111251895E+03  0.00000000000E+00 0. -1.
         -2   -1    0    0    0  501 -0.00000000000E+00 -0.00000000000E+00 -0.46219634383E+02  0.46219634383E+02  0.00000000000E+00 0. -1.
         25    1    1    2    0    0 -0.12728637146E+03  0.22071976471E+02  0.40275300861E+03  0.43965779699E+03  0.12000000000E+03 0.  0.
         25    1    1    2    0    0  0.12728637146E+03 -0.22071976471E+02  0.25213987595E+03  0.30767435634E+03  0.12000000000E+03 0.  0.
<mgrwt>
<rscale>  0 0.36002869E+03</rscale>
<asrwt>0</asrwt>
<pdfrwt beam="1">  1        2 0.10786346E+00 0.36002869E+03</pdfrwt>
<pdfrwt beam="2">  1       -2 0.71107135E-02 0.36002869E+03</pdfrwt>
<totfact> 0.47821607E+03</totfact>
</mgrwt>
</event>
<event>
 4    1  0.1807309E-004  0.2416199E+03  0.7818608E-02  0.1118718E+00
          2   -1    0    0  501    0  0.00000000000E+00  0.00000000000E+00  0.12737510864E+03  0.12737510864E+03  0.00000000000E+00 0. -1.
         -2   -1    0    0    0  501 -0.00000000000E+00 -0.00000000000E+00 -0.11458313091E+03  0.11458313091E+03  0.00000000000E+00 0. -1.
         25    1    1    2    0    0  0.35028327284E+01 -0.17561424978E+01 -0.70274427392E+01  0.12026944261E+03  0.12000000000E+03 0.  0.
         25    1    1    2    0    0 -0.35028327284E+01  0.17561424978E+01  0.19819420478E+02  0.12168879694E+03  0.12000000000E+03 0.  0.
<mgrwt>
<rscale>  0 0.24161986E+03</rscale>
<asrwt>0</asrwt>
<pdfrwt beam="1">  1        2 0.19596171E-01 0.24161986E+03</pdfrwt>
<pdfrwt beam="2">  1       -2 0.17628174E-01 0.24161986E+03</pdfrwt>
<totfact> 0.72987270E+03</totfact>
</mgrwt>
</event>
<event>
 4    1  0.1807309E-004  0.2589178E+03  0.7818608E-02  0.1107795E+00
          2   -1    0    0  501    0  0.00000000000E+00  0.00000000000E+00  0.19120817654E+04  0.19120817654E+04  0.00000000000E+00 0. -1.
         -2   -1    0    0    0  501 -0.00000000000E+00 -0.00000000000E+00 -0.87651085537E+01  0.87651085537E+01  0.00000000000E+00 0. -1.
         25    1    1    2    0    0  0.41212734588E+02 -0.25052121593E+02  0.90871538288E+03  0.91787240146E+03  0.12000000000E+03 0.  0.
         25    1    1    2    0    0 -0.41212734588E+02  0.25052121593E+02  0.99460127398E+03  0.10029744725E+04  0.12000000000E+03 0.  0.
<mgrwt>
<rscale>  0 0.25891778E+03</rscale>
<asrwt>0</asrwt>
<pdfrwt beam="1">  1        2 0.29416609E+00 0.25891778E+03</pdfrwt>
<pdfrwt beam="2">  1       -2 0.13484798E-02 0.25891778E+03</pdfrwt>
<totfact> 0.11379855E+04</totfact>
</mgrwt>
</event>
<event>
 4    1  0.1807309E-004  0.2869980E+03  0.7818608E-02  0.1091927E+00
          2   -1    0    0  501    0  0.00000000000E+00  0.00000000000E+00  0.26997977160E+04  0.26997977160E+04  0.00000000000E+00 0.  1.
         -2   -1    0    0    0  501 -0.00000000000E+00 -0.00000000000E+00 -0.76272242416E+01  0.76272242416E+01  0.00000000000E+00 0.  1.
         25    1    1    2    0    0  0.47963925006E+02  0.62091010470E+02  0.14027896738E+04  0.14100974082E+04  0.12000000000E+03 0.  0.
         25    1    1    2    0    0 -0.47963925006E+02 -0.62091010470E+02  0.12893808180E+04  0.12973275321E+04  0.12000000000E+03 0.  0.
<mgrwt>
<rscale>  0 0.28699800E+03</rscale>
<asrwt>0</asrwt>
<pdfrwt beam="1">  1        2 0.41535273E+00 0.28699800E+03</pdfrwt>
<pdfrwt beam="2">  1       -2 0.11734213E-02 0.28699800E+03</pdfrwt>
<totfact> 0.52442848E+03</totfact>
</mgrwt>
</event>
<event>
 4    1  0.1807309E-004  0.2807699E+03  0.7818608E-02  0.1095269E+00
          1   -1    0    0  501    0  0.00000000000E+00  0.00000000000E+00  0.37399701090E+02  0.37399701090E+02  0.00000000000E+00 0.  1.
         -1   -1    0    0    0  501 -0.00000000000E+00 -0.00000000000E+00 -0.52695431705E+03  0.52695431705E+03  0.00000000000E+00 0.  1.
         25    1    1    2    0    0 -0.27988163159E+02 -0.64454200252E+02 -0.28345407966E+03  0.31572756687E+03  0.12000000000E+03 0.  0.
         25    1    1    2    0    0  0.27988163159E+02  0.64454200252E+02 -0.20610053630E+03  0.24862645127E+03  0.12000000000E+03 0.  0.
<mgrwt>
<rscale>  0 0.28076990E+03</rscale>
<asrwt>0</asrwt>
<pdfrwt beam="1">  1        1 0.57538003E-02 0.28076990E+03</pdfrwt>
<pdfrwt beam="2">  1       -1 0.81069893E-01 0.28076990E+03</pdfrwt>
<totfact> 0.21704278E+03</totfact>
</mgrwt>
</event>
<event>
 4    1  0.1807309E-004  0.2999671E+03  0.7818608E-02  0.1085257E+00
          2   -1    0    0  501    0  0.00000000000E+00  0.00000000000E+00  0.16161156392E+04  0.16161156392E+04  0.00000000000E+00 0.  1.
         -2   -1    0    0    0  501 -0.00000000000E+00 -0.00000000000E+00 -0.13919215464E+02  0.13919215464E+02  0.00000000000E+00 0.  1.
         25    1    1    2    0    0 -0.41201855525E+02  0.37097993379E+02  0.11861573166E+04  0.11935003283E+04  0.12000000000E+03 0.  0.
         25    1    1    2    0    0  0.41201855525E+02 -0.37097993379E+02  0.41603910716E+03  0.43653452635E+03  0.12000000000E+03 0.  0.
<mgrwt>
<rscale>  0 0.29996708E+03</rscale>
<asrwt>0</asrwt>
<pdfrwt beam="1">  1        2 0.24863303E+00 0.29996708E+03</pdfrwt>
<pdfrwt beam="2">  1       -2 0.21414190E-02 0.29996708E+03</pdfrwt>
<totfact> 0.82819824E+03</totfact>
</mgrwt>
</event>
<event>
 4    1  0.1807309E-004  0.2675085E+03  0.7818608E-02  0.1102714E+00
         -2   -1    0    0    0  501 -0.00000000000E+00  0.00000000000E+00  0.12540987216E+03  0.12540987216E+03  0.00000000000E+00 0. -1.
          2   -1    0    0  501    0  0.00000000000E+00 -0.00000000000E+00 -0.14265378363E+03  0.14265378363E+03  0.00000000000E+00 0. -1.
         25    1    1    2    0    0  0.34151319516E+02 -0.17097307448E+02  0.36544446152E+02  0.13112637832E+03  0.12000000000E+03 0.  0.
         25    1    1    2    0    0 -0.34151319516E+02  0.17097307448E+02 -0.53788357616E+02  0.13693727747E+03  0.12000000000E+03 0.  0.
<mgrwt>
<rscale>  0 0.26750845E+03</rscale>
<asrwt>0</asrwt>
<pdfrwt beam="1">  1        2 0.21946736E-01 0.26750845E+03</pdfrwt>
<pdfrwt beam="2">  1       -2 0.19293827E-01 0.26750845E+03</pdfrwt>
<totfact> 0.55306557E+03</totfact>
</mgrwt>
</event>
<event>
 4    1  0.1807309E-004  0.3262611E+03  0.7818608E-02  0.1072803E+00
          1   -1    0    0  501    0  0.00000000000E+00  0.00000000000E+00  0.11869866221E+04  0.11869866221E+04  0.00000000000E+00 0. -1.
         -1   -1    0    0    0  501 -0.00000000000E+00 -0.00000000000E+00 -0.22419443347E+02  0.22419443347E+02  0.00000000000E+00 0. -1.
         25    1    1    2    0    0 -0.26241679172E+01  0.17646349467E+02  0.17802617099E+03  0.21543351054E+03  0.12000000000E+03 0.  0.
         25    1    1    2    0    0  0.26241679172E+01 -0.17646349467E+02  0.98654100776E+03  0.99397255490E+03  0.12000000000E+03 0.  0.
<mgrwt>
<rscale>  0 0.32626112E+03</rscale>
<asrwt>0</asrwt>
<pdfrwt beam="1">  1        1 0.18261328E+00 0.32626112E+03</pdfrwt>
<pdfrwt beam="2">  1       -1 0.34491461E-02 0.32626112E+03</pdfrwt>
<totfact> 0.35942788E+03</totfact>
</mgrwt>
</event>
<event>
 4    1  0.1807309E-004  0.2580526E+03  0.7818608E-02  0.1108319E+00
         -2   -1    0    0    0  501 -0.00000000000E+00  0.00000000000E+00  0.73772046118E+03  0.73772046118E+03  0.00000000000E+00 0. -1.
          2   -1    0    0  501    0  0.00000000000E+00 -0.00000000000E+00 -0.22566531667E+02  0.22566531667E+02  0.00000000000E+00 0. -1.
         25    1    1    2    0    0 -0.69822754368E+01  0.13939716323E+02  0.48949268966E+03  0.50422828271E+03  0.12000000000E+03 0.  0.
         25    1    1    2    0    0  0.69822754368E+01 -0.13939716323E+02  0.22566123985E+03  0.25605871013E+03  0.12000000000E+03 0.  0.
<mgrwt>
<rscale>  0 0.25805265E+03</rscale>
<asrwt>0</asrwt>
<pdfrwt beam="1">  1        2 0.34717747E-02 0.25805265E+03</pdfrwt>
<pdfrwt beam="2">  1       -2 0.11349544E+00 0.25805265E+03</pdfrwt>
<totfact> 0.16260534E+03</totfact>
</mgrwt>
</event>
<event>
 4    1  0.1807309E-004  0.3231570E+03  0.7818608E-02  0.1074205E+00
          1   -1    0    0  501    0  0.00000000000E+00  0.00000000000E+00  0.11049131994E+03  0.11049131994E+03  0.00000000000E+00 0.  1.
         -1   -1    0    0    0  501 -0.00000000000E+00 -0.00000000000E+00 -0.23628647838E+03  0.23628647838E+03  0.00000000000E+00 0.  1.
         25    1    1    2    0    0  0.16287115624E+02  0.94138007424E+02 -0.83872517480E+01  0.15361504018E+03  0.12000000000E+03 0.  0.
         25    1    1    2    0    0 -0.16287115624E+02 -0.94138007424E+02 -0.11740790670E+03  0.19316275814E+03  0.12000000000E+03 0.  0.
<mgrwt>
<rscale>  0 0.32315696E+03</rscale>
<asrwt>0</asrwt>
<pdfrwt beam="1">  1        1 0.16998665E-01 0.32315696E+03</pdfrwt>
<pdfrwt beam="2">  1       -1 0.36351765E-01 0.32315696E+03</pdfrwt>
<totfact> 0.23151390E+03</totfact>
</mgrwt>
</event>
<event>
 4    1  0.1807309E-004  0.2948200E+03  0.7818608E-02  0.1087859E+00
         -2   -1    0    0    0  501 -0.00000000000E+00  0.00000000000E+00  0.29002920528E+02  0.29002920528E+02  0.00000000000E+00 0.  1.
          2   -1    0    0  501    0  0.00000000000E+00 -0.00000000000E+00 -0.74922491402E+03  0.74922491402E+03  0.00000000000E+00 0.  1.
         25    1    1    2    0    0 -0.82157126034E+02 -0.92989294656E+01 -0.41874777948E+03  0.44338015998E+03  0.12000000000E+03 0.  0.
         25    1    1    2    0    0  0.82157126034E+02  0.92989294656E+01 -0.30147421402E+03  0.33484767457E+03  0.12000000000E+03 0.  0.
<mgrwt>
<rscale>  0 0.29482002E+03</rscale>
<asrwt>0</asrwt>
<pdfrwt beam="1">  1        2 0.11526536E+00 0.29482002E+03</pdfrwt>
<pdfrwt beam="2">  1       -2 0.44619884E-02 0.29482002E+03</pdfrwt>
<totfact> 0.89732334E+03</totfact>
</mgrwt>
</event>
<event>
 4    1  0.1807309E-004  0.2983172E+03  0.7818608E-02  0.1086085E+00
         -2   -1    0    0    0  501 -0.00000000000E+00  0.00000000000E+00  0.10652417688E+02  0.10652417688E+02  0.00000000000E+00 0.  1.
          2   -1    0    0  501    0  0.00000000000E+00 -0.00000000000E+00 -0.20885664620E+04  0.20885664620E+04  0.00000000000E+00 0.  1.
         25    1    1    2    0    0  0.88343161922E+02  0.65717984758E+01 -0.10336000786E+04  0.10443068635E+04  0.12000000000E+03 0.  0.
         25    1    1    2    0    0 -0.88343161922E+02 -0.65717984758E+01 -0.10443139658E+04  0.10549120162E+04  0.12000000000E+03 0.  0.
<mgrwt>
<rscale>  0 0.29831716E+03</rscale>
<asrwt>0</asrwt>
<pdfrwt beam="1">  1        2 0.32131789E+00 0.29831716E+03</pdfrwt>
<pdfrwt beam="2">  1       -2 0.16388336E-02 0.29831716E+03</pdfrwt>
<totfact> 0.69159761E+03</totfact>
</mgrwt>
</event>
<event>
 4    1  0.1807309E-004  0.2443745E+03  0.7818608E-02  0.1116913E+00
         -2   -1    0    0    0  501 -0.00000000000E+00  0.00000000000E+00  0.23322601159E+02  0.23322601159E+02  0.00000000000E+00 0. -1.
          2   -1    0    0  501    0  0.00000000000E+00 -0.00000000000E+00 -0.64013957607E+03  0.64013957607E+03  0.00000000000E+00 0. -1.
         25    1    1    2    0    0 -0.14858949451E+02 -0.11820978305E+02 -0.34372318831E+03  0.36456296313E+03  0.12000000000E+03 0.  0.
         25    1    1    2    0    0  0.14858949451E+02  0.11820978305E+02 -0.27309378660E+03  0.29889921410E+03  0.12000000000E+03 0.  0.
<mgrwt>
<rscale>  0 0.24437447E+03</rscale>
<asrwt>0</asrwt>
<pdfrwt beam="1">  1        2 0.98483009E-01 0.24437447E+03</pdfrwt>
<pdfrwt beam="2">  1       -2 0.35880926E-02 0.24437447E+03</pdfrwt>
<totfact> 0.14955964E+04</totfact>
</mgrwt>
</event>
<event>
 4    1  0.1807309E-004  0.2792716E+03  0.7818608E-02  0.1096087E+00
         -2   -1    0    0    0  501 -0.00000000000E+00  0.00000000000E+00  0.23342755620E+03  0.23342755620E+03  0.00000000000E+00 0. -1.
          2   -1    0    0  501    0  0.00000000000E+00 -0.00000000000E+00 -0.83529808962E+02  0.83529808962E+02  0.00000000000E+00 0. -1.
         25    1    1    2    0    0 -0.39701049543E+02  0.40241275893E+02  0.12445406109E+03  0.18189103040E+03  0.12000000000E+03 0.  0.
         25    1    1    2    0    0  0.39701049543E+02 -0.40241275893E+02  0.25443686152E+02  0.13506633476E+03  0.12000000000E+03 0.  0.
<mgrwt>
<rscale>  0 0.27927162E+03</rscale>
<asrwt>0</asrwt>
<pdfrwt beam="1">  1        2 0.12850740E-01 0.27927162E+03</pdfrwt>
<pdfrwt beam="2">  1       -2 0.35911931E-01 0.27927162E+03</pdfrwt>
<totfact> 0.34244483E+03</totfact>
</mgrwt>
</event>
<event>
 4    1  0.1807309E-004  0.2729581E+03  0.7818608E-02  0.1099598E+00
          2   -1    0    0  501    0  0.00000000000E+00  0.00000000000E+00  0.80895940972E+03  0.80895940972E+03  0.00000000000E+00 0. -1.
         -2   -1    0    0    0  501 -0.00000000000E+00 -0.00000000000E+00 -0.23025297998E+02  0.23025297998E+02  0.00000000000E+00 0. -1.
         25    1    1    2    0    0  0.13886953928E+02  0.23591959998E+02  0.57270019366E+03  0.58577721011E+03  0.12000000000E+03 0.  0.
         25    1    1    2    0    0 -0.13886953928E+02 -0.23591959998E+02  0.21323391806E+03  0.24620749760E+03  0.12000000000E+03 0.  0.
<mgrwt>
<rscale>  0 0.27295810E+03</rscale>
<asrwt>0</asrwt>
<pdfrwt beam="1">  1        2 0.12445527E+00 0.27295810E+03</pdfrwt>
<pdfrwt beam="2">  1       -2 0.35423542E-02 0.27295810E+03</pdfrwt>
<totfact> 0.11500901E+04</totfact>
</mgrwt>
</event>
<event>
 4    1  0.1807309E-004  0.2888505E+03  0.7818608E-02  0.1090951E+00
          1   -1    0    0  501    0  0.00000000000E+00  0.00000000000E+00  0.15031404262E+02  0.15031404262E+02  0.00000000000E+00 0. -1.
         -1   -1    0    0    0  501 -0.00000000000E+00 -0.00000000000E+00 -0.13876719076E+04  0.13876719076E+04  0.00000000000E+00 0. -1.
         25    1    1    2    0    0 -0.36138838833E+02  0.12422345255E+02 -0.34299560047E+03  0.36538515607E+03  0.12000000000E+03 0.  0.
         25    1    1    2    0    0  0.36138838833E+02 -0.12422345255E+02 -0.10296449029E+04  0.10373181558E+04  0.12000000000E+03 0.  0.
<mgrwt>
<rscale>  0 0.28885053E+03</rscale>
<asrwt>0</asrwt>
<pdfrwt beam="1">  1        1 0.23125237E-02 0.28885053E+03</pdfrwt>
<pdfrwt beam="2">  1       -1 0.21348799E+00 0.28885053E+03</pdfrwt>
<totfact> 0.66981115E+02</totfact>
</mgrwt>
</event>
<event>
 4    1  0.1807309E-004  0.2506724E+03  0.7818608E-02  0.1112881E+00
          1   -1    0    0  501    0  0.00000000000E+00  0.00000000000E+00  0.49697619521E+03  0.49697619521E+03  0.00000000000E+00 0. -1.
         -1   -1    0    0    0  501 -0.00000000000E+00 -0.00000000000E+00 -0.31609492766E+02  0.31609492766E+02  0.00000000000E+00 0. -1.
         25    1    1    2    0    0 -0.10249840354E+02 -0.17313087884E+02  0.29609664190E+03  0.32012188863E+03  0.12000000000E+03 0.  0.
         25    1    1    2    0    0  0.10249840354E+02  0.17313087884E+02  0.16927006055E+03  0.20846379935E+03  0.12000000000E+03 0.  0.
<mgrwt>
<rscale>  0 0.25067242E+03</rscale>
<asrwt>0</asrwt>
<pdfrwt beam="1">  1        1 0.76457871E-01 0.25067242E+03</pdfrwt>
<pdfrwt beam="2">  1       -1 0.48629992E-02 0.25067242E+03</pdfrwt>
<totfact> 0.82735103E+03</totfact>
</mgrwt>
</event>
<event>
 4    1  0.1807309E-004  0.2813478E+03  0.7818608E-02  0.1094955E+00
          1   -1    0    0  501    0  0.00000000000E+00  0.00000000000E+00  0.60812966994E+03  0.60812966994E+03  0.00000000000E+00 0.  1.
         -1   -1    0    0    0  501 -0.00000000000E+00 -0.00000000000E+00 -0.32540989251E+02  0.32540989251E+02  0.00000000000E+00 0.  1.
         25    1    1    2    0    0  0.31417542970E+02  0.20494362944E+02  0.14409814335E+03  0.19123638732E+03  0.12000000000E+03 0.  0.
         25    1    1    2    0    0 -0.31417542970E+02 -0.20494362944E+02  0.43149053734E+03  0.44943427187E+03  0.12000000000E+03 0.  0.
<mgrwt>
<rscale>  0 0.28134776E+03</rscale>
<asrwt>0</asrwt>
<pdfrwt beam="1">  1        1 0.93558402E-01 0.28134776E+03</pdfrwt>
<pdfrwt beam="2">  1       -1 0.50063065E-02 0.28134776E+03</pdfrwt>
<totfact> 0.60464923E+03</totfact>
</mgrwt>
</event>
<event>
 4    1  0.1807309E-004  0.3338186E+03  0.7818608E-02  0.1069460E+00
          2   -1    0    0  501    0  0.00000000000E+00  0.00000000000E+00  0.19991638109E+04  0.19991638109E+04  0.00000000000E+00 0.  1.
         -2   -1    0    0    0  501 -0.00000000000E+00 -0.00000000000E+00 -0.13935181003E+02  0.13935181003E+02  0.00000000000E+00 0.  1.
         25    1    1    2    0    0  0.59618216152E+02 -0.88456539175E+02  0.71759236276E+03  0.73533508695E+03  0.12000000000E+03 0.  0.
         25    1    1    2    0    0 -0.59618216152E+02  0.88456539175E+02  0.12676362671E+04  0.12777639049E+04  0.12000000000E+03 0.  0.
<mgrwt>
<rscale>  0 0.33381857E+03</rscale>
<asrwt>0</asrwt>
<pdfrwt beam="1">  1        2 0.30756344E+00 0.33381857E+03</pdfrwt>
<pdfrwt beam="2">  1       -2 0.21438756E-02 0.33381857E+03</pdfrwt>
<totfact> 0.51879533E+03</totfact>
</mgrwt>
</event>
<event>
 4    1  0.1807309E-004  0.3575976E+03  0.7818608E-02  0.1059539E+00
         -2   -1    0    0    0  501 -0.00000000000E+00  0.00000000000E+00  0.29945186902E+02  0.29945186902E+02  0.00000000000E+00 0. -1.
          2   -1    0    0  501    0  0.00000000000E+00 -0.00000000000E+00 -0.10675845615E+04  0.10675845615E+04  0.00000000000E+00 0. -1.
         25    1    1    2    0    0 -0.13020780219E+03 -0.66328290890E+01 -0.59215646928E+03  0.61809978990E+03  0.12000000000E+03 0.  0.
         25    1    1    2    0    0  0.13020780219E+03  0.66328290890E+01 -0.44548290532E+03  0.47942995850E+03  0.12000000000E+03 0.  0.
<mgrwt>
<rscale>  0 0.35759765E+03</rscale>
<asrwt>0</asrwt>
<pdfrwt beam="1">  1        2 0.16424380E+00 0.35759765E+03</pdfrwt>
<pdfrwt beam="2">  1       -2 0.46069513E-02 0.35759765E+03</pdfrwt>
<totfact> 0.53204460E+03</totfact>
</mgrwt>
</event>
<event>
 4    1  0.1807309E-004  0.2614043E+03  0.7818608E-02  0.1106302E+00
          2   -1    0    0  501    0  0.00000000000E+00  0.00000000000E+00  0.37707307926E+03  0.37707307926E+03  0.00000000000E+00 0. -1.
         -2   -1    0    0    0  501 -0.00000000000E+00 -0.00000000000E+00 -0.45304349364E+02  0.45304349364E+02  0.00000000000E+00 0. -1.
         25    1    1    2    0    0 -0.77179702901E+01  0.30276159808E+02  0.23263941017E+03  0.26362342096E+03  0.12000000000E+03 0.  0.
         25    1    1    2    0    0  0.77179702901E+01 -0.30276159808E+02  0.99129319727E+02  0.15875400766E+03  0.12000000000E+03 0.  0.
<mgrwt>
<rscale>  0 0.26140429E+03</rscale>
<asrwt>0</asrwt>
<pdfrwt beam="1">  1        2 0.58011241E-01 0.26140429E+03</pdfrwt>
<pdfrwt beam="2">  1       -2 0.69699002E-02 0.26140429E+03</pdfrwt>
<totfact> 0.98929499E+03</totfact>
</mgrwt>
</event>
<event>
 4    1  0.1807309E-004  0.3031071E+03  0.7818608E-02  0.1083698E+00
         -2   -1    0    0    0  501 -0.00000000000E+00  0.00000000000E+00  0.44462490704E+02  0.44462490704E+02  0.00000000000E+00 0. -1.
          2   -1    0    0  501    0  0.00000000000E+00 -0.00000000000E+00 -0.51658087472E+03  0.51658087472E+03  0.00000000000E+00 0. -1.
         25    1    1    2    0    0 -0.61805863327E+02 -0.63236014411E+02 -0.18537783746E+03  0.23787328745E+03  0.12000000000E+03 0.  0.
         25    1    1    2    0    0  0.61805863327E+02  0.63236014411E+02 -0.28674054656E+03  0.32317007798E+03  0.12000000000E+03 0.  0.
<mgrwt>
<rscale>  0 0.30310706E+03</rscale>
<asrwt>0</asrwt>
<pdfrwt beam="1">  1        2 0.79473978E-01 0.30310706E+03</pdfrwt>
<pdfrwt beam="2">  1       -2 0.68403835E-02 0.30310706E+03</pdfrwt>
<totfact> 0.72394331E+03</totfact>
</mgrwt>
</event>
<event>
 4    1  0.1807309E-004  0.2949532E+03  0.7818608E-02  0.1087791E+00
          2   -1    0    0  501    0  0.00000000000E+00  0.00000000000E+00  0.14069608654E+03  0.14069608654E+03  0.00000000000E+00 0. -1.
         -2   -1    0    0    0  501 -0.00000000000E+00 -0.00000000000E+00 -0.15458392519E+03  0.15458392519E+03  0.00000000000E+00 0. -1.
         25    1    1    2    0    0  0.77156781295E+02 -0.27477304170E+02  0.18405709138E+02  0.14644774246E+03  0.12000000000E+03 0.  0.
         25    1    1    2    0    0 -0.77156781295E+02  0.27477304170E+02 -0.32293547790E+02  0.14883226926E+03  0.12000000000E+03 0.  0.
<mgrwt>
<rscale>  0 0.29495324E+03</rscale>
<asrwt>0</asrwt>
<pdfrwt beam="1">  1        2 0.21645552E-01 0.29495324E+03</pdfrwt>
<pdfrwt beam="2">  1       -2 0.23782142E-01 0.29495324E+03</pdfrwt>
<totfact> 0.39267989E+03</totfact>
</mgrwt>
</event>
<event>
 4    1  0.1807309E-004  0.2521902E+03  0.7818608E-02  0.1111928E+00
         -1   -1    0    0    0  501 -0.00000000000E+00  0.00000000000E+00  0.81247033012E+01  0.81247033012E+01  0.00000000000E+00 0. -1.
          1   -1    0    0  501    0  0.00000000000E+00 -0.00000000000E+00 -0.19569911816E+04  0.19569911816E+04  0.00000000000E+00 0. -1.
         25    1    1    2    0    0  0.14824524696E+02  0.17938681902E+01 -0.69597926138E+03  0.70640648126E+03  0.12000000000E+03 0.  0.
         25    1    1    2    0    0 -0.14824524696E+02 -0.17938681902E+01 -0.12528872169E+04  0.12587094036E+04  0.12000000000E+03 0.  0.
<mgrwt>
<rscale>  0 0.25219019E+03</rscale>
<asrwt>0</asrwt>
<pdfrwt beam="1">  1        1 0.30107586E+00 0.25219019E+03</pdfrwt>
<pdfrwt beam="2">  1       -1 0.12499531E-02 0.25219019E+03</pdfrwt>
<totfact> 0.48931513E+03</totfact>
</mgrwt>
</event>
<event>
 4    1  0.1807309E-004  0.2669683E+03  0.7818608E-02  0.1103027E+00
          2   -1    0    0  501    0  0.00000000000E+00  0.00000000000E+00  0.15651184675E+04  0.15651184675E+04  0.00000000000E+00 0.  1.
         -2   -1    0    0    0  501 -0.00000000000E+00 -0.00000000000E+00 -0.11384449232E+02  0.11384449232E+02  0.00000000000E+00 0.  1.
         25    1    1    2    0    0 -0.45817212645E+02 -0.23731434630E+02  0.61454212750E+03  0.62827098010E+03  0.12000000000E+03 0.  0.
         25    1    1    2    0    0  0.45817212645E+02  0.23731434630E+02  0.93919189080E+03  0.94823193667E+03  0.12000000000E+03 0.  0.
<mgrwt>
<rscale>  0 0.26696825E+03</rscale>
<asrwt>0</asrwt>
<pdfrwt beam="1">  1        2 0.24078729E+00 0.26696825E+03</pdfrwt>
<pdfrwt beam="2">  1       -2 0.17514550E-02 0.26696825E+03</pdfrwt>
<totfact> 0.11825916E+04</totfact>
</mgrwt>
</event>
<event>
 4    1  0.1807309E-004  0.2974069E+03  0.7818608E-02  0.1086544E+00
          2   -1    0    0  501    0  0.00000000000E+00  0.00000000000E+00  0.11545538985E+03  0.11545538985E+03  0.00000000000E+00 0.  1.
         -2   -1    0    0    0  501 -0.00000000000E+00 -0.00000000000E+00 -0.19152602230E+03  0.19152602230E+03  0.00000000000E+00 0.  1.
         25    1    1    2    0    0 -0.50575834055E+02 -0.71683172085E+02 -0.42205099155E+02  0.15452398696E+03  0.12000000000E+03 0.  0.
         25    1    1    2    0    0  0.50575834055E+02  0.71683172085E+02 -0.33865533298E+02  0.15245742519E+03  0.12000000000E+03 0.  0.
<mgrwt>
<rscale>  0 0.29740687E+03</rscale>
<asrwt>0</asrwt>
<pdfrwt beam="1">  1        2 0.17762368E-01 0.29740687E+03</pdfrwt>
<pdfrwt beam="2">  1       -2 0.29465541E-01 0.29740687E+03</pdfrwt>
<totfact> 0.33647795E+03</totfact>
</mgrwt>
</event>
<event>
 4    1  0.1807309E-004  0.3348519E+03  0.7818608E-02  0.1069010E+00
         -1   -1    0    0    0  501 -0.00000000000E+00  0.00000000000E+00  0.10534789214E+03  0.10534789214E+03  0.00000000000E+00 0. -1.
          1   -1    0    0  501    0  0.00000000000E+00 -0.00000000000E+00 -0.26608455329E+03  0.26608455329E+03  0.00000000000E+00 0. -1.
         25    1    1    2    0    0  0.10699264740E+03 -0.27305667983E+01 -0.13211862541E+03  0.20811106115E+03  0.12000000000E+03 0.  0.
         25    1    1    2    0    0 -0.10699264740E+03  0.27305667983E+01 -0.28618035734E+02  0.16332138428E+03  0.12000000000E+03 0.  0.
<mgrwt>
<rscale>  0 0.33485189E+03</rscale>
<asrwt>0</asrwt>
<pdfrwt beam="1">  1        1 0.40936084E-01 0.33485189E+03</pdfrwt>
<pdfrwt beam="2">  1       -1 0.16207368E-01 0.33485189E+03</pdfrwt>
<totfact> 0.29014365E+03</totfact>
</mgrwt>
</event>
<event>
 4    1  0.1807309E-004  0.3673364E+03  0.7818608E-02  0.1055716E+00
          2   -1    0    0  501    0  0.00000000000E+00  0.00000000000E+00  0.13901492669E+03  0.13901492669E+03  0.00000000000E+00 0.  1.
         -2   -1    0    0    0  501 -0.00000000000E+00 -0.00000000000E+00 -0.24266462547E+03  0.24266462547E+03  0.00000000000E+00 0.  1.
         25    1    1    2    0    0  0.16775864146E+02  0.12565918170E+03  0.75223084863E+01  0.17472333756E+03  0.12000000000E+03 0.  0.
         25    1    1    2    0    0 -0.16775864146E+02 -0.12565918170E+03 -0.11117200726E+03  0.20695621460E+03  0.12000000000E+03 0.  0.
<mgrwt>
<rscale>  0 0.36733639E+03</rscale>
<asrwt>0</asrwt>
<pdfrwt beam="1">  1        2 0.21386912E-01 0.36733639E+03</pdfrwt>
<pdfrwt beam="2">  1       -2 0.37333019E-01 0.36733639E+03</pdfrwt>
<totfact> 0.17576821E+03</totfact>
</mgrwt>
</event>
<event>
 4    1  0.1807309E-004  0.3325383E+03  0.7818608E-02  0.1070019E+00
          2   -1    0    0  501    0  0.00000000000E+00  0.00000000000E+00  0.14613175248E+04  0.14613175248E+04  0.00000000000E+00 0.  1.
         -2   -1    0    0    0  501 -0.00000000000E+00 -0.00000000000E+00 -0.18918155903E+02  0.18918155903E+02  0.00000000000E+00 0.  1.
         25    1    1    2    0    0 -0.10404015272E+03 -0.42361669867E+02  0.83262231009E+03  0.84869239169E+03  0.12000000000E+03 0.  0.
         25    1    1    2    0    0  0.10404015272E+03  0.42361669867E+02  0.60977705878E+03  0.63154328899E+03  0.12000000000E+03 0.  0.
<mgrwt>
<rscale>  0 0.33253832E+03</rscale>
<asrwt>0</asrwt>
<pdfrwt beam="1">  1        2 0.22481799E+00 0.33253832E+03</pdfrwt>
<pdfrwt beam="2">  1       -2 0.29104867E-02 0.33253832E+03</pdfrwt>
<totfact> 0.63614982E+03</totfact>
</mgrwt>
</event>
<event>
 4    1  0.1807309E-004  0.5503822E+03  0.7818608E-02  0.1001405E+00
         -2   -1    0    0    0  501 -0.00000000000E+00  0.00000000000E+00  0.22524155005E+02  0.22524155005E+02  0.00000000000E+00 0. -1.
          2   -1    0    0  501    0  0.00000000000E+00 -0.00000000000E+00 -0.33621751265E+04  0.33621751265E+04  0.00000000000E+00 0. -1.
         25    1    1    2    0    0 -0.16940822333E+03  0.16460586445E+03 -0.21273880213E+04  0.21438222944E+04  0.12000000000E+03 0.  0.
         25    1    1    2    0    0  0.16940822333E+03 -0.16460586445E+03 -0.12122629502E+04  0.12408769871E+04  0.12000000000E+03 0.  0.
<mgrwt>
<rscale>  0 0.55038224E+03</rscale>
<asrwt>0</asrwt>
<pdfrwt beam="1">  1        2 0.51725757E+00 0.55038224E+03</pdfrwt>
<pdfrwt beam="2">  1       -2 0.34652555E-02 0.55038224E+03</pdfrwt>
<totfact> 0.40339352E+02</totfact>
</mgrwt>
</event>
<event>
 4    1  0.1807309E-004  0.3320667E+03  0.7818608E-02  0.1070226E+00
          3   -1    0    0  501    0  0.00000000000E+00  0.00000000000E+00  0.23882640144E+03  0.23882640144E+03  0.00000000000E+00 0.  1.
         -3   -1    0    0    0  501 -0.00000000000E+00 -0.00000000000E+00 -0.11542726659E+03  0.11542726659E+03  0.00000000000E+00 0.  1.
         25    1    1    2    0    0  0.35644079415E+02 -0.10446868327E+03  0.28254075750E+02  0.16547658136E+03  0.12000000000E+03 0.  0.
         25    1    1    2    0    0 -0.35644079415E+02  0.10446868327E+03  0.95145059106E+02  0.18877708667E+03  0.12000000000E+03 0.  0.
<mgrwt>
<rscale>  0 0.33206673E+03</rscale>
<asrwt>0</asrwt>
<pdfrwt beam="1">  1        3 0.36742523E-01 0.33206673E+03</pdfrwt>
<pdfrwt beam="2">  1       -3 0.17758041E-01 0.33206673E+03</pdfrwt>
<totfact> 0.52316213E+02</totfact>
</mgrwt>
</event>
<event>
 4    1  0.1807309E-004  0.2528190E+03  0.7818608E-02  0.1111536E+00
         -2   -1    0    0    0  501 -0.00000000000E+00  0.00000000000E+00  0.15348705106E+03  0.15348705106E+03  0.00000000000E+00 0. -1.
          2   -1    0    0  501    0  0.00000000000E+00 -0.00000000000E+00 -0.10410883497E+03  0.10410883497E+03  0.00000000000E+00 0. -1.
         25    1    1    2    0    0  0.16756966664E+02 -0.35346818189E+02  0.17544877881E+02  0.12742847495E+03  0.12000000000E+03 0.  0.
         25    1    1    2    0    0 -0.16756966664E+02  0.35346818189E+02  0.31833338211E+02  0.13016741109E+03  0.12000000000E+03 0.  0.
<mgrwt>
<rscale>  0 0.25281897E+03</rscale>
<asrwt>0</asrwt>
<pdfrwt beam="1">  1        2 0.16016744E-01 0.25281897E+03</pdfrwt>
<pdfrwt beam="2">  1       -2 0.23613392E-01 0.25281897E+03</pdfrwt>
<totfact> 0.56011763E+03</totfact>
</mgrwt>
</event>
<event>
 4    1  0.1807309E-004  0.2625124E+03  0.7818608E-02  0.1105643E+00
         -2   -1    0    0    0  501 -0.00000000000E+00  0.00000000000E+00  0.44641094328E+02  0.44641094328E+02  0.00000000000E+00 0.  1.
          2   -1    0    0  501    0  0.00000000000E+00 -0.00000000000E+00 -0.38592665669E+03  0.38592665669E+03  0.00000000000E+00 0.  1.
         25    1    1    2    0    0 -0.22255852629E+02 -0.47841335335E+02 -0.15975416241E+03  0.20665311212E+03  0.12000000000E+03 0.  0.
         25    1    1    2    0    0  0.22255852629E+02  0.47841335335E+02 -0.18153139995E+03  0.22391463890E+03  0.12000000000E+03 0.  0.
<mgrwt>
<rscale>  0 0.26251239E+03</rscale>
<asrwt>0</asrwt>
<pdfrwt beam="1">  1        2 0.59373333E-01 0.26251239E+03</pdfrwt>
<pdfrwt beam="2">  1       -2 0.68678605E-02 0.26251239E+03</pdfrwt>
<totfact> 0.98720214E+03</totfact>
</mgrwt>
</event>
<event>
 4    1  0.1807309E-004  0.3294913E+03  0.7818608E-02  0.1071362E+00
         -1   -1    0    0    0  501 -0.00000000000E+00  0.00000000000E+00  0.56188294911E+02  0.56188294911E+02  0.00000000000E+00 0.  1.
          1   -1    0    0  501    0  0.00000000000E+00 -0.00000000000E+00 -0.48303893147E+03  0.48303893147E+03  0.00000000000E+00 0.  1.
         25    1    1    2    0    0 -0.82037069034E+01 -0.79417419833E+01 -0.29645217713E+02  0.12413384311E+03  0.12000000000E+03 0.  0.
         25    1    1    2    0    0  0.82037069034E+01  0.79417419833E+01 -0.39720541885E+03  0.41509338327E+03  0.12000000000E+03 0.  0.
<mgrwt>
<rscale>  0 0.32949133E+03</rscale>
<asrwt>0</asrwt>
<pdfrwt beam="1">  1        1 0.74313683E-01 0.32949133E+03</pdfrwt>
<pdfrwt beam="2">  1       -1 0.86443529E-02 0.32949133E+03</pdfrwt>
<totfact> 0.36192574E+03</totfact>
</mgrwt>
</event>
<event>
 4    1  0.1807309E-004  0.3823236E+03  0.7818608E-02  0.1050078E+00
          2   -1    0    0  501    0  0.00000000000E+00  0.00000000000E+00  0.12118634834E+04  0.12118634834E+04  0.00000000000E+00 0.  1.
         -2   -1    0    0    0  501 -0.00000000000E+00 -0.00000000000E+00 -0.30154250441E+02  0.30154250441E+02  0.00000000000E+00 0.  1.
         25    1    1    2    0    0  0.58122480082E+02 -0.96111030278E+02  0.27376560196E+03  0.31931670431E+03  0.12000000000E+03 0.  0.
         25    1    1    2    0    0 -0.58122480082E+02  0.96111030278E+02  0.90794363095E+03  0.92270102948E+03  0.12000000000E+03 0.  0.
<mgrwt>
<rscale>  0 0.38232361E+03</rscale>
<asrwt>0</asrwt>
<pdfrwt beam="1">  1        2 0.18644050E+00 0.38232361E+03</pdfrwt>
<pdfrwt beam="2">  1       -2 0.46391164E-02 0.38232361E+03</pdfrwt>
<totfact> 0.43338588E+03</totfact>
</mgrwt>
</event>
<event>
 4    1  0.1807309E-004  0.3348131E+03  0.7818608E-02  0.1069027E+00
          2   -1    0    0  501    0  0.00000000000E+00  0.00000000000E+00  0.20094529678E+03  0.20094529678E+03  0.00000000000E+00 0.  1.
         -2   -1    0    0    0  501 -0.00000000000E+00 -0.00000000000E+00 -0.13946558140E+03  0.13946558140E+03  0.00000000000E+00 0.  1.
         25    1    1    2    0    0  0.48369411099E+02  0.78345057079E+01  0.13845439041E+03  0.18965916175E+03  0.12000000000E+03 0.  0.
         25    1    1    2    0    0 -0.48369411099E+02 -0.78345057079E+01 -0.76974675041E+02  0.15075171643E+03  0.12000000000E+03 0.  0.
<mgrwt>
<rscale>  0 0.33481310E+03</rscale>
<asrwt>0</asrwt>
<pdfrwt beam="1">  1        2 0.30914661E-01 0.33481310E+03</pdfrwt>
<pdfrwt beam="2">  1       -2 0.21456243E-01 0.33481310E+03</pdfrwt>
<totfact> 0.31640964E+03</totfact>
</mgrwt>
</event>
<event>
 4    1  0.1807309E-004  0.2898015E+03  0.7818608E-02  0.1090453E+00
          2   -1    0    0  501    0  0.00000000000E+00  0.00000000000E+00  0.60733176253E+03  0.60733176253E+03  0.00000000000E+00 0. -1.
         -2   -1    0    0    0  501 -0.00000000000E+00 -0.00000000000E+00 -0.34571262872E+02  0.34571262872E+02  0.00000000000E+00 0. -1.
         25    1    1    2    0    0  0.29663099342E+02  0.52120346889E+02  0.16506520373E+03  0.21270390571E+03  0.12000000000E+03 0.  0.
         25    1    1    2    0    0 -0.29663099342E+02 -0.52120346889E+02  0.40769529592E+03  0.42919911968E+03  0.12000000000E+03 0.  0.
<mgrwt>
<rscale>  0 0.28980149E+03</rscale>
<asrwt>0</asrwt>
<pdfrwt beam="1">  1        2 0.93435648E-01 0.28980149E+03</pdfrwt>
<pdfrwt beam="2">  1       -2 0.53186563E-02 0.28980149E+03</pdfrwt>
<totfact> 0.88417456E+03</totfact>
</mgrwt>
</event>
<event>
 4    1  0.1807309E-004  0.4133662E+03  0.7818608E-02  0.1039247E+00
         -2   -1    0    0    0  501 -0.00000000000E+00  0.00000000000E+00  0.69204176127E+02  0.69204176127E+02  0.00000000000E+00 0. -1.
          2   -1    0    0  501    0  0.00000000000E+00 -0.00000000000E+00 -0.61727352973E+03  0.61727352973E+03  0.00000000000E+00 0. -1.
         25    1    1    2    0    0 -0.14707438241E+03 -0.31518193356E+02 -0.39934484060E+03  0.44328385058E+03  0.12000000000E+03 0.  0.
         25    1    1    2    0    0  0.14707438241E+03  0.31518193356E+02 -0.14872451300E+03  0.24319385527E+03  0.12000000000E+03 0.  0.
<mgrwt>
<rscale>  0 0.41336621E+03</rscale>
<asrwt>0</asrwt>
<pdfrwt beam="1">  1        2 0.94965152E-01 0.41336621E+03</pdfrwt>
<pdfrwt beam="2">  1       -2 0.10646797E-01 0.41336621E+03</pdfrwt>
<totfact> 0.29450201E+03</totfact>
</mgrwt>
</event>
<event>
 4    1  0.1807309E-004  0.2636876E+03  0.7818608E-02  0.1104948E+00
          1   -1    0    0  501    0  0.00000000000E+00  0.00000000000E+00  0.13093557216E+04  0.13093557216E+04  0.00000000000E+00 0.  1.
         -1   -1    0    0    0  501 -0.00000000000E+00 -0.00000000000E+00 -0.13275828792E+02  0.13275828792E+02  0.00000000000E+00 0.  1.
         25    1    1    2    0    0 -0.33476565140E+02  0.20615412334E+02  0.83818881700E+03  0.84764743177E+03  0.12000000000E+03 0.  0.
         25    1    1    2    0    0  0.33476565140E+02 -0.20615412334E+02  0.45789107577E+03  0.47498411859E+03  0.12000000000E+03 0.  0.
<mgrwt>
<rscale>  0 0.26368756E+03</rscale>
<asrwt>0</asrwt>
<pdfrwt beam="1">  1        1 0.20143924E+00 0.26368756E+03</pdfrwt>
<pdfrwt beam="2">  1       -1 0.20424362E-02 0.26368756E+03</pdfrwt>
<totfact> 0.63867890E+03</totfact>
</mgrwt>
</event>
<event>
 4    1  0.1807309E-004  0.2680730E+03  0.7818608E-02  0.1102388E+00
         -1   -1    0    0    0  501 -0.00000000000E+00  0.00000000000E+00  0.45201266262E+02  0.45201266262E+02  0.00000000000E+00 0.  1.
          1   -1    0    0  501    0  0.00000000000E+00 -0.00000000000E+00 -0.39746203614E+03  0.39746203614E+03  0.00000000000E+00 0.  1.
         25    1    1    2    0    0 -0.96383493752E+01 -0.57718354953E+02 -0.15648911656E+03  0.20570160398E+03  0.12000000000E+03 0.  0.
         25    1    1    2    0    0  0.96383493752E+01  0.57718354953E+02 -0.19577165332E+03  0.23696169843E+03  0.12000000000E+03 0.  0.
<mgrwt>
<rscale>  0 0.26807303E+03</rscale>
<asrwt>0</asrwt>
<pdfrwt beam="1">  1        1 0.61148007E-01 0.26807303E+03</pdfrwt>
<pdfrwt beam="2">  1       -1 0.69540408E-02 0.26807303E+03</pdfrwt>
<totfact> 0.64735699E+03</totfact>
</mgrwt>
</event>
<event>
 4    1  0.1807309E-004  0.3034301E+03  0.7818608E-02  0.1083538E+00
          1   -1    0    0  501    0  0.00000000000E+00  0.00000000000E+00  0.10618942341E+04  0.10618942341E+04  0.00000000000E+00 0.  1.
         -1   -1    0    0    0  501 -0.00000000000E+00 -0.00000000000E+00 -0.21675842195E+02  0.21675842195E+02  0.00000000000E+00 0.  1.
         25    1    1    2    0    0  0.21327854022E+02  0.49871106646E+02  0.78913778262E+03  0.80005027629E+03  0.12000000000E+03 0.  0.
         25    1    1    2    0    0 -0.21327854022E+02 -0.49871106646E+02  0.25108060929E+03  0.28351980001E+03  0.12000000000E+03 0.  0.
<mgrwt>
<rscale>  0 0.30343007E+03</rscale>
<asrwt>0</asrwt>
<pdfrwt beam="1">  1        1 0.16336830E+00 0.30343007E+03</pdfrwt>
<pdfrwt beam="2">  1       -1 0.33347458E-02 0.30343007E+03</pdfrwt>
<totfact> 0.46458656E+03</totfact>
</mgrwt>
</event>
<event>
 4    1  0.1807309E-004  0.2507474E+03  0.7818608E-02  0.1112833E+00
          4   -1    0    0  501    0  0.00000000000E+00  0.00000000000E+00  0.75820181835E+03  0.75820181835E+03  0.00000000000E+00 0.  1.
         -4   -1    0    0    0  501 -0.00000000000E+00 -0.00000000000E+00 -0.20731367711E+02  0.20731367711E+02  0.00000000000E+00 0.  1.
         25    1    1    2    0    0  0.12251337898E+02  0.78155830524E+00  0.47489456479E+03  0.48997505425E+03  0.12000000000E+03 0.  0.
         25    1    1    2    0    0 -0.12251337898E+02 -0.78155830524E+00  0.26257588585E+03  0.28895813181E+03  0.12000000000E+03 0.  0.
<mgrwt>
<rscale>  0 0.25074737E+03</rscale>
<asrwt>0</asrwt>
<pdfrwt beam="1">  1        4 0.11664641E+00 0.25074737E+03</pdfrwt>
<pdfrwt beam="2">  1       -4 0.31894418E-02 0.25074737E+03</pdfrwt>
<totfact> 0.53722327E+02</totfact>
</mgrwt>
</event>
<event>
 4    1  0.1807309E-004  0.2621763E+03  0.7818608E-02  0.1105843E+00
         -2   -1    0    0    0  501 -0.00000000000E+00  0.00000000000E+00  0.28196482357E+02  0.28196482357E+02  0.00000000000E+00 0. -1.
          2   -1    0    0  501    0  0.00000000000E+00 -0.00000000000E+00 -0.60944138174E+03  0.60944138174E+03  0.00000000000E+00 0. -1.
         25    1    1    2    0    0  0.42759813341E+02 -0.19379219194E+02 -0.23204238593E+03  0.26541971412E+03  0.12000000000E+03 0.  0.
         25    1    1    2    0    0 -0.42759813341E+02  0.19379219194E+02 -0.34920251345E+03  0.37221814998E+03  0.12000000000E+03 0.  0.
<mgrwt>
<rscale>  0 0.26217630E+03</rscale>
<asrwt>0</asrwt>
<pdfrwt beam="1">  1        2 0.93760211E-01 0.26217630E+03</pdfrwt>
<pdfrwt beam="2">  1       -2 0.43379204E-02 0.26217630E+03</pdfrwt>
<totfact> 0.11952446E+04</totfact>
</mgrwt>
</event>
<event>
 4    1  0.1807309E-004  0.4105316E+03  0.7818608E-02  0.1040193E+00
         -1   -1    0    0    0  501 -0.00000000000E+00  0.00000000000E+00  0.70473294866E+03  0.70473294866E+03  0.00000000000E+00 0.  1.
          1   -1    0    0  501    0  0.00000000000E+00 -0.00000000000E+00 -0.59787269238E+02  0.59787269238E+02  0.00000000000E+00 0.  1.
         25    1    1    2    0    0  0.13366996082E+03 -0.74469728313E+02  0.44488297057E+03  0.48552472271E+03  0.12000000000E+03 0.  0.
         25    1    1    2    0    0 -0.13366996082E+03  0.74469728313E+02  0.20006270886E+03  0.27899549519E+03  0.12000000000E+03 0.  0.
<mgrwt>
<rscale>  0 0.41053165E+03</rscale>
<asrwt>0</asrwt>
<pdfrwt beam="1">  1        1 0.91980419E-02 0.41053165E+03</pdfrwt>
<pdfrwt beam="2">  1       -1 0.10842045E+00 0.41053165E+03</pdfrwt>
<totfact> 0.60343854E+02</totfact>
</mgrwt>
</event>
<event>
 4    1  0.1807309E-004  0.2999420E+03  0.7818608E-02  0.1085270E+00
          1   -1    0    0  501    0  0.00000000000E+00  0.00000000000E+00  0.71885703720E+03  0.71885703720E+03  0.00000000000E+00 0. -1.
         -1   -1    0    0    0  501 -0.00000000000E+00 -0.00000000000E+00 -0.31287593373E+02  0.31287593373E+02  0.00000000000E+00 0. -1.
         25    1    1    2    0    0  0.41223780582E+02 -0.71188926125E+02  0.43478836397E+03  0.45848466140E+03  0.12000000000E+03 0.  0.
         25    1    1    2    0    0 -0.41223780582E+02  0.71188926125E+02  0.25278107985E+03  0.29165996918E+03  0.12000000000E+03 0.  0.
<mgrwt>
<rscale>  0 0.29994204E+03</rscale>
<asrwt>0</asrwt>
<pdfrwt beam="1">  1        1 0.11059338E+00 0.29994204E+03</pdfrwt>
<pdfrwt beam="2">  1       -1 0.48134764E-02 0.29994204E+03</pdfrwt>
<totfact> 0.50519967E+03</totfact>
</mgrwt>
</event>
<event>
 4    1  0.1807309E-004  0.3287508E+03  0.7818608E-02  0.1071691E+00
         -2   -1    0    0    0  501 -0.00000000000E+00  0.00000000000E+00  0.90237202759E+01  0.90237202759E+01  0.00000000000E+00 0. -1.
          2   -1    0    0  501    0  0.00000000000E+00 -0.00000000000E+00 -0.29942503466E+04  0.29942503466E+04  0.00000000000E+00 0. -1.
         25    1    1    2    0    0  0.13143912344E+02 -0.11149968110E+03 -0.15272029354E+04  0.15360187978E+04  0.12000000000E+03 0.  0.
         25    1    1    2    0    0 -0.13143912344E+02  0.11149968110E+03 -0.14580236909E+04  0.14672552691E+04  0.12000000000E+03 0.  0.
<mgrwt>
<rscale>  0 0.32875083E+03</rscale>
<asrwt>0</asrwt>
<pdfrwt beam="1">  1        2 0.46065437E+00 0.32875083E+03</pdfrwt>
<pdfrwt beam="2">  1       -2 0.13882632E-02 0.32875083E+03</pdfrwt>
<totfact> 0.27603126E+03</totfact>
</mgrwt>
</event>
<event>
 4    1  0.1807309E-004  0.4291065E+03  0.7818608E-02  0.1034143E+00
          1   -1    0    0  501    0  0.00000000000E+00  0.00000000000E+00  0.22481522849E+03  0.22481522849E+03  0.00000000000E+00 0. -1.
         -1   -1    0    0    0  501 -0.00000000000E+00 -0.00000000000E+00 -0.20475970085E+03  0.20475970085E+03  0.00000000000E+00 0. -1.
         25    1    1    2    0    0 -0.41844023671E+02  0.16553833964E+03  0.59874031847E+02  0.21711463308E+03  0.12000000000E+03 0.  0.
         25    1    1    2    0    0  0.41844023671E+02 -0.16553833964E+03 -0.39818504202E+02  0.21246029626E+03  0.12000000000E+03 0.  0.
<mgrwt>
<rscale>  0 0.42910651E+03</rscale>
<asrwt>0</asrwt>
<pdfrwt beam="1">  1        1 0.34586958E-01 0.42910651E+03</pdfrwt>
<pdfrwt beam="2">  1       -1 0.31501493E-01 0.42910651E+03</pdfrwt>
<totfact> 0.11929088E+03</totfact>
</mgrwt>
</event>
<event>
 4    1  0.1807309E-004  0.2800248E+03  0.7818608E-02  0.1095675E+00
         -2   -1    0    0    0  501 -0.00000000000E+00  0.00000000000E+00  0.35568878223E+02  0.35568878223E+02  0.00000000000E+00 0. -1.
          2   -1    0    0  501    0  0.00000000000E+00 -0.00000000000E+00 -0.55114125637E+03  0.55114125637E+03  0.00000000000E+00 0. -1.
         25    1    1    2    0    0  0.40922543789E+02 -0.31434713115E+02 -0.36339546679E+03  0.38615937262E+03  0.12000000000E+03 0.  0.
         25    1    1    2    0    0 -0.40922543789E+02  0.31434713115E+02 -0.15217691137E+03  0.20055076198E+03  0.12000000000E+03 0.  0.
<mgrwt>
<rscale>  0 0.28002483E+03</rscale>
<asrwt>0</asrwt>
<pdfrwt beam="1">  1        2 0.84790959E-01 0.28002483E+03</pdfrwt>
<pdfrwt beam="2">  1       -2 0.54721353E-02 0.28002483E+03</pdfrwt>
<totfact> 0.94579261E+03</totfact>
</mgrwt>
</event>
<event>
 4    1  0.1807309E-004  0.2526321E+03  0.7818608E-02  0.1111653E+00
          2   -1    0    0  501    0  0.00000000000E+00  0.00000000000E+00  0.88041062542E+03  0.88041062542E+03  0.00000000000E+00 0. -1.
         -2   -1    0    0    0  501 -0.00000000000E+00 -0.00000000000E+00 -0.18123078362E+02  0.18123078362E+02  0.00000000000E+00 0. -1.
         25    1    1    2    0    0  0.16338003177E+01 -0.36666324209E+02  0.37976691296E+03  0.39996249426E+03  0.12000000000E+03 0.  0.
         25    1    1    2    0    0 -0.16338003177E+01  0.36666324209E+02  0.48252063410E+03  0.49857120952E+03  0.12000000000E+03 0.  0.
<mgrwt>
<rscale>  0 0.25263215E+03</rscale>
<asrwt>0</asrwt>
<pdfrwt beam="1">  1        2 0.13544776E+00 0.25263215E+03</pdfrwt>
<pdfrwt beam="2">  1       -2 0.27881666E-02 0.25263215E+03</pdfrwt>
<totfact> 0.14673269E+04</totfact>
</mgrwt>
</event>
<event>
 4    1  0.1807309E-004  0.2668217E+03  0.7818608E-02  0.1103113E+00
         -2   -1    0    0    0  501 -0.00000000000E+00  0.00000000000E+00  0.48422810160E+03  0.48422810160E+03  0.00000000000E+00 0.  1.
          2   -1    0    0  501    0  0.00000000000E+00 -0.00000000000E+00 -0.36756353049E+02  0.36756353049E+02  0.00000000000E+00 0.  1.
         25    1    1    2    0    0  0.33887328565E+02  0.23316369073E+02  0.30439453034E+03  0.32976966841E+03  0.12000000000E+03 0.  0.
         25    1    1    2    0    0 -0.33887328565E+02 -0.23316369073E+02  0.14307721821E+03  0.19121478623E+03  0.12000000000E+03 0.  0.
<mgrwt>
<rscale>  0 0.26682173E+03</rscale>
<asrwt>0</asrwt>
<pdfrwt beam="1">  1        2 0.56548239E-02 0.26682173E+03</pdfrwt>
<pdfrwt beam="2">  1       -2 0.74496627E-01 0.26682173E+03</pdfrwt>
<totfact> 0.22177238E+03</totfact>
</mgrwt>
</event>
<event>
 4    1  0.1807309E-004  0.4414356E+03  0.7818608E-02  0.1030307E+00
          2   -1    0    0  501    0  0.00000000000E+00  0.00000000000E+00  0.62047891451E+03  0.62047891451E+03  0.00000000000E+00 0.  1.
         -2   -1    0    0    0  501 -0.00000000000E+00 -0.00000000000E+00 -0.78514106632E+02  0.78514106632E+02  0.00000000000E+00 0.  1.
         25    1    1    2    0    0  0.72890489825E+00 -0.10498345168E+03  0.29308234976E+02  0.16211424696E+03  0.12000000000E+03 0.  0.
         25    1    1    2    0    0 -0.72890489825E+00  0.10498345168E+03  0.51265657290E+03  0.53687877418E+03  0.12000000000E+03 0.  0.
<mgrwt>
<rscale>  0 0.44143560E+03</rscale>
<asrwt>0</asrwt>
<pdfrwt beam="1">  1        2 0.95458291E-01 0.44143560E+03</pdfrwt>
<pdfrwt beam="2">  1       -2 0.12079094E-01 0.44143560E+03</pdfrwt>
<totfact> 0.23853053E+03</totfact>
</mgrwt>
</event>
<event>
 4    1  0.1807309E-004  0.3253848E+03  0.7818608E-02  0.1073197E+00
         -1   -1    0    0    0  501 -0.00000000000E+00  0.00000000000E+00  0.55994908143E+02  0.55994908143E+02  0.00000000000E+00 0. -1.
          1   -1    0    0  501    0  0.00000000000E+00 -0.00000000000E+00 -0.47270056756E+03  0.47270056756E+03  0.00000000000E+00 0. -1.
         25    1    1    2    0    0  0.10928085529E+03  0.52791905809E+01 -0.22449106693E+03  0.27706752663E+03  0.12000000000E+03 0.  0.
         25    1    1    2    0    0 -0.10928085529E+03 -0.52791905809E+01 -0.19221459249E+03  0.25162794907E+03  0.12000000000E+03 0.  0.
<mgrwt>
<rscale>  0 0.32538485E+03</rscale>
<asrwt>0</asrwt>
<pdfrwt beam="1">  1        1 0.72723163E-01 0.32538485E+03</pdfrwt>
<pdfrwt beam="2">  1       -1 0.86146014E-02 0.32538485E+03</pdfrwt>
<totfact> 0.37435087E+03</totfact>
</mgrwt>
</event>
<event>
 4    1  0.1807309E-004  0.3687302E+03  0.7818608E-02  0.1055180E+00
         -2   -1    0    0    0  501 -0.00000000000E+00  0.00000000000E+00  0.35990817294E+03  0.35990817294E+03  0.00000000000E+00 0. -1.
          2   -1    0    0  501    0  0.00000000000E+00 -0.00000000000E+00 -0.94442124164E+02  0.94442124164E+02  0.00000000000E+00 0. -1.
         25    1    1    2    0    0  0.77119680437E+02  0.63854496730E+02  0.25324753662E+03  0.29758890549E+03  0.12000000000E+03 0.  0.
         25    1    1    2    0    0 -0.77119680437E+02 -0.63854496730E+02  0.12218512155E+02  0.15676139162E+03  0.12000000000E+03 0.  0.
<mgrwt>
<rscale>  0 0.36873021E+03</rscale>
<asrwt>0</asrwt>
<pdfrwt beam="1">  1        2 0.14529558E-01 0.36873021E+03</pdfrwt>
<pdfrwt beam="2">  1       -2 0.55370487E-01 0.36873021E+03</pdfrwt>
<totfact> 0.12720569E+03</totfact>
</mgrwt>
</event>
<event>
 4    1  0.1807309E-004  0.2431174E+03  0.7818608E-02  0.1117733E+00
          2   -1    0    0  501    0  0.00000000000E+00  0.00000000000E+00  0.10488317821E+02  0.10488317821E+02  0.00000000000E+00 0. -1.
         -2   -1    0    0    0  501 -0.00000000000E+00 -0.00000000000E+00 -0.14088543780E+04  0.14088543780E+04  0.00000000000E+00 0. -1.
         25    1    1    2    0    0  0.38203959082E+01 -0.15471677233E+02 -0.76381059393E+03  0.77334377324E+03  0.12000000000E+03 0.  0.
         25    1    1    2    0    0 -0.38203959082E+01  0.15471677233E+02 -0.63455546630E+03  0.64599892263E+03  0.12000000000E+03 0.  0.
<mgrwt>
<rscale>  0 0.24311736E+03</rscale>
<asrwt>0</asrwt>
<pdfrwt beam="1">  1        2 0.16135878E-02 0.24311736E+03</pdfrwt>
<pdfrwt beam="2">  1       -2 0.21674677E+00 0.24311736E+03</pdfrwt>
<totfact> 0.83455545E+02</totfact>
</mgrwt>
</event>
<event>
 4    1  0.1807309E-004  0.3180562E+03  0.7818608E-02  0.1076547E+00
          2   -1    0    0  501    0  0.00000000000E+00  0.00000000000E+00  0.21586951519E+04  0.21586951519E+04  0.00000000000E+00 0. -1.
         -2   -1    0    0    0  501 -0.00000000000E+00 -0.00000000000E+00 -0.11715380987E+02  0.11715380987E+02  0.00000000000E+00 0. -1.
         25    1    1    2    0    0  0.99441017714E+02 -0.14582422030E+02  0.88183756893E+03  0.89562194089E+03  0.12000000000E+03 0.  0.
         25    1    1    2    0    0 -0.99441017714E+02  0.14582422030E+02  0.12651422020E+04  0.12747885920E+04  0.12000000000E+03 0.  0.
<mgrwt>
<rscale>  0 0.31805620E+03</rscale>
<asrwt>0</asrwt>
<pdfrwt beam="1">  1        2 0.33210663E+00 0.31805620E+03</pdfrwt>
<pdfrwt beam="2">  1       -2 0.18023680E-02 0.31805620E+03</pdfrwt>
<totfact> 0.55173991E+03</totfact>
</mgrwt>
</event>
<event>
 4    1  0.1807309E-004  0.2602488E+03  0.7818608E-02  0.1106994E+00
          1   -1    0    0  501    0  0.00000000000E+00  0.00000000000E+00  0.28504747579E+04  0.28504747579E+04  0.00000000000E+00 0. -1.
         -1   -1    0    0    0  501 -0.00000000000E+00 -0.00000000000E+00 -0.59401893316E+01  0.59401893316E+01  0.00000000000E+00 0. -1.
         25    1    1    2    0    0  0.33530840817E+02  0.81233377213E+01  0.18243519662E+04  0.18286198081E+04  0.12000000000E+03 0.  0.
         25    1    1    2    0    0 -0.33530840817E+02 -0.81233377213E+01  0.10201826024E+04  0.10277951392E+04  0.12000000000E+03 0.  0.
<mgrwt>
<rscale>  0 0.26024880E+03</rscale>
<asrwt>0</asrwt>
<pdfrwt beam="1">  1        1 0.43853349E+00 0.26024880E+03</pdfrwt>
<pdfrwt beam="2">  1       -1 0.91387756E-03 0.26024880E+03</pdfrwt>
<totfact> 0.19717978E+03</totfact>
</mgrwt>
</event>
<event>
 4    1  0.1807309E-004  0.3279418E+03  0.7818608E-02  0.1072051E+00
          2   -1    0    0  501    0  0.00000000000E+00  0.00000000000E+00  0.22532075843E+04  0.22532075843E+04  0.00000000000E+00 0.  1.
         -2   -1    0    0    0  501 -0.00000000000E+00 -0.00000000000E+00 -0.11932524191E+02  0.11932524191E+02  0.00000000000E+00 0.  1.
         25    1    1    2    0    0 -0.26533248276E+02  0.10436630866E+03  0.91456447264E+03  0.92866814001E+03  0.12000000000E+03 0.  0.
         25    1    1    2    0    0  0.26533248276E+02 -0.10436630866E+03  0.13267105875E+04  0.13364719685E+04  0.12000000000E+03 0.  0.
<mgrwt>
<rscale>  0 0.32794179E+03</rscale>
<asrwt>0</asrwt>
<pdfrwt beam="1">  1        2 0.34664698E+00 0.32794179E+03</pdfrwt>
<pdfrwt beam="2">  1       -2 0.18357747E-02 0.32794179E+03</pdfrwt>
<totfact> 0.47781088E+03</totfact>
</mgrwt>
</event>
<event>
 4    1  0.1807309E-004  0.2982897E+03  0.7818608E-02  0.1086099E+00
          2   -1    0    0  501    0  0.00000000000E+00  0.00000000000E+00  0.40272499431E+02  0.40272499431E+02  0.00000000000E+00 0.  1.
         -2   -1    0    0    0  501 -0.00000000000E+00 -0.00000000000E+00 -0.55234190745E+03  0.55234190745E+03  0.00000000000E+00 0.  1.
         25    1    1    2    0    0 -0.20243921331E+02 -0.40815581413E+02 -0.40692590132E+03  0.42669007160E+03  0.12000000000E+03 0.  0.
         25    1    1    2    0    0  0.20243921331E+02  0.40815581413E+02 -0.10514350670E+03  0.16592433528E+03  0.12000000000E+03 0.  0.
<mgrwt>
<rscale>  0 0.29828972E+03</rscale>
<asrwt>0</asrwt>
<pdfrwt beam="1">  1        2 0.61957694E-02 0.29828972E+03</pdfrwt>
<pdfrwt beam="2">  1       -2 0.84975674E-01 0.29828972E+03</pdfrwt>
<totfact> 0.14767274E+03</totfact>
</mgrwt>
</event>
<event>
 4    1  0.1807309E-004  0.2840327E+03  0.7818608E-02  0.1093507E+00
          2   -1    0    0  501    0  0.00000000000E+00  0.00000000000E+00  0.84091334973E+03  0.84091334973E+03  0.00000000000E+00 0. -1.
         -2   -1    0    0    0  501 -0.00000000000E+00 -0.00000000000E+00 -0.23984204029E+02  0.23984204029E+02  0.00000000000E+00 0. -1.
         25    1    1    2    0    0 -0.49977508315E+02 -0.16441539600E+02  0.57526520098E+03  0.58999841273E+03  0.12000000000E+03 0.  0.
         25    1    1    2    0    0  0.49977508315E+02  0.16441539600E+02  0.24166394472E+03  0.27489914103E+03  0.12000000000E+03 0.  0.
<mgrwt>
<rscale>  0 0.28403266E+03</rscale>
<asrwt>0</asrwt>
<pdfrwt beam="1">  1        2 0.12937126E+00 0.28403266E+03</pdfrwt>
<pdfrwt beam="2">  1       -2 0.36898782E-02 0.28403266E+03</pdfrwt>
<totfact> 0.10305224E+04</totfact>
</mgrwt>
</event>
<event>
 4    1  0.1807309E-004  0.3200119E+03  0.7818608E-02  0.1075644E+00
         -2   -1    0    0    0  501 -0.00000000000E+00  0.00000000000E+00  0.11386378339E+02  0.11386378339E+02  0.00000000000E+00 0. -1.
          2   -1    0    0  501    0  0.00000000000E+00 -0.00000000000E+00 -0.22484678860E+04  0.22484678860E+04  0.00000000000E+00 0. -1.
         25    1    1    2    0    0 -0.33873100009E+02  0.33272103267E+01 -0.18262513898E+04  0.18305061038E+04  0.12000000000E+03 0.  0.
         25    1    1    2    0    0  0.33873100009E+02 -0.33272103267E+01 -0.41083011787E+03  0.42934816056E+03  0.12000000000E+03 0.  0.
<mgrwt>
<rscale>  0 0.32001191E+03</rscale>
<asrwt>0</asrwt>
<pdfrwt beam="1">  1        2 0.34591776E+00 0.32001191E+03</pdfrwt>
<pdfrwt beam="2">  1       -2 0.17517524E-02 0.32001191E+03</pdfrwt>
<totfact> 0.51512968E+03</totfact>
</mgrwt>
</event>
<event>
 4    1  0.1807309E-004  0.2802396E+03  0.7818608E-02  0.1095558E+00
         -2   -1    0    0    0  501 -0.00000000000E+00  0.00000000000E+00  0.12181745511E+02  0.12181745511E+02  0.00000000000E+00 0.  1.
          2   -1    0    0  501    0  0.00000000000E+00 -0.00000000000E+00 -0.16117198580E+04  0.16117198580E+04  0.00000000000E+00 0.  1.
         25    1    1    2    0    0  0.50675657847E+02 -0.21023641721E+02 -0.10730146514E+04  0.10810968772E+04  0.12000000000E+03 0.  0.
         25    1    1    2    0    0 -0.50675657847E+02  0.21023641721E+02 -0.52652346109E+03  0.54280472630E+03  0.12000000000E+03 0.  0.
<mgrwt>
<rscale>  0 0.28023962E+03</rscale>
<asrwt>0</asrwt>
<pdfrwt beam="1">  1        2 0.24795695E+00 0.28023962E+03</pdfrwt>
<pdfrwt beam="2">  1       -2 0.18741144E-02 0.28023962E+03</pdfrwt>
<totfact> 0.10124602E+04</totfact>
</mgrwt>
</event>
<event>
 4    1  0.1807309E-004  0.6067791E+03  0.7818608E-02  0.9891441E-01
         -4   -1    0    0    0  501 -0.00000000000E+00  0.00000000000E+00  0.16288485881E+04  0.16288485881E+04  0.00000000000E+00 0.  1.
          4   -1    0    0  501    0  0.00000000000E+00 -0.00000000000E+00 -0.56509369905E+02  0.56509369905E+02  0.00000000000E+00 0.  1.
         25    1    1    2    0    0  0.17812688007E+03 -0.90445243538E+02  0.24661220099E+03  0.33930385373E+03  0.12000000000E+03 0.  0.
         25    1    1    2    0    0 -0.17812688007E+03  0.90445243538E+02  0.13257270172E+04  0.13460541043E+04  0.12000000000E+03 0.  0.
<mgrwt>
<rscale>  0 0.60677906E+03</rscale>
<asrwt>0</asrwt>
<pdfrwt beam="1">  1        4 0.86937504E-02 0.60677906E+03</pdfrwt>
<pdfrwt beam="2">  1       -4 0.25059205E+00 0.60677906E+03</pdfrwt>
<totfact> 0.12843657E+01</totfact>
</mgrwt>
</event>
<event>
 4    1  0.1807309E-004  0.3705356E+03  0.7818608E-02  0.1054488E+00
         -1   -1    0    0    0  501 -0.00000000000E+00  0.00000000000E+00  0.43479249997E+02  0.43479249997E+02  0.00000000000E+00 0.  1.
          1   -1    0    0  501    0  0.00000000000E+00 -0.00000000000E+00 -0.78943761378E+03  0.78943761378E+03  0.00000000000E+00 0.  1.
         25    1    1    2    0    0  0.71886053887E+02 -0.31735232350E+02 -0.63656012551E+03  0.65252089860E+03  0.12000000000E+03 0.  0.
         25    1    1    2    0    0 -0.71886053887E+02  0.31735232350E+02 -0.10939823827E+03  0.18039596518E+03  0.12000000000E+03 0.  0.
<mgrwt>
<rscale>  0 0.37053559E+03</rscale>
<asrwt>0</asrwt>
<pdfrwt beam="1">  1        1 0.12145195E+00 0.37053559E+03</pdfrwt>
<pdfrwt beam="2">  1       -1 0.66891149E-02 0.37053559E+03</pdfrwt>
<totfact> 0.26717676E+03</totfact>
</mgrwt>
</event>
<event>
 4    1  0.1807309E-004  0.2851516E+03  0.7818608E-02  0.1092908E+00
         -1   -1    0    0    0  501 -0.00000000000E+00  0.00000000000E+00  0.10920781793E+02  0.10920781793E+02  0.00000000000E+00 0. -1.
          1   -1    0    0  501    0  0.00000000000E+00 -0.00000000000E+00 -0.18613917111E+04  0.18613917111E+04  0.00000000000E+00 0. -1.
         25    1    1    2    0    0  0.70024237021E+02 -0.29071829302E+02 -0.83731746300E+03  0.84926385704E+03  0.12000000000E+03 0.  0.
         25    1    1    2    0    0 -0.70024237021E+02  0.29071829302E+02 -0.10131534663E+04  0.10230486358E+04  0.12000000000E+03 0.  0.
<mgrwt>
<rscale>  0 0.28515156E+03</rscale>
<asrwt>0</asrwt>
<pdfrwt beam="1">  1        1 0.28636797E+00 0.28515156E+03</pdfrwt>
<pdfrwt beam="2">  1       -1 0.16801202E-02 0.28515156E+03</pdfrwt>
<totfact> 0.36720068E+03</totfact>
</mgrwt>
</event>
<event>
 4    1  0.1807309E-004  0.2846930E+03  0.7818608E-02  0.1093153E+00
         -1   -1    0    0    0  501 -0.00000000000E+00  0.00000000000E+00  0.17722822155E+03  0.17722822155E+03  0.00000000000E+00 0. -1.
          1   -1    0    0  501    0  0.00000000000E+00 -0.00000000000E+00 -0.11433013011E+03  0.11433013011E+03  0.00000000000E+00 0. -1.
         25    1    1    2    0    0  0.42295182230E+02 -0.36692464328E+01 -0.33807087535E+02  0.13170142359E+03  0.12000000000E+03 0.  0.
         25    1    1    2    0    0 -0.42295182230E+02  0.36692464328E+01  0.96705178982E+02  0.15985692807E+03  0.12000000000E+03 0.  0.
<mgrwt>
<rscale>  0 0.28469300E+03</rscale>
<asrwt>0</asrwt>
<pdfrwt beam="1">  1        1 0.17589251E-01 0.28469300E+03</pdfrwt>
<pdfrwt beam="2">  1       -1 0.27265880E-01 0.28469300E+03</pdfrwt>
<totfact> 0.36188360E+03</totfact>
</mgrwt>
</event>
<event>
 4    1  0.1807309E-004  0.2525970E+03  0.7818608E-02  0.1111675E+00
         -1   -1    0    0    0  501 -0.00000000000E+00  0.00000000000E+00  0.45950442366E+02  0.45950442366E+02  0.00000000000E+00 0. -1.
          1   -1    0    0  501    0  0.00000000000E+00 -0.00000000000E+00 -0.34714159121E+03  0.34714159121E+03  0.00000000000E+00 0. -1.
         25    1    1    2    0    0 -0.28898957854E+02  0.33009971787E+00 -0.10895295539E+03  0.16463901488E+03  0.12000000000E+03 0.  0.
         25    1    1    2    0    0  0.28898957854E+02 -0.33009971787E+00 -0.19223819346E+03  0.22845301870E+03  0.12000000000E+03 0.  0.
<mgrwt>
<rscale>  0 0.25259699E+03</rscale>
<asrwt>0</asrwt>
<pdfrwt beam="1">  1        1 0.53406399E-01 0.25259699E+03</pdfrwt>
<pdfrwt beam="2">  1       -1 0.70692987E-02 0.25259699E+03</pdfrwt>
<totfact> 0.74844718E+03</totfact>
</mgrwt>
</event>
<event>
 4    1  0.1807309E-004  0.2428914E+03  0.7818608E-02  0.1117881E+00
          2   -1    0    0  501    0  0.00000000000E+00  0.00000000000E+00  0.65526237719E+02  0.65526237719E+02  0.00000000000E+00 0.  1.
         -2   -1    0    0    0  501 -0.00000000000E+00 -0.00000000000E+00 -0.22508636873E+03  0.22508636873E+03  0.00000000000E+00 0.  1.
         25    1    1    2    0    0 -0.14161697488E+02 -0.11971951749E+02 -0.82503608193E+02  0.14680165758E+03  0.12000000000E+03 0.  0.
         25    1    1    2    0    0  0.14161697488E+02  0.11971951749E+02 -0.77056522814E+02  0.14381094886E+03  0.12000000000E+03 0.  0.
<mgrwt>
<rscale>  0 0.24289144E+03</rscale>
<asrwt>0</asrwt>
<pdfrwt beam="1">  1        2 0.10080960E-01 0.24289144E+03</pdfrwt>
<pdfrwt beam="2">  1       -2 0.34628672E-01 0.24289144E+03</pdfrwt>
<totfact> 0.49077018E+03</totfact>
</mgrwt>
</event>
<event>
 4    1  0.1807309E-004  0.3113365E+03  0.7818608E-02  0.1079707E+00
         -2   -1    0    0    0  501 -0.00000000000E+00  0.00000000000E+00  0.30991386141E+02  0.30991386141E+02  0.00000000000E+00 0.  1.
          2   -1    0    0  501    0  0.00000000000E+00 -0.00000000000E+00 -0.78191423859E+03  0.78191423859E+03  0.00000000000E+00 0.  1.
         25    1    1    2    0    0 -0.97850060994E+02 -0.14673075774E+02 -0.39251769995E+03  0.42220857211E+03  0.12000000000E+03 0.  0.
         25    1    1    2    0    0  0.97850060994E+02  0.14673075774E+02 -0.35840515249E+03  0.39069705262E+03  0.12000000000E+03 0.  0.
<mgrwt>
<rscale>  0 0.31133651E+03</rscale>
<asrwt>0</asrwt>
<pdfrwt beam="1">  1        2 0.12029449E+00 0.31133651E+03</pdfrwt>
<pdfrwt beam="2">  1       -2 0.47679059E-02 0.31133651E+03</pdfrwt>
<totfact> 0.77016147E+03</totfact>
</mgrwt>
</event>
<event>
 4    1  0.1807309E-004  0.2596138E+03  0.7818608E-02  0.1107375E+00
          2   -1    0    0  501    0  0.00000000000E+00  0.00000000000E+00  0.34045625831E+04  0.34045625831E+04  0.00000000000E+00 0.  1.
         -2   -1    0    0    0  501 -0.00000000000E+00 -0.00000000000E+00 -0.49491911756E+01  0.49491911756E+01  0.00000000000E+00 0.  1.
         25    1    1    2    0    0 -0.13632387474E+02 -0.99436860034E+01  0.10887174684E+04  0.10954407537E+04  0.12000000000E+03 0.  0.
         25    1    1    2    0    0  0.13632387474E+02  0.99436860034E+01  0.23108959235E+04  0.23140710206E+04  0.12000000000E+03 0.  0.
<mgrwt>
<rscale>  0 0.25961380E+03</rscale>
<asrwt>0</asrwt>
<pdfrwt beam="1">  1        2 0.52377699E+00 0.25961380E+03</pdfrwt>
<pdfrwt beam="2">  1       -2 0.76141675E-03 0.25961380E+03</pdfrwt>
<totfact> 0.37140248E+03</totfact>
</mgrwt>
</event>
<event>
 4    1  0.1807309E-004  0.2702269E+03  0.7818608E-02  0.1101150E+00
         -2   -1    0    0    0  501 -0.00000000000E+00  0.00000000000E+00  0.61057692246E+02  0.61057692246E+02  0.00000000000E+00 0.  1.
          2   -1    0    0  501    0  0.00000000000E+00 -0.00000000000E+00 -0.29899016103E+03  0.29899016103E+03  0.00000000000E+00 0.  1.
         25    1    1    2    0    0 -0.26471565752E+02  0.23097455050E+01 -0.19374137825E+03  0.22943800985E+03  0.12000000000E+03 0.  0.
         25    1    1    2    0    0  0.26471565752E+02 -0.23097455050E+01 -0.44191090537E+02  0.13060984343E+03  0.12000000000E+03 0.  0.
<mgrwt>
<rscale>  0 0.27022694E+03</rscale>
<asrwt>0</asrwt>
<pdfrwt beam="1">  1        2 0.45998487E-01 0.27022694E+03</pdfrwt>
<pdfrwt beam="2">  1       -2 0.93934911E-02 0.27022694E+03</pdfrwt>
<totfact> 0.79783621E+03</totfact>
</mgrwt>
</event>
<event>
 4    1  0.1807309E-004  0.2499636E+03  0.7818608E-02  0.1113328E+00
          2   -1    0    0  501    0  0.00000000000E+00  0.00000000000E+00  0.21414724454E+04  0.21414724454E+04  0.00000000000E+00 0.  1.
         -2   -1    0    0    0  501 -0.00000000000E+00 -0.00000000000E+00 -0.72942560604E+01  0.72942560604E+01  0.00000000000E+00 0.  1.
         25    1    1    2    0    0 -0.26278965102E+02 -0.22425007206E+02  0.11117431519E+04  0.11187342404E+04  0.12000000000E+03 0.  0.
         25    1    1    2    0    0  0.26278965102E+02  0.22425007206E+02  0.10224350375E+04  0.10300324611E+04  0.12000000000E+03 0.  0.
<mgrwt>
<rscale>  0 0.24996358E+03</rscale>
<asrwt>0</asrwt>
<pdfrwt beam="1">  1        2 0.32945680E+00 0.24996358E+03</pdfrwt>
<pdfrwt beam="2">  1       -2 0.11221949E-02 0.24996358E+03</pdfrwt>
<totfact> 0.11257107E+04</totfact>
</mgrwt>
</event>
<event>
 4    1  0.1807309E-004  0.2544574E+03  0.7818608E-02  0.1110520E+00
         -4   -1    0    0    0  501 -0.00000000000E+00  0.00000000000E+00  0.79249159147E+02  0.79249159147E+02  0.00000000000E+00 0.  1.
          4   -1    0    0  501    0  0.00000000000E+00 -0.00000000000E+00 -0.20425629816E+03  0.20425629816E+03  0.00000000000E+00 0.  1.
         25    1    1    2    0    0 -0.86859668285E+01 -0.96549832852E+01 -0.10732641120E+03  0.16151663463E+03  0.12000000000E+03 0.  0.
         25    1    1    2    0    0  0.86859668285E+01  0.96549832852E+01 -0.17680727813E+02  0.12198882268E+03  0.12000000000E+03 0.  0.
<mgrwt>
<rscale>  0 0.25445738E+03</rscale>
<asrwt>0</asrwt>
<pdfrwt beam="1">  1        4 0.31424045E-01 0.25445738E+03</pdfrwt>
<pdfrwt beam="2">  1       -4 0.12192179E-01 0.25445738E+03</pdfrwt>
<totfact> 0.97620106E+02</totfact>
</mgrwt>
</event>
<event>
 4    1  0.1807309E-004  0.2805748E+03  0.7818608E-02  0.1095375E+00
          2   -1    0    0  501    0  0.00000000000E+00  0.00000000000E+00  0.14868004621E+03  0.14868004621E+03  0.00000000000E+00 0. -1.
         -2   -1    0    0    0  501 -0.00000000000E+00 -0.00000000000E+00 -0.13236845459E+03  0.13236845459E+03  0.00000000000E+00 0. -1.
         25    1    1    2    0    0  0.37670343819E+02 -0.52009850369E+02  0.42220106745E+02  0.14250128685E+03  0.12000000000E+03 0.  0.
         25    1    1    2    0    0 -0.37670343819E+02  0.52009850369E+02 -0.25908515122E+02  0.13854721396E+03  0.12000000000E+03 0.  0.
<mgrwt>
<rscale>  0 0.28057475E+03</rscale>
<asrwt>0</asrwt>
<pdfrwt beam="1">  1        2 0.22873853E-01 0.28057475E+03</pdfrwt>
<pdfrwt beam="2">  1       -2 0.20364378E-01 0.28057475E+03</pdfrwt>
<totfact> 0.48208646E+03</totfact>
</mgrwt>
</event>
<event>
 4    1  0.1807309E-004  0.3294093E+03  0.7818608E-02  0.1071399E+00
         -2   -1    0    0    0  501 -0.00000000000E+00  0.00000000000E+00  0.11993496858E+02  0.11993496858E+02  0.00000000000E+00 0.  1.
          2   -1    0    0  501    0  0.00000000000E+00 -0.00000000000E+00 -0.22618608757E+04  0.22618608757E+04  0.00000000000E+00 0.  1.
         25    1    1    2    0    0  0.74590188616E+01 -0.35130503013E+02 -0.38669185334E+03  0.40647309707E+03  0.12000000000E+03 0.  0.
         25    1    1    2    0    0 -0.74590188616E+01  0.35130503013E+02 -0.18631755255E+04  0.18673812755E+04  0.12000000000E+03 0.  0.
<mgrwt>
<rscale>  0 0.32940930E+03</rscale>
<asrwt>0</asrwt>
<pdfrwt beam="1">  1        2 0.34797867E+00 0.32940930E+03</pdfrwt>
<pdfrwt beam="2">  1       -2 0.18451530E-02 0.32940930E+03</pdfrwt>
<totfact> 0.46914947E+03</totfact>
</mgrwt>
</event>
<event>
 4    1  0.1807309E-004  0.3700257E+03  0.7818608E-02  0.1054683E+00
         -2   -1    0    0    0  501 -0.00000000000E+00  0.00000000000E+00  0.14023098772E+03  0.14023098772E+03  0.00000000000E+00 0. -1.
          2   -1    0    0  501    0  0.00000000000E+00 -0.00000000000E+00 -0.24409549638E+03  0.24409549638E+03  0.00000000000E+00 0. -1.
         25    1    1    2    0    0 -0.34546101967E+02  0.96318892223E+02 -0.15241302056E+03  0.21931824137E+03  0.12000000000E+03 0.  0.
         25    1    1    2    0    0  0.34546101967E+02 -0.96318892223E+02  0.48548511904E+02  0.16500824273E+03  0.12000000000E+03 0.  0.
<mgrwt>
<rscale>  0 0.37002569E+03</rscale>
<asrwt>0</asrwt>
<pdfrwt beam="1">  1        2 0.37553153E-01 0.37002569E+03</pdfrwt>
<pdfrwt beam="2">  1       -2 0.21573998E-01 0.37002569E+03</pdfrwt>
<totfact> 0.25365992E+03</totfact>
</mgrwt>
</event>
<event>
 4    1  0.1807309E-004  0.2471689E+03  0.7818608E-02  0.1115107E+00
          2   -1    0    0  501    0  0.00000000000E+00  0.00000000000E+00  0.64325282486E+03  0.64325282486E+03  0.00000000000E+00 0. -1.
         -2   -1    0    0    0  501 -0.00000000000E+00 -0.00000000000E+00 -0.23743558067E+02  0.23743558067E+02  0.00000000000E+00 0. -1.
         25    1    1    2    0    0  0.23104851943E+02 -0.14303996913E+02  0.27843844830E+03  0.30441157666E+03  0.12000000000E+03 0.  0.
         25    1    1    2    0    0 -0.23104851943E+02  0.14303996913E+02  0.34107081850E+03  0.36258480627E+03  0.12000000000E+03 0.  0.
<mgrwt>
<rscale>  0 0.24716886E+03</rscale>
<asrwt>0</asrwt>
<pdfrwt beam="1">  1        2 0.98961960E-01 0.24716886E+03</pdfrwt>
<pdfrwt beam="2">  1       -2 0.36528556E-02 0.24716886E+03</pdfrwt>
<totfact> 0.14486080E+04</totfact>
</mgrwt>
</event>
<event>
 4    1  0.1807309E-004  0.3100514E+03  0.7818608E-02  0.1080321E+00
         -2   -1    0    0    0  501 -0.00000000000E+00  0.00000000000E+00  0.11029548022E+02  0.11029548022E+02  0.00000000000E+00 0.  1.
          2   -1    0    0  501    0  0.00000000000E+00 -0.00000000000E+00 -0.21789621562E+04  0.21789621562E+04  0.00000000000E+00 0.  1.
         25    1    1    2    0    0 -0.71147900327E+02  0.67142897909E+02 -0.11399295769E+04  0.11503954245E+04  0.12000000000E+03 0.  0.
         25    1    1    2    0    0  0.71147900327E+02 -0.67142897909E+02 -0.10280030313E+04  0.10395962798E+04  0.12000000000E+03 0.  0.
<mgrwt>
<rscale>  0 0.31005140E+03</rscale>
<asrwt>0</asrwt>
<pdfrwt beam="1">  1        2 0.33522485E+00 0.31005140E+03</pdfrwt>
<pdfrwt beam="2">  1       -2 0.16968541E-02 0.31005140E+03</pdfrwt>
<totfact> 0.58825507E+03</totfact>
</mgrwt>
</event>
<event>
 4    1  0.1807309E-004  0.2703662E+03  0.7818608E-02  0.1101070E+00
          1   -1    0    0  501    0  0.00000000000E+00  0.00000000000E+00  0.25626448353E+03  0.25626448353E+03  0.00000000000E+00 0. -1.
         -1   -1    0    0    0  501 -0.00000000000E+00 -0.00000000000E+00 -0.71310971623E+02  0.71310971623E+02  0.00000000000E+00 0. -1.
         25    1    1    2    0    0 -0.31190888246E+02 -0.36622810057E+02  0.14033672689E+03  0.19081011148E+03  0.12000000000E+03 0.  0.
         25    1    1    2    0    0  0.31190888246E+02  0.36622810057E+02  0.44616785012E+02  0.13676534368E+03  0.12000000000E+03 0.  0.
<mgrwt>
<rscale>  0 0.27036619E+03</rscale>
<asrwt>0</asrwt>
<pdfrwt beam="1">  1        1 0.39425304E-01 0.27036619E+03</pdfrwt>
<pdfrwt beam="2">  1       -1 0.10970919E-01 0.27036619E+03</pdfrwt>
<totfact> 0.56000126E+03</totfact>
</mgrwt>
</event>
<event>
 4    1  0.1807309E-004  0.3626440E+03  0.7818608E-02  0.1057542E+00
         -2   -1    0    0    0  501 -0.00000000000E+00  0.00000000000E+00  0.37602041854E+02  0.37602041854E+02  0.00000000000E+00 0. -1.
          2   -1    0    0  501    0  0.00000000000E+00 -0.00000000000E+00 -0.87435848134E+03  0.87435848134E+03  0.00000000000E+00 0. -1.
         25    1    1    2    0    0  0.13509347985E+03  0.97491984761E+01 -0.38944553203E+03  0.42943348447E+03  0.12000000000E+03 0.  0.
         25    1    1    2    0    0 -0.13509347985E+03 -0.97491984761E+01 -0.44731090746E+03  0.48252703872E+03  0.12000000000E+03 0.  0.
<mgrwt>
<rscale>  0 0.36264398E+03</rscale>
<asrwt>0</asrwt>
<pdfrwt beam="1">  1        2 0.13451669E+00 0.36264398E+03</pdfrwt>
<pdfrwt beam="2">  1       -2 0.57849295E-02 0.36264398E+03</pdfrwt>
<totfact> 0.49671949E+03</totfact>
</mgrwt>
</event>
<event>
 4    1  0.1807309E-004  0.2670916E+03  0.7818608E-02  0.1102956E+00
          2   -1    0    0  501    0  0.00000000000E+00  0.00000000000E+00  0.76002891995E+03  0.76002891995E+03  0.00000000000E+00 0. -1.
         -2   -1    0    0    0  501 -0.00000000000E+00 -0.00000000000E+00 -0.23465534282E+02  0.23465534282E+02  0.00000000000E+00 0. -1.
         25    1    1    2    0    0 -0.47816094601E+02  0.26284025717E+02  0.43100879778E+03  0.45071699843E+03  0.12000000000E+03 0.  0.
         25    1    1    2    0    0  0.47816094601E+02 -0.26284025717E+02  0.30555458789E+03  0.33277745580E+03  0.12000000000E+03 0.  0.
<mgrwt>
<rscale>  0 0.26709163E+03</rscale>
<asrwt>0</asrwt>
<pdfrwt beam="1">  1        2 0.11692751E+00 0.26709163E+03</pdfrwt>
<pdfrwt beam="2">  1       -2 0.36100828E-02 0.26709163E+03</pdfrwt>
<totfact> 0.12085846E+04</totfact>
</mgrwt>
</event>
<event>
 4    1  0.1807309E-004  0.3022587E+03  0.7818608E-02  0.1084117E+00
          2   -1    0    0  501    0  0.00000000000E+00  0.00000000000E+00  0.60312063960E+02  0.60312063960E+02  0.00000000000E+00 0. -1.
         -2   -1    0    0    0  501 -0.00000000000E+00 -0.00000000000E+00 -0.37869834624E+03  0.37869834624E+03  0.00000000000E+00 0. -1.
         25    1    1    2    0    0 -0.25427567557E+02 -0.87415952512E+02 -0.14128817792E+03  0.20651987596E+03  0.12000000000E+03 0.  0.
         25    1    1    2    0    0  0.25427567557E+02  0.87415952512E+02 -0.17709810436E+03  0.23249053424E+03  0.12000000000E+03 0.  0.
<mgrwt>
<rscale>  0 0.30225869E+03</rscale>
<asrwt>0</asrwt>
<pdfrwt beam="1">  1        2 0.92787791E-02 0.30225869E+03</pdfrwt>
<pdfrwt beam="2">  1       -2 0.58261284E-01 0.30225869E+03</pdfrwt>
<totfact> 0.19814532E+03</totfact>
</mgrwt>
</event>
<event>
 4    1  0.1807309E-004  0.2933099E+03  0.7818608E-02  0.1088634E+00
         -2   -1    0    0    0  501 -0.00000000000E+00  0.00000000000E+00  0.15726051108E+02  0.15726051108E+02  0.00000000000E+00 0.  1.
          2   -1    0    0  501    0  0.00000000000E+00 -0.00000000000E+00 -0.13676461863E+04  0.13676461863E+04  0.00000000000E+00 0.  1.
         25    1    1    2    0    0 -0.81099512782E+02  0.64342176700E+01 -0.78027117789E+03  0.79362563037E+03  0.12000000000E+03 0.  0.
         25    1    1    2    0    0  0.81099512782E+02 -0.64342176700E+01 -0.57164895727E+03  0.58974660701E+03  0.12000000000E+03 0.  0.
<mgrwt>
<rscale>  0 0.29330990E+03</rscale>
<asrwt>0</asrwt>
<pdfrwt beam="1">  1        2 0.21040711E+00 0.29330990E+03</pdfrwt>
<pdfrwt beam="2">  1       -2 0.24193924E-02 0.29330990E+03</pdfrwt>
<totfact> 0.94032763E+03</totfact>
</mgrwt>
</event>
<event>
 4    1  0.1807309E-004  0.2934524E+03  0.7818608E-02  0.1088560E+00
          1   -1    0    0  501    0  0.00000000000E+00  0.00000000000E+00  0.15436691975E+04  0.15436691975E+04  0.00000000000E+00 0. -1.
         -1   -1    0    0    0  501 -0.00000000000E+00 -0.00000000000E+00 -0.13946369851E+02  0.13946369851E+02  0.00000000000E+00 0. -1.
         25    1    1    2    0    0  0.18351651074E+02 -0.99746098673E+01  0.11990820486E+04  0.12052526852E+04  0.12000000000E+03 0.  0.
         25    1    1    2    0    0 -0.18351651074E+02  0.99746098673E+01  0.33064077908E+03  0.35236288217E+03  0.12000000000E+03 0.  0.
<mgrwt>
<rscale>  0 0.29345243E+03</rscale>
<asrwt>0</asrwt>
<pdfrwt beam="1">  1        1 0.23748743E+00 0.29345243E+03</pdfrwt>
<pdfrwt beam="2">  1       -1 0.21455966E-02 0.29345243E+03</pdfrwt>
<totfact> 0.41436104E+03</totfact>
</mgrwt>
</event>
<event>
 4    1  0.1807309E-004  0.3994415E+03  0.7818608E-02  0.1043973E+00
          3   -1    0    0  501    0  0.00000000000E+00  0.00000000000E+00  0.41061100637E+03  0.41061100637E+03  0.00000000000E+00 0. -1.
         -3   -1    0    0    0  501 -0.00000000000E+00 -0.00000000000E+00 -0.97143959163E+02  0.97143959163E+02  0.00000000000E+00 0. -1.
         25    1    1    2    0    0 -0.14759999266E+03 -0.28949393958E+02  0.22476806577E+03  0.29587921291E+03  0.12000000000E+03 0.  0.
         25    1    1    2    0    0  0.14759999266E+03  0.28949393958E+02  0.88698981441E+02  0.21187575263E+03  0.12000000000E+03 0.  0.
<mgrwt>
<rscale>  0 0.39944150E+03</rscale>
<asrwt>0</asrwt>
<pdfrwt beam="1">  1        3 0.63170923E-01 0.39944150E+03</pdfrwt>
<pdfrwt beam="2">  1       -3 0.14945225E-01 0.39944150E+03</pdfrwt>
<totfact> 0.24055397E+02</totfact>
</mgrwt>
</event>
<event>
 4    1  0.1807309E-004  0.2632209E+03  0.7818608E-02  0.1105223E+00
          2   -1    0    0  501    0  0.00000000000E+00  0.00000000000E+00  0.20907674743E+04  0.20907674743E+04  0.00000000000E+00 0.  1.
         -2   -1    0    0    0  501 -0.00000000000E+00 -0.00000000000E+00 -0.82846644023E+01  0.82846644023E+01  0.00000000000E+00 0.  1.
         25    1    1    2    0    0 -0.29567831521E+02 -0.26958033773E+02  0.75147927912E+03  0.76205124446E+03  0.12000000000E+03 0.  0.
         25    1    1    2    0    0  0.29567831521E+02  0.26958033773E+02  0.13310035308E+04  0.13370008942E+04  0.12000000000E+03 0.  0.
<mgrwt>
<rscale>  0 0.26322087E+03</rscale>
<asrwt>0</asrwt>
<pdfrwt beam="1">  1        2 0.32165611E+00 0.26322087E+03</pdfrwt>
<pdfrwt beam="2">  1       -2 0.12745654E-02 0.26322087E+03</pdfrwt>
<totfact> 0.99552098E+03</totfact>
</mgrwt>
</event>
<event>
 4    1  0.1807309E-004  0.8787985E+03  0.7818608E-02  0.9452479E-01
         -2   -1    0    0    0  501 -0.00000000000E+00  0.00000000000E+00  0.86630046729E+03  0.86630046729E+03  0.00000000000E+00 0. -1.
          2   -1    0    0  501    0  0.00000000000E+00 -0.00000000000E+00 -0.22286921487E+03  0.22286921487E+03  0.00000000000E+00 0. -1.
         25    1    1    2    0    0  0.52218691401E+02  0.39465229440E+03  0.49784125937E+03  0.64863174817E+03  0.12000000000E+03 0.  0.
         25    1    1    2    0    0 -0.52218691401E+02 -0.39465229440E+03  0.14558999305E+03  0.44053793399E+03  0.12000000000E+03 0.  0.
<mgrwt>
<rscale>  0 0.87879851E+03</rscale>
<asrwt>0</asrwt>
<pdfrwt beam="1">  1        2 0.34287572E-01 0.87879851E+03</pdfrwt>
<pdfrwt beam="2">  1       -2 0.13327699E+00 0.87879851E+03</pdfrwt>
<totfact> 0.62643498E+01</totfact>
</mgrwt>
</event>
<event>
 4    1  0.1807309E-004  0.2702694E+03  0.7818608E-02  0.1101126E+00
          2   -1    0    0  501    0  0.00000000000E+00  0.00000000000E+00  0.86270031567E+03  0.86270031567E+03  0.00000000000E+00 0.  1.
         -2   -1    0    0    0  501 -0.00000000000E+00 -0.00000000000E+00 -0.21167703973E+02  0.21167703973E+02  0.00000000000E+00 0.  1.
         25    1    1    2    0    0  0.25564616304E+02 -0.38772757811E+02  0.28574877517E+03  0.31338353317E+03  0.12000000000E+03 0.  0.
         25    1    1    2    0    0 -0.25564616304E+02  0.38772757811E+02  0.55578383653E+03  0.57048448647E+03  0.12000000000E+03 0.  0.
<mgrwt>
<rscale>  0 0.27026938E+03</rscale>
<asrwt>0</asrwt>
<pdfrwt beam="1">  1        2 0.13272310E+00 0.27026938E+03</pdfrwt>
<pdfrwt beam="2">  1       -2 0.32565705E-02 0.27026938E+03</pdfrwt>
<totfact> 0.11994807E+04</totfact>
</mgrwt>
</event>
<event>
 4    1  0.1807309E-004  0.2904188E+03  0.7818608E-02  0.1090131E+00
          4   -1    0    0  501    0  0.00000000000E+00  0.00000000000E+00  0.70462798339E+02  0.70462798339E+02  0.00000000000E+00 0. -1.
         -4   -1    0    0    0  501 -0.00000000000E+00 -0.00000000000E+00 -0.29924676837E+03  0.29924676837E+03  0.00000000000E+00 0. -1.
         25    1    1    2    0    0 -0.66332548302E+02 -0.20000862210E+02 -0.16967287062E+03  0.21906374524E+03  0.12000000000E+03 0.  0.
         25    1    1    2    0    0  0.66332548302E+02  0.20000862210E+02 -0.59111099414E+02  0.15064582147E+03  0.12000000000E+03 0.  0.
<mgrwt>
<rscale>  0 0.29041876E+03</rscale>
<asrwt>0</asrwt>
<pdfrwt beam="1">  1        4 0.10840430E-01 0.29041876E+03</pdfrwt>
<pdfrwt beam="2">  1       -4 0.46037965E-01 0.29041876E+03</pdfrwt>
<totfact> 0.57290344E+02</totfact>
</mgrwt>
</event>
<event>
 4    1  0.1807309E-004  0.2523773E+03  0.7818608E-02  0.1111812E+00
          2   -1    0    0  501    0  0.00000000000E+00  0.00000000000E+00  0.24293327415E+03  0.24293327415E+03  0.00000000000E+00 0. -1.
         -2   -1    0    0    0  501 -0.00000000000E+00 -0.00000000000E+00 -0.65547136012E+02  0.65547136012E+02  0.00000000000E+00 0. -1.
         25    1    1    2    0    0 -0.14597004706E+01  0.30423703202E+02  0.11852936774E+03  0.17139703457E+03  0.12000000000E+03 0.  0.
         25    1    1    2    0    0  0.14597004706E+01 -0.30423703202E+02  0.58856770395E+02  0.13708337559E+03  0.12000000000E+03 0.  0.
<mgrwt>
<rscale>  0 0.25237734E+03</rscale>
<asrwt>0</asrwt>
<pdfrwt beam="1">  1        2 0.37374349E-01 0.25237734E+03</pdfrwt>
<pdfrwt beam="2">  1       -2 0.10084175E-01 0.25237734E+03</pdfrwt>
<totfact> 0.88894792E+03</totfact>
</mgrwt>
</event>
<event>
 4    1  0.1807309E-004  0.3582049E+03  0.7818608E-02  0.1059297E+00
         -1   -1    0    0    0  501 -0.00000000000E+00  0.00000000000E+00  0.15844516945E+03  0.15844516945E+03  0.00000000000E+00 0.  1.
          1   -1    0    0  501    0  0.00000000000E+00 -0.00000000000E+00 -0.20245289888E+03  0.20245289888E+03  0.00000000000E+00 0.  1.
         25    1    1    2    0    0 -0.70334979456E+01 -0.11536838490E+03 -0.88212091502E+02  0.18852243213E+03  0.12000000000E+03 0.  0.
         25    1    1    2    0    0  0.70334979456E+01  0.11536838490E+03  0.44204362078E+02  0.17237563620E+03  0.12000000000E+03 0.  0.
<mgrwt>
<rscale>  0 0.35820488E+03</rscale>
<asrwt>0</asrwt>
<pdfrwt beam="1">  1        1 0.31146600E-01 0.35820488E+03</pdfrwt>
<pdfrwt beam="2">  1       -1 0.24376180E-01 0.35820488E+03</pdfrwt>
<totfact> 0.21056047E+03</totfact>
</mgrwt>
</event>
<event>
 4    1  0.1807309E-004  0.2934423E+03  0.7818608E-02  0.1088565E+00
          1   -1    0    0  501    0  0.00000000000E+00  0.00000000000E+00  0.66095116772E+02  0.66095116772E+02  0.00000000000E+00 0.  1.
         -1   -1    0    0    0  501 -0.00000000000E+00 -0.00000000000E+00 -0.32569864696E+03  0.32569864696E+03  0.00000000000E+00 0.  1.
         25    1    1    2    0    0  0.77441611811E+02  0.28759757022E+02 -0.15303375610E+03  0.21129045735E+03  0.12000000000E+03 0.  0.
         25    1    1    2    0    0 -0.77441611811E+02 -0.28759757022E+02 -0.10656977410E+03  0.18050330638E+03  0.12000000000E+03 0.  0.
<mgrwt>
<rscale>  0 0.29344226E+03</rscale>
<asrwt>0</asrwt>
<pdfrwt beam="1">  1        1 0.10168480E-01 0.29344226E+03</pdfrwt>
<pdfrwt beam="2">  1       -1 0.50107484E-01 0.29344226E+03</pdfrwt>
<totfact> 0.25638573E+03</totfact>
</mgrwt>
</event>
<event>
 4    1  0.1807309E-004  0.3049887E+03  0.7818608E-02  0.1082773E+00
         -2   -1    0    0    0  501 -0.00000000000E+00  0.00000000000E+00  0.77087864149E+02  0.77087864149E+02  0.00000000000E+00 0.  1.
          2   -1    0    0  501    0  0.00000000000E+00 -0.00000000000E+00 -0.30166262631E+03  0.30166262631E+03  0.00000000000E+00 0.  1.
         25    1    1    2    0    0  0.32629485150E+02  0.21833203576E+02 -0.21848672925E+03  0.25234465110E+03  0.12000000000E+03 0.  0.
         25    1    1    2    0    0 -0.32629485150E+02 -0.21833203576E+02 -0.60880329105E+01  0.12640583936E+03  0.12000000000E+03 0.  0.
<mgrwt>
<rscale>  0 0.30498871E+03</rscale>
<asrwt>0</asrwt>
<pdfrwt beam="1">  1        2 0.46409635E-01 0.30498871E+03</pdfrwt>
<pdfrwt beam="2">  1       -2 0.11859671E-01 0.30498871E+03</pdfrwt>
<totfact> 0.54662210E+03</totfact>
</mgrwt>
</event>
<event>
 4    1  0.1807309E-004  0.2731077E+03  0.7818608E-02  0.1099514E+00
          1   -1    0    0  501    0  0.00000000000E+00  0.00000000000E+00  0.49252012549E+03  0.49252012549E+03  0.00000000000E+00 0. -1.
         -1   -1    0    0    0  501 -0.00000000000E+00 -0.00000000000E+00 -0.37860296002E+02  0.37860296002E+02  0.00000000000E+00 0. -1.
         25    1    1    2    0    0 -0.33946280002E+02 -0.28529772640E+02  0.13458635590E+03  0.18568733141E+03  0.12000000000E+03 0.  0.
         25    1    1    2    0    0  0.33946280002E+02  0.28529772640E+02  0.32007347359E+03  0.34469309008E+03  0.12000000000E+03 0.  0.
<mgrwt>
<rscale>  0 0.27310773E+03</rscale>
<asrwt>0</asrwt>
<pdfrwt beam="1">  1        1 0.75772322E-01 0.27310773E+03</pdfrwt>
<pdfrwt beam="2">  1       -1 0.58246613E-02 0.27310773E+03</pdfrwt>
<totfact> 0.64064684E+03</totfact>
</mgrwt>
</event>
<event>
 4    1  0.1807309E-004  0.2536073E+03  0.7818608E-02  0.1111046E+00
          1   -1    0    0  501    0  0.00000000000E+00  0.00000000000E+00  0.12192390923E+04  0.12192390923E+04  0.00000000000E+00 0. -1.
         -1   -1    0    0    0  501 -0.00000000000E+00 -0.00000000000E+00 -0.13187867311E+02  0.13187867311E+02  0.00000000000E+00 0. -1.
         25    1    1    2    0    0  0.24789720770E+02  0.15711528321E+02  0.46405659849E+03  0.48021860540E+03  0.12000000000E+03 0.  0.
         25    1    1    2    0    0 -0.24789720770E+02 -0.15711528321E+02  0.74199462651E+03  0.75220835422E+03  0.12000000000E+03 0.  0.
<mgrwt>
<rscale>  0 0.25360728E+03</rscale>
<asrwt>0</asrwt>
<pdfrwt beam="1">  1        1 0.18757516E+00 0.25360728E+03</pdfrwt>
<pdfrwt beam="2">  1       -1 0.20289036E-02 0.25360728E+03</pdfrwt>
<totfact> 0.74325585E+03</totfact>
</mgrwt>
</event>
<event>
 4    1  0.1807309E-004  0.2425153E+03  0.7818608E-02  0.1118128E+00
         -3   -1    0    0    0  501 -0.00000000000E+00  0.00000000000E+00  0.33430413205E+02  0.33430413205E+02  0.00000000000E+00 0. -1.
          3   -1    0    0  501    0  0.00000000000E+00 -0.00000000000E+00 -0.43982148981E+03  0.43982148981E+03  0.00000000000E+00 0. -1.
         25    1    1    2    0    0  0.16210501096E+02  0.61662687000E+01 -0.20004234553E+03  0.23391824047E+03  0.12000000000E+03 0.  0.
         25    1    1    2    0    0 -0.16210501096E+02 -0.61662687000E+01 -0.20634873107E+03  0.23933366255E+03  0.12000000000E+03 0.  0.
<mgrwt>
<rscale>  0 0.24251527E+03</rscale>
<asrwt>0</asrwt>
<pdfrwt beam="1">  1        3 0.67664845E-01 0.24251527E+03</pdfrwt>
<pdfrwt beam="2">  1       -3 0.51431404E-02 0.24251527E+03</pdfrwt>
<totfact> 0.11698451E+03</totfact>
</mgrwt>
</event>
<event>
 4    1  0.1807309E-004  0.2551270E+03  0.7818608E-02  0.1110107E+00
          2   -1    0    0  501    0  0.00000000000E+00  0.00000000000E+00  0.66838097019E+03  0.66838097019E+03  0.00000000000E+00 0. -1.
         -2   -1    0    0    0  501 -0.00000000000E+00 -0.00000000000E+00 -0.24346063871E+02  0.24346063871E+02  0.00000000000E+00 0. -1.
         25    1    1    2    0    0  0.21982642395E+00 -0.39452098546E+02  0.27375596197E+03  0.30149435006E+03  0.12000000000E+03 0.  0.
         25    1    1    2    0    0 -0.21982642395E+00  0.39452098546E+02  0.37027894435E+03  0.39123268400E+03  0.12000000000E+03 0.  0.
<mgrwt>
<rscale>  0 0.25512699E+03</rscale>
<asrwt>0</asrwt>
<pdfrwt beam="1">  1        2 0.10282783E+00 0.25512699E+03</pdfrwt>
<pdfrwt beam="2">  1       -2 0.37455488E-02 0.25512699E+03</pdfrwt>
<totfact> 0.13351773E+04</totfact>
</mgrwt>
</event>
<event>
 4    1  0.1807309E-004  0.2906164E+03  0.7818608E-02  0.1090028E+00
         -2   -1    0    0    0  501 -0.00000000000E+00  0.00000000000E+00  0.10171351543E+02  0.10171351543E+02  0.00000000000E+00 0.  1.
          2   -1    0    0  501    0  0.00000000000E+00 -0.00000000000E+00 -0.20758767032E+04  0.20758767032E+04  0.00000000000E+00 0.  1.
         25    1    1    2    0    0 -0.47165878089E+02 -0.37541317302E+02 -0.14312486037E+04  0.14375348817E+04  0.12000000000E+03 0.  0.
         25    1    1    2    0    0  0.47165878089E+02  0.37541317302E+02 -0.63445674801E+03  0.64851317308E+03  0.12000000000E+03 0.  0.
<mgrwt>
<rscale>  0 0.29061639E+03</rscale>
<asrwt>0</asrwt>
<pdfrwt beam="1">  1        2 0.31936603E+00 0.29061639E+03</pdfrwt>
<pdfrwt beam="2">  1       -2 0.15648214E-02 0.29061639E+03</pdfrwt>
<totfact> 0.75161211E+03</totfact>
</mgrwt>
</event>
<event>
 4    1  0.1807309E-004  0.3155876E+03  0.7818608E-02  0.1077698E+00
          2   -1    0    0  501    0  0.00000000000E+00  0.00000000000E+00  0.10322165885E+03  0.10322165885E+03  0.00000000000E+00 0.  1.
         -2   -1    0    0    0  501 -0.00000000000E+00 -0.00000000000E+00 -0.24121760638E+03  0.24121760638E+03  0.00000000000E+00 0.  1.
         25    1    1    2    0    0  0.33154541408E+02 -0.80628094907E+02 -0.12776036786E+03  0.19576216412E+03  0.12000000000E+03 0.  0.
         25    1    1    2    0    0 -0.33154541408E+02  0.80628094907E+02 -0.10235579665E+02  0.14867710111E+03  0.12000000000E+03 0.  0.
<mgrwt>
<rscale>  0 0.31558759E+03</rscale>
<asrwt>0</asrwt>
<pdfrwt beam="1">  1        2 0.15880255E-01 0.31558759E+03</pdfrwt>
<pdfrwt beam="2">  1       -2 0.37110401E-01 0.31558759E+03</pdfrwt>
<totfact> 0.25073990E+03</totfact>
</mgrwt>
</event>
<event>
 4    1  0.1807309E-004  0.3236223E+03  0.7818608E-02  0.1073994E+00
         -1   -1    0    0    0  501 -0.00000000000E+00  0.00000000000E+00  0.29661314501E+03  0.29661314501E+03  0.00000000000E+00 0.  1.
          1   -1    0    0  501    0  0.00000000000E+00 -0.00000000000E+00 -0.88272736235E+02  0.88272736235E+02  0.00000000000E+00 0.  1.
         25    1    1    2    0    0 -0.10674619560E+03 -0.19572318237E+02  0.10683700767E+03  0.19388649289E+03  0.12000000000E+03 0.  0.
         25    1    1    2    0    0  0.10674619560E+03  0.19572318237E+02  0.10150340110E+03  0.19099938835E+03  0.12000000000E+03 0.  0.
<mgrwt>
<rscale>  0 0.32362233E+03</rscale>
<asrwt>0</asrwt>
<pdfrwt beam="1">  1        1 0.13580421E-01 0.32362233E+03</pdfrwt>
<pdfrwt beam="2">  1       -1 0.45632791E-01 0.32362233E+03</pdfrwt>
<totfact> 0.20721177E+03</totfact>
</mgrwt>
</event>
<event>
 4    1  0.1807309E-004  0.2680199E+03  0.7818608E-02  0.1102418E+00
         -1   -1    0    0    0  501 -0.00000000000E+00  0.00000000000E+00  0.23496287927E+03  0.23496287927E+03  0.00000000000E+00 0.  1.
          1   -1    0    0  501    0  0.00000000000E+00 -0.00000000000E+00 -0.76431935765E+02  0.76431935765E+02  0.00000000000E+00 0.  1.
         25    1    1    2    0    0 -0.53347407613E+02  0.10376413922E+02  0.10784404964E+03  0.17024674713E+03  0.12000000000E+03 0.  0.
         25    1    1    2    0    0  0.53347407613E+02 -0.10376413922E+02  0.50686893870E+02  0.14114806791E+03  0.12000000000E+03 0.  0.
<mgrwt>
<rscale>  0 0.26801991E+03</rscale>
<asrwt>0</asrwt>
<pdfrwt beam="1">  1        1 0.11758759E-01 0.26801991E+03</pdfrwt>
<pdfrwt beam="2">  1       -1 0.36148135E-01 0.26801991E+03</pdfrwt>
<totfact> 0.37864276E+03</totfact>
</mgrwt>
</event>
<event>
 4    1  0.1807309E-004  0.2794805E+03  0.7818608E-02  0.1095973E+00
         -2   -1    0    0    0  501 -0.00000000000E+00  0.00000000000E+00  0.55872935973E+03  0.55872935973E+03  0.00000000000E+00 0. -1.
          2   -1    0    0  501    0  0.00000000000E+00 -0.00000000000E+00 -0.34949552244E+02  0.34949552244E+02  0.00000000000E+00 0. -1.
         25    1    1    2    0    0 -0.27393368400E+02 -0.19716178413E+01  0.40236283451E+03  0.42077325783E+03  0.12000000000E+03 0.  0.
         25    1    1    2    0    0  0.27393368400E+02  0.19716178413E+01  0.12141697298E+03  0.17290565415E+03  0.12000000000E+03 0.  0.
<mgrwt>
<rscale>  0 0.27948052E+03</rscale>
<asrwt>0</asrwt>
<pdfrwt beam="1">  1        2 0.53768546E-02 0.27948052E+03</pdfrwt>
<pdfrwt beam="2">  1       -2 0.85958357E-01 0.27948052E+03</pdfrwt>
<totfact> 0.17303405E+03</totfact>
</mgrwt>
</event>
<event>
 4    1  0.1807309E-004  0.4157795E+03  0.7818608E-02  0.1038449E+00
          2   -1    0    0  501    0  0.00000000000E+00  0.00000000000E+00  0.10972566861E+04  0.10972566861E+04  0.00000000000E+00 0.  1.
         -2   -1    0    0    0  501 -0.00000000000E+00 -0.00000000000E+00 -0.39387461894E+02  0.39387461894E+02  0.00000000000E+00 0.  1.
         25    1    1    2    0    0 -0.56848419874E+02 -0.15900971016E+03  0.57646797533E+03  0.61256114581E+03  0.12000000000E+03 0.  0.
         25    1    1    2    0    0  0.56848419874E+02  0.15900971016E+03  0.48140124886E+03  0.52408300218E+03  0.12000000000E+03 0.  0.
<mgrwt>
<rscale>  0 0.41577954E+03</rscale>
<asrwt>0</asrwt>
<pdfrwt beam="1">  1        2 0.16880870E+00 0.41577954E+03</pdfrwt>
<pdfrwt beam="2">  1       -2 0.60596104E-02 0.41577954E+03</pdfrwt>
<totfact> 0.33534253E+03</totfact>
</mgrwt>
</event>
<event>
 4    1  0.1807309E-004  0.2575343E+03  0.7818608E-02  0.1108634E+00
          2   -1    0    0  501    0  0.00000000000E+00  0.00000000000E+00  0.56164747697E+02  0.56164747697E+02  0.00000000000E+00 0.  1.
         -2   -1    0    0    0  501 -0.00000000000E+00 -0.00000000000E+00 -0.29522038518E+03  0.29522038518E+03  0.00000000000E+00 0.  1.
         25    1    1    2    0    0 -0.19435953239E+02 -0.17570722665E+02 -0.17227449381E+03  0.21157738015E+03  0.12000000000E+03 0.  0.
         25    1    1    2    0    0  0.19435953239E+02  0.17570722665E+02 -0.66781143678E+02  0.13980775273E+03  0.12000000000E+03 0.  0.
<mgrwt>
<rscale>  0 0.25753430E+03</rscale>
<asrwt>0</asrwt>
<pdfrwt beam="1">  1        2 0.86407304E-02 0.25753430E+03</pdfrwt>
<pdfrwt beam="2">  1       -2 0.45418521E-01 0.25753430E+03</pdfrwt>
<totfact> 0.35570643E+03</totfact>
</mgrwt>
</event>
<event>
 4    1  0.1807309E-004  0.4699800E+03  0.7818608E-02  0.1021926E+00
          2   -1    0    0  501    0  0.00000000000E+00  0.00000000000E+00  0.12054608990E+04  0.12054608990E+04  0.00000000000E+00 0. -1.
         -2   -1    0    0    0  501 -0.00000000000E+00 -0.00000000000E+00 -0.45808463226E+02  0.45808463226E+02  0.00000000000E+00 0. -1.
         25    1    1    2    0    0 -0.30349785693E+02 -0.89411112889E+02  0.10427228759E+03  0.18490042336E+03  0.12000000000E+03 0.  0.
         25    1    1    2    0    0  0.30349785693E+02  0.89411112889E+02  0.10553801481E+04  0.10663689388E+04  0.12000000000E+03 0.  0.
<mgrwt>
<rscale>  0 0.46998005E+03</rscale>
<asrwt>0</asrwt>
<pdfrwt beam="1">  1        2 0.18545550E+00 0.46998005E+03</pdfrwt>
<pdfrwt beam="2">  1       -2 0.70474568E-02 0.46998005E+03</pdfrwt>
<totfact> 0.22863590E+03</totfact>
</mgrwt>
</event>
<event>
 4    1  0.1807309E-004  0.2836082E+03  0.7818608E-02  0.1093734E+00
          1   -1    0    0  501    0  0.00000000000E+00  0.00000000000E+00  0.21202370779E+04  0.21202370779E+04  0.00000000000E+00 0.  1.
         -1   -1    0    0    0  501 -0.00000000000E+00 -0.00000000000E+00 -0.94840373065E+01  0.94840373065E+01  0.00000000000E+00 0.  1.
         25    1    1    2    0    0  0.23214212212E+02  0.99077224281E+01  0.15901446009E+04  0.15948657982E+04  0.12000000000E+03 0.  0.
         25    1    1    2    0    0 -0.23214212212E+02 -0.99077224281E+01  0.52060843973E+03  0.53485531701E+03  0.12000000000E+03 0.  0.
<mgrwt>
<rscale>  0 0.28360823E+03</rscale>
<asrwt>0</asrwt>
<pdfrwt beam="1">  1        1 0.32618994E+00 0.28360823E+03</pdfrwt>
<pdfrwt beam="2">  1       -1 0.14590843E-02 0.28360823E+03</pdfrwt>
<totfact> 0.30613285E+03</totfact>
</mgrwt>
</event>
<event>
 4    1  0.1807309E-004  0.2748838E+03  0.7818608E-02  0.1098517E+00
         -2   -1    0    0    0  501 -0.00000000000E+00  0.00000000000E+00  0.47623911750E+02  0.47623911750E+02  0.00000000000E+00 0. -1.
          2   -1    0    0  501    0  0.00000000000E+00 -0.00000000000E+00 -0.39665526656E+03  0.39665526656E+03  0.00000000000E+00 0. -1.
         25    1    1    2    0    0  0.33034206809E+02  0.58296291952E+02 -0.17330734237E+03  0.22119030583E+03  0.12000000000E+03 0.  0.
         25    1    1    2    0    0 -0.33034206809E+02 -0.58296291952E+02 -0.17572401244E+03  0.22308887247E+03  0.12000000000E+03 0.  0.
<mgrwt>
<rscale>  0 0.27488380E+03</rscale>
<asrwt>0</asrwt>
<pdfrwt beam="1">  1        2 0.61023887E-01 0.27488380E+03</pdfrwt>
<pdfrwt beam="2">  1       -2 0.73267556E-02 0.27488380E+03</pdfrwt>
<totfact> 0.86853794E+03</totfact>
</mgrwt>
</event>
<event>
 4    1  0.1807309E-004  0.4898044E+03  0.7818608E-02  0.1016475E+00
          1   -1    0    0  501    0  0.00000000000E+00  0.00000000000E+00  0.39123919541E+03  0.39123919541E+03  0.00000000000E+00 0.  1.
         -1   -1    0    0    0  501 -0.00000000000E+00 -0.00000000000E+00 -0.15330032977E+03  0.15330032977E+03  0.00000000000E+00 0.  1.
         25    1    1    2    0    0  0.14586860315E+03 -0.14496836317E+03  0.55263003240E+02  0.24443296675E+03  0.12000000000E+03 0.  0.
         25    1    1    2    0    0 -0.14586860315E+03  0.14496836317E+03  0.18267586240E+03  0.30010655843E+03  0.12000000000E+03 0.  0.
<mgrwt>
<rscale>  0 0.48980444E+03</rscale>
<asrwt>0</asrwt>
<pdfrwt beam="1">  1        1 0.60190645E-01 0.48980444E+03</pdfrwt>
<pdfrwt beam="2">  1       -1 0.23584666E-01 0.48980444E+03</pdfrwt>
<totfact> 0.95941168E+02</totfact>
</mgrwt>
</event>
<event>
 4    1  0.1807309E-004  0.3354469E+03  0.7818608E-02  0.1068752E+00
          1   -1    0    0  501    0  0.00000000000E+00  0.00000000000E+00  0.39874277069E+03  0.39874277069E+03  0.00000000000E+00 0.  1.
         -1   -1    0    0    0  501 -0.00000000000E+00 -0.00000000000E+00 -0.70549629313E+02  0.70549629313E+02  0.00000000000E+00 0.  1.
         25    1    1    2    0    0 -0.52866989356E+02 -0.44434925215E+02  0.31657315915E+02  0.14202664114E+03  0.12000000000E+03 0.  0.
         25    1    1    2    0    0  0.52866989356E+02  0.44434925215E+02  0.29653582546E+03  0.32726575887E+03  0.12000000000E+03 0.  0.
<mgrwt>
<rscale>  0 0.33544689E+03</rscale>
<asrwt>0</asrwt>
<pdfrwt beam="1">  1        1 0.61345040E-01 0.33544689E+03</pdfrwt>
<pdfrwt beam="2">  1       -1 0.10853789E-01 0.33544689E+03</pdfrwt>
<totfact> 0.32692021E+03</totfact>
</mgrwt>
</event>
<event>
 4    1  0.1807309E-004  0.2765584E+03  0.7818608E-02  0.1097584E+00
          2   -1    0    0  501    0  0.00000000000E+00  0.00000000000E+00  0.59751656073E+03  0.59751656073E+03  0.00000000000E+00 0. -1.
         -2   -1    0    0    0  501 -0.00000000000E+00 -0.00000000000E+00 -0.32001022156E+02  0.32001022156E+02  0.00000000000E+00 0. -1.
         25    1    1    2    0    0 -0.59807131121E+02 -0.49208377459E+01  0.35893696855E+03  0.38319297354E+03  0.12000000000E+03 0.  0.
         25    1    1    2    0    0  0.59807131121E+02  0.49208377459E+01  0.20657857002E+03  0.24632460934E+03  0.12000000000E+03 0.  0.
<mgrwt>
<rscale>  0 0.27655843E+03</rscale>
<asrwt>0</asrwt>
<pdfrwt beam="1">  1        2 0.91925617E-01 0.27655843E+03</pdfrwt>
<pdfrwt beam="2">  1       -2 0.49232346E-02 0.27655843E+03</pdfrwt>
<totfact> 0.10119516E+04</totfact>
</mgrwt>
</event>
<event>
 4    1  0.1807309E-004  0.2496981E+03  0.7818608E-02  0.1113496E+00
          2   -1    0    0  501    0  0.00000000000E+00  0.00000000000E+00  0.34380847238E+04  0.34380847238E+04  0.00000000000E+00 0. -1.
         -2   -1    0    0    0  501 -0.00000000000E+00 -0.00000000000E+00 -0.45337108436E+01  0.45337108436E+01  0.00000000000E+00 0. -1.
         25    1    1    2    0    0 -0.17851424262E+02 -0.21940745017E+02  0.14454764395E+04  0.14507247178E+04  0.12000000000E+03 0.  0.
         25    1    1    2    0    0  0.17851424262E+02  0.21940745017E+02  0.19880745735E+04  0.19918937169E+04  0.12000000000E+03 0.  0.
<mgrwt>
<rscale>  0 0.24969807E+03</rscale>
<asrwt>0</asrwt>
<pdfrwt beam="1">  1        2 0.52893403E+00 0.24969807E+03</pdfrwt>
<pdfrwt beam="2">  1       -2 0.69749672E-03 0.24969807E+03</pdfrwt>
<totfact> 0.40138907E+03</totfact>
</mgrwt>
</event>
<event>
 4    1  0.1807309E-004  0.2576148E+03  0.7818608E-02  0.1108585E+00
         -2   -1    0    0    0  501 -0.00000000000E+00  0.00000000000E+00  0.18299781372E+03  0.18299781372E+03  0.00000000000E+00 0. -1.
          2   -1    0    0  501    0  0.00000000000E+00 -0.00000000000E+00 -0.90664207497E+02  0.90664207497E+02  0.00000000000E+00 0. -1.
         25    1    1    2    0    0 -0.81763045466E+01  0.92390470023E+01 -0.18029132682E+01  0.12064602124E+03  0.12000000000E+03 0.  0.
         25    1    1    2    0    0  0.81763045466E+01 -0.92390470023E+01  0.94136519489E+02  0.15301599997E+03  0.12000000000E+03 0.  0.
<mgrwt>
<rscale>  0 0.25761484E+03</rscale>
<asrwt>0</asrwt>
<pdfrwt beam="1">  1        2 0.13948340E-01 0.25761484E+03</pdfrwt>
<pdfrwt beam="2">  1       -2 0.28153510E-01 0.25761484E+03</pdfrwt>
<totfact> 0.48358023E+03</totfact>
</mgrwt>
</event>
<event>
 4    1  0.1807309E-004  0.2888289E+03  0.7818608E-02  0.1090962E+00
         -2   -1    0    0    0  501 -0.00000000000E+00  0.00000000000E+00  0.13962814523E+02  0.13962814523E+02  0.00000000000E+00 0. -1.
          2   -1    0    0  501    0  0.00000000000E+00 -0.00000000000E+00 -0.14936477648E+04  0.14936477648E+04  0.00000000000E+00 0. -1.
         25    1    1    2    0    0 -0.70649384861E+02  0.25522444191E+02 -0.59102999025E+03  0.60774927406E+03  0.12000000000E+03 0.  0.
         25    1    1    2    0    0  0.70649384861E+02 -0.25522444191E+02 -0.88865496001E+03  0.89986130525E+03  0.12000000000E+03 0.  0.
<mgrwt>
<rscale>  0 0.28882885E+03</rscale>
<asrwt>0</asrwt>
<pdfrwt beam="1">  1        2 0.22979192E+00 0.28882885E+03</pdfrwt>
<pdfrwt beam="2">  1       -2 0.21481257E-02 0.28882885E+03</pdfrwt>
<totfact> 0.95775021E+03</totfact>
</mgrwt>
</event>
<event>
 4    1  0.1807309E-004  0.4301953E+03  0.7818608E-02  0.1033798E+00
          2   -1    0    0  501    0  0.00000000000E+00  0.00000000000E+00  0.11578212110E+04  0.11578212110E+04  0.00000000000E+00 0. -1.
         -2   -1    0    0    0  501 -0.00000000000E+00 -0.00000000000E+00 -0.39960392812E+02  0.39960392812E+02  0.00000000000E+00 0. -1.
         25    1    1    2    0    0  0.36087415401E+02 -0.82573603106E+02  0.12987844771E+03  0.19846690570E+03  0.12000000000E+03 0.  0.
         25    1    1    2    0    0 -0.36087415401E+02  0.82573603106E+02  0.98798237051E+03  0.99931469814E+03  0.12000000000E+03 0.  0.
<mgrwt>
<rscale>  0 0.43019526E+03</rscale>
<asrwt>0</asrwt>
<pdfrwt beam="1">  1        2 0.17812631E+00 0.43019526E+03</pdfrwt>
<pdfrwt beam="2">  1       -2 0.61477536E-02 0.43019526E+03</pdfrwt>
<totfact> 0.30189736E+03</totfact>
</mgrwt>
</event>
<event>
 4    1  0.1807309E-004  0.3509232E+03  0.7818608E-02  0.1062237E+00
         -1   -1    0    0    0  501 -0.00000000000E+00  0.00000000000E+00  0.64502242386E+03  0.64502242386E+03  0.00000000000E+00 0.  1.
          1   -1    0    0  501    0  0.00000000000E+00 -0.00000000000E+00 -0.47729776428E+02  0.47729776428E+02  0.00000000000E+00 0.  1.
         25    1    1    2    0    0  0.10776661414E+03  0.54452078475E+02  0.38258797886E+03  0.41875080125E+03  0.12000000000E+03 0.  0.
         25    1    1    2    0    0 -0.10776661414E+03 -0.54452078475E+02  0.21470466857E+03  0.27400139904E+03  0.12000000000E+03 0.  0.
<mgrwt>
<rscale>  0 0.35092322E+03</rscale>
<asrwt>0</asrwt>
<pdfrwt beam="1">  1        1 0.73430430E-02 0.35092322E+03</pdfrwt>
<pdfrwt beam="2">  1       -1 0.99234213E-01 0.35092322E+03</pdfrwt>
<totfact> 0.10056637E+03</totfact>
</mgrwt>
</event>
<event>
 4    1  0.1807309E-004  0.2572568E+03  0.7818608E-02  0.1108803E+00
          3   -1    0    0  501    0  0.00000000000E+00  0.00000000000E+00  0.16206714654E+03  0.16206714654E+03  0.00000000000E+00 0. -1.
         -3   -1    0    0    0  501 -0.00000000000E+00 -0.00000000000E+00 -0.10208897527E+03  0.10208897527E+03  0.00000000000E+00 0. -1.
         25    1    1    2    0    0  0.39073367119E+02 -0.17639541929E+02  0.47991752336E+02  0.13616567023E+03  0.12000000000E+03 0.  0.
         25    1    1    2    0    0 -0.39073367119E+02  0.17639541929E+02  0.11986418935E+02  0.12799045158E+03  0.12000000000E+03 0.  0.
<mgrwt>
<rscale>  0 0.25725683E+03</rscale>
<asrwt>0</asrwt>
<pdfrwt beam="1">  1        3 0.24933407E-01 0.25725683E+03</pdfrwt>
<pdfrwt beam="2">  1       -3 0.15705996E-01 0.25725683E+03</pdfrwt>
<totfact> 0.13070750E+03</totfact>
</mgrwt>
</event>
<event>
 4    1  0.1807309E-004  0.3053869E+03  0.7818608E-02  0.1082578E+00
         -1   -1    0    0    0  501 -0.00000000000E+00  0.00000000000E+00  0.36794079534E+02  0.36794079534E+02  0.00000000000E+00 0.  1.
          1   -1    0    0  501    0  0.00000000000E+00 -0.00000000000E+00 -0.63366947208E+03  0.63366947208E+03  0.00000000000E+00 0.  1.
         25    1    1    2    0    0 -0.49853322953E+02  0.17455396652E+01 -0.47444271527E+03  0.49191898803E+03  0.12000000000E+03 0.  0.
         25    1    1    2    0    0  0.49853322953E+02 -0.17455396652E+01 -0.12243267728E+03  0.17854456358E+03  0.12000000000E+03 0.  0.
<mgrwt>
<rscale>  0 0.30538687E+03</rscale>
<asrwt>0</asrwt>
<pdfrwt beam="1">  1        1 0.97487606E-01 0.30538687E+03</pdfrwt>
<pdfrwt beam="2">  1       -1 0.56606279E-02 0.30538687E+03</pdfrwt>
<totfact> 0.47528088E+03</totfact>
</mgrwt>
</event>
<event>
 4    1  0.1807309E-004  0.2512892E+03  0.7818608E-02  0.1112493E+00
         -1   -1    0    0    0  501 -0.00000000000E+00  0.00000000000E+00  0.11322861734E+03  0.11322861734E+03  0.00000000000E+00 0. -1.
          1   -1    0    0  501    0  0.00000000000E+00 -0.00000000000E+00 -0.13942204905E+03  0.13942204905E+03  0.00000000000E+00 0. -1.
         25    1    1    2    0    0 -0.97880700672E+01  0.25081427209E+02  0.12765821264E+02  0.12364404757E+03  0.12000000000E+03 0.  0.
         25    1    1    2    0    0  0.97880700672E+01 -0.25081427209E+02 -0.38959252980E+02  0.12900661882E+03  0.12000000000E+03 0.  0.
<mgrwt>
<rscale>  0 0.25128920E+03</rscale>
<asrwt>0</asrwt>
<pdfrwt beam="1">  1        1 0.21449546E-01 0.25128920E+03</pdfrwt>
<pdfrwt beam="2">  1       -1 0.17419787E-01 0.25128920E+03</pdfrwt>
<totfact> 0.58164660E+03</totfact>
</mgrwt>
</event>
<event>
 4    1  0.1807309E-004  0.2573503E+03  0.7818608E-02  0.1108746E+00
          1   -1    0    0  501    0  0.00000000000E+00  0.00000000000E+00  0.16148409602E+03  0.16148409602E+03  0.00000000000E+00 0. -1.
         -1   -1    0    0    0  501 -0.00000000000E+00 -0.00000000000E+00 -0.10253202162E+03  0.10253202162E+03  0.00000000000E+00 0. -1.
         25    1    1    2    0    0 -0.28378547953E+02 -0.34932412680E+02  0.41248250029E+02  0.13463667246E+03  0.12000000000E+03 0.  0.
         25    1    1    2    0    0  0.28378547953E+02  0.34932412680E+02  0.17703824372E+02  0.12937944519E+03  0.12000000000E+03 0.  0.
<mgrwt>
<rscale>  0 0.25735027E+03</rscale>
<asrwt>0</asrwt>
<pdfrwt beam="1">  1        1 0.24843707E-01 0.25735027E+03</pdfrwt>
<pdfrwt beam="2">  1       -1 0.15774157E-01 0.25735027E+03</pdfrwt>
<totfact> 0.56552648E+03</totfact>
</mgrwt>
</event>
<event>
 4    1  0.1807309E-004  0.3702527E+03  0.7818608E-02  0.1054596E+00
         -1   -1    0    0    0  501 -0.00000000000E+00  0.00000000000E+00  0.27424182037E+03  0.27424182037E+03  0.00000000000E+00 0. -1.
          1   -1    0    0  501    0  0.00000000000E+00 -0.00000000000E+00 -0.12496915689E+03  0.12496915689E+03  0.00000000000E+00 0. -1.
         25    1    1    2    0    0  0.64629283313E+02 -0.12203753737E+03  0.44108181818E+02  0.18819042614E+03  0.12000000000E+03 0.  0.
         25    1    1    2    0    0 -0.64629283313E+02  0.12203753737E+03  0.10516448166E+03  0.21102055111E+03  0.12000000000E+03 0.  0.
<mgrwt>
<rscale>  0 0.37025272E+03</rscale>
<asrwt>0</asrwt>
<pdfrwt beam="1">  1        1 0.19226024E-01 0.37025272E+03</pdfrwt>
<pdfrwt beam="2">  1       -1 0.42191049E-01 0.37025272E+03</pdfrwt>
<totfact> 0.15145470E+03</totfact>
</mgrwt>
</event>
<event>
 4    1  0.1807309E-004  0.2555649E+03  0.7818608E-02  0.1109838E+00
         -2   -1    0    0    0  501 -0.00000000000E+00  0.00000000000E+00  0.73822601827E+02  0.73822601827E+02  0.00000000000E+00 0. -1.
          2   -1    0    0  501    0  0.00000000000E+00 -0.00000000000E+00 -0.22118365372E+03  0.22118365372E+03  0.00000000000E+00 0. -1.
         25    1    1    2    0    0  0.20554366953E+02 -0.37034544410E+02 -0.87058476364E+02  0.15418566012E+03  0.12000000000E+03 0.  0.
         25    1    1    2    0    0 -0.20554366953E+02  0.37034544410E+02 -0.60302575529E+02  0.14082059543E+03  0.12000000000E+03 0.  0.
<mgrwt>
<rscale>  0 0.25556489E+03</rscale>
<asrwt>0</asrwt>
<pdfrwt beam="1">  1        2 0.34028254E-01 0.25556489E+03</pdfrwt>
<pdfrwt beam="2">  1       -2 0.11357324E-01 0.25556489E+03</pdfrwt>
<totfact> 0.81434416E+03</totfact>
</mgrwt>
</event>
<event>
 4    1  0.1807309E-004  0.2853664E+03  0.7818608E-02  0.1092794E+00
          2   -1    0    0  501    0  0.00000000000E+00  0.00000000000E+00  0.23906628000E+04  0.23906628000E+04  0.00000000000E+00 0.  1.
         -2   -1    0    0    0  501 -0.00000000000E+00 -0.00000000000E+00 -0.85158372716E+01  0.85158372716E+01  0.00000000000E+00 0.  1.
         25    1    1    2    0    0  0.94519199654E+00  0.27745479876E+02  0.17966248068E+04  0.18008418591E+04  0.12000000000E+03 0.  0.
         25    1    1    2    0    0 -0.94519199654E+00 -0.27745479876E+02  0.58552215591E+03  0.59833677817E+03  0.12000000000E+03 0.  0.
<mgrwt>
<rscale>  0 0.28536640E+03</rscale>
<asrwt>0</asrwt>
<pdfrwt beam="1">  1        2 0.36779374E+00 0.28536640E+03</pdfrwt>
<pdfrwt beam="2">  1       -2 0.13101307E-02 0.28536640E+03</pdfrwt>
<totfact> 0.66161490E+03</totfact>
</mgrwt>
</event>
<event>
 4    1  0.1807309E-004  0.3361271E+03  0.7818608E-02  0.1068458E+00
          1   -1    0    0  501    0  0.00000000000E+00  0.00000000000E+00  0.25731066798E+02  0.25731066798E+02  0.00000000000E+00 0. -1.
         -1   -1    0    0    0  501 -0.00000000000E+00 -0.00000000000E+00 -0.10977143656E+04  0.10977143656E+04  0.00000000000E+00 0. -1.
         25    1    1    2    0    0 -0.70525000461E+02  0.85938563381E+02 -0.66484022978E+03  0.68466907590E+03  0.12000000000E+03 0.  0.
         25    1    1    2    0    0  0.70525000461E+02 -0.85938563381E+02 -0.40714306904E+03  0.43877635651E+03  0.12000000000E+03 0.  0.
<mgrwt>
<rscale>  0 0.33612713E+03</rscale>
<asrwt>0</asrwt>
<pdfrwt beam="1">  1        1 0.39586258E-02 0.33612713E+03</pdfrwt>
<pdfrwt beam="2">  1       -1 0.16887913E+00 0.33612713E+03</pdfrwt>
<totfact> 0.63335738E+02</totfact>
</mgrwt>
</event>
<event>
 4    1  0.1807309E-004  0.3758532E+03  0.7818608E-02  0.1052477E+00
          1   -1    0    0  501    0  0.00000000000E+00  0.00000000000E+00  0.26443057858E+03  0.26443057858E+03  0.00000000000E+00 0. -1.
         -1   -1    0    0    0  501 -0.00000000000E+00 -0.00000000000E+00 -0.13355642019E+03  0.13355642019E+03  0.00000000000E+00 0. -1.
         25    1    1    2    0    0 -0.78065868790E+02 -0.93581562575E+02 -0.17024605592E+02  0.17187677539E+03  0.12000000000E+03 0.  0.
         25    1    1    2    0    0  0.78065868790E+02  0.93581562575E+02  0.14789876398E+03  0.22611022337E+03  0.12000000000E+03 0.  0.
<mgrwt>
<rscale>  0 0.37585317E+03</rscale>
<asrwt>0</asrwt>
<pdfrwt beam="1">  1        1 0.40681627E-01 0.37585317E+03</pdfrwt>
<pdfrwt beam="2">  1       -1 0.20547142E-01 0.37585317E+03</pdfrwt>
<totfact> 0.19926100E+03</totfact>
</mgrwt>
</event>
<event>
 4    1  0.1807309E-004  0.2510863E+03  0.7818608E-02  0.1112620E+00
         -2   -1    0    0    0  501 -0.00000000000E+00  0.00000000000E+00  0.81947451499E+01  0.81947451499E+01  0.00000000000E+00 0.  1.
          2   -1    0    0  501    0  0.00000000000E+00 -0.00000000000E+00 -0.19233164231E+04  0.19233164231E+04  0.00000000000E+00 0.  1.
         25    1    1    2    0    0 -0.32068607851E+02  0.17763311244E+02 -0.98942452351E+03  0.99734889510E+03  0.12000000000E+03 0.  0.
         25    1    1    2    0    0  0.32068607851E+02 -0.17763311244E+02 -0.92569715440E+03  0.93416227311E+03  0.12000000000E+03 0.  0.
<mgrwt>
<rscale>  0 0.25108634E+03</rscale>
<asrwt>0</asrwt>
<pdfrwt beam="1">  1        2 0.29589484E+00 0.25108634E+03</pdfrwt>
<pdfrwt beam="2">  1       -2 0.12607300E-02 0.25108634E+03</pdfrwt>
<totfact> 0.12375369E+04</totfact>
</mgrwt>
</event>
<event>
 4    1  0.1807309E-004  0.2632815E+03  0.7818608E-02  0.1105188E+00
          2   -1    0    0  501    0  0.00000000000E+00  0.00000000000E+00  0.17869063020E+03  0.17869063020E+03  0.00000000000E+00 0. -1.
         -2   -1    0    0    0  501 -0.00000000000E+00 -0.00000000000E+00 -0.96979246475E+02  0.96979246475E+02  0.00000000000E+00 0. -1.
         25    1    1    2    0    0 -0.17908872004E+02  0.45237046502E+02  0.65681349918E+02  0.14519351845E+03  0.12000000000E+03 0.  0.
         25    1    1    2    0    0  0.17908872004E+02 -0.45237046502E+02  0.16030033811E+02  0.13047635823E+03  0.12000000000E+03 0.  0.
<mgrwt>
<rscale>  0 0.26328147E+03</rscale>
<asrwt>0</asrwt>
<pdfrwt beam="1">  1        2 0.27490866E-01 0.26328147E+03</pdfrwt>
<pdfrwt beam="2">  1       -2 0.14919884E-01 0.26328147E+03</pdfrwt>
<totfact> 0.66077558E+03</totfact>
</mgrwt>
</event>
<event>
 4    1  0.1807309E-004  0.2605793E+03  0.7818608E-02  0.1106796E+00
          3   -1    0    0  501    0  0.00000000000E+00  0.00000000000E+00  0.13489925287E+03  0.13489925287E+03  0.00000000000E+00 0. -1.
         -3   -1    0    0    0  501 -0.00000000000E+00 -0.00000000000E+00 -0.12583755242E+03  0.12583755242E+03  0.00000000000E+00 0. -1.
         25    1    1    2    0    0 -0.21439314989E+02 -0.18803571269E+02  0.46534472772E+02  0.13182820516E+03  0.12000000000E+03 0.  0.
         25    1    1    2    0    0  0.21439314989E+02  0.18803571269E+02 -0.37472772324E+02  0.12890860012E+03  0.12000000000E+03 0.  0.
<mgrwt>
<rscale>  0 0.26057929E+03</rscale>
<asrwt>0</asrwt>
<pdfrwt beam="1">  1        3 0.20753731E-01 0.26057929E+03</pdfrwt>
<pdfrwt beam="2">  1       -3 0.19359623E-01 0.26057929E+03</pdfrwt>
<totfact> 0.12633041E+03</totfact>
</mgrwt>
</event>
<event>
 4    1  0.1807309E-004  0.2767958E+03  0.7818608E-02  0.1097452E+00
          4   -1    0    0  501    0  0.00000000000E+00  0.00000000000E+00  0.38846228389E+03  0.38846228389E+03  0.00000000000E+00 0.  1.
         -4   -1    0    0    0  501 -0.00000000000E+00 -0.00000000000E+00 -0.49307163387E+02  0.49307163387E+02  0.00000000000E+00 0.  1.
         25    1    1    2    0    0 -0.49926411651E+01  0.63412106758E+02  0.21165872799E+03  0.25148645865E+03  0.12000000000E+03 0.  0.
         25    1    1    2    0    0  0.49926411651E+01 -0.63412106758E+02  0.12749639252E+03  0.18628298863E+03  0.12000000000E+03 0.  0.
<mgrwt>
<rscale>  0 0.27679576E+03</rscale>
<asrwt>0</asrwt>
<pdfrwt beam="1">  1        4 0.59763426E-01 0.27679576E+03</pdfrwt>
<pdfrwt beam="2">  1       -4 0.75857177E-02 0.27679576E+03</pdfrwt>
<totfact> 0.60529973E+02</totfact>
</mgrwt>
</event>
<event>
 4    1  0.1807309E-004  0.2729407E+03  0.7818608E-02  0.1099608E+00
         -3   -1    0    0    0  501 -0.00000000000E+00  0.00000000000E+00  0.26368078928E+03  0.26368078928E+03  0.00000000000E+00 0.  1.
          3   -1    0    0  501    0  0.00000000000E+00 -0.00000000000E+00 -0.70631424151E+02  0.70631424151E+02  0.00000000000E+00 0.  1.
         25    1    1    2    0    0  0.54571694282E+02  0.62641658378E+01  0.53973769585E+02  0.14258498306E+03  0.12000000000E+03 0.  0.
         25    1    1    2    0    0 -0.54571694282E+02 -0.62641658378E+01  0.13907559554E+03  0.19172723037E+03  0.12000000000E+03 0.  0.
<mgrwt>
<rscale>  0 0.27294065E+03</rscale>
<asrwt>0</asrwt>
<pdfrwt beam="1">  1        3 0.10866373E-01 0.27294065E+03</pdfrwt>
<pdfrwt beam="2">  1       -3 0.40566275E-01 0.27294065E+03</pdfrwt>
<totfact> 0.98585557E+02</totfact>
</mgrwt>
</event>
<event>
 4    1  0.1807309E-004  0.2482986E+03  0.7818608E-02  0.1114385E+00
          2   -1    0    0  501    0  0.00000000000E+00  0.00000000000E+00  0.33523621027E+04  0.33523621027E+04  0.00000000000E+00 0.  1.
         -2   -1    0    0    0  501 -0.00000000000E+00 -0.00000000000E+00 -0.45976699068E+01  0.45976699068E+01  0.00000000000E+00 0.  1.
         25    1    1    2    0    0  0.11067011234E+02  0.16887739309E+02  0.13412335568E+04  0.13467424136E+04  0.12000000000E+03 0.  0.
         25    1    1    2    0    0 -0.11067011234E+02 -0.16887739309E+02  0.20065308760E+04  0.20102173591E+04  0.12000000000E+03 0.  0.
<mgrwt>
<rscale>  0 0.24829865E+03</rscale>
<asrwt>0</asrwt>
<pdfrwt beam="1">  1        2 0.51574606E+00 0.24829865E+03</pdfrwt>
<pdfrwt beam="2">  1       -2 0.70733651E-03 0.24829865E+03</pdfrwt>
<totfact> 0.44669594E+03</totfact>
</mgrwt>
</event>
<event>
 4    1  0.1807309E-004  0.6277621E+03  0.7818608E-02  0.9849426E-01
          2   -1    0    0  501    0  0.00000000000E+00  0.00000000000E+00  0.36456573652E+03  0.36456573652E+03  0.00000000000E+00 0.  1.
         -2   -1    0    0    0  501 -0.00000000000E+00 -0.00000000000E+00 -0.27024293881E+03  0.27024293881E+03  0.00000000000E+00 0.  1.
         25    1    1    2    0    0  0.22521356019E+03  0.75324964320E+02  0.21554269800E+03  0.34242320687E+03  0.12000000000E+03 0.  0.
         25    1    1    2    0    0 -0.22521356019E+03 -0.75324964320E+02 -0.12121990029E+03  0.29238546846E+03  0.12000000000E+03 0.  0.
<mgrwt>
<rscale>  0 0.62776211E+03</rscale>
<asrwt>0</asrwt>
<pdfrwt beam="1">  1        2 0.56087036E-01 0.62776211E+03</pdfrwt>
<pdfrwt beam="2">  1       -2 0.41575837E-01 0.62776211E+03</pdfrwt>
<totfact> 0.48784606E+02</totfact>
</mgrwt>
</event>
<event>
 4    1  0.1807309E-004  0.2533775E+03  0.7818608E-02  0.1111189E+00
         -2   -1    0    0    0  501 -0.00000000000E+00  0.00000000000E+00  0.23960011315E+02  0.23960011315E+02  0.00000000000E+00 0.  1.
          2   -1    0    0  501    0  0.00000000000E+00 -0.00000000000E+00 -0.66986778670E+03  0.66986778670E+03  0.00000000000E+00 0.  1.
         25    1    1    2    0    0  0.26648256884E+02  0.25281639637E+02 -0.37044207937E+03  0.39112226358E+03  0.12000000000E+03 0.  0.
         25    1    1    2    0    0 -0.26648256884E+02 -0.25281639637E+02 -0.27546569602E+03  0.30270553444E+03  0.12000000000E+03 0.  0.
<mgrwt>
<rscale>  0 0.25337750E+03</rscale>
<asrwt>0</asrwt>
<pdfrwt beam="1">  1        2 0.10305659E+00 0.25337750E+03</pdfrwt>
<pdfrwt beam="2">  1       -2 0.36861552E-02 0.25337750E+03</pdfrwt>
<totfact> 0.13634863E+04</totfact>
</mgrwt>
</event>
<event>
 4    1  0.1807309E-004  0.3465846E+03  0.7818608E-02  0.1064026E+00
         -2   -1    0    0    0  501 -0.00000000000E+00  0.00000000000E+00  0.37949996527E+02  0.37949996527E+02  0.00000000000E+00 0.  1.
          2   -1    0    0  501    0  0.00000000000E+00 -0.00000000000E+00 -0.79131004246E+03  0.79131004246E+03  0.00000000000E+00 0.  1.
         25    1    1    2    0    0  0.55166469031E+01  0.11876645886E+03 -0.46917148108E+03  0.49865597740E+03  0.12000000000E+03 0.  0.
         25    1    1    2    0    0 -0.55166469031E+01 -0.11876645886E+03 -0.28418856486E+03  0.33060406159E+03  0.12000000000E+03 0.  0.
<mgrwt>
<rscale>  0 0.34658455E+03</rscale>
<asrwt>0</asrwt>
<pdfrwt beam="1">  1        2 0.12174000E+00 0.34658455E+03</pdfrwt>
<pdfrwt beam="2">  1       -2 0.58384614E-02 0.34658455E+03</pdfrwt>
<totfact> 0.55758050E+03</totfact>
</mgrwt>
</event>
<event>
 4    1  0.1807309E-004  0.4387840E+03  0.7818608E-02  0.1031121E+00
         -2   -1    0    0    0  501 -0.00000000000E+00  0.00000000000E+00  0.13171954593E+03  0.13171954593E+03  0.00000000000E+00 0. -1.
          2   -1    0    0  501    0  0.00000000000E+00 -0.00000000000E+00 -0.36541921412E+03  0.36541921412E+03  0.00000000000E+00 0. -1.
         25    1    1    2    0    0  0.17895373182E+03 -0.22933661790E+02 -0.77889702040E+02  0.23025463440E+03  0.12000000000E+03 0.  0.
         25    1    1    2    0    0 -0.17895373182E+03  0.22933661790E+02 -0.15580996614E+03  0.26688412566E+03  0.12000000000E+03 0.  0.
<mgrwt>
<rscale>  0 0.43878402E+03</rscale>
<asrwt>0</asrwt>
<pdfrwt beam="1">  1        2 0.56218340E-01 0.43878402E+03</pdfrwt>
<pdfrwt beam="2">  1       -2 0.20264546E-01 0.43878402E+03</pdfrwt>
<totfact> 0.18237567E+03</totfact>
</mgrwt>
</event>
<event>
 4    1  0.1807309E-004  0.3161992E+03  0.7818608E-02  0.1077412E+00
         -3   -1    0    0    0  501 -0.00000000000E+00  0.00000000000E+00  0.60953441658E+02  0.60953441658E+02  0.00000000000E+00 0.  1.
          3   -1    0    0  501    0  0.00000000000E+00 -0.00000000000E+00 -0.41007511485E+03  0.41007511485E+03  0.00000000000E+00 0.  1.
         25    1    1    2    0    0 -0.42410540739E+02 -0.84904328311E+02 -0.23392496055E+03  0.27951437548E+03  0.12000000000E+03 0.  0.
         25    1    1    2    0    0  0.42410540739E+02  0.84904328311E+02 -0.11519671265E+03  0.19151418103E+03  0.12000000000E+03 0.  0.
<mgrwt>
<rscale>  0 0.31619924E+03</rscale>
<asrwt>0</asrwt>
<pdfrwt beam="1">  1        3 0.63088480E-01 0.31619924E+03</pdfrwt>
<pdfrwt beam="2">  1       -3 0.93774524E-02 0.31619924E+03</pdfrwt>
<totfact> 0.52364549E+02</totfact>
</mgrwt>
</event>
<event>
 4    1  0.1807309E-004  0.2729757E+03  0.7818608E-02  0.1099589E+00
          3   -1    0    0  501    0  0.00000000000E+00  0.00000000000E+00  0.90519605875E+03  0.90519605875E+03  0.00000000000E+00 0. -1.
         -3   -1    0    0    0  501 -0.00000000000E+00 -0.00000000000E+00 -0.20579993265E+02  0.20579993265E+02  0.00000000000E+00 0. -1.
         25    1    1    2    0    0  0.95583302001E+01 -0.53376261703E+02  0.56404746206E+03  0.57921492250E+03  0.12000000000E+03 0.  0.
         25    1    1    2    0    0 -0.95583302001E+01  0.53376261703E+02  0.32056860343E+03  0.34656112952E+03  0.12000000000E+03 0.  0.
<mgrwt>
<rscale>  0 0.27297567E+03</rscale>
<asrwt>0</asrwt>
<pdfrwt beam="1">  1        3 0.13926090E+00 0.27297567E+03</pdfrwt>
<pdfrwt beam="2">  1       -3 0.31661535E-02 0.27297567E+03</pdfrwt>
<totfact> 0.49054474E+02</totfact>
</mgrwt>
</event>
<event>
 4    1  0.1807309E-004  0.2505618E+03  0.7818608E-02  0.1112950E+00
          2   -1    0    0  501    0  0.00000000000E+00  0.00000000000E+00  0.32505061047E+03  0.32505061047E+03  0.00000000000E+00 0.  1.
         -2   -1    0    0    0  501 -0.00000000000E+00 -0.00000000000E+00 -0.48285735860E+02  0.48285735860E+02  0.00000000000E+00 0.  1.
         25    1    1    2    0    0  0.62610862557E+01  0.23818621281E+02  0.99278037868E+02  0.15767896728E+03  0.12000000000E+03 0.  0.
         25    1    1    2    0    0 -0.62610862557E+01 -0.23818621281E+02  0.17748683674E+03  0.21565737905E+03  0.12000000000E+03 0.  0.
<mgrwt>
<rscale>  0 0.25056183E+03</rscale>
<asrwt>0</asrwt>
<pdfrwt beam="1">  1        2 0.50007785E-01 0.25056183E+03</pdfrwt>
<pdfrwt beam="2">  1       -2 0.74285750E-02 0.25056183E+03</pdfrwt>
<totfact> 0.10497841E+04</totfact>
</mgrwt>
</event>
<event>
 4    1  0.1807309E-004  0.3062045E+03  0.7818608E-02  0.1082180E+00
          2   -1    0    0  501    0  0.00000000000E+00  0.00000000000E+00  0.26044092372E+04  0.26044092372E+04  0.00000000000E+00 0. -1.
         -2   -1    0    0    0  501 -0.00000000000E+00 -0.00000000000E+00 -0.90002346755E+01  0.90002346755E+01  0.00000000000E+00 0. -1.
         25    1    1    2    0    0  0.28110696449E+02 -0.47018132647E+02  0.63443191019E+03  0.64800059006E+03  0.12000000000E+03 0.  0.
         25    1    1    2    0    0 -0.28110696449E+02  0.47018132647E+02  0.19609770923E+04  0.19654088818E+04  0.12000000000E+03 0.  0.
<mgrwt>
<rscale>  0 0.30620447E+03</rscale>
<asrwt>0</asrwt>
<pdfrwt beam="1">  1        2 0.40067775E+00 0.30620447E+03</pdfrwt>
<pdfrwt beam="2">  1       -2 0.13846536E-02 0.30620447E+03</pdfrwt>
<totfact> 0.46530684E+03</totfact>
</mgrwt>
</event>
<event>
 4    1  0.1807309E-004  0.3337474E+03  0.7818608E-02  0.1069491E+00
          1   -1    0    0  501    0  0.00000000000E+00  0.00000000000E+00  0.59731210941E+02  0.59731210941E+02  0.00000000000E+00 0. -1.
         -1   -1    0    0    0  501 -0.00000000000E+00 -0.00000000000E+00 -0.46620223304E+03  0.46620223304E+03  0.00000000000E+00 0. -1.
         25    1    1    2    0    0 -0.21670623515E+02  0.25855219378E+02 -0.28404154461E+02  0.12784719114E+03  0.12000000000E+03 0.  0.
         25    1    1    2    0    0  0.21670623515E+02 -0.25855219378E+02 -0.37806686764E+03  0.39808625284E+03  0.12000000000E+03 0.  0.
<mgrwt>
<rscale>  0 0.33374735E+03</rscale>
<asrwt>0</asrwt>
<pdfrwt beam="1">  1        1 0.91894172E-02 0.33374735E+03</pdfrwt>
<pdfrwt beam="2">  1       -1 0.71723419E-01 0.33374735E+03</pdfrwt>
<totfact> 0.14730979E+03</totfact>
</mgrwt>
</event>
<event>
 4    1  0.1807309E-004  0.2892016E+03  0.7818608E-02  0.1090767E+00
         -3   -1    0    0    0  501 -0.00000000000E+00  0.00000000000E+00  0.48394436794E+03  0.48394436794E+03  0.00000000000E+00 0.  1.
          3   -1    0    0  501    0  0.00000000000E+00 -0.00000000000E+00 -0.43206183315E+02  0.43206183315E+02  0.00000000000E+00 0.  1.
         25    1    1    2    0    0  0.45269046583E+02  0.92418245753E+01  0.34093032989E+03  0.36437369243E+03  0.12000000000E+03 0.  0.
         25    1    1    2    0    0 -0.45269046583E+02 -0.92418245753E+01  0.99807854733E+02  0.16277685882E+03  0.12000000000E+03 0.  0.
<mgrwt>
<rscale>  0 0.28920158E+03</rscale>
<asrwt>0</asrwt>
<pdfrwt beam="1">  1        3 0.66471055E-02 0.28920158E+03</pdfrwt>
<pdfrwt beam="2">  1       -3 0.74452976E-01 0.28920158E+03</pdfrwt>
<totfact> 0.64165274E+02</totfact>
</mgrwt>
</event>
<event>
 4    1  0.1807309E-004  0.3498930E+03  0.7818608E-02  0.1062659E+00
         -1   -1    0    0    0  501 -0.00000000000E+00  0.00000000000E+00  0.12689741284E+03  0.12689741284E+03  0.00000000000E+00 0.  1.
          1   -1    0    0  501    0  0.00000000000E+00 -0.00000000000E+00 -0.24118912817E+03  0.24118912817E+03  0.00000000000E+00 0.  1.
         25    1    1    2    0    0 -0.22882553284E+02 -0.12514440822E+03 -0.52263159391E+02  0.18252718149E+03  0.12000000000E+03 0.  0.
         25    1    1    2    0    0  0.22882553284E+02  0.12514440822E+03 -0.62028555939E+02  0.18555935952E+03  0.12000000000E+03 0.  0.
<mgrwt>
<rscale>  0 0.34989299E+03</rscale>
<asrwt>0</asrwt>
<pdfrwt beam="1">  1        1 0.37106020E-01 0.34989299E+03</pdfrwt>
<pdfrwt beam="2">  1       -1 0.19522679E-01 0.34989299E+03</pdfrwt>
<totfact> 0.24324737E+03</totfact>
</mgrwt>
</event>
<event>
 4    1  0.1807309E-004  0.2574165E+03  0.7818608E-02  0.1108705E+00
          2   -1    0    0  501    0  0.00000000000E+00  0.00000000000E+00  0.45752616907E+03  0.45752616907E+03  0.00000000000E+00 0. -1.
         -2   -1    0    0    0  501 -0.00000000000E+00 -0.00000000000E+00 -0.36207345144E+02  0.36207345144E+02  0.00000000000E+00 0. -1.
         25    1    1    2    0    0 -0.10592554833E+01  0.46405998465E+02  0.20424927459E+03  0.24139677895E+03  0.12000000000E+03 0.  0.
         25    1    1    2    0    0  0.10592554833E+01 -0.46405998465E+02  0.21706954933E+03  0.25233673526E+03  0.12000000000E+03 0.  0.
<mgrwt>
<rscale>  0 0.25741646E+03</rscale>
<asrwt>0</asrwt>
<pdfrwt beam="1">  1        2 0.70388637E-01 0.25741646E+03</pdfrwt>
<pdfrwt beam="2">  1       -2 0.55703611E-02 0.25741646E+03</pdfrwt>
<totfact> 0.11298610E+04</totfact>
</mgrwt>
</event>
<event>
 4    1  0.1807309E-004  0.2860448E+03  0.7818608E-02  0.1092432E+00
         -2   -1    0    0    0  501 -0.00000000000E+00  0.00000000000E+00  0.95684143699E+01  0.95684143699E+01  0.00000000000E+00 0.  1.
          2   -1    0    0  501    0  0.00000000000E+00 -0.00000000000E+00 -0.21378056247E+04  0.21378056247E+04  0.00000000000E+00 0.  1.
         25    1    1    2    0    0  0.23018112370E+02  0.53840427895E+02 -0.67936219672E+03  0.69235945830E+03  0.12000000000E+03 0.  0.
         25    1    1    2    0    0 -0.23018112370E+02 -0.53840427895E+02 -0.14488750136E+04  0.14550145808E+04  0.12000000000E+03 0.  0.
<mgrwt>
<rscale>  0 0.28604482E+03</rscale>
<asrwt>0</asrwt>
<pdfrwt beam="1">  1        2 0.32889338E+00 0.28604482E+03</pdfrwt>
<pdfrwt beam="2">  1       -2 0.14720628E-02 0.28604482E+03</pdfrwt>
<totfact> 0.76216810E+03</totfact>
</mgrwt>
</event>
<event>
 4    1  0.1807309E-004  0.3960734E+03  0.7818608E-02  0.1045148E+00
          2   -1    0    0  501    0  0.00000000000E+00  0.00000000000E+00  0.30441527821E+04  0.30441527821E+04  0.00000000000E+00 0. -1.
         -2   -1    0    0    0  501 -0.00000000000E+00 -0.00000000000E+00 -0.12883236109E+02  0.12883236109E+02  0.00000000000E+00 0. -1.
         25    1    1    2    0    0 -0.18942151743E+02  0.31145094646E+02  0.26985775766E+04  0.27014902848E+04  0.12000000000E+03 0.  0.
         25    1    1    2    0    0  0.18942151743E+02 -0.31145094646E+02  0.33269196934E+03  0.35554573334E+03  0.12000000000E+03 0.  0.
<mgrwt>
<rscale>  0 0.39607342E+03</rscale>
<asrwt>0</asrwt>
<pdfrwt beam="1">  1        2 0.46833062E+00 0.39607342E+03</pdfrwt>
<pdfrwt beam="2">  1       -2 0.19820387E-02 0.39607342E+03</pdfrwt>
<totfact> 0.15115665E+03</totfact>
</mgrwt>
</event>
<event>
 4    1  0.1807309E-004  0.3267837E+03  0.7818608E-02  0.1072569E+00
         -2   -1    0    0    0  501 -0.00000000000E+00  0.00000000000E+00  0.26424028385E+02  0.26424028385E+02  0.00000000000E+00 0. -1.
          2   -1    0    0  501    0  0.00000000000E+00 -0.00000000000E+00 -0.10103263111E+04  0.10103263111E+04  0.00000000000E+00 0. -1.
         25    1    1    2    0    0  0.35793544275E+02  0.79896277630E+02 -0.70788069975E+03  0.72329777967E+03  0.12000000000E+03 0.  0.
         25    1    1    2    0    0 -0.35793544275E+02 -0.79896277630E+02 -0.27602158292E+03  0.31345255977E+03  0.12000000000E+03 0.  0.
<mgrwt>
<rscale>  0 0.32678367E+03</rscale>
<asrwt>0</asrwt>
<pdfrwt beam="1">  1        2 0.15543482E+00 0.32678367E+03</pdfrwt>
<pdfrwt beam="2">  1       -2 0.40652351E-02 0.32678367E+03</pdfrwt>
<totfact> 0.69607962E+03</totfact>
</mgrwt>
</event>
<event>
 4    1  0.1807309E-004  0.4991887E+03  0.7818608E-02  0.1013991E+00
          2   -1    0    0  501    0  0.00000000000E+00  0.00000000000E+00  0.11863230292E+04  0.11863230292E+04  0.00000000000E+00 0. -1.
         -2   -1    0    0    0  501 -0.00000000000E+00 -0.00000000000E+00 -0.52512962754E+02  0.52512962754E+02  0.00000000000E+00 0. -1.
         25    1    1    2    0    0  0.92494274416E+02 -0.95643352924E+02  0.13567106313E+03  0.22474314034E+03  0.12000000000E+03 0.  0.
         25    1    1    2    0    0 -0.92494274416E+02  0.95643352924E+02  0.99813900331E+03  0.10140928516E+04  0.12000000000E+03 0.  0.
<mgrwt>
<rscale>  0 0.49918869E+03</rscale>
<asrwt>0</asrwt>
<pdfrwt beam="1">  1        2 0.18251121E+00 0.49918869E+03</pdfrwt>
<pdfrwt beam="2">  1       -2 0.80789183E-02 0.49918869E+03</pdfrwt>
<totfact> 0.18894838E+03</totfact>
</mgrwt>
</event>
<event>
 4    1  0.1807309E-004  0.2628439E+03  0.7818608E-02  0.1105447E+00
          3   -1    0    0  501    0  0.00000000000E+00  0.00000000000E+00  0.57588318477E+02  0.57588318477E+02  0.00000000000E+00 0. -1.
         -3   -1    0    0    0  501 -0.00000000000E+00 -0.00000000000E+00 -0.29991713557E+03  0.29991713557E+03  0.00000000000E+00 0. -1.
         25    1    1    2    0    0  0.18428528830E+02 -0.36790260256E+02 -0.74469864531E+02  0.14710164733E+03  0.12000000000E+03 0.  0.
         25    1    1    2    0    0 -0.18428528830E+02  0.36790260256E+02 -0.16785895256E+03  0.21040380671E+03  0.12000000000E+03 0.  0.
<mgrwt>
<rscale>  0 0.26284386E+03</rscale>
<asrwt>0</asrwt>
<pdfrwt beam="1">  1        3 0.88597414E-02 0.26284386E+03</pdfrwt>
<pdfrwt beam="2">  1       -3 0.46141097E-01 0.26284386E+03</pdfrwt>
<totfact> 0.10706182E+03</totfact>
</mgrwt>
</event>
<event>
 4    1  0.1807309E-004  0.3675831E+03  0.7818608E-02  0.1055621E+00
          2   -1    0    0  501    0  0.00000000000E+00  0.00000000000E+00  0.69757047527E+03  0.69757047527E+03  0.00000000000E+00 0. -1.
         -2   -1    0    0    0  501 -0.00000000000E+00 -0.00000000000E+00 -0.48424262509E+02  0.48424262509E+02  0.00000000000E+00 0. -1.
         25    1    1    2    0    0 -0.57200749971E+02  0.36493027608E+02  0.77881830344E+02  0.15833270780E+03  0.12000000000E+03 0.  0.
         25    1    1    2    0    0  0.57200749971E+02 -0.36493027608E+02  0.57126438242E+03  0.58766202998E+03  0.12000000000E+03 0.  0.
<mgrwt>
<rscale>  0 0.36758311E+03</rscale>
<asrwt>0</asrwt>
<pdfrwt beam="1">  1        2 0.10731853E+00 0.36758311E+03</pdfrwt>
<pdfrwt beam="2">  1       -2 0.74498870E-02 0.36758311E+03</pdfrwt>
<totfact> 0.44752548E+03</totfact>
</mgrwt>
</event>
<event>
 4    1  0.1807309E-004  0.2583329E+03  0.7818608E-02  0.1108149E+00
         -2   -1    0    0    0  501 -0.00000000000E+00  0.00000000000E+00  0.11829351946E+02  0.11829351946E+02  0.00000000000E+00 0.  1.
          2   -1    0    0  501    0  0.00000000000E+00 -0.00000000000E+00 -0.14103871061E+04  0.14103871061E+04  0.00000000000E+00 0.  1.
         25    1    1    2    0    0  0.45291945537E+02 -0.73615116974E+01 -0.62574293775E+03  0.63879556693E+03  0.12000000000E+03 0.  0.
         25    1    1    2    0    0 -0.45291945537E+02  0.73615116974E+01 -0.77281481642E+03  0.78342089113E+03  0.12000000000E+03 0.  0.
<mgrwt>
<rscale>  0 0.25833285E+03</rscale>
<asrwt>0</asrwt>
<pdfrwt beam="1">  1        2 0.21698262E+00 0.25833285E+03</pdfrwt>
<pdfrwt beam="2">  1       -2 0.18199004E-02 0.25833285E+03</pdfrwt>
<totfact> 0.13517985E+04</totfact>
</mgrwt>
</event>
<event>
 4    1  0.1807309E-004  0.4103961E+03  0.7818608E-02  0.1040238E+00
         -3   -1    0    0    0  501 -0.00000000000E+00  0.00000000000E+00  0.37722697684E+03  0.37722697684E+03  0.00000000000E+00 0.  1.
          3   -1    0    0  501    0  0.00000000000E+00 -0.00000000000E+00 -0.11162042632E+03  0.11162042632E+03  0.00000000000E+00 0.  1.
         25    1    1    2    0    0  0.50950222143E+02 -0.12277083699E+03  0.25214319754E+03  0.30926492788E+03  0.12000000000E+03 0.  0.
         25    1    1    2    0    0 -0.50950222143E+02  0.12277083699E+03  0.13463352977E+02  0.17958247527E+03  0.12000000000E+03 0.  0.
<mgrwt>
<rscale>  0 0.41039608E+03</rscale>
<asrwt>0</asrwt>
<pdfrwt beam="1">  1        3 0.17172373E-01 0.41039608E+03</pdfrwt>
<pdfrwt beam="2">  1       -3 0.58034919E-01 0.41039608E+03</pdfrwt>
<totfact> 0.22555764E+02</totfact>
</mgrwt>
</event>
<event>
 4    1  0.1807309E-004  0.2469303E+03  0.7818608E-02  0.1115260E+00
          1   -1    0    0  501    0  0.00000000000E+00  0.00000000000E+00  0.75534964079E+03  0.75534964079E+03  0.00000000000E+00 0.  1.
         -1   -1    0    0    0  501 -0.00000000000E+00 -0.00000000000E+00 -0.20180911172E+02  0.20180911172E+02  0.00000000000E+00 0.  1.
         25    1    1    2    0    0 -0.18580237034E+02  0.21376092725E+02  0.38781229821E+03  0.40694046394E+03  0.12000000000E+03 0.  0.
         25    1    1    2    0    0  0.18580237034E+02 -0.21376092725E+02  0.34735643141E+03  0.36859008802E+03  0.12000000000E+03 0.  0.
<mgrwt>
<rscale>  0 0.24693031E+03</rscale>
<asrwt>0</asrwt>
<pdfrwt beam="1">  1        1 0.11620762E+00 0.24693031E+03</pdfrwt>
<pdfrwt beam="2">  1       -1 0.31047561E-02 0.24693031E+03</pdfrwt>
<totfact> 0.89561738E+03</totfact>
</mgrwt>
</event>
<event>
 4    1  0.1807309E-004  0.2768504E+03  0.7818608E-02  0.1097422E+00
          1   -1    0    0  501    0  0.00000000000E+00  0.00000000000E+00  0.22556419134E+03  0.22556419134E+03  0.00000000000E+00 0.  1.
         -1   -1    0    0    0  501 -0.00000000000E+00 -0.00000000000E+00 -0.84949367345E+02  0.84949367345E+02  0.00000000000E+00 0.  1.
         25    1    1    2    0    0 -0.56423269580E+02 -0.76011258751E+01  0.11403765710E+03  0.17505984606E+03  0.12000000000E+03 0.  0.
         25    1    1    2    0    0  0.56423269580E+02  0.76011258751E+01  0.26577166895E+02  0.13545371263E+03  0.12000000000E+03 0.  0.
<mgrwt>
<rscale>  0 0.27685040E+03</rscale>
<asrwt>0</asrwt>
<pdfrwt beam="1">  1        1 0.34702183E-01 0.27685040E+03</pdfrwt>
<pdfrwt beam="2">  1       -1 0.13069134E-01 0.27685040E+03</pdfrwt>
<totfact> 0.50051056E+03</totfact>
</mgrwt>
</event>
<event>
 4    1  0.1807309E-004  0.3397317E+03  0.7818608E-02  0.1066910E+00
          2   -1    0    0  501    0  0.00000000000E+00  0.00000000000E+00  0.33453319256E+04  0.33453319256E+04  0.00000000000E+00 0.  1.
         -2   -1    0    0    0  501 -0.00000000000E+00 -0.00000000000E+00 -0.86252739026E+01  0.86252739026E+01  0.00000000000E+00 0.  1.
         25    1    1    2    0    0 -0.69506972830E+01 -0.10547293957E+03  0.22338903510E+04  0.22396068747E+04  0.12000000000E+03 0.  0.
         25    1    1    2    0    0  0.69506972830E+01  0.10547293957E+03  0.11028163007E+04  0.11143503248E+04  0.12000000000E+03 0.  0.
<mgrwt>
<rscale>  0 0.33973168E+03</rscale>
<asrwt>0</asrwt>
<pdfrwt beam="1">  1        2 0.51466542E+00 0.33973168E+03</pdfrwt>
<pdfrwt beam="2">  1       -2 0.13269679E-02 0.33973168E+03</pdfrwt>
<totfact> 0.17875189E+03</totfact>
</mgrwt>
</event>
<event>
 4    1  0.1807309E-004  0.2794207E+03  0.7818608E-02  0.1096006E+00
          2   -1    0    0  501    0  0.00000000000E+00  0.00000000000E+00  0.90636215700E+03  0.90636215700E+03  0.00000000000E+00 0. -1.
         -2   -1    0    0    0  501 -0.00000000000E+00 -0.00000000000E+00 -0.21535522158E+02  0.21535522158E+02  0.00000000000E+00 0. -1.
         25    1    1    2    0    0 -0.17166398032E+02 -0.40301268907E+02  0.63026868531E+03  0.64308435930E+03  0.12000000000E+03 0.  0.
         25    1    1    2    0    0  0.17166398032E+02  0.40301268907E+02  0.25455794953E+03  0.28481331985E+03  0.12000000000E+03 0.  0.
<mgrwt>
<rscale>  0 0.27942070E+03</rscale>
<asrwt>0</asrwt>
<pdfrwt beam="1">  1        2 0.13944030E+00 0.27942070E+03</pdfrwt>
<pdfrwt beam="2">  1       -2 0.33131580E-02 0.27942070E+03</pdfrwt>
<totfact> 0.10960621E+04</totfact>
</mgrwt>
</event>
<event>
 4    1  0.1807309E-004  0.3045973E+03  0.7818608E-02  0.1082965E+00
         -2   -1    0    0    0  501 -0.00000000000E+00  0.00000000000E+00  0.14873157973E+03  0.14873157973E+03  0.00000000000E+00 0. -1.
          2   -1    0    0  501    0  0.00000000000E+00 -0.00000000000E+00 -0.15595130592E+03  0.15595130592E+03  0.00000000000E+00 0. -1.
         25    1    1    2    0    0  0.53853148480E+02  0.73432413640E+02 -0.26030509186E+02  0.15287271955E+03  0.12000000000E+03 0.  0.
         25    1    1    2    0    0 -0.53853148480E+02 -0.73432413640E+02  0.18810782990E+02  0.15181016610E+03  0.12000000000E+03 0.  0.
<mgrwt>
<rscale>  0 0.30459733E+03</rscale>
<asrwt>0</asrwt>
<pdfrwt beam="1">  1        2 0.23992509E-01 0.30459733E+03</pdfrwt>
<pdfrwt beam="2">  1       -2 0.22881781E-01 0.30459733E+03</pdfrwt>
<totfact> 0.37425700E+03</totfact>
</mgrwt>
</event>
<event>
 4    1  0.1807309E-004  0.3435737E+03  0.7818608E-02  0.1065284E+00
         -2   -1    0    0    0  501 -0.00000000000E+00  0.00000000000E+00  0.17029291186E+02  0.17029291186E+02  0.00000000000E+00 0.  1.
          2   -1    0    0  501    0  0.00000000000E+00 -0.00000000000E+00 -0.17329389012E+04  0.17329389012E+04  0.00000000000E+00 0.  1.
         25    1    1    2    0    0 -0.82070390149E+01 -0.93158001614E+02 -0.12643118824E+04  0.12734324893E+04  0.12000000000E+03 0.  0.
         25    1    1    2    0    0  0.82070390149E+01  0.93158001614E+02 -0.45159772754E+03  0.47653570305E+03  0.12000000000E+03 0.  0.
<mgrwt>
<rscale>  0 0.34357370E+03</rscale>
<asrwt>0</asrwt>
<pdfrwt beam="1">  1        2 0.26660595E+00 0.34357370E+03</pdfrwt>
<pdfrwt beam="2">  1       -2 0.26198913E-02 0.34357370E+03</pdfrwt>
<totfact> 0.53265623E+03</totfact>
</mgrwt>
</event>
<event>
 4    1  0.1807309E-004  0.2463012E+03  0.7818608E-02  0.1115665E+00
         -2   -1    0    0    0  501 -0.00000000000E+00  0.00000000000E+00  0.19210913751E+02  0.19210913751E+02  0.00000000000E+00 0.  1.
          2   -1    0    0  501    0  0.00000000000E+00 -0.00000000000E+00 -0.78945065660E+03  0.78945065660E+03  0.00000000000E+00 0.  1.
         25    1    1    2    0    0 -0.11919867171E+02  0.24182700874E+02 -0.36456831014E+03  0.38475568743E+03  0.12000000000E+03 0.  0.
         25    1    1    2    0    0  0.11919867171E+02 -0.24182700874E+02 -0.40567143271E+03  0.42390588292E+03  0.12000000000E+03 0.  0.
<mgrwt>
<rscale>  0 0.24630119E+03</rscale>
<asrwt>0</asrwt>
<pdfrwt beam="1">  1        2 0.12145392E+00 0.24630119E+03</pdfrwt>
<pdfrwt beam="2">  1       -2 0.29555260E-02 0.24630119E+03</pdfrwt>
<totfact> 0.15475016E+04</totfact>
</mgrwt>
</event>
<event>
 4    1  0.1807309E-004  0.3039209E+03  0.7818608E-02  0.1083297E+00
          1   -1    0    0  501    0  0.00000000000E+00  0.00000000000E+00  0.13280495309E+03  0.13280495309E+03  0.00000000000E+00 0.  1.
         -1   -1    0    0    0  501 -0.00000000000E+00 -0.00000000000E+00 -0.17387889452E+03  0.17387889452E+03  0.00000000000E+00 0.  1.
         25    1    1    2    0    0  0.19253969893E+02 -0.59894839704E+02  0.48891653097E+02  0.14404339944E+03  0.12000000000E+03 0.  0.
         25    1    1    2    0    0 -0.19253969893E+02  0.59894839704E+02 -0.89965594528E+02  0.16264044816E+03  0.12000000000E+03 0.  0.
<mgrwt>
<rscale>  0 0.30392090E+03</rscale>
<asrwt>0</asrwt>
<pdfrwt beam="1">  1        1 0.20431531E-01 0.30392090E+03</pdfrwt>
<pdfrwt beam="2">  1       -1 0.26750599E-01 0.30392090E+03</pdfrwt>
<totfact> 0.30822666E+03</totfact>
</mgrwt>
</event>
<event>
 4    1  0.1807309E-004  0.2775909E+03  0.7818608E-02  0.1097012E+00
         -2   -1    0    0    0  501 -0.00000000000E+00  0.00000000000E+00  0.42415306502E+02  0.42415306502E+02  0.00000000000E+00 0. -1.
          2   -1    0    0  501    0  0.00000000000E+00 -0.00000000000E+00 -0.45417982324E+03  0.45417982324E+03  0.00000000000E+00 0. -1.
         25    1    1    2    0    0  0.51091081984E+02 -0.10131556505E+02 -0.28885598395E+03  0.31709734556E+03  0.12000000000E+03 0.  0.
         25    1    1    2    0    0 -0.51091081984E+02  0.10131556505E+02 -0.12290853279E+03  0.17949778419E+03  0.12000000000E+03 0.  0.
<mgrwt>
<rscale>  0 0.27759090E+03</rscale>
<asrwt>0</asrwt>
<pdfrwt beam="1">  1        2 0.69873812E-01 0.27759090E+03</pdfrwt>
<pdfrwt beam="2">  1       -2 0.65254324E-02 0.27759090E+03</pdfrwt>
<totfact> 0.89632414E+03</totfact>
</mgrwt>
</event>
<event>
 4    1  0.1807309E-004  0.4127503E+03  0.7818608E-02  0.1039452E+00
         -2   -1    0    0    0  501 -0.00000000000E+00  0.00000000000E+00  0.15179765216E+02  0.15179765216E+02  0.00000000000E+00 0. -1.
          2   -1    0    0  501    0  0.00000000000E+00 -0.00000000000E+00 -0.28057556236E+04  0.28057556236E+04  0.00000000000E+00 0. -1.
         25    1    1    2    0    0 -0.34512384328E+02 -0.12139924820E+03 -0.63848408145E+03  0.66180873702E+03  0.12000000000E+03 0.  0.
         25    1    1    2    0    0  0.34512384328E+02  0.12139924820E+03 -0.21520917769E+04  0.21591266518E+04  0.12000000000E+03 0.  0.
<mgrwt>
<rscale>  0 0.41275034E+03</rscale>
<asrwt>0</asrwt>
<pdfrwt beam="1">  1        2 0.43165457E+00 0.41275034E+03</pdfrwt>
<pdfrwt beam="2">  1       -2 0.23353493E-02 0.41275034E+03</pdfrwt>
<totfact> 0.16356070E+03</totfact>
</mgrwt>
</event>
<event>
 4    1  0.1807309E-004  0.2557839E+03  0.7818608E-02  0.1109703E+00
         -3   -1    0    0    0  501 -0.00000000000E+00  0.00000000000E+00  0.12413924292E+03  0.12413924292E+03  0.00000000000E+00 0.  1.
          3   -1    0    0  501    0  0.00000000000E+00 -0.00000000000E+00 -0.13175805444E+03  0.13175805444E+03  0.00000000000E+00 0.  1.
         25    1    1    2    0    0 -0.41156443633E+02  0.10165481820E+02 -0.16430675826E+02  0.12832442083E+03  0.12000000000E+03 0.  0.
         25    1    1    2    0    0  0.41156443633E+02 -0.10165481820E+02  0.88118643075E+01  0.12757287653E+03  0.12000000000E+03 0.  0.
<mgrwt>
<rscale>  0 0.25578386E+03</rscale>
<asrwt>0</asrwt>
<pdfrwt beam="1">  1        3 0.20270470E-01 0.25578386E+03</pdfrwt>
<pdfrwt beam="2">  1       -3 0.19098345E-01 0.25578386E+03</pdfrwt>
<totfact> 0.13466885E+03</totfact>
</mgrwt>
</event>
<event>
 4    1  0.1807309E-004  0.3737093E+03  0.7818608E-02  0.1053284E+00
          1   -1    0    0  501    0  0.00000000000E+00  0.00000000000E+00  0.54056722733E+03  0.54056722733E+03  0.00000000000E+00 0.  1.
         -1   -1    0    0    0  501 -0.00000000000E+00 -0.00000000000E+00 -0.64588948409E+02  0.64588948409E+02  0.00000000000E+00 0.  1.
         25    1    1    2    0    0 -0.60434072694E+01  0.10630018014E+03  0.39312686491E+03  0.42459979155E+03  0.12000000000E+03 0.  0.
         25    1    1    2    0    0  0.60434072694E+01 -0.10630018014E+03  0.82851414010E+02  0.18055638419E+03  0.12000000000E+03 0.  0.
<mgrwt>
<rscale>  0 0.37370935E+03</rscale>
<asrwt>0</asrwt>
<pdfrwt beam="1">  1        1 0.83164186E-01 0.37370935E+03</pdfrwt>
<pdfrwt beam="2">  1       -1 0.99367617E-02 0.37370935E+03</pdfrwt>
<totfact> 0.25104542E+03</totfact>
</mgrwt>
</event>
<event>
 4    1  0.1807309E-004  0.2885779E+03  0.7818608E-02  0.1091094E+00
         -2   -1    0    0    0  501 -0.00000000000E+00  0.00000000000E+00  0.85187094832E+01  0.85187094832E+01  0.00000000000E+00 0.  1.
          2   -1    0    0  501    0  0.00000000000E+00 -0.00000000000E+00 -0.24439498531E+04  0.24439498531E+04  0.00000000000E+00 0.  1.
         25    1    1    2    0    0  0.27475384122E+02  0.52056684250E+02 -0.75577865417E+03  0.76750646200E+03  0.12000000000E+03 0.  0.
         25    1    1    2    0    0 -0.27475384122E+02 -0.52056684250E+02 -0.16796524894E+04  0.16849621006E+04  0.12000000000E+03 0.  0.
<mgrwt>
<rscale>  0 0.28857788E+03</rscale>
<asrwt>0</asrwt>
<pdfrwt beam="1">  1        2 0.37599234E+00 0.28857788E+03</pdfrwt>
<pdfrwt beam="2">  1       -2 0.13105705E-02 0.28857788E+03</pdfrwt>
<totfact> 0.61858669E+03</totfact>
</mgrwt>
</event>
<event>
 4    1  0.1807309E-004  0.2889410E+03  0.7818608E-02  0.1090903E+00
         -2   -1    0    0    0  501 -0.00000000000E+00  0.00000000000E+00  0.30457220087E+03  0.30457220087E+03  0.00000000000E+00 0.  1.
          2   -1    0    0  501    0  0.00000000000E+00 -0.00000000000E+00 -0.68527989449E+02  0.68527989449E+02  0.00000000000E+00 0.  1.
         25    1    1    2    0    0 -0.19810679281E+02 -0.17314200037E+02  0.21618798986E+03  0.24865536692E+03  0.12000000000E+03 0.  0.
         25    1    1    2    0    0  0.19810679281E+02  0.17314200037E+02  0.19856221559E+02  0.12444482340E+03  0.12000000000E+03 0.  0.
<mgrwt>
<rscale>  0 0.28894097E+03</rscale>
<asrwt>0</asrwt>
<pdfrwt beam="1">  1        2 0.10542768E-01 0.28894097E+03</pdfrwt>
<pdfrwt beam="2">  1       -2 0.46857261E-01 0.28894097E+03</pdfrwt>
<totfact> 0.26190967E+03</totfact>
</mgrwt>
</event>
<event>
 4    1  0.1807309E-004  0.2444503E+03  0.7818608E-02  0.1116863E+00
         -2   -1    0    0    0  501 -0.00000000000E+00  0.00000000000E+00  0.85019622960E+01  0.85019622960E+01  0.00000000000E+00 0.  1.
          2   -1    0    0  501    0  0.00000000000E+00 -0.00000000000E+00 -0.17571216344E+04  0.17571216344E+04  0.00000000000E+00 0.  1.
         25    1    1    2    0    0 -0.23086318717E+02 -0.17528782149E+01 -0.88667584981E+03  0.89505872060E+03  0.12000000000E+03 0.  0.
         25    1    1    2    0    0  0.23086318717E+02  0.17528782149E+01 -0.86194382234E+03  0.87056487613E+03  0.12000000000E+03 0.  0.
<mgrwt>
<rscale>  0 0.24445026E+03</rscale>
<asrwt>0</asrwt>
<pdfrwt beam="1">  1        2 0.27032635E+00 0.24445026E+03</pdfrwt>
<pdfrwt beam="2">  1       -2 0.13079944E-02 0.24445026E+03</pdfrwt>
<totfact> 0.14320188E+04</totfact>
</mgrwt>
</event>
<event>
 4    1  0.1807309E-004  0.2402714E+03  0.7818608E-02  0.1119612E+00
          2   -1    0    0  501    0  0.00000000000E+00  0.00000000000E+00  0.72484128395E+03  0.72484128395E+03  0.00000000000E+00 0.  1.
         -2   -1    0    0    0  501 -0.00000000000E+00 -0.00000000000E+00 -0.19911372999E+02  0.19911372999E+02  0.00000000000E+00 0.  1.
         25    1    1    2    0    0 -0.31810949411E+01  0.46733209444E+01  0.35001276537E+03  0.37005525968E+03  0.12000000000E+03 0.  0.
         25    1    1    2    0    0  0.31810949411E+01 -0.46733209444E+01  0.35491714558E+03  0.37469739727E+03  0.12000000000E+03 0.  0.
<mgrwt>
<rscale>  0 0.24027139E+03</rscale>
<asrwt>0</asrwt>
<pdfrwt beam="1">  1        2 0.11151402E+00 0.24027139E+03</pdfrwt>
<pdfrwt beam="2">  1       -2 0.30632887E-02 0.24027139E+03</pdfrwt>
<totfact> 0.16295550E+04</totfact>
</mgrwt>
</event>
<event>
 4    1  0.1807309E-004  0.2548171E+03  0.7818608E-02  0.1110298E+00
         -2   -1    0    0    0  501 -0.00000000000E+00  0.00000000000E+00  0.33768394548E+02  0.33768394548E+02  0.00000000000E+00 0.  1.
          2   -1    0    0  501    0  0.00000000000E+00 -0.00000000000E+00 -0.48071402777E+03  0.48071402777E+03  0.00000000000E+00 0.  1.
         25    1    1    2    0    0  0.39210594996E+02 -0.15658799050E+02 -0.20915733653E+03  0.24480494311E+03  0.12000000000E+03 0.  0.
         25    1    1    2    0    0 -0.39210594996E+02  0.15658799050E+02 -0.23778829670E+03  0.26967747921E+03  0.12000000000E+03 0.  0.
<mgrwt>
<rscale>  0 0.25481712E+03</rscale>
<asrwt>0</asrwt>
<pdfrwt beam="1">  1        2 0.73955992E-01 0.25481712E+03</pdfrwt>
<pdfrwt beam="2">  1       -2 0.51951385E-02 0.25481712E+03</pdfrwt>
<totfact> 0.11891147E+04</totfact>
</mgrwt>
</event>
<event>
 4    1  0.1807309E-004  0.3046619E+03  0.7818608E-02  0.1082933E+00
         -1   -1    0    0    0  501 -0.00000000000E+00  0.00000000000E+00  0.10493784105E+03  0.10493784105E+03  0.00000000000E+00 0.  1.
          1   -1    0    0  501    0  0.00000000000E+00 -0.00000000000E+00 -0.22112826686E+03  0.22112826686E+03  0.00000000000E+00 0.  1.
         25    1    1    2    0    0  0.77090666603E+02  0.53376180167E+02 -0.54275820172E+02  0.16167205121E+03  0.12000000000E+03 0.  0.
         25    1    1    2    0    0 -0.77090666603E+02 -0.53376180167E+02 -0.61914605640E+02  0.16439405670E+03  0.12000000000E+03 0.  0.
<mgrwt>
<rscale>  0 0.30466193E+03</rscale>
<asrwt>0</asrwt>
<pdfrwt beam="1">  1        1 0.34019733E-01 0.30466193E+03</pdfrwt>
<pdfrwt beam="2">  1       -1 0.16144283E-01 0.30466193E+03</pdfrwt>
<totfact> 0.36803348E+03</totfact>
</mgrwt>
</event>
<event>
 4    1  0.1807309E-004  0.3521937E+03  0.7818608E-02  0.1061718E+00
         -2   -1    0    0    0  501 -0.00000000000E+00  0.00000000000E+00  0.10488389916E+03  0.10488389916E+03  0.00000000000E+00 0. -1.
          2   -1    0    0  501    0  0.00000000000E+00 -0.00000000000E+00 -0.29566123492E+03  0.29566123492E+03  0.00000000000E+00 0. -1.
         25    1    1    2    0    0  0.50869549643E+02 -0.77312550233E+02 -0.19739737572E+03  0.24885872588E+03  0.12000000000E+03 0.  0.
         25    1    1    2    0    0 -0.50869549643E+02  0.77312550233E+02  0.66200399580E+01  0.15168640820E+03  0.12000000000E+03 0.  0.
<mgrwt>
<rscale>  0 0.35219371E+03</rscale>
<asrwt>0</asrwt>
<pdfrwt beam="1">  1        2 0.45486343E-01 0.35219371E+03</pdfrwt>
<pdfrwt beam="2">  1       -2 0.16135985E-01 0.35219371E+03</pdfrwt>
<totfact> 0.33777774E+03</totfact>
</mgrwt>
</event>
<event>
 4    1  0.1807309E-004  0.3141823E+03  0.7818608E-02  0.1078358E+00
         -1   -1    0    0    0  501 -0.00000000000E+00  0.00000000000E+00  0.18739282679E+02  0.18739282679E+02  0.00000000000E+00 0. -1.
          1   -1    0    0  501    0  0.00000000000E+00 -0.00000000000E+00 -0.13168925549E+04  0.13168925549E+04  0.00000000000E+00 0. -1.
         25    1    1    2    0    0 -0.89810951608E+02  0.96509135737E+01 -0.84474326095E+03  0.85799203031E+03  0.12000000000E+03 0.  0.
         25    1    1    2    0    0  0.89810951608E+02 -0.96509135737E+01 -0.45341001124E+03  0.47763980723E+03  0.12000000000E+03 0.  0.
<mgrwt>
<rscale>  0 0.31418225E+03</rscale>
<asrwt>0</asrwt>
<pdfrwt beam="1">  1        1 0.20259893E+00 0.31418225E+03</pdfrwt>
<pdfrwt beam="2">  1       -1 0.28829655E-02 0.31418225E+03</pdfrwt>
<totfact> 0.38090541E+03</totfact>
</mgrwt>
</event>
<event>
 4    1  0.1807309E-004  0.3576463E+03  0.7818608E-02  0.1059520E+00
          2   -1    0    0  501    0  0.00000000000E+00  0.00000000000E+00  0.18189952097E+02  0.18189952097E+02  0.00000000000E+00 0. -1.
         -2   -1    0    0    0  501 -0.00000000000E+00 -0.00000000000E+00 -0.17579876236E+04  0.17579876236E+04  0.00000000000E+00 0. -1.
         25    1    1    2    0    0 -0.31280647554E+02 -0.37361819521E+02 -0.14822520609E+04  0.14878997132E+04  0.12000000000E+03 0.  0.
         25    1    1    2    0    0  0.31280647554E+02  0.37361819521E+02 -0.25754561058E+03  0.28827786248E+03  0.12000000000E+03 0.  0.
<mgrwt>
<rscale>  0 0.35764625E+03</rscale>
<asrwt>0</asrwt>
<pdfrwt beam="1">  1        2 0.27984543E-02 0.35764625E+03</pdfrwt>
<pdfrwt beam="2">  1       -2 0.27045963E+00 0.35764625E+03</pdfrwt>
<totfact> 0.18683274E+02</totfact>
</mgrwt>
</event>
<event>
 4    1  0.1807309E-004  0.3645801E+03  0.7818608E-02  0.1056785E+00
         -2   -1    0    0    0  501 -0.00000000000E+00  0.00000000000E+00  0.30869003889E+02  0.30869003889E+02  0.00000000000E+00 0.  1.
          2   -1    0    0  501    0  0.00000000000E+00 -0.00000000000E+00 -0.10764734332E+04  0.10764734332E+04  0.00000000000E+00 0.  1.
         25    1    1    2    0    0 -0.62470745850E+02 -0.99479423645E+02 -0.73823528771E+03  0.75709318438E+03  0.12000000000E+03 0.  0.
         25    1    1    2    0    0  0.62470745850E+02  0.99479423645E+02 -0.30736914162E+03  0.35024925273E+03  0.12000000000E+03 0.  0.
<mgrwt>
<rscale>  0 0.36458010E+03</rscale>
<asrwt>0</asrwt>
<pdfrwt beam="1">  1        2 0.16561132E+00 0.36458010E+03</pdfrwt>
<pdfrwt beam="2">  1       -2 0.47490769E-02 0.36458010E+03</pdfrwt>
<totfact> 0.50183097E+03</totfact>
</mgrwt>
</event>
<event>
 4    1  0.1807309E-004  0.2476937E+03  0.7818608E-02  0.1114771E+00
          1   -1    0    0  501    0  0.00000000000E+00  0.00000000000E+00  0.11118486308E+04  0.11118486308E+04  0.00000000000E+00 0. -1.
         -1   -1    0    0    0  501 -0.00000000000E+00 -0.00000000000E+00 -0.13795082545E+02  0.13795082545E+02  0.00000000000E+00 0. -1.
         25    1    1    2    0    0 -0.77408786059E+01 -0.29620907149E+02  0.55289440000E+03  0.56659468484E+03  0.12000000000E+03 0.  0.
         25    1    1    2    0    0  0.77408786059E+01  0.29620907149E+02  0.54515914826E+03  0.55904902850E+03  0.12000000000E+03 0.  0.
<mgrwt>
<rscale>  0 0.24769371E+03</rscale>
<asrwt>0</asrwt>
<pdfrwt beam="1">  1        1 0.17105357E+00 0.24769371E+03</pdfrwt>
<pdfrwt beam="2">  1       -1 0.21223213E-02 0.24769371E+03</pdfrwt>
<totfact> 0.82791217E+03</totfact>
</mgrwt>
</event>
<event>
 4    1  0.1807309E-004  0.2436111E+03  0.7818608E-02  0.1117410E+00
         -2   -1    0    0    0  501 -0.00000000000E+00  0.00000000000E+00  0.18088511116E+02  0.18088511116E+02  0.00000000000E+00 0. -1.
          2   -1    0    0  501    0  0.00000000000E+00 -0.00000000000E+00 -0.82022203289E+03  0.82022203289E+03  0.00000000000E+00 0. -1.
         25    1    1    2    0    0  0.17447586259E+01 -0.20308919691E+02 -0.41687335518E+03  0.43427973780E+03  0.12000000000E+03 0.  0.
         25    1    1    2    0    0 -0.17447586259E+01  0.20308919691E+02 -0.38526016659E+03  0.40403080620E+03  0.12000000000E+03 0.  0.
<mgrwt>
<rscale>  0 0.24361113E+03</rscale>
<asrwt>0</asrwt>
<pdfrwt beam="1">  1        2 0.12618803E+00 0.24361113E+03</pdfrwt>
<pdfrwt beam="2">  1       -2 0.27828473E-02 0.24361113E+03</pdfrwt>
<totfact> 0.16108917E+04</totfact>
</mgrwt>
</event>
<event>
 4    1  0.1807309E-004  0.2602358E+03  0.7818608E-02  0.1107002E+00
          1   -1    0    0  501    0  0.00000000000E+00  0.00000000000E+00  0.27344822081E+02  0.27344822081E+02  0.00000000000E+00 0.  1.
         -1   -1    0    0    0  501 -0.00000000000E+00 -0.00000000000E+00 -0.61915438269E+03  0.61915438269E+03  0.00000000000E+00 0.  1.
         25    1    1    2    0    0 -0.63444643921E+01  0.44375202483E+02 -0.23918607035E+03  0.27132892782E+03  0.12000000000E+03 0.  0.
         25    1    1    2    0    0  0.63444643921E+01 -0.44375202483E+02 -0.35262349027E+03  0.37517027696E+03  0.12000000000E+03 0.  0.
<mgrwt>
<rscale>  0 0.26023579E+03</rscale>
<asrwt>0</asrwt>
<pdfrwt beam="1">  1        1 0.42068959E-02 0.26023579E+03</pdfrwt>
<pdfrwt beam="2">  1       -1 0.95254516E-01 0.26023579E+03</pdfrwt>
<totfact> 0.23707825E+03</totfact>
</mgrwt>
</event>
<event>
 4    1  0.1807309E-004  0.3135149E+03  0.7818608E-02  0.1078673E+00
          4   -1    0    0  501    0  0.00000000000E+00  0.00000000000E+00  0.19494409650E+03  0.19494409650E+03  0.00000000000E+00 0.  1.
         -4   -1    0    0    0  501 -0.00000000000E+00 -0.00000000000E+00 -0.12605101084E+03  0.12605101084E+03  0.00000000000E+00 0.  1.
         25    1    1    2    0    0  0.60092983206E+02 -0.41002147818E+02  0.10597435329E+03  0.17584910097E+03  0.12000000000E+03 0.  0.
         25    1    1    2    0    0 -0.60092983206E+02  0.41002147818E+02 -0.37081267628E+02  0.14514600637E+03  0.12000000000E+03 0.  0.
<mgrwt>
<rscale>  0 0.31351491E+03</rscale>
<asrwt>0</asrwt>
<pdfrwt beam="1">  1        4 0.29991400E-01 0.31351491E+03</pdfrwt>
<pdfrwt beam="2">  1       -4 0.19392463E-01 0.31351491E+03</pdfrwt>
<totfact> 0.48327486E+02</totfact>
</mgrwt>
</event>
<event>
 4    1  0.1807309E-004  0.2617855E+03  0.7818608E-02  0.1106075E+00
          4   -1    0    0  501    0  0.00000000000E+00  0.00000000000E+00  0.75948045139E+01  0.75948045139E+01  0.00000000000E+00 0.  1.
         -4   -1    0    0    0  501 -0.00000000000E+00 -0.00000000000E+00 -0.22558733726E+04  0.22558733726E+04  0.00000000000E+00 0.  1.
         25    1    1    2    0    0 -0.13452049380E+01 -0.34529234587E+02 -0.78496304273E+03  0.79483398019E+03  0.12000000000E+03 0.  0.
         25    1    1    2    0    0  0.13452049380E+01  0.34529234587E+02 -0.14633155254E+04  0.14686341969E+04  0.12000000000E+03 0.  0.
<mgrwt>
<rscale>  0 0.26178554E+03</rscale>
<asrwt>0</asrwt>
<pdfrwt beam="1">  1        4 0.11684292E-02 0.26178554E+03</pdfrwt>
<pdfrwt beam="2">  1       -4 0.34705812E+00 0.26178554E+03</pdfrwt>
<totfact> 0.81509029E+01</totfact>
</mgrwt>
</event>
<event>
 4    1  0.1807309E-004  0.3112777E+03  0.7818608E-02  0.1079735E+00
         -1   -1    0    0    0  501 -0.00000000000E+00  0.00000000000E+00  0.17873754339E+02  0.17873754339E+02  0.00000000000E+00 0.  1.
          1   -1    0    0  501    0  0.00000000000E+00 -0.00000000000E+00 -0.13552530096E+04  0.13552530096E+04  0.00000000000E+00 0.  1.
         25    1    1    2    0    0  0.27282840553E+02 -0.89179729434E+02 -0.81671887448E+03  0.83073888646E+03  0.12000000000E+03 0.  0.
         25    1    1    2    0    0 -0.27282840553E+02  0.89179729434E+02 -0.52066038079E+03  0.54238787750E+03  0.12000000000E+03 0.  0.
<mgrwt>
<rscale>  0 0.31127775E+03</rscale>
<asrwt>0</asrwt>
<pdfrwt beam="1">  1        1 0.20850045E+00 0.31127775E+03</pdfrwt>
<pdfrwt beam="2">  1       -1 0.27498085E-02 0.31127775E+03</pdfrwt>
<totfact> 0.38459024E+03</totfact>
</mgrwt>
</event>
<event>
 4    1  0.1807309E-004  0.3467244E+03  0.7818608E-02  0.1063968E+00
         -2   -1    0    0    0  501 -0.00000000000E+00  0.00000000000E+00  0.54142235223E+02  0.54142235223E+02  0.00000000000E+00 0. -1.
          2   -1    0    0  501    0  0.00000000000E+00 -0.00000000000E+00 -0.55510189673E+03  0.55510189673E+03  0.00000000000E+00 0. -1.
         25    1    1    2    0    0  0.12179724882E+03  0.27622230248E+02 -0.26373432641E+03  0.31552076374E+03  0.12000000000E+03 0.  0.
         25    1    1    2    0    0 -0.12179724882E+03 -0.27622230248E+02 -0.23722533509E+03  0.29372336821E+03  0.12000000000E+03 0.  0.
<mgrwt>
<rscale>  0 0.34672443E+03</rscale>
<asrwt>0</asrwt>
<pdfrwt beam="1">  1        2 0.85400295E-01 0.34672443E+03</pdfrwt>
<pdfrwt beam="2">  1       -2 0.83295743E-02 0.34672443E+03</pdfrwt>
<totfact> 0.49191516E+03</totfact>
</mgrwt>
</event>
<event>
 4    1  0.1807309E-004  0.3035128E+03  0.7818608E-02  0.1083498E+00
          3   -1    0    0  501    0  0.00000000000E+00  0.00000000000E+00  0.45925923948E+02  0.45925923948E+02  0.00000000000E+00 0. -1.
         -3   -1    0    0    0  501 -0.00000000000E+00 -0.00000000000E+00 -0.50145970590E+03  0.50145970590E+03  0.00000000000E+00 0. -1.
         25    1    1    2    0    0 -0.34120223167E+02  0.75112628006E+02 -0.15074443040E+03  0.20959479910E+03  0.12000000000E+03 0.  0.
         25    1    1    2    0    0  0.34120223167E+02 -0.75112628006E+02 -0.30478935155E+03  0.33779083074E+03  0.12000000000E+03 0.  0.
<mgrwt>
<rscale>  0 0.30351277E+03</rscale>
<asrwt>0</asrwt>
<pdfrwt beam="1">  1        3 0.70655267E-02 0.30351277E+03</pdfrwt>
<pdfrwt beam="2">  1       -3 0.77147648E-01 0.30351277E+03</pdfrwt>
<totfact> 0.54003728E+02</totfact>
</mgrwt>
</event>
<event>
 4    1  0.1807309E-004  0.3461917E+03  0.7818608E-02  0.1064189E+00
         -4   -1    0    0    0  501 -0.00000000000E+00  0.00000000000E+00  0.27502014655E+02  0.27502014655E+02  0.00000000000E+00 0. -1.
          4   -1    0    0  501    0  0.00000000000E+00 -0.00000000000E+00 -0.10894535422E+04  0.10894535422E+04  0.00000000000E+00 0. -1.
         25    1    1    2    0    0 -0.98664619115E+02  0.10971910908E+02 -0.77471540412E+03  0.79021455775E+03  0.12000000000E+03 0.  0.
         25    1    1    2    0    0  0.98664619115E+02 -0.10971910908E+02 -0.28723612338E+03  0.32674099906E+03  0.12000000000E+03 0.  0.
<mgrwt>
<rscale>  0 0.34619167E+03</rscale>
<asrwt>0</asrwt>
<pdfrwt beam="1">  1        4 0.16760821E+00 0.34619167E+03</pdfrwt>
<pdfrwt beam="2">  1       -4 0.42310799E-02 0.34619167E+03</pdfrwt>
<totfact> 0.14055023E+02</totfact>
</mgrwt>
</event>
<event>
 4    1  0.1807309E-004  0.3105235E+03  0.7818608E-02  0.1080095E+00
          1   -1    0    0  501    0  0.00000000000E+00  0.00000000000E+00  0.17843616756E+03  0.17843616756E+03  0.00000000000E+00 0.  1.
         -1   -1    0    0    0  501 -0.00000000000E+00 -0.00000000000E+00 -0.13509715500E+03  0.13509715500E+03  0.00000000000E+00 0.  1.
         25    1    1    2    0    0  0.28048378285E+02 -0.28701206143E+02  0.11251798305E+03  0.16932444380E+03  0.12000000000E+03 0.  0.
         25    1    1    2    0    0 -0.28048378285E+02  0.28701206143E+02 -0.69178970486E+02  0.14420887877E+03  0.12000000000E+03 0.  0.
<mgrwt>
<rscale>  0 0.31052355E+03</rscale>
<asrwt>0</asrwt>
<pdfrwt beam="1">  1        1 0.27451718E-01 0.31052355E+03</pdfrwt>
<pdfrwt beam="2">  1       -1 0.20784178E-01 0.31052355E+03</pdfrwt>
<totfact> 0.32098925E+03</totfact>
</mgrwt>
</event>
<event>
 4    1  0.1807309E-004  0.2471489E+03  0.7818608E-02  0.1115120E+00
         -1   -1    0    0    0  501 -0.00000000000E+00  0.00000000000E+00  0.52946493931E+02  0.52946493931E+02  0.00000000000E+00 0. -1.
          1   -1    0    0  501    0  0.00000000000E+00 -0.00000000000E+00 -0.28841663484E+03  0.28841663484E+03  0.00000000000E+00 0. -1.
         25    1    1    2    0    0  0.62422325367E+01  0.17649666946E+02 -0.86233520193E+02  0.14895199299E+03  0.12000000000E+03 0.  0.
         25    1    1    2    0    0 -0.62422325367E+01 -0.17649666946E+02 -0.14923662071E+03  0.19241113578E+03  0.12000000000E+03 0.  0.
<mgrwt>
<rscale>  0 0.24714894E+03</rscale>
<asrwt>0</asrwt>
<pdfrwt beam="1">  1        1 0.44371790E-01 0.24714894E+03</pdfrwt>
<pdfrwt beam="2">  1       -1 0.81456145E-02 0.24714894E+03</pdfrwt>
<totfact> 0.76104927E+03</totfact>
</mgrwt>
</event>
<event>
 4    1  0.1807309E-004  0.2649769E+03  0.7818608E-02  0.1104189E+00
         -2   -1    0    0    0  501 -0.00000000000E+00  0.00000000000E+00  0.18868457055E+02  0.18868457055E+02  0.00000000000E+00 0. -1.
          2   -1    0    0  501    0  0.00000000000E+00 -0.00000000000E+00 -0.93029270979E+03  0.93029270979E+03  0.00000000000E+00 0. -1.
         25    1    1    2    0    0  0.33951275889E+02  0.24030931866E+02 -0.32058690111E+03  0.34482769028E+03  0.12000000000E+03 0.  0.
         25    1    1    2    0    0 -0.33951275889E+02 -0.24030931866E+02 -0.59083735162E+03  0.60433347656E+03  0.12000000000E+03 0.  0.
<mgrwt>
<rscale>  0 0.26497689E+03</rscale>
<asrwt>0</asrwt>
<pdfrwt beam="1">  1        2 0.14312195E+00 0.26497689E+03</pdfrwt>
<pdfrwt beam="2">  1       -2 0.29028396E-02 0.26497689E+03</pdfrwt>
<totfact> 0.12861706E+04</totfact>
</mgrwt>
</event>
<event>
 4    1  0.1807309E-004  0.3461080E+03  0.7818608E-02  0.1064224E+00
         -2   -1    0    0    0  501 -0.00000000000E+00  0.00000000000E+00  0.10556564400E+03  0.10556564400E+03  0.00000000000E+00 0.  1.
          2   -1    0    0  501    0  0.00000000000E+00 -0.00000000000E+00 -0.28368784404E+03  0.28368784404E+03  0.00000000000E+00 0.  1.
         25    1    1    2    0    0 -0.96473600742E+01  0.12423966523E+03 -0.93979342664E+02  0.19687732937E+03  0.12000000000E+03 0.  0.
         25    1    1    2    0    0  0.96473600742E+01 -0.12423966523E+03 -0.84142857377E+02  0.19237615866E+03  0.12000000000E+03 0.  0.
<mgrwt>
<rscale>  0 0.34610802E+03</rscale>
<asrwt>0</asrwt>
<pdfrwt beam="1">  1        2 0.43644284E-01 0.34610802E+03</pdfrwt>
<pdfrwt beam="2">  1       -2 0.16240868E-01 0.34610802E+03</pdfrwt>
<totfact> 0.34933025E+03</totfact>
</mgrwt>
</event>
<event>
 4    1  0.1807309E-004  0.2637702E+03  0.7818608E-02  0.1104899E+00
          2   -1    0    0  501    0  0.00000000000E+00  0.00000000000E+00  0.43009568625E+03  0.43009568625E+03  0.00000000000E+00 0.  1.
         -2   -1    0    0    0  501 -0.00000000000E+00 -0.00000000000E+00 -0.40441408827E+02  0.40441408827E+02  0.00000000000E+00 0.  1.
         25    1    1    2    0    0  0.52423559391E+02 -0.13706494631E+02  0.18129095842E+03  0.22405916446E+03  0.12000000000E+03 0.  0.
         25    1    1    2    0    0 -0.52423559391E+02  0.13706494631E+02  0.20836331901E+03  0.24647793062E+03  0.12000000000E+03 0.  0.
<mgrwt>
<rscale>  0 0.26377017E+03</rscale>
<asrwt>0</asrwt>
<pdfrwt beam="1">  1        2 0.66168564E-01 0.26377017E+03</pdfrwt>
<pdfrwt beam="2">  1       -2 0.62217555E-02 0.26377017E+03</pdfrwt>
<totfact> 0.10219298E+04</totfact>
</mgrwt>
</event>
<event>
 4    1  0.1807309E-004  0.2793704E+03  0.7818608E-02  0.1096033E+00
         -2   -1    0    0    0  501 -0.00000000000E+00  0.00000000000E+00  0.23376260308E+02  0.23376260308E+02  0.00000000000E+00 0.  1.
          2   -1    0    0  501    0  0.00000000000E+00 -0.00000000000E+00 -0.83469085390E+03  0.83469085390E+03  0.00000000000E+00 0.  1.
         25    1    1    2    0    0  0.70243628534E+01  0.27382206301E+02 -0.60736467023E+03  0.61975073178E+03  0.12000000000E+03 0.  0.
         25    1    1    2    0    0 -0.70243628534E+01 -0.27382206301E+02 -0.20394992336E+03  0.23831638243E+03  0.12000000000E+03 0.  0.
<mgrwt>
<rscale>  0 0.27937037E+03</rscale>
<asrwt>0</asrwt>
<pdfrwt beam="1">  1        2 0.12841397E+00 0.27937037E+03</pdfrwt>
<pdfrwt beam="2">  1       -2 0.35963481E-02 0.27937037E+03</pdfrwt>
<totfact> 0.10807829E+04</totfact>
</mgrwt>
</event>
<event>
 4    1  0.1807309E-004  0.5775069E+03  0.7818608E-02  0.9953203E-01
         -1   -1    0    0    0  501 -0.00000000000E+00  0.00000000000E+00  0.10700954730E+03  0.10700954730E+03  0.00000000000E+00 0.  1.
          1   -1    0    0  501    0  0.00000000000E+00 -0.00000000000E+00 -0.77916934214E+03  0.77916934214E+03  0.00000000000E+00 0.  1.
         25    1    1    2    0    0  0.23693261520E+03 -0.31582541587E+02 -0.50307898556E+03  0.56975695414E+03  0.12000000000E+03 0.  0.
         25    1    1    2    0    0 -0.23693261520E+03  0.31582541587E+02 -0.16908080927E+03  0.31642193530E+03  0.12000000000E+03 0.  0.
<mgrwt>
<rscale>  0 0.57750691E+03</rscale>
<asrwt>0</asrwt>
<pdfrwt beam="1">  1        1 0.11987220E+00 0.57750691E+03</pdfrwt>
<pdfrwt beam="2">  1       -1 0.16463008E-01 0.57750691E+03</pdfrwt>
<totfact> 0.65838868E+02</totfact>
</mgrwt>
</event>
<event>
 4    1  0.1807309E-004  0.2853668E+03  0.7818608E-02  0.1092793E+00
         -2   -1    0    0    0  501 -0.00000000000E+00  0.00000000000E+00  0.16169380706E+02  0.16169380706E+02  0.00000000000E+00 0.  1.
          2   -1    0    0  501    0  0.00000000000E+00 -0.00000000000E+00 -0.12590808094E+04  0.12590808094E+04  0.00000000000E+00 0.  1.
         25    1    1    2    0    0  0.57986873270E+02  0.48829491410E+02 -0.68648576914E+03  0.70100606840E+03  0.12000000000E+03 0.  0.
         25    1    1    2    0    0 -0.57986873270E+02 -0.48829491410E+02 -0.55642565957E+03  0.57424412172E+03  0.12000000000E+03 0.  0.
<mgrwt>
<rscale>  0 0.28536683E+03</rscale>
<asrwt>0</asrwt>
<pdfrwt beam="1">  1        2 0.19370467E+00 0.28536683E+03</pdfrwt>
<pdfrwt beam="2">  1       -2 0.24875979E-02 0.28536683E+03</pdfrwt>
<totfact> 0.10357224E+04</totfact>
</mgrwt>
</event>
<event>
 4    1  0.1807309E-004  0.4113051E+03  0.7818608E-02  0.1039934E+00
          2   -1    0    0  501    0  0.00000000000E+00  0.00000000000E+00  0.11539037694E+04  0.11539037694E+04  0.00000000000E+00 0. -1.
         -2   -1    0    0    0  501 -0.00000000000E+00 -0.00000000000E+00 -0.36652069876E+02  0.36652069876E+02  0.00000000000E+00 0. -1.
         25    1    1    2    0    0  0.16336104759E+03  0.18501486771E+02  0.47355152031E+03  0.51544173218E+03  0.12000000000E+03 0.  0.
         25    1    1    2    0    0 -0.16336104759E+03 -0.18501486771E+02  0.64370017921E+03  0.67511410709E+03  0.12000000000E+03 0.  0.
<mgrwt>
<rscale>  0 0.41130505E+03</rscale>
<asrwt>0</asrwt>
<pdfrwt beam="1">  1        2 0.17752363E+00 0.41130505E+03</pdfrwt>
<pdfrwt beam="2">  1       -2 0.56387809E-02 0.41130505E+03</pdfrwt>
<totfact> 0.34702029E+03</totfact>
</mgrwt>
</event>
<event>
 4    1  0.1807309E-004  0.2768442E+03  0.7818608E-02  0.1097425E+00
         -2   -1    0    0    0  501 -0.00000000000E+00  0.00000000000E+00  0.25397848423E+03  0.25397848423E+03  0.00000000000E+00 0.  1.
          2   -1    0    0  501    0  0.00000000000E+00 -0.00000000000E+00 -0.75442107839E+02  0.75442107839E+02  0.00000000000E+00 0.  1.
         25    1    1    2    0    0  0.26898267379E+02 -0.10045558120E+02  0.16392273823E+03  0.20517089007E+03  0.12000000000E+03 0.  0.
         25    1    1    2    0    0 -0.26898267379E+02  0.10045558120E+02  0.14613638166E+02  0.12424970200E+03  0.12000000000E+03 0.  0.
<mgrwt>
<rscale>  0 0.27684416E+03</rscale>
<asrwt>0</asrwt>
<pdfrwt beam="1">  1        2 0.11606478E-01 0.27684416E+03</pdfrwt>
<pdfrwt beam="2">  1       -2 0.39073613E-01 0.27684416E+03</pdfrwt>
<totfact> 0.33041296E+03</totfact>
</mgrwt>
</event>
<event>
 4    1  0.1807309E-004  0.2576267E+03  0.7818608E-02  0.1108578E+00
         -2   -1    0    0    0  501 -0.00000000000E+00  0.00000000000E+00  0.71410728943E+02  0.71410728943E+02  0.00000000000E+00 0.  1.
          2   -1    0    0  501    0  0.00000000000E+00 -0.00000000000E+00 -0.23235834037E+03  0.23235834037E+03  0.00000000000E+00 0.  1.
         25    1    1    2    0    0  0.24042837659E+02  0.21586569862E+02 -0.12043905649E+03  0.17305953995E+03  0.12000000000E+03 0.  0.
         25    1    1    2    0    0 -0.24042837659E+02 -0.21586569862E+02 -0.40508554933E+02  0.13070952935E+03  0.12000000000E+03 0.  0.
<mgrwt>
<rscale>  0 0.25762669E+03</rscale>
<asrwt>0</asrwt>
<pdfrwt beam="1">  1        2 0.35747438E-01 0.25762669E+03</pdfrwt>
<pdfrwt beam="2">  1       -2 0.10986266E-01 0.25762669E+03</pdfrwt>
<totfact> 0.81444174E+03</totfact>
</mgrwt>
</event>
<event>
 4    1  0.1807309E-004  0.2609523E+03  0.7818608E-02  0.1106572E+00
         -1   -1    0    0    0  501 -0.00000000000E+00  0.00000000000E+00  0.46389749183E+03  0.46389749183E+03  0.00000000000E+00 0.  1.
          1   -1    0    0  501    0  0.00000000000E+00 -0.00000000000E+00 -0.36697804183E+02  0.36697804183E+02  0.00000000000E+00 0.  1.
         25    1    1    2    0    0  0.92579783493E+01 -0.46594943990E+02  0.17683869409E+03  0.21892629512E+03  0.12000000000E+03 0.  0.
         25    1    1    2    0    0 -0.92579783493E+01  0.46594943990E+02  0.25036099355E+03  0.28166900089E+03  0.12000000000E+03 0.  0.
<mgrwt>
<rscale>  0 0.26095225E+03</rscale>
<asrwt>0</asrwt>
<pdfrwt beam="1">  1        1 0.56458164E-02 0.26095225E+03</pdfrwt>
<pdfrwt beam="2">  1       -1 0.71368841E-01 0.26095225E+03</pdfrwt>
<totfact> 0.28855804E+03</totfact>
</mgrwt>
</event>
<event>
 4    1  0.1807309E-004  0.2569462E+03  0.7818608E-02  0.1108992E+00
          1   -1    0    0  501    0  0.00000000000E+00  0.00000000000E+00  0.65508694393E+03  0.65508694393E+03  0.00000000000E+00 0. -1.
         -1   -1    0    0    0  501 -0.00000000000E+00 -0.00000000000E+00 -0.25195646600E+02  0.25195646600E+02  0.00000000000E+00 0. -1.
         25    1    1    2    0    0 -0.34073640145E+02 -0.10268625577E+02  0.39162835742E+03  0.41114380448E+03  0.12000000000E+03 0.  0.
         25    1    1    2    0    0  0.34073640145E+02  0.10268625577E+02  0.23826293991E+03  0.26913878605E+03  0.12000000000E+03 0.  0.
<mgrwt>
<rscale>  0 0.25694621E+03</rscale>
<asrwt>0</asrwt>
<pdfrwt beam="1">  1        1 0.10078259E+00 0.25694621E+03</pdfrwt>
<pdfrwt beam="2">  1       -1 0.38762538E-02 0.25694621E+03</pdfrwt>
<totfact> 0.79517907E+03</totfact>
</mgrwt>
</event>
<event>
 4    1  0.1807309E-004  0.3043511E+03  0.7818608E-02  0.1083086E+00
         -1   -1    0    0    0  501 -0.00000000000E+00  0.00000000000E+00  0.83253781098E+02  0.83253781098E+02  0.00000000000E+00 0. -1.
          1   -1    0    0  501    0  0.00000000000E+00 -0.00000000000E+00 -0.27815425444E+03  0.27815425444E+03  0.00000000000E+00 0. -1.
         25    1    1    2    0    0 -0.17303697368E+02 -0.53391842242E+02 -0.85302577647E+01  0.13275116594E+03  0.12000000000E+03 0.  0.
         25    1    1    2    0    0  0.17303697368E+02  0.53391842242E+02 -0.18637021558E+03  0.22865686960E+03  0.12000000000E+03 0.  0.
<mgrwt>
<rscale>  0 0.30435107E+03</rscale>
<asrwt>0</asrwt>
<pdfrwt beam="1">  1        1 0.42792963E-01 0.30435107E+03</pdfrwt>
<pdfrwt beam="2">  1       -1 0.12808274E-01 0.30435107E+03</pdfrwt>
<totfact> 0.39794832E+03</totfact>
</mgrwt>
</event>
<event>
 4    1  0.1807309E-004  0.2784618E+03  0.7818608E-02  0.1096532E+00
         -1   -1    0    0    0  501 -0.00000000000E+00  0.00000000000E+00  0.15000681766E+02  0.15000681766E+02  0.00000000000E+00 0. -1.
          1   -1    0    0  501    0  0.00000000000E+00 -0.00000000000E+00 -0.12922912375E+04  0.12922912375E+04  0.00000000000E+00 0. -1.
         25    1    1    2    0    0  0.21570070423E+02  0.49447119247E+02 -0.85249671454E+03  0.86258966713E+03  0.12000000000E+03 0.  0.
         25    1    1    2    0    0 -0.21570070423E+02 -0.49447119247E+02 -0.42479384124E+03  0.44470225218E+03  0.12000000000E+03 0.  0.
<mgrwt>
<rscale>  0 0.27846184E+03</rscale>
<asrwt>0</asrwt>
<pdfrwt beam="1">  1        1 0.19881405E+00 0.27846184E+03</pdfrwt>
<pdfrwt beam="2">  1       -1 0.23077970E-02 0.27846184E+03</pdfrwt>
<totfact> 0.54905018E+03</totfact>
</mgrwt>
</event>
<event>
 4    1  0.1807309E-004  0.2695862E+03  0.7818608E-02  0.1101517E+00
         -1   -1    0    0    0  501 -0.00000000000E+00  0.00000000000E+00  0.11917236804E+02  0.11917236804E+02  0.00000000000E+00 0. -1.
          1   -1    0    0  501    0  0.00000000000E+00 -0.00000000000E+00 -0.15246137705E+04  0.15246137705E+04  0.00000000000E+00 0. -1.
         25    1    1    2    0    0 -0.55606975620E+02  0.18756424650E+01 -0.60842994813E+03  0.62264167508E+03  0.12000000000E+03 0.  0.
         25    1    1    2    0    0  0.55606975620E+02 -0.18756424650E+01 -0.90426658555E+03  0.91388933220E+03  0.12000000000E+03 0.  0.
<mgrwt>
<rscale>  0 0.26958623E+03</rscale>
<asrwt>0</asrwt>
<pdfrwt beam="1">  1        1 0.23455616E+00 0.26958623E+03</pdfrwt>
<pdfrwt beam="2">  1       -1 0.18334195E-02 0.26958623E+03</pdfrwt>
<totfact> 0.53660885E+03</totfact>
</mgrwt>
</event>
<event>
 4    1  0.1807309E-004  0.2789778E+03  0.7818608E-02  0.1096249E+00
          2   -1    0    0  501    0  0.00000000000E+00  0.00000000000E+00  0.41892005875E+03  0.41892005875E+03  0.00000000000E+00 0.  1.
         -2   -1    0    0    0  501 -0.00000000000E+00 -0.00000000000E+00 -0.46445970047E+02  0.46445970047E+02  0.00000000000E+00 0.  1.
         25    1    1    2    0    0 -0.61929068379E+02 -0.20245848936E+02  0.23377221132E+03  0.27072966349E+03  0.12000000000E+03 0.  0.
         25    1    1    2    0    0  0.61929068379E+02  0.20245848936E+02  0.13870187739E+03  0.19463636531E+03  0.12000000000E+03 0.  0.
<mgrwt>
<rscale>  0 0.27897777E+03</rscale>
<asrwt>0</asrwt>
<pdfrwt beam="1">  1        2 0.64449237E-01 0.27897777E+03</pdfrwt>
<pdfrwt beam="2">  1       -2 0.71455341E-02 0.27897777E+03</pdfrwt>
<totfact> 0.85130151E+03</totfact>
</mgrwt>
</event>
<event>
 4    1  0.1807309E-004  0.2802300E+03  0.7818608E-02  0.1095563E+00
         -2   -1    0    0    0  501 -0.00000000000E+00  0.00000000000E+00  0.10497066531E+03  0.10497066531E+03  0.00000000000E+00 0.  1.
          2   -1    0    0  501    0  0.00000000000E+00 -0.00000000000E+00 -0.18702574683E+03  0.18702574683E+03  0.00000000000E+00 0.  1.
         25    1    1    2    0    0  0.68391666922E+02  0.22839982929E+02 -0.35029800480E+02  0.14431275705E+03  0.12000000000E+03 0.  0.
         25    1    1    2    0    0 -0.68391666922E+02 -0.22839982929E+02 -0.47025281041E+02  0.14768365509E+03  0.12000000000E+03 0.  0.
<mgrwt>
<rscale>  0 0.28023003E+03</rscale>
<asrwt>0</asrwt>
<pdfrwt beam="1">  1        2 0.28773192E-01 0.28023003E+03</pdfrwt>
<pdfrwt beam="2">  1       -2 0.16149333E-01 0.28023003E+03</pdfrwt>
<totfact> 0.55232844E+03</totfact>
</mgrwt>
</event>
<event>
 4    1  0.1807309E-004  0.3387827E+03  0.7818608E-02  0.1067316E+00
         -2   -1    0    0    0  501 -0.00000000000E+00  0.00000000000E+00  0.33293309272E+03  0.33293309272E+03  0.00000000000E+00 0. -1.
          2   -1    0    0  501    0  0.00000000000E+00 -0.00000000000E+00 -0.86183791359E+02  0.86183791359E+02  0.00000000000E+00 0. -1.
         25    1    1    2    0    0  0.88842172751E+02  0.65277967815E+02  0.66154518156E+02  0.17587087597E+03  0.12000000000E+03 0.  0.
         25    1    1    2    0    0 -0.88842172751E+02 -0.65277967815E+02  0.18059478320E+03  0.24324600811E+03  0.12000000000E+03 0.  0.
<mgrwt>
<rscale>  0 0.33878274E+03</rscale>
<asrwt>0</asrwt>
<pdfrwt beam="1">  1        2 0.13259045E-01 0.33878274E+03</pdfrwt>
<pdfrwt beam="2">  1       -2 0.51220475E-01 0.33878274E+03</pdfrwt>
<totfact> 0.16622257E+03</totfact>
</mgrwt>
</event>
<event>
 4    1  0.1807309E-004  0.3073464E+03  0.7818608E-02  0.1081625E+00
          2   -1    0    0  501    0  0.00000000000E+00  0.00000000000E+00  0.81302049729E+03  0.81302049729E+03  0.00000000000E+00 0.  1.
         -2   -1    0    0    0  501 -0.00000000000E+00 -0.00000000000E+00 -0.29046559690E+02  0.29046559690E+02  0.00000000000E+00 0.  1.
         25    1    1    2    0    0 -0.62953452381E+02 -0.33057987958E+02  0.21528632220E+03  0.25652323142E+03  0.12000000000E+03 0.  0.
         25    1    1    2    0    0  0.62953452381E+02  0.33057987958E+02  0.56868761540E+03  0.58554382556E+03  0.12000000000E+03 0.  0.
<mgrwt>
<rscale>  0 0.30734637E+03</rscale>
<asrwt>0</asrwt>
<pdfrwt beam="1">  1        2 0.12508006E+00 0.30734637E+03</pdfrwt>
<pdfrwt beam="2">  1       -2 0.44687021E-02 0.30734637E+03</pdfrwt>
<totfact> 0.80823799E+03</totfact>
</mgrwt>
</event>
<event>
 4    1  0.1807309E-004  0.3410722E+03  0.7818608E-02  0.1066340E+00
         -2   -1    0    0    0  501 -0.00000000000E+00  0.00000000000E+00  0.12854962036E+03  0.12854962036E+03  0.00000000000E+00 0. -1.
          2   -1    0    0  501    0  0.00000000000E+00 -0.00000000000E+00 -0.22623603987E+03  0.22623603987E+03  0.00000000000E+00 0. -1.
         25    1    1    2    0    0  0.22123558456E+01 -0.76984956520E+02  0.48464687695E+02  0.15060014609E+03  0.12000000000E+03 0.  0.
         25    1    1    2    0    0 -0.22123558456E+01  0.76984956520E+02 -0.14615110720E+03  0.20418551414E+03  0.12000000000E+03 0.  0.
<mgrwt>
<rscale>  0 0.34107217E+03</rscale>
<asrwt>0</asrwt>
<pdfrwt beam="1">  1        2 0.34805544E-01 0.34107217E+03</pdfrwt>
<pdfrwt beam="2">  1       -2 0.19776865E-01 0.34107217E+03</pdfrwt>
<totfact> 0.31988152E+03</totfact>
</mgrwt>
</event>
<event>
 4    1  0.1807309E-004  0.2506157E+03  0.7818608E-02  0.1112916E+00
         -1   -1    0    0    0  501 -0.00000000000E+00  0.00000000000E+00  0.34790485292E+03  0.34790485292E+03  0.00000000000E+00 0.  1.
          1   -1    0    0  501    0  0.00000000000E+00 -0.00000000000E+00 -0.45133183724E+02  0.45133183724E+02  0.00000000000E+00 0.  1.
         25    1    1    2    0    0 -0.17416053504E+02 -0.30484897827E+02  0.16445127405E+03  0.20658380733E+03  0.12000000000E+03 0.  0.
         25    1    1    2    0    0  0.17416053504E+02  0.30484897827E+02  0.13832039515E+03  0.18645422931E+03  0.12000000000E+03 0.  0.
<mgrwt>
<rscale>  0 0.25061567E+03</rscale>
<asrwt>0</asrwt>
<pdfrwt beam="1">  1        1 0.69435670E-02 0.25061567E+03</pdfrwt>
<pdfrwt beam="2">  1       -1 0.53523822E-01 0.25061567E+03</pdfrwt>
<totfact> 0.37874790E+03</totfact>
</mgrwt>
</event>
<event>
 4    1  0.1807309E-004  0.2912642E+03  0.7818608E-02  0.1089691E+00
         -2   -1    0    0    0  501 -0.00000000000E+00  0.00000000000E+00  0.25457525739E+02  0.25457525739E+02  0.00000000000E+00 0.  1.
          2   -1    0    0  501    0  0.00000000000E+00 -0.00000000000E+00 -0.83310185249E+03  0.83310185249E+03  0.00000000000E+00 0.  1.
         25    1    1    2    0    0  0.79521433801E+02 -0.18130438303E+02 -0.36696523678E+03  0.39460848474E+03  0.12000000000E+03 0.  0.
         25    1    1    2    0    0 -0.79521433801E+02  0.18130438303E+02 -0.44067908997E+03  0.46395089348E+03  0.12000000000E+03 0.  0.
<mgrwt>
<rscale>  0 0.29126422E+03</rscale>
<asrwt>0</asrwt>
<pdfrwt beam="1">  1        2 0.12816953E+00 0.29126422E+03</pdfrwt>
<pdfrwt beam="2">  1       -2 0.39165419E-02 0.29126422E+03</pdfrwt>
<totfact> 0.95440825E+03</totfact>
</mgrwt>
</event>
<event>
 4    1  0.1807309E-004  0.2989445E+03  0.7818608E-02  0.1085769E+00
          2   -1    0    0  501    0  0.00000000000E+00  0.00000000000E+00  0.23881107975E+03  0.23881107975E+03  0.00000000000E+00 0.  1.
         -2   -1    0    0    0  501 -0.00000000000E+00 -0.00000000000E+00 -0.93554906374E+02  0.93554906374E+02  0.00000000000E+00 0.  1.
         25    1    1    2    0    0 -0.32818093012E+02  0.78938041957E+02  0.10061597556E+03  0.17841473099E+03  0.12000000000E+03 0.  0.
         25    1    1    2    0    0  0.32818093012E+02 -0.78938041957E+02  0.44640197821E+02  0.15395125514E+03  0.12000000000E+03 0.  0.
<mgrwt>
<rscale>  0 0.29894446E+03</rscale>
<asrwt>0</asrwt>
<pdfrwt beam="1">  1        2 0.36740166E-01 0.29894446E+03</pdfrwt>
<pdfrwt beam="2">  1       -2 0.14393063E-01 0.29894446E+03</pdfrwt>
<totfact> 0.51272352E+03</totfact>
</mgrwt>
</event>
<event>
 4    1  0.1807309E-004  0.2497013E+03  0.7818608E-02  0.1113494E+00
         -2   -1    0    0    0  501 -0.00000000000E+00  0.00000000000E+00  0.56603760556E+02  0.56603760556E+02  0.00000000000E+00 0. -1.
          2   -1    0    0  501    0  0.00000000000E+00 -0.00000000000E+00 -0.27538253581E+03  0.27538253581E+03  0.00000000000E+00 0. -1.
         25    1    1    2    0    0  0.34436070556E+02 -0.13479732529E+01 -0.10917039350E+03  0.16584883118E+03  0.12000000000E+03 0.  0.
         25    1    1    2    0    0 -0.34436070556E+02  0.13479732529E+01 -0.10960838175E+03  0.16613746518E+03  0.12000000000E+03 0.  0.
<mgrwt>
<rscale>  0 0.24970132E+03</rscale>
<asrwt>0</asrwt>
<pdfrwt beam="1">  1        2 0.42366544E-01 0.24970132E+03</pdfrwt>
<pdfrwt beam="2">  1       -2 0.87082708E-02 0.24970132E+03</pdfrwt>
<totfact> 0.97863366E+03</totfact>
</mgrwt>
</event>
<event>
 4    1  0.1807309E-004  0.3873801E+03  0.7818608E-02  0.1048239E+00
         -2   -1    0    0    0  501 -0.00000000000E+00  0.00000000000E+00  0.11884971393E+03  0.11884971393E+03  0.00000000000E+00 0. -1.
          2   -1    0    0  501    0  0.00000000000E+00 -0.00000000000E+00 -0.31565775956E+03  0.31565775956E+03  0.00000000000E+00 0. -1.
         25    1    1    2    0    0 -0.97892355279E+02  0.70296069967E+02  0.55620187303E+01  0.17016282416E+03  0.12000000000E+03 0.  0.
         25    1    1    2    0    0  0.97892355279E+02 -0.70296069967E+02 -0.20237006437E+03  0.26434464933E+03  0.12000000000E+03 0.  0.
<mgrwt>
<rscale>  0 0.38738009E+03</rscale>
<asrwt>0</asrwt>
<pdfrwt beam="1">  1        2 0.48562732E-01 0.38738009E+03</pdfrwt>
<pdfrwt beam="2">  1       -2 0.18284572E-01 0.38738009E+03</pdfrwt>
<totfact> 0.25509474E+03</totfact>
</mgrwt>
</event>
<event>
 4    1  0.1807309E-004  0.2894814E+03  0.7818608E-02  0.1090620E+00
         -2   -1    0    0    0  501 -0.00000000000E+00  0.00000000000E+00  0.54267373543E+03  0.54267373543E+03  0.00000000000E+00 0. -1.
          2   -1    0    0  501    0  0.00000000000E+00 -0.00000000000E+00 -0.38604917962E+02  0.38604917962E+02  0.00000000000E+00 0. -1.
         25    1    1    2    0    0  0.24328499349E+02 -0.86645585519E+01  0.98020373137E+02  0.15708260249E+03  0.12000000000E+03 0.  0.
         25    1    1    2    0    0 -0.24328499349E+02  0.86645585519E+01  0.40604844433E+03  0.42419605090E+03  0.12000000000E+03 0.  0.
<mgrwt>
<rscale>  0 0.28948143E+03</rscale>
<asrwt>0</asrwt>
<pdfrwt beam="1">  1        2 0.59392185E-02 0.28948143E+03</pdfrwt>
<pdfrwt beam="2">  1       -2 0.83488262E-01 0.28948143E+03</pdfrwt>
<totfact> 0.16222446E+03</totfact>
</mgrwt>
</event>
<event>
 4    1  0.1807309E-004  0.2909538E+03  0.7818608E-02  0.1089852E+00
         -3   -1    0    0    0  501 -0.00000000000E+00  0.00000000000E+00  0.73874366933E+02  0.73874366933E+02  0.00000000000E+00 0. -1.
          3   -1    0    0  501    0  0.00000000000E+00 -0.00000000000E+00 -0.28647995203E+03  0.28647995203E+03  0.00000000000E+00 0. -1.
         25    1    1    2    0    0 -0.94219259144E+01 -0.35233378899E+02 -0.19759632873E+03  0.23403946848E+03  0.12000000000E+03 0.  0.
         25    1    1    2    0    0  0.94219259144E+01  0.35233378899E+02 -0.15009256364E+02  0.12631485049E+03  0.12000000000E+03 0.  0.
<mgrwt>
<rscale>  0 0.29095378E+03</rscale>
<asrwt>0</asrwt>
<pdfrwt beam="1">  1        3 0.44073839E-01 0.29095378E+03</pdfrwt>
<pdfrwt beam="2">  1       -3 0.11365287E-01 0.29095378E+03</pdfrwt>
<totfact> 0.78204790E+02</totfact>
</mgrwt>
</event>
<event>
 4    1  0.1807309E-004  0.2566283E+03  0.7818608E-02  0.1109186E+00
         -2   -1    0    0    0  501 -0.00000000000E+00  0.00000000000E+00  0.21790748900E+03  0.21790748900E+03  0.00000000000E+00 0. -1.
          2   -1    0    0  501    0  0.00000000000E+00 -0.00000000000E+00 -0.75557408052E+02  0.75557408052E+02  0.00000000000E+00 0. -1.
         25    1    1    2    0    0 -0.15023857410E+02 -0.39414917835E+02  0.51860609656E+02  0.13736365922E+03  0.12000000000E+03 0.  0.
         25    1    1    2    0    0  0.15023857410E+02  0.39414917835E+02  0.90489471295E+02  0.15610123784E+03  0.12000000000E+03 0.  0.
<mgrwt>
<rscale>  0 0.25662833E+03</rscale>
<asrwt>0</asrwt>
<pdfrwt beam="1">  1        2 0.11624217E-01 0.25662833E+03</pdfrwt>
<pdfrwt beam="2">  1       -2 0.33524229E-01 0.25662833E+03</pdfrwt>
<totfact> 0.43837595E+03</totfact>
</mgrwt>
</event>
<event>
 4    1  0.1807309E-004  0.2980062E+03  0.7818608E-02  0.1086242E+00
          1   -1    0    0  501    0  0.00000000000E+00  0.00000000000E+00  0.26270552657E+03  0.26270552657E+03  0.00000000000E+00 0. -1.
         -1   -1    0    0    0  501 -0.00000000000E+00 -0.00000000000E+00 -0.84512562770E+02  0.84512562770E+02  0.00000000000E+00 0. -1.
         25    1    1    2    0    0 -0.67326829804E+02  0.52252602698E+02  0.62054229815E+02  0.15973091103E+03  0.12000000000E+03 0.  0.
         25    1    1    2    0    0  0.67326829804E+02 -0.52252602698E+02  0.11613873399E+03  0.18748717831E+03  0.12000000000E+03 0.  0.
<mgrwt>
<rscale>  0 0.29800616E+03</rscale>
<asrwt>0</asrwt>
<pdfrwt beam="1">  1        1 0.40416235E-01 0.29800616E+03</pdfrwt>
<pdfrwt beam="2">  1       -1 0.13001933E-01 0.29800616E+03</pdfrwt>
<totfact> 0.41742252E+03</totfact>
</mgrwt>
</event>
<event>
 4    1  0.1807309E-004  0.5586578E+03  0.7818608E-02  0.9995096E-01
          2   -1    0    0  501    0  0.00000000000E+00  0.00000000000E+00  0.26482536674E+04  0.26482536674E+04  0.00000000000E+00 0.  1.
         -2   -1    0    0    0  501 -0.00000000000E+00 -0.00000000000E+00 -0.29462672455E+02  0.29462672455E+02  0.00000000000E+00 0.  1.
         25    1    1    2    0    0 -0.24087707404E+03  0.19854561622E+02  0.16553203782E+04  0.16771706899E+04  0.12000000000E+03 0.  0.
         25    1    1    2    0    0  0.24087707404E+03 -0.19854561622E+02  0.96347061676E+03  0.10005456500E+04  0.12000000000E+03 0.  0.
<mgrwt>
<rscale>  0 0.55865779E+03</rscale>
<asrwt>0</asrwt>
<pdfrwt beam="1">  1        2 0.40742346E+00 0.55865779E+03</pdfrwt>
<pdfrwt beam="2">  1       -2 0.45327209E-02 0.55865779E+03</pdfrwt>
<totfact> 0.72678944E+02</totfact>
</mgrwt>
</event>
<event>
 4    1  0.1807309E-004  0.3804424E+03  0.7818608E-02  0.1050770E+00
          2   -1    0    0  501    0  0.00000000000E+00  0.00000000000E+00  0.57124627023E+03  0.57124627023E+03  0.00000000000E+00 0. -1.
         -2   -1    0    0    0  501 -0.00000000000E+00 -0.00000000000E+00 -0.63342395431E+02  0.63342395431E+02  0.00000000000E+00 0. -1.
         25    1    1    2    0    0  0.78043099590E+02  0.11322664720E+03  0.34336055267E+03  0.38885404481E+03  0.12000000000E+03 0.  0.
         25    1    1    2    0    0 -0.78043099590E+02 -0.11322664720E+03  0.16454332213E+03  0.24573462086E+03  0.12000000000E+03 0.  0.
<mgrwt>
<rscale>  0 0.38044241E+03</rscale>
<asrwt>0</asrwt>
<pdfrwt beam="1">  1        2 0.87884038E-01 0.38044241E+03</pdfrwt>
<pdfrwt beam="2">  1       -2 0.97449843E-02 0.38044241E+03</pdfrwt>
<totfact> 0.37151615E+03</totfact>
</mgrwt>
</event>
<event>
 4    1  0.1807309E-004  0.3176699E+03  0.7818608E-02  0.1076727E+00
          1   -1    0    0  501    0  0.00000000000E+00  0.00000000000E+00  0.58629506493E+03  0.58629506493E+03  0.00000000000E+00 0. -1.
         -1   -1    0    0    0  501 -0.00000000000E+00 -0.00000000000E+00 -0.43030455491E+02  0.43030455491E+02  0.00000000000E+00 0. -1.
         25    1    1    2    0    0  0.66396705833E+02 -0.80002176322E+02  0.26284544227E+03  0.30707751022E+03  0.12000000000E+03 0.  0.
         25    1    1    2    0    0 -0.66396705833E+02  0.80002176322E+02  0.28041916717E+03  0.32224801020E+03  0.12000000000E+03 0.  0.
<mgrwt>
<rscale>  0 0.31766991E+03</rscale>
<asrwt>0</asrwt>
<pdfrwt beam="1">  1        1 0.90199235E-01 0.31766991E+03</pdfrwt>
<pdfrwt beam="2">  1       -1 0.66200705E-02 0.31766991E+03</pdfrwt>
<totfact> 0.41838869E+03</totfact>
</mgrwt>
</event>
<event>
 4    1  0.1807309E-004  0.3196206E+03  0.7818608E-02  0.1075824E+00
          1   -1    0    0  501    0  0.00000000000E+00  0.00000000000E+00  0.10265818920E+03  0.10265818920E+03  0.00000000000E+00 0. -1.
         -1   -1    0    0    0  501 -0.00000000000E+00 -0.00000000000E+00 -0.24878034432E+03  0.24878034432E+03  0.00000000000E+00 0. -1.
         25    1    1    2    0    0  0.72208184491E+02  0.38344721423E+00 -0.15769899802E+03  0.21091027219E+03  0.12000000000E+03 0.  0.
         25    1    1    2    0    0 -0.72208184491E+02 -0.38344721423E+00  0.11576842903E+02  0.14052826132E+03  0.12000000000E+03 0.  0.
<mgrwt>
<rscale>  0 0.31962065E+03</rscale>
<asrwt>0</asrwt>
<pdfrwt beam="1">  1        1 0.15793568E-01 0.31962065E+03</pdfrwt>
<pdfrwt beam="2">  1       -1 0.38273899E-01 0.31962065E+03</pdfrwt>
<totfact> 0.23277890E+03</totfact>
</mgrwt>
</event>
<event>
 4    1  0.1807309E-004  0.3596331E+03  0.7818608E-02  0.1058729E+00
          3   -1    0    0  501    0  0.00000000000E+00  0.00000000000E+00  0.33166260115E+03  0.33166260115E+03  0.00000000000E+00 0. -1.
         -3   -1    0    0    0  501 -0.00000000000E+00 -0.00000000000E+00 -0.97490641582E+02  0.97490641582E+02  0.00000000000E+00 0. -1.
         25    1    1    2    0    0 -0.99602283374E+01 -0.13327089693E+03  0.12732771231E+03  0.22016512994E+03  0.12000000000E+03 0.  0.
         25    1    1    2    0    0  0.99602283374E+01  0.13327089693E+03  0.10684424726E+03  0.20898811279E+03  0.12000000000E+03 0.  0.
<mgrwt>
<rscale>  0 0.35963315E+03</rscale>
<asrwt>0</asrwt>
<pdfrwt beam="1">  1        3 0.51025015E-01 0.35963315E+03</pdfrwt>
<pdfrwt beam="2">  1       -3 0.14998560E-01 0.35963315E+03</pdfrwt>
<totfact> 0.36938699E+02</totfact>
</mgrwt>
</event>
<event>
 4    1  0.1807309E-004  0.3104520E+03  0.7818608E-02  0.1080129E+00
          2   -1    0    0  501    0  0.00000000000E+00  0.00000000000E+00  0.16879335556E+04  0.16879335556E+04  0.00000000000E+00 0.  1.
         -2   -1    0    0    0  501 -0.00000000000E+00 -0.00000000000E+00 -0.14274916890E+02  0.14274916890E+02  0.00000000000E+00 0.  1.
         25    1    1    2    0    0  0.53821232183E+02 -0.45054620252E+02  0.45820570879E+03  0.47883098835E+03  0.12000000000E+03 0.  0.
         25    1    1    2    0    0 -0.53821232183E+02  0.45054620252E+02  0.12154529299E+04  0.12233774841E+04  0.12000000000E+03 0.  0.
<mgrwt>
<rscale>  0 0.31045200E+03</rscale>
<asrwt>0</asrwt>
<pdfrwt beam="1">  1        2 0.25968193E+00 0.31045200E+03</pdfrwt>
<pdfrwt beam="2">  1       -2 0.21961424E-02 0.31045200E+03</pdfrwt>
<totfact> 0.73112397E+03</totfact>
</mgrwt>
</event>
<event>
 4    1  0.1807309E-004  0.3107135E+03  0.7818608E-02  0.1080004E+00
          2   -1    0    0  501    0  0.00000000000E+00  0.00000000000E+00  0.11839291715E+04  0.11839291715E+04  0.00000000000E+00 0.  1.
         -2   -1    0    0    0  501 -0.00000000000E+00 -0.00000000000E+00 -0.20386123971E+02  0.20386123971E+02  0.00000000000E+00 0.  1.
         25    1    1    2    0    0 -0.83936203542E+02  0.17522612326E+02  0.39254659072E+03  0.41933894893E+03  0.12000000000E+03 0.  0.
         25    1    1    2    0    0  0.83936203542E+02 -0.17522612326E+02  0.77099645677E+03  0.78497634650E+03  0.12000000000E+03 0.  0.
<mgrwt>
<rscale>  0 0.31071355E+03</rscale>
<asrwt>0</asrwt>
<pdfrwt beam="1">  1        2 0.18214290E+00 0.31071355E+03</pdfrwt>
<pdfrwt beam="2">  1       -2 0.31363277E-02 0.31071355E+03</pdfrwt>
<totfact> 0.81062986E+03</totfact>
</mgrwt>
</event>
<event>
 4    1  0.1807309E-004  0.4523919E+03  0.7818608E-02  0.1027011E+00
          2   -1    0    0  501    0  0.00000000000E+00  0.00000000000E+00  0.19206572776E+03  0.19206572776E+03  0.00000000000E+00 0. -1.
         -2   -1    0    0    0  501 -0.00000000000E+00 -0.00000000000E+00 -0.26639108097E+03  0.26639108097E+03  0.00000000000E+00 0. -1.
         25    1    1    2    0    0  0.46702386434E+02 -0.18109110608E+03 -0.80032226741E+02  0.23617844719E+03  0.12000000000E+03 0.  0.
         25    1    1    2    0    0 -0.46702386434E+02  0.18109110608E+03  0.57068735331E+01  0.22227836153E+03  0.12000000000E+03 0.  0.
<mgrwt>
<rscale>  0 0.45239185E+03</rscale>
<asrwt>0</asrwt>
<pdfrwt beam="1">  1        2 0.29548574E-01 0.45239185E+03</pdfrwt>
<pdfrwt beam="2">  1       -2 0.40983243E-01 0.45239185E+03</pdfrwt>
<totfact> 0.10213015E+03</totfact>
</mgrwt>
</event>
<event>
 4    1  0.1807309E-004  0.2491047E+03  0.7818608E-02  0.1113872E+00
         -2   -1    0    0    0  501 -0.00000000000E+00  0.00000000000E+00  0.17184088781E+03  0.17184088781E+03  0.00000000000E+00 0.  1.
          2   -1    0    0  501    0  0.00000000000E+00 -0.00000000000E+00 -0.90277050381E+02  0.90277050381E+02  0.00000000000E+00 0.  1.
         25    1    1    2    0    0 -0.19862485031E+02 -0.22756008586E+02  0.55697555374E+02  0.13570030182E+03  0.12000000000E+03 0.  0.
         25    1    1    2    0    0  0.19862485031E+02  0.22756008586E+02  0.25866282050E+02  0.12641763637E+03  0.12000000000E+03 0.  0.
<mgrwt>
<rscale>  0 0.24910470E+03</rscale>
<asrwt>0</asrwt>
<pdfrwt beam="1">  1        2 0.13888777E-01 0.24910470E+03</pdfrwt>
<pdfrwt beam="2">  1       -2 0.26437060E-01 0.24910470E+03</pdfrwt>
<totfact> 0.54314111E+03</totfact>
</mgrwt>
</event>
<event>
 4    1  0.1807309E-004  0.2545100E+03  0.7818608E-02  0.1110487E+00
         -1   -1    0    0    0  501 -0.00000000000E+00  0.00000000000E+00  0.12209400083E+02  0.12209400083E+02  0.00000000000E+00 0. -1.
          1   -1    0    0  501    0  0.00000000000E+00 -0.00000000000E+00 -0.13263418076E+04  0.13263418076E+04  0.00000000000E+00 0. -1.
         25    1    1    2    0    0  0.30281949926E+02  0.26437157706E+02 -0.72721819748E+03  0.73814783515E+03  0.12000000000E+03 0.  0.
         25    1    1    2    0    0 -0.30281949926E+02 -0.26437157706E+02 -0.58691421006E+03  0.60040337255E+03  0.12000000000E+03 0.  0.
<mgrwt>
<rscale>  0 0.25451002E+03</rscale>
<asrwt>0</asrwt>
<pdfrwt beam="1">  1        1 0.20405250E+00 0.25451002E+03</pdfrwt>
<pdfrwt beam="2">  1       -1 0.18783700E-02 0.25451002E+03</pdfrwt>
<totfact> 0.70231626E+03</totfact>
</mgrwt>
</event>
<event>
 4    1  0.1807309E-004  0.2506754E+03  0.7818608E-02  0.1112879E+00
          4   -1    0    0  501    0  0.00000000000E+00  0.00000000000E+00  0.84097499258E+02  0.84097499258E+02  0.00000000000E+00 0.  1.
         -4   -1    0    0    0  501 -0.00000000000E+00 -0.00000000000E+00 -0.18680148355E+03  0.18680148355E+03  0.00000000000E+00 0.  1.
         25    1    1    2    0    0  0.19426361022E+02  0.46150214248E+01 -0.18736760508E+02  0.12308431305E+03  0.12000000000E+03 0.  0.
         25    1    1    2    0    0 -0.19426361022E+02 -0.46150214248E+01 -0.83967223788E+02  0.14781466976E+03  0.12000000000E+03 0.  0.
<mgrwt>
<rscale>  0 0.25067539E+03</rscale>
<asrwt>0</asrwt>
<pdfrwt beam="1">  1        4 0.12938077E-01 0.25067539E+03</pdfrwt>
<pdfrwt beam="2">  1       -4 0.28738689E-01 0.25067539E+03</pdfrwt>
<totfact> 0.10420345E+03</totfact>
</mgrwt>
</event>
<event>
 4    1  0.1807309E-004  0.2543449E+03  0.7818608E-02  0.1110589E+00
         -2   -1    0    0    0  501 -0.00000000000E+00  0.00000000000E+00  0.18165081081E+02  0.18165081081E+02  0.00000000000E+00 0. -1.
          2   -1    0    0  501    0  0.00000000000E+00 -0.00000000000E+00 -0.89032511673E+03  0.89032511673E+03  0.00000000000E+00 0. -1.
         25    1    1    2    0    0 -0.28677296991E+02 -0.30726594262E+02 -0.42710259074E+03  0.44562667556E+03  0.12000000000E+03 0.  0.
         25    1    1    2    0    0  0.28677296991E+02  0.30726594262E+02 -0.44505744491E+03  0.46286352225E+03  0.12000000000E+03 0.  0.
<mgrwt>
<rscale>  0 0.25434487E+03</rscale>
<asrwt>0</asrwt>
<pdfrwt beam="1">  1        2 0.13697308E+00 0.25434487E+03</pdfrwt>
<pdfrwt beam="2">  1       -2 0.27946281E-02 0.25434487E+03</pdfrwt>
<totfact> 0.14411627E+04</totfact>
</mgrwt>
</event>
<event>
 4    1  0.1807309E-004  0.2689570E+03  0.7818608E-02  0.1101878E+00
         -1   -1    0    0    0  501 -0.00000000000E+00  0.00000000000E+00  0.12232691752E+02  0.12232691752E+02  0.00000000000E+00 0.  1.
          1   -1    0    0  501    0  0.00000000000E+00 -0.00000000000E+00 -0.14783722375E+04  0.14783722375E+04  0.00000000000E+00 0.  1.
         25    1    1    2    0    0  0.29317560535E+02 -0.13055063772E+02 -0.10186133958E+04  0.10261594438E+04  0.12000000000E+03 0.  0.
         25    1    1    2    0    0 -0.29317560535E+02  0.13055063772E+02 -0.44752614993E+03  0.46444548541E+03  0.12000000000E+03 0.  0.
<mgrwt>
<rscale>  0 0.26895704E+03</rscale>
<asrwt>0</asrwt>
<pdfrwt beam="1">  1        1 0.22744196E+00 0.26895704E+03</pdfrwt>
<pdfrwt beam="2">  1       -1 0.18819520E-02 0.26895704E+03</pdfrwt>
<totfact> 0.55426550E+03</totfact>
</mgrwt>
</event>
<event>
 4    1  0.1807309E-004  0.3460132E+03  0.7818608E-02  0.1064263E+00
         -2   -1    0    0    0  501 -0.00000000000E+00  0.00000000000E+00  0.22745826378E+02  0.22745826378E+02  0.00000000000E+00 0.  1.
          2   -1    0    0  501    0  0.00000000000E+00 -0.00000000000E+00 -0.13159020694E+04  0.13159020694E+04  0.00000000000E+00 0.  1.
         25    1    1    2    0    0 -0.22883410762E+01 -0.50256330155E+02 -0.10876924391E+04  0.10954477520E+04  0.12000000000E+03 0.  0.
         25    1    1    2    0    0  0.22883410762E+01  0.50256330155E+02 -0.20546380393E+03  0.24320014381E+03  0.12000000000E+03 0.  0.
<mgrwt>
<rscale>  0 0.34601318E+03</rscale>
<asrwt>0</asrwt>
<pdfrwt beam="1">  1        2 0.20244648E+00 0.34601318E+03</pdfrwt>
<pdfrwt beam="2">  1       -2 0.34993577E-02 0.34601318E+03</pdfrwt>
<totfact> 0.58008881E+03</totfact>
</mgrwt>
</event>
<event>
 4    1  0.1807309E-004  0.3166189E+03  0.7818608E-02  0.1077216E+00
         -1   -1    0    0    0  501 -0.00000000000E+00  0.00000000000E+00  0.12601684439E+03  0.12601684439E+03  0.00000000000E+00 0.  1.
          1   -1    0    0  501    0  0.00000000000E+00 -0.00000000000E+00 -0.19887728794E+03  0.19887728794E+03  0.00000000000E+00 0.  1.
         25    1    1    2    0    0  0.22969663050E+02  0.90855435742E+02  0.80569229828E+01  0.15247042216E+03  0.12000000000E+03 0.  0.
         25    1    1    2    0    0 -0.22969663050E+02 -0.90855435742E+02 -0.80917366535E+02  0.17242371018E+03  0.12000000000E+03 0.  0.
<mgrwt>
<rscale>  0 0.31661894E+03</rscale>
<asrwt>0</asrwt>
<pdfrwt beam="1">  1        1 0.30596506E-01 0.31661894E+03</pdfrwt>
<pdfrwt beam="2">  1       -1 0.19387207E-01 0.31661894E+03</pdfrwt>
<totfact> 0.31349533E+03</totfact>
</mgrwt>
</event>
<event>
 4    1  0.1807309E-004  0.2888690E+03  0.7818608E-02  0.1090941E+00
          1   -1    0    0  501    0  0.00000000000E+00  0.00000000000E+00  0.12234151362E+04  0.12234151362E+04  0.00000000000E+00 0.  1.
         -1   -1    0    0    0  501 -0.00000000000E+00 -0.00000000000E+00 -0.17051719632E+02  0.17051719632E+02  0.00000000000E+00 0.  1.
         25    1    1    2    0    0 -0.14528973208E+01  0.67496172069E+02  0.41582933665E+03  0.43803182689E+03  0.12000000000E+03 0.  0.
         25    1    1    2    0    0  0.14528973208E+01 -0.67496172069E+02  0.79053407996E+03  0.80243502898E+03  0.12000000000E+03 0.  0.
<mgrwt>
<rscale>  0 0.28886905E+03</rscale>
<asrwt>0</asrwt>
<pdfrwt beam="1">  1        1 0.18821764E+00 0.28886905E+03</pdfrwt>
<pdfrwt beam="2">  1       -1 0.26233424E-02 0.28886905E+03</pdfrwt>
<totfact> 0.50766405E+03</totfact>
</mgrwt>
</event>
<event>
 4    1  0.1807309E-004  0.3088614E+03  0.7818608E-02  0.1080893E+00
          2   -1    0    0  501    0  0.00000000000E+00  0.00000000000E+00  0.13914897900E+04  0.13914897900E+04  0.00000000000E+00 0. -1.
         -2   -1    0    0    0  501 -0.00000000000E+00 -0.00000000000E+00 -0.17139072861E+02  0.17139072861E+02  0.00000000000E+00 0. -1.
         25    1    1    2    0    0 -0.61219176384E+01  0.76795715284E+02  0.95752171027E+03  0.96808206543E+03  0.12000000000E+03 0.  0.
         25    1    1    2    0    0  0.61219176384E+01 -0.76795715284E+02  0.41682900684E+03  0.44054679740E+03  0.12000000000E+03 0.  0.
<mgrwt>
<rscale>  0 0.30886142E+03</rscale>
<asrwt>0</asrwt>
<pdfrwt beam="1">  1        2 0.21407526E+00 0.30886142E+03</pdfrwt>
<pdfrwt beam="2">  1       -2 0.26367815E-02 0.30886142E+03</pdfrwt>
<totfact> 0.80380117E+03</totfact>
</mgrwt>
</event>
<event>
 4    1  0.1807309E-004  0.4342715E+03  0.7818608E-02  0.1032519E+00
         -1   -1    0    0    0  501 -0.00000000000E+00  0.00000000000E+00  0.35543025128E+02  0.35543025128E+02  0.00000000000E+00 0.  1.
          1   -1    0    0  501    0  0.00000000000E+00 -0.00000000000E+00 -0.13265029258E+04  0.13265029258E+04  0.00000000000E+00 0.  1.
         25    1    1    2    0    0  0.56621883969E+02  0.17180203455E+03 -0.66145709570E+03  0.69616626339E+03  0.12000000000E+03 0.  0.
         25    1    1    2    0    0 -0.56621883969E+02 -0.17180203455E+03 -0.62950280501E+03  0.66587968759E+03  0.12000000000E+03 0.  0.
<mgrwt>
<rscale>  0 0.43427147E+03</rscale>
<asrwt>0</asrwt>
<pdfrwt beam="1">  1        1 0.20407739E+00 0.43427147E+03</pdfrwt>
<pdfrwt beam="2">  1       -1 0.54681573E-02 0.43427147E+03</pdfrwt>
<totfact> 0.14330952E+03</totfact>
</mgrwt>
</event>
<event>
 4    1  0.1807309E-004  0.2873150E+03  0.7818608E-02  0.1091759E+00
         -2   -1    0    0    0  501 -0.00000000000E+00  0.00000000000E+00  0.31583973802E+02  0.31583973802E+02  0.00000000000E+00 0.  1.
          2   -1    0    0  501    0  0.00000000000E+00 -0.00000000000E+00 -0.65341627474E+03  0.65341627474E+03  0.00000000000E+00 0.  1.
         25    1    1    2    0    0 -0.42170261318E+02 -0.36080117582E+02 -0.44488245354E+03  0.46411259765E+03  0.12000000000E+03 0.  0.
         25    1    1    2    0    0  0.42170261318E+02  0.36080117582E+02 -0.17694984739E+03  0.22088765089E+03  0.12000000000E+03 0.  0.
<mgrwt>
<rscale>  0 0.28731504E+03</rscale>
<asrwt>0</asrwt>
<pdfrwt beam="1">  1        2 0.10052557E+00 0.28731504E+03</pdfrwt>
<pdfrwt beam="2">  1       -2 0.48590733E-02 0.28731504E+03</pdfrwt>
<totfact> 0.93056136E+03</totfact>
</mgrwt>
</event>
<event>
 4    1  0.1807309E-004  0.2981082E+03  0.7818608E-02  0.1086190E+00
         -2   -1    0    0    0  501 -0.00000000000E+00  0.00000000000E+00  0.74277169704E+02  0.74277169704E+02  0.00000000000E+00 0. -1.
          2   -1    0    0  501    0  0.00000000000E+00 -0.00000000000E+00 -0.29911115520E+03  0.29911115520E+03  0.00000000000E+00 0. -1.
         25    1    1    2    0    0 -0.97473905782E+01 -0.51923861543E+02 -0.23619778293E+02  0.13322534649E+03  0.12000000000E+03 0.  0.
         25    1    1    2    0    0  0.97473905782E+01  0.51923861543E+02 -0.20121420720E+03  0.24016297841E+03  0.12000000000E+03 0.  0.
<mgrwt>
<rscale>  0 0.29810824E+03</rscale>
<asrwt>0</asrwt>
<pdfrwt beam="1">  1        2 0.46017100E-01 0.29810824E+03</pdfrwt>
<pdfrwt beam="2">  1       -2 0.11427257E-01 0.29810824E+03</pdfrwt>
<totfact> 0.58533470E+03</totfact>
</mgrwt>
</event>
<event>
 4    1  0.1807309E-004  0.3231530E+03  0.7818608E-02  0.1074207E+00
         -1   -1    0    0    0  501 -0.00000000000E+00  0.00000000000E+00  0.46730562424E+02  0.46730562424E+02  0.00000000000E+00 0.  1.
          1   -1    0    0  501    0  0.00000000000E+00 -0.00000000000E+00 -0.55867018750E+03  0.55867018750E+03  0.00000000000E+00 0.  1.
         25    1    1    2    0    0 -0.34322300387E+02  0.57719096285E+02 -0.41490654015E+03  0.43710061936E+03  0.12000000000E+03 0.  0.
         25    1    1    2    0    0  0.34322300387E+02 -0.57719096285E+02 -0.97033084925E+02  0.16830013057E+03  0.12000000000E+03 0.  0.
<mgrwt>
<rscale>  0 0.32315304E+03</rscale>
<asrwt>0</asrwt>
<pdfrwt beam="1">  1        1 0.85949259E-01 0.32315304E+03</pdfrwt>
<pdfrwt beam="2">  1       -1 0.71893174E-02 0.32315304E+03</pdfrwt>
<totfact> 0.39449122E+03</totfact>
</mgrwt>
</event>
<event>
 4    1  0.1807309E-004  0.2449261E+03  0.7818608E-02  0.1116554E+00
          2   -1    0    0  501    0  0.00000000000E+00  0.00000000000E+00  0.26734049748E+03  0.26734049748E+03  0.00000000000E+00 0. -1.
         -2   -1    0    0    0  501 -0.00000000000E+00 -0.00000000000E+00 -0.56097732124E+02  0.56097732124E+02  0.00000000000E+00 0. -1.
         25    1    1    2    0    0 -0.13311494009E+02 -0.20291188272E+02  0.10182437649E+03  0.15923922834E+03  0.12000000000E+03 0.  0.
         25    1    1    2    0    0  0.13311494009E+02  0.20291188272E+02  0.10941838887E+03  0.16419900127E+03  0.12000000000E+03 0.  0.
<mgrwt>
<rscale>  0 0.24492608E+03</rscale>
<asrwt>0</asrwt>
<pdfrwt beam="1">  1        2 0.41129307E-01 0.24492608E+03</pdfrwt>
<pdfrwt beam="2">  1       -2 0.86304205E-02 0.24492608E+03</pdfrwt>
<totfact> 0.10236787E+04</totfact>
</mgrwt>
</event>
<event>
 4    1  0.1807309E-004  0.3871244E+03  0.7818608E-02  0.1048332E+00
         -1   -1    0    0    0  501 -0.00000000000E+00  0.00000000000E+00  0.76640119873E+02  0.76640119873E+02  0.00000000000E+00 0. -1.
          1   -1    0    0  501    0  0.00000000000E+00 -0.00000000000E+00 -0.48886052877E+03  0.48886052877E+03  0.00000000000E+00 0. -1.
         25    1    1    2    0    0  0.77014841107E+02  0.12378441946E+03 -0.26829968160E+03  0.32808320194E+03  0.12000000000E+03 0.  0.
         25    1    1    2    0    0 -0.77014841107E+02 -0.12378441946E+03 -0.14392072730E+03  0.23741744670E+03  0.12000000000E+03 0.  0.
<mgrwt>
<rscale>  0 0.38712442E+03</rscale>
<asrwt>0</asrwt>
<pdfrwt beam="1">  1        1 0.75209313E-01 0.38712442E+03</pdfrwt>
<pdfrwt beam="2">  1       -1 0.11790787E-01 0.38712442E+03</pdfrwt>
<totfact> 0.22007470E+03</totfact>
</mgrwt>
</event>
<event>
 4    1  0.1807309E-004  0.3184807E+03  0.7818608E-02  0.1076351E+00
         -1   -1    0    0    0  501 -0.00000000000E+00  0.00000000000E+00  0.42721093653E+02  0.42721093653E+02  0.00000000000E+00 0.  1.
          1   -1    0    0  501    0  0.00000000000E+00 -0.00000000000E+00 -0.59355898915E+03  0.59355898915E+03  0.00000000000E+00 0.  1.
         25    1    1    2    0    0  0.71914531050E+00  0.34263195459E+02 -0.77812388480E+02  0.14706886664E+03  0.12000000000E+03 0.  0.
         25    1    1    2    0    0 -0.71914531050E+00 -0.34263195459E+02 -0.47302550701E+03  0.48921121616E+03  0.12000000000E+03 0.  0.
<mgrwt>
<rscale>  0 0.31848070E+03</rscale>
<asrwt>0</asrwt>
<pdfrwt beam="1">  1        1 0.91316768E-01 0.31848070E+03</pdfrwt>
<pdfrwt beam="2">  1       -1 0.65724759E-02 0.31848070E+03</pdfrwt>
<totfact> 0.41584622E+03</totfact>
</mgrwt>
</event>
<event>
 4    1  0.1807309E-004  0.2666189E+03  0.7818608E-02  0.1103230E+00
          2   -1    0    0  501    0  0.00000000000E+00  0.00000000000E+00  0.26387640795E+04  0.26387640795E+04  0.00000000000E+00 0.  1.
         -2   -1    0    0    0  501 -0.00000000000E+00 -0.00000000000E+00 -0.67347459241E+01  0.67347459241E+01  0.00000000000E+00 0.  1.
         25    1    1    2    0    0  0.24268774365E+02  0.37577054625E+02  0.94869860734E+03  0.95730353390E+03  0.12000000000E+03 0.  0.
         25    1    1    2    0    0 -0.24268774365E+02 -0.37577054625E+02  0.16833307262E+04  0.16881952915E+04  0.12000000000E+03 0.  0.
<mgrwt>
<rscale>  0 0.26661887E+03</rscale>
<asrwt>0</asrwt>
<pdfrwt beam="1">  1        2 0.40596288E+00 0.26661887E+03</pdfrwt>
<pdfrwt beam="2">  1       -2 0.10361169E-02 0.26661887E+03</pdfrwt>
<totfact> 0.68059518E+03</totfact>
</mgrwt>
</event>
<event>
 4    1  0.1807309E-004  0.2645808E+03  0.7818608E-02  0.1104422E+00
         -4   -1    0    0    0  501 -0.00000000000E+00  0.00000000000E+00  0.27804627661E+03  0.27804627661E+03  0.00000000000E+00 0. -1.
          4   -1    0    0  501    0  0.00000000000E+00 -0.00000000000E+00 -0.62941856496E+02  0.62941856496E+02  0.00000000000E+00 0. -1.
         25    1    1    2    0    0  0.79082846273E+01 -0.21000877697E+02  0.17323192010E+03  0.21192658156E+03  0.12000000000E+03 0.  0.
         25    1    1    2    0    0 -0.79082846273E+01  0.21000877697E+02  0.41872500009E+02  0.12906155154E+03  0.12000000000E+03 0.  0.
<mgrwt>
<rscale>  0 0.26458079E+03</rscale>
<asrwt>0</asrwt>
<pdfrwt beam="1">  1        4 0.96833627E-02 0.26458079E+03</pdfrwt>
<pdfrwt beam="2">  1       -4 0.42776350E-01 0.26458079E+03</pdfrwt>
<totfact> 0.79530939E+02</totfact>
</mgrwt>
</event>
<event>
 4    1  0.1807309E-004  0.3991008E+03  0.7818608E-02  0.1044091E+00
          1   -1    0    0  501    0  0.00000000000E+00  0.00000000000E+00  0.30953623841E+02  0.30953623841E+02  0.00000000000E+00 0. -1.
         -1   -1    0    0    0  501 -0.00000000000E+00 -0.00000000000E+00 -0.12864520821E+04  0.12864520821E+04  0.00000000000E+00 0. -1.
         25    1    1    2    0    0  0.18626965881E+00  0.15160410962E+03 -0.46481161177E+03  0.50342196534E+03  0.12000000000E+03 0.  0.
         25    1    1    2    0    0 -0.18626965881E+00 -0.15160410962E+03 -0.79068684647E+03  0.81398374058E+03  0.12000000000E+03 0.  0.
<mgrwt>
<rscale>  0 0.39910076E+03</rscale>
<asrwt>0</asrwt>
<pdfrwt beam="1">  1        1 0.47620966E-02 0.39910076E+03</pdfrwt>
<pdfrwt beam="2">  1       -1 0.19791568E+00 0.39910076E+03</pdfrwt>
<totfact> 0.30600378E+02</totfact>
</mgrwt>
</event>
<event>
 4    1  0.1807309E-004  0.3617019E+03  0.7818608E-02  0.1057912E+00
          2   -1    0    0  501    0  0.00000000000E+00  0.00000000000E+00  0.53055021538E+03  0.53055021538E+03  0.00000000000E+00 0.  1.
         -2   -1    0    0    0  501 -0.00000000000E+00 -0.00000000000E+00 -0.61647446804E+02  0.61647446804E+02  0.00000000000E+00 0.  1.
         25    1    1    2    0    0  0.10335341968E+03 -0.85426024788E+02  0.26408210233E+03  0.31956046665E+03  0.12000000000E+03 0.  0.
         25    1    1    2    0    0 -0.10335341968E+03  0.85426024788E+02  0.20482066624E+03  0.27263719554E+03  0.12000000000E+03 0.  0.
<mgrwt>
<rscale>  0 0.36170190E+03</rscale>
<asrwt>0</asrwt>
<pdfrwt beam="1">  1        2 0.81623107E-01 0.36170190E+03</pdfrwt>
<pdfrwt beam="2">  1       -2 0.94842230E-02 0.36170190E+03</pdfrwt>
<totfact> 0.42210297E+03</totfact>
</mgrwt>
</event>
<event>
 4    1  0.1807309E-004  0.6401820E+03  0.7818608E-02  0.9825378E-01
         -3   -1    0    0    0  501 -0.00000000000E+00  0.00000000000E+00  0.43368534530E+03  0.43368534530E+03  0.00000000000E+00 0.  1.
          3   -1    0    0  501    0  0.00000000000E+00 -0.00000000000E+00 -0.23625017565E+03  0.23625017565E+03  0.00000000000E+00 0.  1.
         25    1    1    2    0    0 -0.17404225041E+03  0.16008989131E+03  0.28632246416E+03  0.39025636665E+03  0.12000000000E+03 0.  0.
         25    1    1    2    0    0  0.17404225041E+03 -0.16008989131E+03 -0.88887294518E+02  0.27967915430E+03  0.12000000000E+03 0.  0.
<mgrwt>
<rscale>  0 0.64018197E+03</rscale>
<asrwt>0</asrwt>
<pdfrwt beam="1">  1        3 0.36346181E-01 0.64018197E+03</pdfrwt>
<pdfrwt beam="2">  1       -3 0.66720822E-01 0.64018197E+03</pdfrwt>
<totfact> 0.42717144E+01</totfact>
</mgrwt>
</event>
<event>
 4    1  0.1807309E-004  0.3553576E+03  0.7818608E-02  0.1060437E+00
          1   -1    0    0  501    0  0.00000000000E+00  0.00000000000E+00  0.15550929123E+03  0.15550929123E+03  0.00000000000E+00 0. -1.
         -1   -1    0    0    0  501 -0.00000000000E+00 -0.00000000000E+00 -0.20300878015E+03  0.20300878015E+03  0.00000000000E+00 0. -1.
         25    1    1    2    0    0 -0.53458045608E+02 -0.10280665315E+03  0.37972637637E+02  0.17108153548E+03  0.12000000000E+03 0.  0.
         25    1    1    2    0    0  0.53458045608E+02  0.10280665315E+03 -0.85472126557E+02  0.18743653590E+03  0.12000000000E+03 0.  0.
<mgrwt>
<rscale>  0 0.35535757E+03</rscale>
<asrwt>0</asrwt>
<pdfrwt beam="1">  1        1 0.23924506E-01 0.35535757E+03</pdfrwt>
<pdfrwt beam="2">  1       -1 0.31232120E-01 0.35535757E+03</pdfrwt>
<totfact> 0.19376052E+03</totfact>
</mgrwt>
</event>
<event>
 4    1  0.1807309E-004  0.2679039E+03  0.7818608E-02  0.1102485E+00
          2   -1    0    0  501    0  0.00000000000E+00  0.00000000000E+00  0.19537771271E+03  0.19537771271E+03  0.00000000000E+00 0.  1.
         -2   -1    0    0    0  501 -0.00000000000E+00 -0.00000000000E+00 -0.91838105134E+02  0.91838105134E+02  0.00000000000E+00 0.  1.
         25    1    1    2    0    0 -0.11529139418E+02  0.35379101958E+02  0.10157872418E+03  0.16156373082E+03  0.12000000000E+03 0.  0.
         25    1    1    2    0    0  0.11529139418E+02 -0.35379101958E+02  0.19608834056E+01  0.12565208703E+03  0.12000000000E+03 0.  0.
<mgrwt>
<rscale>  0 0.26790386E+03</rscale>
<asrwt>0</asrwt>
<pdfrwt beam="1">  1        2 0.30058110E-01 0.26790386E+03</pdfrwt>
<pdfrwt beam="2">  1       -2 0.14128939E-01 0.26790386E+03</pdfrwt>
<totfact> 0.65553308E+03</totfact>
</mgrwt>
</event>
<event>
 4    1  0.1807309E-004  0.3236329E+03  0.7818608E-02  0.1073989E+00
         -2   -1    0    0    0  501 -0.00000000000E+00  0.00000000000E+00  0.12757568888E+02  0.12757568888E+02  0.00000000000E+00 0.  1.
          2   -1    0    0  501    0  0.00000000000E+00 -0.00000000000E+00 -0.20524726696E+04  0.20524726696E+04  0.00000000000E+00 0.  1.
         25    1    1    2    0    0  0.83239932980E+02 -0.50725607369E+02 -0.13247379968E+04  0.13337288832E+04  0.12000000000E+03 0.  0.
         25    1    1    2    0    0 -0.83239932980E+02  0.50725607369E+02 -0.71497710389E+03  0.73150135528E+03  0.12000000000E+03 0.  0.
<mgrwt>
<rscale>  0 0.32363289E+03</rscale>
<asrwt>0</asrwt>
<pdfrwt beam="1">  1        2 0.31576506E+00 0.32363289E+03</pdfrwt>
<pdfrwt beam="2">  1       -2 0.19627027E-02 0.32363289E+03</pdfrwt>
<totfact> 0.55405419E+03</totfact>
</mgrwt>
</event>
<event>
 4    1  0.1807309E-004  0.2636271E+03  0.7818608E-02  0.1104983E+00
          4   -1    0    0  501    0  0.00000000000E+00  0.00000000000E+00  0.37462230259E+03  0.37462230259E+03  0.00000000000E+00 0.  1.
         -4   -1    0    0    0  501 -0.00000000000E+00 -0.00000000000E+00 -0.46379550956E+02  0.46379550956E+02  0.00000000000E+00 0.  1.
         25    1    1    2    0    0 -0.52509467748E+02  0.10528029316E+02  0.14762310843E+03  0.19763771337E+03  0.12000000000E+03 0.  0.
         25    1    1    2    0    0  0.52509467748E+02 -0.10528029316E+02  0.18061964321E+03  0.22336414018E+03  0.12000000000E+03 0.  0.
<mgrwt>
<rscale>  0 0.26362712E+03</rscale>
<asrwt>0</asrwt>
<pdfrwt beam="1">  1        4 0.57634198E-01 0.26362712E+03</pdfrwt>
<pdfrwt beam="2">  1       -4 0.71353158E-02 0.26362712E+03</pdfrwt>
<totfact> 0.71860404E+02</totfact>
</mgrwt>
</event>
<event>
 4    1  0.1807309E-004  0.2828276E+03  0.7818608E-02  0.1094155E+00
          3   -1    0    0  501    0  0.00000000000E+00  0.00000000000E+00  0.17381774162E+03  0.17381774162E+03  0.00000000000E+00 0. -1.
         -3   -1    0    0    0  501 -0.00000000000E+00 -0.00000000000E+00 -0.11505076268E+03  0.11505076268E+03  0.00000000000E+00 0. -1.
         25    1    1    2    0    0  0.14715690795E+02 -0.12670853363E+02  0.10318161453E+03  0.15944763297E+03  0.12000000000E+03 0.  0.
         25    1    1    2    0    0 -0.14715690795E+02  0.12670853363E+02 -0.44414635592E+02  0.12942087133E+03  0.12000000000E+03 0.  0.
<mgrwt>
<rscale>  0 0.28282761E+03</rscale>
<asrwt>0</asrwt>
<pdfrwt beam="1">  1        3 0.26741191E-01 0.28282761E+03</pdfrwt>
<pdfrwt beam="2">  1       -3 0.17700117E-01 0.28282761E+03</pdfrwt>
<totfact> 0.94308975E+02</totfact>
</mgrwt>
</event>
<event>
 4    1  0.1807309E-004  0.2507780E+03  0.7818608E-02  0.1112814E+00
         -1   -1    0    0    0  501 -0.00000000000E+00  0.00000000000E+00  0.21447587904E+02  0.21447587904E+02  0.00000000000E+00 0.  1.
          1   -1    0    0  501    0  0.00000000000E+00 -0.00000000000E+00 -0.73306156266E+03  0.73306156266E+03  0.00000000000E+00 0.  1.
         25    1    1    2    0    0  0.44274671338E+01 -0.35807459893E+02 -0.34214295324E+03  0.36436736558E+03  0.12000000000E+03 0.  0.
         25    1    1    2    0    0 -0.44274671338E+01  0.35807459893E+02 -0.36947102152E+03  0.39014178498E+03  0.12000000000E+03 0.  0.
<mgrwt>
<rscale>  0 0.25077801E+03</rscale>
<asrwt>0</asrwt>
<pdfrwt beam="1">  1        1 0.11277869E+00 0.25077801E+03</pdfrwt>
<pdfrwt beam="2">  1       -1 0.32996293E-02 0.25077801E+03</pdfrwt>
<totfact> 0.85650610E+03</totfact>
</mgrwt>
</event>
<event>
 4    1  0.1807309E-004  0.3817179E+03  0.7818608E-02  0.1050301E+00
         -2   -1    0    0    0  501 -0.00000000000E+00  0.00000000000E+00  0.28951651493E+03  0.28951651493E+03  0.00000000000E+00 0.  1.
          2   -1    0    0  501    0  0.00000000000E+00 -0.00000000000E+00 -0.12582058117E+03  0.12582058117E+03  0.00000000000E+00 0.  1.
         25    1    1    2    0    0 -0.12693893794E+03  0.56760805225E+02  0.25395373585E+02  0.18541900651E+03  0.12000000000E+03 0.  0.
         25    1    1    2    0    0  0.12693893794E+03 -0.56760805225E+02  0.13830056018E+03  0.22991808959E+03  0.12000000000E+03 0.  0.
<mgrwt>
<rscale>  0 0.38171789E+03</rscale>
<asrwt>0</asrwt>
<pdfrwt beam="1">  1        2 0.19357013E-01 0.38171789E+03</pdfrwt>
<pdfrwt beam="2">  1       -2 0.44541002E-01 0.38171789E+03</pdfrwt>
<totfact> 0.14032197E+03</totfact>
</mgrwt>
</event>
<event>
 4    1  0.1807309E-004  0.4278703E+03  0.7818608E-02  0.1034535E+00
         -2   -1    0    0    0  501 -0.00000000000E+00  0.00000000000E+00  0.70877215085E+02  0.70877215085E+02  0.00000000000E+00 0. -1.
          2   -1    0    0  501    0  0.00000000000E+00 -0.00000000000E+00 -0.64573981998E+03  0.64573981998E+03  0.00000000000E+00 0. -1.
         25    1    1    2    0    0  0.94012334498E+01 -0.71186501419E+02 -0.16269874040E+02  0.14078568811E+03  0.12000000000E+03 0.  0.
         25    1    1    2    0    0 -0.94012334498E+01  0.71186501419E+02 -0.55859273085E+03  0.57583134695E+03  0.12000000000E+03 0.  0.
<mgrwt>
<rscale>  0 0.42787026E+03</rscale>
<asrwt>0</asrwt>
<pdfrwt beam="1">  1        2 0.99344587E-01 0.42787026E+03</pdfrwt>
<pdfrwt beam="2">  1       -2 0.10904187E-01 0.42787026E+03</pdfrwt>
<totfact> 0.26852150E+03</totfact>
</mgrwt>
</event>
<event>
 4    1  0.1807309E-004  0.2592653E+03  0.7818608E-02  0.1107585E+00
          2   -1    0    0  501    0  0.00000000000E+00  0.00000000000E+00  0.58617050737E+03  0.58617050737E+03  0.00000000000E+00 0. -1.
         -2   -1    0    0    0  501 -0.00000000000E+00 -0.00000000000E+00 -0.28668482732E+02  0.28668482732E+02  0.00000000000E+00 0. -1.
         25    1    1    2    0    0 -0.38486187641E+02 -0.29146517919E+02  0.29913913586E+03  0.32590631897E+03  0.12000000000E+03 0.  0.
         25    1    1    2    0    0  0.38486187641E+02  0.29146517919E+02  0.25836288878E+03  0.28893267113E+03  0.12000000000E+03 0.  0.
<mgrwt>
<rscale>  0 0.25926526E+03</rscale>
<asrwt>0</asrwt>
<pdfrwt beam="1">  1        2 0.90180069E-01 0.25926526E+03</pdfrwt>
<pdfrwt beam="2">  1       -2 0.44105363E-02 0.25926526E+03</pdfrwt>
<totfact> 0.12188855E+04</totfact>
</mgrwt>
</event>
<event>
 4    1  0.1807309E-004  0.2533418E+03  0.7818608E-02  0.1111211E+00
         -2   -1    0    0    0  501 -0.00000000000E+00  0.00000000000E+00  0.68015734814E+01  0.68015734814E+01  0.00000000000E+00 0.  1.
          2   -1    0    0  501    0  0.00000000000E+00 -0.00000000000E+00 -0.23590895423E+04  0.23590895423E+04  0.00000000000E+00 0.  1.
         25    1    1    2    0    0  0.18462245248E+02 -0.34333464274E+02 -0.12809208805E+04  0.12871200190E+04  0.12000000000E+03 0.  0.
         25    1    1    2    0    0 -0.18462245248E+02  0.34333464274E+02 -0.10713670883E+04  0.10787710967E+04  0.12000000000E+03 0.  0.
<mgrwt>
<rscale>  0 0.25334183E+03</rscale>
<asrwt>0</asrwt>
<pdfrwt beam="1">  1        2 0.36293718E+00 0.25334183E+03</pdfrwt>
<pdfrwt beam="2">  1       -2 0.10463950E-02 0.25334183E+03</pdfrwt>
<totfact> 0.95429777E+03</totfact>
</mgrwt>
</event>
<event>
 4    1  0.1807309E-004  0.2669654E+03  0.7818608E-02  0.1103029E+00
         -2   -1    0    0    0  501 -0.00000000000E+00  0.00000000000E+00  0.11743057545E+03  0.11743057545E+03  0.00000000000E+00 0. -1.
          2   -1    0    0  501    0  0.00000000000E+00 -0.00000000000E+00 -0.15172910228E+03  0.15172910228E+03  0.00000000000E+00 0. -1.
         25    1    1    2    0    0 -0.57170967655E+02 -0.28552601409E+00 -0.29457581223E+02  0.13614826535E+03  0.12000000000E+03 0.  0.
         25    1    1    2    0    0  0.57170967655E+02  0.28552601409E+00 -0.48409456128E+01  0.13301141238E+03  0.12000000000E+03 0.  0.
<mgrwt>
<rscale>  0 0.26696543E+03</rscale>
<asrwt>0</asrwt>
<pdfrwt beam="1">  1        2 0.23342939E-01 0.26696543E+03</pdfrwt>
<pdfrwt beam="2">  1       -2 0.18066243E-01 0.26696543E+03</pdfrwt>
<totfact> 0.57661641E+03</totfact>
</mgrwt>
</event>
<event>
 4    1  0.1807309E-004  0.2571038E+03  0.7818608E-02  0.1108896E+00
         -1   -1    0    0    0  501 -0.00000000000E+00  0.00000000000E+00  0.12893796742E+02  0.12893796742E+02  0.00000000000E+00 0.  1.
          1   -1    0    0  501    0  0.00000000000E+00 -0.00000000000E+00 -0.12816699368E+04  0.12816699368E+04  0.00000000000E+00 0.  1.
         25    1    1    2    0    0 -0.41863388093E+02 -0.68550630560E+01 -0.54346766429E+03  0.55817258736E+03  0.12000000000E+03 0.  0.
         25    1    1    2    0    0  0.41863388093E+02  0.68550630560E+01 -0.72530847573E+03  0.73639114614E+03  0.12000000000E+03 0.  0.
<mgrwt>
<rscale>  0 0.25710381E+03</rscale>
<asrwt>0</asrwt>
<pdfrwt beam="1">  1        1 0.19717994E+00 0.25710381E+03</pdfrwt>
<pdfrwt beam="2">  1       -1 0.19836616E-02 0.25710381E+03</pdfrwt>
<totfact> 0.69585120E+03</totfact>
</mgrwt>
</event>
<event>
 4    1  0.1807309E-004  0.7928375E+03  0.7818608E-02  0.9570443E-01
         -2   -1    0    0    0  501 -0.00000000000E+00  0.00000000000E+00  0.49897495912E+02  0.49897495912E+02  0.00000000000E+00 0. -1.
          2   -1    0    0  501    0  0.00000000000E+00 -0.00000000000E+00 -0.31494133259E+04  0.31494133259E+04  0.00000000000E+00 0. -1.
         25    1    1    2    0    0 -0.78477408154E+02  0.27012965891E+03 -0.53194958287E+03  0.61359522076E+03  0.12000000000E+03 0.  0.
         25    1    1    2    0    0  0.78477408154E+02 -0.27012965891E+03 -0.25675662471E+04  0.25857156011E+04  0.12000000000E+03 0.  0.
<mgrwt>
<rscale>  0 0.79283753E+03</rscale>
<asrwt>0</asrwt>
<pdfrwt beam="1">  1        2 0.48452542E+00 0.79283753E+03</pdfrwt>
<pdfrwt beam="2">  1       -2 0.76765332E-02 0.79283753E+03</pdfrwt>
<totfact> 0.15521053E+02</totfact>
</mgrwt>
</event>
<event>
 4    1  0.1807309E-004  0.3251240E+03  0.7818608E-02  0.1073315E+00
         -1   -1    0    0    0  501 -0.00000000000E+00  0.00000000000E+00  0.34306181860E+02  0.34306181860E+02  0.00000000000E+00 0. -1.
          1   -1    0    0  501    0  0.00000000000E+00 -0.00000000000E+00 -0.77031012538E+03  0.77031012538E+03  0.00000000000E+00 0. -1.
         25    1    1    2    0    0  0.39781476186E+02 -0.39622043731E+02 -0.60113175813E+03  0.61555817176E+03  0.12000000000E+03 0.  0.
         25    1    1    2    0    0 -0.39781476186E+02  0.39622043731E+02 -0.13487218539E+03  0.18905813547E+03  0.12000000000E+03 0.  0.
<mgrwt>
<rscale>  0 0.32512397E+03</rscale>
<asrwt>0</asrwt>
<pdfrwt beam="1">  1        1 0.11850925E+00 0.32512397E+03</pdfrwt>
<pdfrwt beam="2">  1       -1 0.52778742E-02 0.32512397E+03</pdfrwt>
<totfact> 0.39704698E+03</totfact>
</mgrwt>
</event>
<event>
 4    1  0.1807309E-004  0.3288470E+03  0.7818608E-02  0.1071648E+00
         -2   -1    0    0    0  501 -0.00000000000E+00  0.00000000000E+00  0.17363137140E+02  0.17363137140E+02  0.00000000000E+00 0.  1.
          2   -1    0    0  501    0  0.00000000000E+00 -0.00000000000E+00 -0.15570392267E+04  0.15570392267E+04  0.00000000000E+00 0.  1.
         25    1    1    2    0    0  0.43109557387E+02 -0.31177478852E+02 -0.29577383546E+03  0.32359331091E+03  0.12000000000E+03 0.  0.
         25    1    1    2    0    0 -0.43109557387E+02  0.31177478852E+02 -0.12439022541E+04  0.12508090529E+04  0.12000000000E+03 0.  0.
<mgrwt>
<rscale>  0 0.32884699E+03</rscale>
<asrwt>0</asrwt>
<pdfrwt beam="1">  1        2 0.23954446E+00 0.32884699E+03</pdfrwt>
<pdfrwt beam="2">  1       -2 0.26712522E-02 0.32884699E+03</pdfrwt>
<totfact> 0.64200491E+03</totfact>
</mgrwt>
</event>
<event>
 4    1  0.1807309E-004  0.3022192E+03  0.7818608E-02  0.1084136E+00
         -1   -1    0    0    0  501 -0.00000000000E+00  0.00000000000E+00  0.26937031956E+02  0.26937031956E+02  0.00000000000E+00 0. -1.
          1   -1    0    0  501    0  0.00000000000E+00 -0.00000000000E+00 -0.84768490556E+03  0.84768490556E+03  0.00000000000E+00 0. -1.
         25    1    1    2    0    0  0.36878352442E+01  0.11603403624E+02 -0.67380531089E+03  0.68451576759E+03  0.12000000000E+03 0.  0.
         25    1    1    2    0    0 -0.36878352442E+01 -0.11603403624E+02 -0.14694256271E+03  0.19010616992E+03  0.12000000000E+03 0.  0.
<mgrwt>
<rscale>  0 0.30221923E+03</rscale>
<asrwt>0</asrwt>
<pdfrwt beam="1">  1        1 0.13041307E+00 0.30221923E+03</pdfrwt>
<pdfrwt beam="2">  1       -1 0.41441586E-02 0.30221923E+03</pdfrwt>
<totfact> 0.49123883E+03</totfact>
</mgrwt>
</event>
<event>
 4    1  0.1807309E-004  0.3306401E+03  0.7818608E-02  0.1070854E+00
         -2   -1    0    0    0  501 -0.00000000000E+00  0.00000000000E+00  0.64790415389E+02  0.64790415389E+02  0.00000000000E+00 0. -1.
          2   -1    0    0  501    0  0.00000000000E+00 -0.00000000000E+00 -0.42183286782E+03  0.42183286782E+03  0.00000000000E+00 0. -1.
         25    1    1    2    0    0  0.10806922836E+02 -0.67893385083E+02 -0.31183081370E+03  0.34112278975E+03  0.12000000000E+03 0.  0.
         25    1    1    2    0    0 -0.10806922836E+02  0.67893385083E+02 -0.45211638737E+02  0.14550049346E+03  0.12000000000E+03 0.  0.
<mgrwt>
<rscale>  0 0.33064015E+03</rscale>
<asrwt>0</asrwt>
<pdfrwt beam="1">  1        2 0.64897363E-01 0.33064015E+03</pdfrwt>
<pdfrwt beam="2">  1       -2 0.99677565E-02 0.33064015E+03</pdfrwt>
<totfact> 0.50308991E+03</totfact>
</mgrwt>
</event>
<event>
 4    1  0.1807309E-004  0.2612327E+03  0.7818608E-02  0.1106405E+00
         -2   -1    0    0    0  501 -0.00000000000E+00  0.00000000000E+00  0.18805144419E+03  0.18805144419E+03  0.00000000000E+00 0. -1.
          2   -1    0    0  501    0  0.00000000000E+00 -0.00000000000E+00 -0.90723245674E+02  0.90723245674E+02  0.00000000000E+00 0. -1.
         25    1    1    2    0    0 -0.40723886775E+02 -0.26009420086E+02  0.29404691792E+02  0.13266333626E+03  0.12000000000E+03 0.  0.
         25    1    1    2    0    0  0.40723886775E+02  0.26009420086E+02  0.67923506723E+02  0.14611135361E+03  0.12000000000E+03 0.  0.
<mgrwt>
<rscale>  0 0.26123275E+03</rscale>
<asrwt>0</asrwt>
<pdfrwt beam="1">  1        2 0.13957422E-01 0.26123275E+03</pdfrwt>
<pdfrwt beam="2">  1       -2 0.28930991E-01 0.26123275E+03</pdfrwt>
<totfact> 0.46032089E+03</totfact>
</mgrwt>
</event>
<event>
 4    1  0.1807309E-004  0.2520049E+03  0.7818608E-02  0.1112044E+00
          2   -1    0    0  501    0  0.00000000000E+00  0.00000000000E+00  0.50989140775E+03  0.50989140775E+03  0.00000000000E+00 0.  1.
         -2   -1    0    0    0  501 -0.00000000000E+00 -0.00000000000E+00 -0.31137246595E+02  0.31137246595E+02  0.00000000000E+00 0.  1.
         25    1    1    2    0    0 -0.19831781905E+02  0.19023715055E+02  0.18171326694E+03  0.21948784178E+03  0.12000000000E+03 0.  0.
         25    1    1    2    0    0  0.19831781905E+02 -0.19023715055E+02  0.29704089421E+03  0.32154081256E+03  0.12000000000E+03 0.  0.
<mgrwt>
<rscale>  0 0.25200488E+03</rscale>
<asrwt>0</asrwt>
<pdfrwt beam="1">  1        2 0.78444826E-01 0.25200488E+03</pdfrwt>
<pdfrwt beam="2">  1       -2 0.47903460E-02 0.25200488E+03</pdfrwt>
<totfact> 0.12587264E+04</totfact>
</mgrwt>
</event>
<event>
 4    1  0.1807309E-004  0.2606459E+03  0.7818608E-02  0.1106756E+00
         -2   -1    0    0    0  501 -0.00000000000E+00  0.00000000000E+00  0.34265173593E+02  0.34265173593E+02  0.00000000000E+00 0.  1.
          2   -1    0    0  501    0  0.00000000000E+00 -0.00000000000E+00 -0.49566559943E+03  0.49566559943E+03  0.00000000000E+00 0.  1.
         25    1    1    2    0    0 -0.47409536979E+01  0.45658606168E+02 -0.18630111582E+03  0.22630795548E+03  0.12000000000E+03 0.  0.
         25    1    1    2    0    0  0.47409536979E+01 -0.45658606168E+02 -0.27509931002E+03  0.30362281754E+03  0.12000000000E+03 0.  0.
<mgrwt>
<rscale>  0 0.26064587E+03</rscale>
<asrwt>0</asrwt>
<pdfrwt beam="1">  1        2 0.76256242E-01 0.26064587E+03</pdfrwt>
<pdfrwt beam="2">  1       -2 0.52715654E-02 0.26064587E+03</pdfrwt>
<totfact> 0.11251574E+04</totfact>
</mgrwt>
</event>
<event>
 4    1  0.1807309E-004  0.2583182E+03  0.7818608E-02  0.1108158E+00
          1   -1    0    0  501    0  0.00000000000E+00  0.00000000000E+00  0.65307984374E+02  0.65307984374E+02  0.00000000000E+00 0.  1.
         -1   -1    0    0    0  501 -0.00000000000E+00 -0.00000000000E+00 -0.25543689983E+03  0.25543689983E+03  0.00000000000E+00 0.  1.
         25    1    1    2    0    0 -0.28081367498E+02 -0.34560024810E+02 -0.73590076984E+02  0.14764300846E+03  0.12000000000E+03 0.  0.
         25    1    1    2    0    0  0.28081367498E+02  0.34560024810E+02 -0.11653883847E+03  0.17310187575E+03  0.12000000000E+03 0.  0.
<mgrwt>
<rscale>  0 0.25831817E+03</rscale>
<asrwt>0</asrwt>
<pdfrwt beam="1">  1        1 0.10047382E-01 0.25831817E+03</pdfrwt>
<pdfrwt beam="2">  1       -1 0.39297985E-01 0.25831817E+03</pdfrwt>
<totfact> 0.40299695E+03</totfact>
</mgrwt>
</event>
<event>
 4    1  0.1807309E-004  0.2771215E+03  0.7818608E-02  0.1097272E+00
          2   -1    0    0  501    0  0.00000000000E+00  0.00000000000E+00  0.25951973306E+03  0.25951973306E+03  0.00000000000E+00 0. -1.
         -2   -1    0    0    0  501 -0.00000000000E+00 -0.00000000000E+00 -0.73979251144E+02  0.73979251144E+02  0.00000000000E+00 0. -1.
         25    1    1    2    0    0  0.51646829227E+02 -0.21171021086E+02  0.14214748502E+03  0.19422027340E+03  0.12000000000E+03 0.  0.
         25    1    1    2    0    0 -0.51646829227E+02  0.21171021086E+02  0.43392996898E+02  0.13927871080E+03  0.12000000000E+03 0.  0.
<mgrwt>
<rscale>  0 0.27712146E+03</rscale>
<asrwt>0</asrwt>
<pdfrwt beam="1">  1        2 0.39926112E-01 0.27712146E+03</pdfrwt>
<pdfrwt beam="2">  1       -2 0.11381423E-01 0.27712146E+03</pdfrwt>
<totfact> 0.68488173E+03</totfact>
</mgrwt>
</event>
<event>
 4    1  0.1807309E-004  0.3694254E+03  0.7818608E-02  0.1054913E+00
          2   -1    0    0  501    0  0.00000000000E+00  0.00000000000E+00  0.14386645997E+03  0.14386645997E+03  0.00000000000E+00 0. -1.
         -2   -1    0    0    0  501 -0.00000000000E+00 -0.00000000000E+00 -0.23715588444E+03  0.23715588444E+03  0.00000000000E+00 0. -1.
         25    1    1    2    0    0 -0.55220963086E+02  0.12589214894E+03 -0.17099526136E+02  0.18327733554E+03  0.12000000000E+03 0.  0.
         25    1    1    2    0    0  0.55220963086E+02 -0.12589214894E+03 -0.76189898330E+02  0.19774500888E+03  0.12000000000E+03 0.  0.
<mgrwt>
<rscale>  0 0.36942538E+03</rscale>
<asrwt>0</asrwt>
<pdfrwt beam="1">  1        2 0.22133302E-01 0.36942538E+03</pdfrwt>
<pdfrwt beam="2">  1       -2 0.36485520E-01 0.36942538E+03</pdfrwt>
<totfact> 0.17652722E+03</totfact>
</mgrwt>
</event>
<event>
 4    1  0.1807309E-004  0.3007039E+03  0.7818608E-02  0.1084889E+00
         -2   -1    0    0    0  501 -0.00000000000E+00  0.00000000000E+00  0.47284198708E+02  0.47284198708E+02  0.00000000000E+00 0. -1.
          2   -1    0    0  501    0  0.00000000000E+00 -0.00000000000E+00 -0.47808183050E+03  0.47808183050E+03  0.00000000000E+00 0. -1.
         25    1    1    2    0    0  0.50688337335E+02 -0.73847293058E+02 -0.23903252211E+03  0.28206254069E+03  0.12000000000E+03 0.  0.
         25    1    1    2    0    0 -0.50688337335E+02  0.73847293058E+02 -0.19176510968E+03  0.24330348851E+03  0.12000000000E+03 0.  0.
<mgrwt>
<rscale>  0 0.30070395E+03</rscale>
<asrwt>0</asrwt>
<pdfrwt beam="1">  1        2 0.73551047E-01 0.30070395E+03</pdfrwt>
<pdfrwt beam="2">  1       -2 0.72744925E-02 0.30070395E+03</pdfrwt>
<totfact> 0.71750696E+03</totfact>
</mgrwt>
</event>
<event>
 4    1  0.1807309E-004  0.2553808E+03  0.7818608E-02  0.1109951E+00
         -2   -1    0    0    0  501 -0.00000000000E+00  0.00000000000E+00  0.51932739342E+01  0.51932739342E+01  0.00000000000E+00 0.  1.
          2   -1    0    0  501    0  0.00000000000E+00 -0.00000000000E+00 -0.31396068726E+04  0.31396068726E+04  0.00000000000E+00 0.  1.
         25    1    1    2    0    0  0.21133645465E+01 -0.12789967857E+02 -0.10540166310E+04  0.10609048535E+04  0.12000000000E+03 0.  0.
         25    1    1    2    0    0 -0.21133645465E+01  0.12789967857E+02 -0.20803969676E+04  0.20838952930E+04  0.12000000000E+03 0.  0.
<mgrwt>
<rscale>  0 0.25538080E+03</rscale>
<asrwt>0</asrwt>
<pdfrwt beam="1">  1        2 0.48301678E+00 0.25538080E+03</pdfrwt>
<pdfrwt beam="2">  1       -2 0.79896467E-03 0.25538080E+03</pdfrwt>
<totfact> 0.50782840E+03</totfact>
</mgrwt>
</event>
<event>
 4    1  0.1807309E-004  0.3383133E+03  0.7818608E-02  0.1067517E+00
         -1   -1    0    0    0  501 -0.00000000000E+00  0.00000000000E+00  0.19284688219E+03  0.19284688219E+03  0.00000000000E+00 0. -1.
          1   -1    0    0  501    0  0.00000000000E+00 -0.00000000000E+00 -0.14837660523E+03  0.14837660523E+03  0.00000000000E+00 0. -1.
         25    1    1    2    0    0  0.17110998877E+02  0.28097467630E+02  0.13781457313E+03  0.18567474394E+03  0.12000000000E+03 0.  0.
         25    1    1    2    0    0 -0.17110998877E+02 -0.28097467630E+02 -0.93344296170E+02  0.15554874348E+03  0.12000000000E+03 0.  0.
<mgrwt>
<rscale>  0 0.33831326E+03</rscale>
<asrwt>0</asrwt>
<pdfrwt beam="1">  1        1 0.22827170E-01 0.33831326E+03</pdfrwt>
<pdfrwt beam="2">  1       -1 0.29668751E-01 0.33831326E+03</pdfrwt>
<totfact> 0.22463781E+03</totfact>
</mgrwt>
</event>
<event>
 4    1  0.1807309E-004  0.2633422E+03  0.7818608E-02  0.1105152E+00
         -2   -1    0    0    0  501 -0.00000000000E+00  0.00000000000E+00  0.28989671939E+02  0.28989671939E+02  0.00000000000E+00 0. -1.
          2   -1    0    0  501    0  0.00000000000E+00 -0.00000000000E+00 -0.59805023429E+03  0.59805023429E+03  0.00000000000E+00 0. -1.
         25    1    1    2    0    0  0.98090231119E+01  0.29781219111E+02 -0.38978771526E+03  0.40904474195E+03  0.12000000000E+03 0.  0.
         25    1    1    2    0    0 -0.98090231119E+01 -0.29781219111E+02 -0.17927284709E+03  0.21799516428E+03  0.12000000000E+03 0.  0.
<mgrwt>
<rscale>  0 0.26334221E+03</rscale>
<asrwt>0</asrwt>
<pdfrwt beam="1">  1        2 0.92007719E-01 0.26334221E+03</pdfrwt>
<pdfrwt beam="2">  1       -2 0.44599500E-02 0.26334221E+03</pdfrwt>
<totfact> 0.11718501E+04</totfact>
</mgrwt>
</event>
<event>
 4    1  0.1807309E-004  0.2566077E+03  0.7818608E-02  0.1109199E+00
         -1   -1    0    0    0  501 -0.00000000000E+00  0.00000000000E+00  0.31337484930E+02  0.31337484930E+02  0.00000000000E+00 0. -1.
          1   -1    0    0  501    0  0.00000000000E+00 -0.00000000000E+00 -0.52530927913E+03  0.52530927913E+03  0.00000000000E+00 0. -1.
         25    1    1    2    0    0  0.17624669583E+02  0.21388328766E+02 -0.16895966312E+03  0.20908241759E+03  0.12000000000E+03 0.  0.
         25    1    1    2    0    0 -0.17624669583E+02 -0.21388328766E+02 -0.32501213108E+03  0.34756434646E+03  0.12000000000E+03 0.  0.
<mgrwt>
<rscale>  0 0.25660765E+03</rscale>
<asrwt>0</asrwt>
<pdfrwt beam="1">  1        1 0.80816808E-01 0.25660765E+03</pdfrwt>
<pdfrwt beam="2">  1       -1 0.48211518E-02 0.25660765E+03</pdfrwt>
<totfact> 0.77913364E+03</totfact>
</mgrwt>
</event>
<event>
 4    1  0.1807309E-004  0.3314475E+03  0.7818608E-02  0.1070498E+00
         -2   -1    0    0    0  501 -0.00000000000E+00  0.00000000000E+00  0.20681221107E+02  0.20681221107E+02  0.00000000000E+00 0.  1.
          2   -1    0    0  501    0  0.00000000000E+00 -0.00000000000E+00 -0.13279855943E+04  0.13279855943E+04  0.00000000000E+00 0.  1.
         25    1    1    2    0    0 -0.73650069138E+02  0.80267439839E+02 -0.51286353213E+03  0.53786261924E+03  0.12000000000E+03 0.  0.
         25    1    1    2    0    0  0.73650069138E+02 -0.80267439839E+02 -0.79444084111E+03  0.81080419622E+03  0.12000000000E+03 0.  0.
<mgrwt>
<rscale>  0 0.33144751E+03</rscale>
<asrwt>0</asrwt>
<pdfrwt beam="1">  1        2 0.20430547E+00 0.33144751E+03</pdfrwt>
<pdfrwt beam="2">  1       -2 0.31817264E-02 0.33144751E+03</pdfrwt>
<totfact> 0.65870465E+03</totfact>
</mgrwt>
</event>
<event>
 4    1  0.1807309E-004  0.3218990E+03  0.7818608E-02  0.1074779E+00
          2   -1    0    0  501    0  0.00000000000E+00  0.00000000000E+00  0.23746266201E+03  0.23746266201E+03  0.00000000000E+00 0.  1.
         -2   -1    0    0    0  501 -0.00000000000E+00 -0.00000000000E+00 -0.10908975595E+03  0.10908975595E+03  0.00000000000E+00 0.  1.
         25    1    1    2    0    0  0.93528531028E+02 -0.27931282160E+02  0.11205527655E+03  0.19100818737E+03  0.12000000000E+03 0.  0.
         25    1    1    2    0    0 -0.93528531028E+02  0.27931282160E+02  0.16317629515E+02  0.15554423060E+03  0.12000000000E+03 0.  0.
<mgrwt>
<rscale>  0 0.32189901E+03</rscale>
<asrwt>0</asrwt>
<pdfrwt beam="1">  1        2 0.36532717E-01 0.32189901E+03</pdfrwt>
<pdfrwt beam="2">  1       -2 0.16783039E-01 0.32189901E+03</pdfrwt>
<totfact> 0.40036338E+03</totfact>
</mgrwt>
</event>
<event>
 4    1  0.1807309E-004  0.2918880E+03  0.7818608E-02  0.1089367E+00
         -2   -1    0    0    0  501 -0.00000000000E+00  0.00000000000E+00  0.30347622813E+02  0.30347622813E+02  0.00000000000E+00 0. -1.
          2   -1    0    0  501    0  0.00000000000E+00 -0.00000000000E+00 -0.70185582813E+03  0.70185582813E+03  0.00000000000E+00 0. -1.
         25    1    1    2    0    0  0.29731551003E+02  0.59801437012E+02 -0.45965202364E+03  0.47972925680E+03  0.12000000000E+03 0.  0.
         25    1    1    2    0    0 -0.29731551003E+02 -0.59801437012E+02 -0.21185618168E+03  0.25247419415E+03  0.12000000000E+03 0.  0.
<mgrwt>
<rscale>  0 0.29188803E+03</rscale>
<asrwt>0</asrwt>
<pdfrwt beam="1">  1        2 0.10797782E+00 0.29188803E+03</pdfrwt>
<pdfrwt beam="2">  1       -2 0.46688651E-02 0.29188803E+03</pdfrwt>
<totfact> 0.90761900E+03</totfact>
</mgrwt>
</event>
<event>
 4    1  0.1807309E-004  0.2869894E+03  0.7818608E-02  0.1091932E+00
         -2   -1    0    0    0  501 -0.00000000000E+00  0.00000000000E+00  0.10523424505E+03  0.10523424505E+03  0.00000000000E+00 0. -1.
          2   -1    0    0  501    0  0.00000000000E+00 -0.00000000000E+00 -0.19566565724E+03  0.19566565724E+03  0.00000000000E+00 0. -1.
         25    1    1    2    0    0  0.74483369854E+00  0.14338435891E+02  0.35894054854E+02  0.12607350513E+03  0.12000000000E+03 0.  0.
         25    1    1    2    0    0 -0.74483369854E+00 -0.14338435891E+02 -0.12632546704E+03  0.17482639716E+03  0.12000000000E+03 0.  0.
<mgrwt>
<rscale>  0 0.28698939E+03</rscale>
<asrwt>0</asrwt>
<pdfrwt beam="1">  1        2 0.30102409E-01 0.28698939E+03</pdfrwt>
<pdfrwt beam="2">  1       -2 0.16189884E-01 0.28698939E+03</pdfrwt>
<totfact> 0.52375752E+03</totfact>
</mgrwt>
</event>
<event>
 4    1  0.1807309E-004  0.5651505E+03  0.7818608E-02  0.9980468E-01
         -1   -1    0    0    0  501 -0.00000000000E+00  0.00000000000E+00  0.77461923059E+02  0.77461923059E+02  0.00000000000E+00 0. -1.
          1   -1    0    0  501    0  0.00000000000E+00 -0.00000000000E+00 -0.10308133222E+04  0.10308133222E+04  0.00000000000E+00 0. -1.
         25    1    1    2    0    0 -0.15978551958E+03 -0.75455805249E+02 -0.11389218081E+03  0.24206697351E+03  0.12000000000E+03 0.  0.
         25    1    1    2    0    0  0.15978551958E+03  0.75455805249E+02 -0.83945921837E+03  0.86620827179E+03  0.12000000000E+03 0.  0.
<mgrwt>
<rscale>  0 0.56515054E+03</rscale>
<asrwt>0</asrwt>
<pdfrwt beam="1">  1        1 0.15858665E+00 0.56515054E+03</pdfrwt>
<pdfrwt beam="2">  1       -1 0.11917220E-01 0.56515054E+03</pdfrwt>
<totfact> 0.69374179E+02</totfact>
</mgrwt>
</event>
<event>
 4    1  0.1807309E-004  0.3384217E+03  0.7818608E-02  0.1067470E+00
         -3   -1    0    0    0  501 -0.00000000000E+00  0.00000000000E+00  0.27530264601E+02  0.27530264601E+02  0.00000000000E+00 0.  1.
          3   -1    0    0  501    0  0.00000000000E+00 -0.00000000000E+00 -0.10400302415E+04  0.10400302415E+04  0.00000000000E+00 0.  1.
         25    1    1    2    0    0  0.35625126173E+02 -0.34218784796E+02 -0.84880659722E+03  0.85866915301E+03  0.12000000000E+03 0.  0.
         25    1    1    2    0    0 -0.35625126173E+02  0.34218784796E+02 -0.16369337970E+03  0.20889135312E+03  0.12000000000E+03 0.  0.
<mgrwt>
<rscale>  0 0.33842168E+03</rscale>
<asrwt>0</asrwt>
<pdfrwt beam="1">  1        3 0.16000463E+00 0.33842168E+03</pdfrwt>
<pdfrwt beam="2">  1       -3 0.42354259E-02 0.33842168E+03</pdfrwt>
<totfact> 0.22185238E+02</totfact>
</mgrwt>
</event>
<event>
 4    1  0.1807309E-004  0.2596836E+03  0.7818608E-02  0.1107333E+00
          2   -1    0    0  501    0  0.00000000000E+00  0.00000000000E+00  0.49624137034E+03  0.49624137034E+03  0.00000000000E+00 0.  1.
         -2   -1    0    0    0  501 -0.00000000000E+00 -0.00000000000E+00 -0.33973172758E+02  0.33973172758E+02  0.00000000000E+00 0.  1.
         25    1    1    2    0    0 -0.39599581303E+02  0.76359790432E+01  0.29004402437E+03  0.31646796218E+03  0.12000000000E+03 0.  0.
         25    1    1    2    0    0  0.39599581303E+02 -0.76359790432E+01  0.17222417322E+03  0.21374658092E+03  0.12000000000E+03 0.  0.
<mgrwt>
<rscale>  0 0.25968361E+03</rscale>
<asrwt>0</asrwt>
<pdfrwt beam="1">  1        2 0.76344821E-01 0.25968361E+03</pdfrwt>
<pdfrwt beam="2">  1       -2 0.52266423E-02 0.25968361E+03</pdfrwt>
<totfact> 0.11382482E+04</totfact>
</mgrwt>
</event>
<event>
 4    1  0.1807309E-004  0.3125700E+03  0.7818608E-02  0.1079121E+00
          1   -1    0    0  501    0  0.00000000000E+00  0.00000000000E+00  0.25153707132E+03  0.25153707132E+03  0.00000000000E+00 0.  1.
         -1   -1    0    0    0  501 -0.00000000000E+00 -0.00000000000E+00 -0.97102996954E+02  0.97102996954E+02  0.00000000000E+00 0.  1.
         25    1    1    2    0    0 -0.98018963003E+02  0.19945423918E+02  0.82138260886E+02  0.17649994602E+03  0.12000000000E+03 0.  0.
         25    1    1    2    0    0  0.98018963003E+02 -0.19945423918E+02  0.72295813481E+02  0.17214012226E+03  0.12000000000E+03 0.  0.
<mgrwt>
<rscale>  0 0.31257001E+03</rscale>
<asrwt>0</asrwt>
<pdfrwt beam="1">  1        1 0.38698011E-01 0.31257001E+03</pdfrwt>
<pdfrwt beam="2">  1       -1 0.14938923E-01 0.31257001E+03</pdfrwt>
<totfact> 0.35429437E+03</totfact>
</mgrwt>
</event>
<event>
 4    1  0.1807309E-004  0.2688922E+03  0.7818608E-02  0.1101915E+00
         -2   -1    0    0    0  501 -0.00000000000E+00  0.00000000000E+00  0.24180239230E+02  0.24180239230E+02  0.00000000000E+00 0.  1.
          2   -1    0    0  501    0  0.00000000000E+00 -0.00000000000E+00 -0.74754256221E+03  0.74754256221E+03  0.00000000000E+00 0.  1.
         25    1    1    2    0    0  0.71266241907E+01 -0.33426965682E+02 -0.21796261047E+03  0.25114906006E+03  0.12000000000E+03 0.  0.
         25    1    1    2    0    0 -0.71266241907E+01  0.33426965682E+02 -0.50539971251E+03  0.52057374138E+03  0.12000000000E+03 0.  0.
<mgrwt>
<rscale>  0 0.26889223E+03</rscale>
<asrwt>0</asrwt>
<pdfrwt beam="1">  1        2 0.11500653E+00 0.26889223E+03</pdfrwt>
<pdfrwt beam="2">  1       -2 0.37200372E-02 0.26889223E+03</pdfrwt>
<totfact> 0.11798083E+04</totfact>
</mgrwt>
</event>
<event>
 4    1  0.1807309E-004  0.2719814E+03  0.7818608E-02  0.1100151E+00
          2   -1    0    0  501    0  0.00000000000E+00  0.00000000000E+00  0.57157602568E+03  0.57157602568E+03  0.00000000000E+00 0.  1.
         -2   -1    0    0    0  501 -0.00000000000E+00 -0.00000000000E+00 -0.32355234009E+02  0.32355234009E+02  0.00000000000E+00 0.  1.
         25    1    1    2    0    0  0.56381319257E+01  0.55837590472E+02  0.20139224162E+03  0.24105696428E+03  0.12000000000E+03 0.  0.
         25    1    1    2    0    0 -0.56381319257E+01 -0.55837590472E+02  0.33782855005E+03  0.36287429541E+03  0.12000000000E+03 0.  0.
<mgrwt>
<rscale>  0 0.27198144E+03</rscale>
<asrwt>0</asrwt>
<pdfrwt beam="1">  1        2 0.87934766E-01 0.27198144E+03</pdfrwt>
<pdfrwt beam="2">  1       -2 0.49777287E-02 0.27198144E+03</pdfrwt>
<totfact> 0.10468100E+04</totfact>
</mgrwt>
</event>
<event>
 4    1  0.1807309E-004  0.2696795E+03  0.7818608E-02  0.1101463E+00
         -2   -1    0    0    0  501 -0.00000000000E+00  0.00000000000E+00  0.23336411868E+02  0.23336411868E+02  0.00000000000E+00 0. -1.
          2   -1    0    0  501    0  0.00000000000E+00 -0.00000000000E+00 -0.77911516085E+03  0.77911516085E+03  0.00000000000E+00 0. -1.
         25    1    1    2    0    0 -0.65906298779E+01  0.58851534420E+02 -0.42721691158E+03  0.44768429618E+03  0.12000000000E+03 0.  0.
         25    1    1    2    0    0  0.65906298779E+01 -0.58851534420E+02 -0.32856183740E+03  0.35476727654E+03  0.12000000000E+03 0.  0.
<mgrwt>
<rscale>  0 0.26967946E+03</rscale>
<asrwt>0</asrwt>
<pdfrwt beam="1">  1        2 0.11986387E+00 0.26967946E+03</pdfrwt>
<pdfrwt beam="2">  1       -2 0.35902173E-02 0.26967946E+03</pdfrwt>
<totfact> 0.11817502E+04</totfact>
</mgrwt>
</event>
<event>
 4    1  0.1807309E-004  0.2471807E+03  0.7818608E-02  0.1115100E+00
          2   -1    0    0  501    0  0.00000000000E+00  0.00000000000E+00  0.57416165172E+03  0.57416165172E+03  0.00000000000E+00 0. -1.
         -2   -1    0    0    0  501 -0.00000000000E+00 -0.00000000000E+00 -0.26603259734E+02  0.26603259734E+02  0.00000000000E+00 0. -1.
         25    1    1    2    0    0  0.70717294670E+01  0.49477280368E+00  0.20399818191E+03  0.23678157103E+03  0.12000000000E+03 0.  0.
         25    1    1    2    0    0 -0.70717294670E+01 -0.49477280368E+00  0.34356021007E+03  0.36398334042E+03  0.12000000000E+03 0.  0.
<mgrwt>
<rscale>  0 0.24718068E+03</rscale>
<asrwt>0</asrwt>
<pdfrwt beam="1">  1        2 0.88332553E-01 0.24718068E+03</pdfrwt>
<pdfrwt beam="2">  1       -2 0.40928096E-02 0.24718068E+03</pdfrwt>
<totfact> 0.13939602E+04</totfact>
</mgrwt>
</event>
<event>
 4    1  0.1807309E-004  0.2598867E+03  0.7818608E-02  0.1107211E+00
         -1   -1    0    0    0  501 -0.00000000000E+00  0.00000000000E+00  0.68079699416E+01  0.68079699416E+01  0.00000000000E+00 0.  1.
          1   -1    0    0  501    0  0.00000000000E+00 -0.00000000000E+00 -0.24802225513E+04  0.24802225513E+04  0.00000000000E+00 0.  1.
         25    1    1    2    0    0  0.10733237753E+02 -0.27924977249E+02 -0.85508570237E+03  0.86398296577E+03  0.12000000000E+03 0.  0.
         25    1    1    2    0    0 -0.10733237753E+02  0.27924977249E+02 -0.16183288789E+04  0.16230475554E+04  0.12000000000E+03 0.  0.
<mgrwt>
<rscale>  0 0.25988675E+03</rscale>
<asrwt>0</asrwt>
<pdfrwt beam="1">  1        1 0.38157314E+00 0.25988675E+03</pdfrwt>
<pdfrwt beam="2">  1       -1 0.10473788E-02 0.25988675E+03</pdfrwt>
<totfact> 0.28766297E+03</totfact>
</mgrwt>
</event>
<event>
 4    1  0.1807309E-004  0.2656712E+03  0.7818608E-02  0.1103783E+00
         -2   -1    0    0    0  501 -0.00000000000E+00  0.00000000000E+00  0.17596197774E+02  0.17596197774E+02  0.00000000000E+00 0.  1.
          2   -1    0    0  501    0  0.00000000000E+00 -0.00000000000E+00 -0.10027901930E+04  0.10027901930E+04  0.00000000000E+00 0.  1.
         25    1    1    2    0    0 -0.72595490056E+01  0.27671655201E+02 -0.30338715196E+03  0.32750906175E+03  0.12000000000E+03 0.  0.
         25    1    1    2    0    0  0.72595490056E+01 -0.27671655201E+02 -0.68180684329E+03  0.69287732905E+03  0.12000000000E+03 0.  0.
<mgrwt>
<rscale>  0 0.26567118E+03</rscale>
<asrwt>0</asrwt>
<pdfrwt beam="1">  1        2 0.15427545E+00 0.26567118E+03</pdfrwt>
<pdfrwt beam="2">  1       -2 0.27071067E-02 0.26567118E+03</pdfrwt>
<totfact> 0.12859384E+04</totfact>
</mgrwt>
</event>
<event>
 4    1  0.1807309E-004  0.4675107E+03  0.7818608E-02  0.1022625E+00
          3   -1    0    0  501    0  0.00000000000E+00  0.00000000000E+00  0.94331591423E+02  0.94331591423E+02  0.00000000000E+00 0.  1.
         -3   -1    0    0    0  501 -0.00000000000E+00 -0.00000000000E+00 -0.57924981311E+03  0.57924981311E+03  0.00000000000E+00 0.  1.
         25    1    1    2    0    0  0.78896488038E+02 -0.18354480913E+03 -0.21635731167E+03  0.31799974701E+03  0.12000000000E+03 0.  0.
         25    1    1    2    0    0 -0.78896488038E+02  0.18354480913E+03 -0.26856091001E+03  0.35558165753E+03  0.12000000000E+03 0.  0.
<mgrwt>
<rscale>  0 0.46751067E+03</rscale>
<asrwt>0</asrwt>
<pdfrwt beam="1">  1        3 0.14512553E-01 0.46751067E+03</pdfrwt>
<pdfrwt beam="2">  1       -3 0.89115355E-01 0.46751067E+03</pdfrwt>
<totfact> 0.12018261E+02</totfact>
</mgrwt>
</event>
<event>
 4    1  0.1807309E-004  0.2792776E+03  0.7818608E-02  0.1096084E+00
         -2   -1    0    0    0  501 -0.00000000000E+00  0.00000000000E+00  0.11798856074E+02  0.11798856074E+02  0.00000000000E+00 0.  1.
          2   -1    0    0  501    0  0.00000000000E+00 -0.00000000000E+00 -0.16526170453E+04  0.16526170453E+04  0.00000000000E+00 0.  1.
         25    1    1    2    0    0 -0.28192821423E+02  0.10754619295E+02 -0.43470457716E+03  0.45197186464E+03  0.12000000000E+03 0.  0.
         25    1    1    2    0    0  0.28192821423E+02 -0.10754619295E+02 -0.12061136120E+04  0.12124440367E+04  0.12000000000E+03 0.  0.
<mgrwt>
<rscale>  0 0.27927757E+03</rscale>
<asrwt>0</asrwt>
<pdfrwt beam="1">  1        2 0.25424899E+00 0.27927757E+03</pdfrwt>
<pdfrwt beam="2">  1       -2 0.18152071E-02 0.27927757E+03</pdfrwt>
<totfact> 0.10094740E+04</totfact>
</mgrwt>
</event>
<event>
 4    1  0.1807309E-004  0.2690355E+03  0.7818608E-02  0.1101833E+00
         -2   -1    0    0    0  501 -0.00000000000E+00  0.00000000000E+00  0.11056211336E+02  0.11056211336E+02  0.00000000000E+00 0.  1.
          2   -1    0    0  501    0  0.00000000000E+00 -0.00000000000E+00 -0.16366392844E+04  0.16366392844E+04  0.00000000000E+00 0.  1.
         25    1    1    2    0    0  0.40434341442E+02  0.21049950754E+02 -0.10590671633E+04  0.10668183035E+04  0.12000000000E+03 0.  0.
         25    1    1    2    0    0 -0.40434341442E+02 -0.21049950754E+02 -0.56651590977E+03  0.58087719220E+03  0.12000000000E+03 0.  0.
<mgrwt>
<rscale>  0 0.26903554E+03</rscale>
<asrwt>0</asrwt>
<pdfrwt beam="1">  1        2 0.25179077E+00 0.26903554E+03</pdfrwt>
<pdfrwt beam="2">  1       -2 0.17009549E-02 0.26903554E+03</pdfrwt>
<totfact> 0.11315154E+04</totfact>
</mgrwt>
</event>
<event>
 4    1  0.1807309E-004  0.2517409E+03  0.7818608E-02  0.1112210E+00
          1   -1    0    0  501    0  0.00000000000E+00  0.00000000000E+00  0.79623900386E+03  0.79623900386E+03  0.00000000000E+00 0.  1.
         -1   -1    0    0    0  501 -0.00000000000E+00 -0.00000000000E+00 -0.19897754882E+02  0.19897754882E+02  0.00000000000E+00 0.  1.
         25    1    1    2    0    0  0.16105304643E+02  0.29216532625E+02  0.32924322023E+03  0.35201432455E+03  0.12000000000E+03 0.  0.
         25    1    1    2    0    0 -0.16105304643E+02 -0.29216532625E+02  0.44709802874E+03  0.46412243419E+03  0.12000000000E+03 0.  0.
<mgrwt>
<rscale>  0 0.25174089E+03</rscale>
<asrwt>0</asrwt>
<pdfrwt beam="1">  1        1 0.12249828E+00 0.25174089E+03</pdfrwt>
<pdfrwt beam="2">  1       -1 0.30611937E-02 0.25174089E+03</pdfrwt>
<totfact> 0.84483346E+03</totfact>
</mgrwt>
</event>
<event>
 4    1  0.1807309E-004  0.2965627E+03  0.7818608E-02  0.1086972E+00
         -1   -1    0    0    0  501 -0.00000000000E+00  0.00000000000E+00  0.75878542332E+02  0.75878542332E+02  0.00000000000E+00 0. -1.
          1   -1    0    0  501    0  0.00000000000E+00 -0.00000000000E+00 -0.28977038869E+03  0.28977038869E+03  0.00000000000E+00 0. -1.
         25    1    1    2    0    0 -0.60261350809E+02  0.53951366291E+02 -0.14680637330E+03  0.20614143583E+03  0.12000000000E+03 0.  0.
         25    1    1    2    0    0  0.60261350809E+02 -0.53951366291E+02 -0.67085473059E+02  0.15950749519E+03  0.12000000000E+03 0.  0.
<mgrwt>
<rscale>  0 0.29656267E+03</rscale>
<asrwt>0</asrwt>
<pdfrwt beam="1">  1        1 0.44580060E-01 0.29656267E+03</pdfrwt>
<pdfrwt beam="2">  1       -1 0.11673622E-01 0.29656267E+03</pdfrwt>
<totfact> 0.43684812E+03</totfact>
</mgrwt>
</event>
<event>
 4    1  0.1807309E-004  0.4281609E+03  0.7818608E-02  0.1034442E+00
         -1   -1    0    0    0  501 -0.00000000000E+00  0.00000000000E+00  0.54146729855E+02  0.54146729855E+02  0.00000000000E+00 0. -1.
          1   -1    0    0  501    0  0.00000000000E+00 -0.00000000000E+00 -0.84641201818E+03  0.84641201818E+03  0.00000000000E+00 0. -1.
         25    1    1    2    0    0 -0.17057869965E+03  0.48955784117E+01 -0.29505547982E+03  0.36135688126E+03  0.12000000000E+03 0.  0.
         25    1    1    2    0    0  0.17057869965E+03 -0.48955784117E+01 -0.49720980850E+03  0.53920186678E+03  0.12000000000E+03 0.  0.
<mgrwt>
<rscale>  0 0.42816092E+03</rscale>
<asrwt>0</asrwt>
<pdfrwt beam="1">  1        1 0.13021724E+00 0.42816092E+03</pdfrwt>
<pdfrwt beam="2">  1       -1 0.83302657E-02 0.42816092E+03</pdfrwt>
<totfact> 0.17080216E+03</totfact>
</mgrwt>
</event>
<event>
 4    1  0.1807309E-004  0.2914574E+03  0.7818608E-02  0.1089591E+00
          4   -1    0    0  501    0  0.00000000000E+00  0.00000000000E+00  0.16960665817E+03  0.16960665817E+03  0.00000000000E+00 0.  1.
         -4   -1    0    0    0  501 -0.00000000000E+00 -0.00000000000E+00 -0.12521236979E+03  0.12521236979E+03  0.00000000000E+00 0.  1.
         25    1    1    2    0    0 -0.82539379391E+02  0.43113390024E+01  0.24572592796E+02  0.14776721257E+03  0.12000000000E+03 0.  0.
         25    1    1    2    0    0  0.82539379391E+02 -0.43113390024E+01  0.19821695576E+02  0.14705181539E+03  0.12000000000E+03 0.  0.
<mgrwt>
<rscale>  0 0.29145738E+03</rscale>
<asrwt>0</asrwt>
<pdfrwt beam="1">  1        4 0.26093332E-01 0.29145738E+03</pdfrwt>
<pdfrwt beam="2">  1       -4 0.19263441E-01 0.29145738E+03</pdfrwt>
<totfact> 0.63091823E+02</totfact>
</mgrwt>
</event>
<event>
 4    1  0.1807309E-004  0.3014526E+03  0.7818608E-02  0.1084517E+00
          2   -1    0    0  501    0  0.00000000000E+00  0.00000000000E+00  0.67929238022E+03  0.67929238022E+03  0.00000000000E+00 0. -1.
         -2   -1    0    0    0  501 -0.00000000000E+00 -0.00000000000E+00 -0.33444233578E+02  0.33444233578E+02  0.00000000000E+00 0. -1.
         25    1    1    2    0    0 -0.74889895314E+02 -0.50536871650E+02  0.29339903051E+03  0.32961411214E+03  0.12000000000E+03 0.  0.
         25    1    1    2    0    0  0.74889895314E+02  0.50536871650E+02  0.35244911613E+03  0.38312250165E+03  0.12000000000E+03 0.  0.
<mgrwt>
<rscale>  0 0.30145257E+03</rscale>
<asrwt>0</asrwt>
<pdfrwt beam="1">  1        2 0.10450651E+00 0.30145257E+03</pdfrwt>
<pdfrwt beam="2">  1       -2 0.51452672E-02 0.30145257E+03</pdfrwt>
<totfact> 0.81531985E+03</totfact>
</mgrwt>
</event>
<event>
 4    1  0.1807309E-004  0.2581077E+03  0.7818608E-02  0.1108286E+00
         -2   -1    0    0    0  501 -0.00000000000E+00  0.00000000000E+00  0.91660464825E+02  0.91660464825E+02  0.00000000000E+00 0.  1.
          2   -1    0    0  501    0  0.00000000000E+00 -0.00000000000E+00 -0.18170208277E+03  0.18170208277E+03  0.00000000000E+00 0.  1.
         25    1    1    2    0    0  0.85744910986E+01  0.38362239693E+02 -0.73235788138E+02  0.14597487454E+03  0.12000000000E+03 0.  0.
         25    1    1    2    0    0 -0.85744910986E+01 -0.38362239693E+02 -0.16805829809E+02  0.12738767306E+03  0.12000000000E+03 0.  0.
<mgrwt>
<rscale>  0 0.25810771E+03</rscale>
<asrwt>0</asrwt>
<pdfrwt beam="1">  1        2 0.27954167E-01 0.25810771E+03</pdfrwt>
<pdfrwt beam="2">  1       -2 0.14101610E-01 0.25810771E+03</pdfrwt>
<totfact> 0.71118571E+03</totfact>
</mgrwt>
</event>
<event>
 4    1  0.1807309E-004  0.2792489E+03  0.7818608E-02  0.1096100E+00
          1   -1    0    0  501    0  0.00000000000E+00  0.00000000000E+00  0.31325532437E+03  0.31325532437E+03  0.00000000000E+00 0.  1.
         -1   -1    0    0    0  501 -0.00000000000E+00 -0.00000000000E+00 -0.62233519349E+02  0.62233519349E+02  0.00000000000E+00 0.  1.
         25    1    1    2    0    0  0.16804134122E+01 -0.64869776767E+02  0.16549146044E+03  0.21447222479E+03  0.12000000000E+03 0.  0.
         25    1    1    2    0    0 -0.16804134122E+01  0.64869776767E+02  0.85530344575E+02  0.16101661893E+03  0.12000000000E+03 0.  0.
<mgrwt>
<rscale>  0 0.27924886E+03</rscale>
<asrwt>0</asrwt>
<pdfrwt beam="1">  1        1 0.48193126E-01 0.27924886E+03</pdfrwt>
<pdfrwt beam="2">  1       -1 0.95743878E-02 0.27924886E+03</pdfrwt>
<totfact> 0.53779703E+03</totfact>
</mgrwt>
</event>
<event>
 4    1  0.1807309E-004  0.2868416E+03  0.7818608E-02  0.1092010E+00
          2   -1    0    0  501    0  0.00000000000E+00  0.00000000000E+00  0.91331060007E+03  0.91331060007E+03  0.00000000000E+00 0.  1.
         -2   -1    0    0    0  501 -0.00000000000E+00 -0.00000000000E+00 -0.22521934574E+02  0.22521934574E+02  0.00000000000E+00 0.  1.
         25    1    1    2    0    0  0.16308859803E+02  0.47560042620E+02  0.24851448022E+03  0.28051271529E+03  0.12000000000E+03 0.  0.
         25    1    1    2    0    0 -0.16308859803E+02 -0.47560042620E+02  0.64227418528E+03  0.65531981935E+03  0.12000000000E+03 0.  0.
<mgrwt>
<rscale>  0 0.28684157E+03</rscale>
<asrwt>0</asrwt>
<pdfrwt beam="1">  1        2 0.14050929E+00 0.28684157E+03</pdfrwt>
<pdfrwt beam="2">  1       -2 0.34649137E-02 0.28684157E+03</pdfrwt>
<totfact> 0.10153463E+04</totfact>
</mgrwt>
</event>
<event>
 4    1  0.1807309E-004  0.3568027E+03  0.7818608E-02  0.1059857E+00
          2   -1    0    0  501    0  0.00000000000E+00  0.00000000000E+00  0.34069625062E+03  0.34069625062E+03  0.00000000000E+00 0. -1.
         -2   -1    0    0    0  501 -0.00000000000E+00 -0.00000000000E+00 -0.93417649572E+02  0.93417649572E+02  0.00000000000E+00 0. -1.
         25    1    1    2    0    0  0.64661319850E+02 -0.31367100365E+02  0.25836712574E+03  0.29380019220E+03  0.12000000000E+03 0.  0.
         25    1    1    2    0    0 -0.64661319850E+02  0.31367100365E+02 -0.11088524700E+02  0.14031370799E+03  0.12000000000E+03 0.  0.
<mgrwt>
<rscale>  0 0.35680271E+03</rscale>
<asrwt>0</asrwt>
<pdfrwt beam="1">  1        2 0.52414807E-01 0.35680271E+03</pdfrwt>
<pdfrwt beam="2">  1       -2 0.14371946E-01 0.35680271E+03</pdfrwt>
<totfact> 0.35123938E+03</totfact>
</mgrwt>
</event>
<event>
 4    1  0.1807309E-004  0.2538129E+03  0.7818608E-02  0.1110919E+00
          4   -1    0    0  501    0  0.00000000000E+00  0.00000000000E+00  0.16901193624E+03  0.16901193624E+03  0.00000000000E+00 0.  1.
         -4   -1    0    0    0  501 -0.00000000000E+00 -0.00000000000E+00 -0.95290572891E+02  0.95290572891E+02  0.00000000000E+00 0.  1.
         25    1    1    2    0    0 -0.17058588164E+01 -0.43664781591E+01  0.79583931923E+02  0.14406796419E+03  0.12000000000E+03 0.  0.
         25    1    1    2    0    0  0.17058588164E+01  0.43664781591E+01 -0.58625685767E+01  0.12023454494E+03  0.12000000000E+03 0.  0.
<mgrwt>
<rscale>  0 0.25381288E+03</rscale>
<asrwt>0</asrwt>
<pdfrwt beam="1">  1        4 0.26001836E-01 0.25381288E+03</pdfrwt>
<pdfrwt beam="2">  1       -4 0.14660088E-01 0.25381288E+03</pdfrwt>
<totfact> 0.10133512E+03</totfact>
</mgrwt>
</event>
<event>
 4    1  0.1807309E-004  0.2526434E+03  0.7818608E-02  0.1111646E+00
         -2   -1    0    0    0  501 -0.00000000000E+00  0.00000000000E+00  0.56763344864E+03  0.56763344864E+03  0.00000000000E+00 0.  1.
          2   -1    0    0  501    0  0.00000000000E+00 -0.00000000000E+00 -0.28111751556E+02  0.28111751556E+02  0.00000000000E+00 0.  1.
         25    1    1    2    0    0 -0.49617565366E+01  0.19882414020E+01  0.17756755985E+03  0.21438006074E+03  0.12000000000E+03 0.  0.
         25    1    1    2    0    0  0.49617565366E+01 -0.19882414020E+01  0.36195413723E+03  0.38136513945E+03  0.12000000000E+03 0.  0.
<mgrwt>
<rscale>  0 0.25264339E+03</rscale>
<asrwt>0</asrwt>
<pdfrwt beam="1">  1        2 0.43248853E-02 0.25264339E+03</pdfrwt>
<pdfrwt beam="2">  1       -2 0.87328215E-01 0.25264339E+03</pdfrwt>
<totfact> 0.22213920E+03</totfact>
</mgrwt>
</event>
<event>
 4    1  0.1807309E-004  0.2558087E+03  0.7818608E-02  0.1109688E+00
         -3   -1    0    0    0  501 -0.00000000000E+00  0.00000000000E+00  0.12521252437E+03  0.12521252437E+03  0.00000000000E+00 0. -1.
          3   -1    0    0  501    0  0.00000000000E+00 -0.00000000000E+00 -0.13065406677E+03  0.13065406677E+03  0.00000000000E+00 0. -1.
         25    1    1    2    0    0  0.35446365566E+02 -0.24521585141E+02  0.73697492208E+01  0.12771869939E+03  0.12000000000E+03 0.  0.
         25    1    1    2    0    0 -0.35446365566E+02  0.24521585141E+02 -0.12811291619E+02  0.12814789176E+03  0.12000000000E+03 0.  0.
<mgrwt>
<rscale>  0 0.25580872E+03</rscale>
<asrwt>0</asrwt>
<pdfrwt beam="1">  1        3 0.20100626E-01 0.25580872E+03</pdfrwt>
<pdfrwt beam="2">  1       -3 0.19263465E-01 0.25580872E+03</pdfrwt>
<totfact> 0.13463491E+03</totfact>
</mgrwt>
</event>
<event>
 4    1  0.1807309E-004  0.2997543E+03  0.7818608E-02  0.1085364E+00
         -1   -1    0    0    0  501 -0.00000000000E+00  0.00000000000E+00  0.89324558813E+01  0.89324558813E+01  0.00000000000E+00 0. -1.
          1   -1    0    0  501    0  0.00000000000E+00 -0.00000000000E+00 -0.25147796712E+04  0.25147796712E+04  0.00000000000E+00 0. -1.
         25    1    1    2    0    0 -0.81480635463E+02  0.11681798563E+01 -0.15704874541E+04  0.15771719317E+04  0.12000000000E+03 0.  0.
         25    1    1    2    0    0  0.81480635463E+02 -0.11681798563E+01 -0.93535976120E+03  0.94654019538E+03  0.12000000000E+03 0.  0.
<mgrwt>
<rscale>  0 0.29975429E+03</rscale>
<asrwt>0</asrwt>
<pdfrwt beam="1">  1        1 0.38688936E+00 0.29975429E+03</pdfrwt>
<pdfrwt beam="2">  1       -1 0.13742233E-02 0.29975429E+03</pdfrwt>
<totfact> 0.18349818E+03</totfact>
</mgrwt>
</event>
<event>
 4    1  0.1807309E-004  0.2718197E+03  0.7818608E-02  0.1100243E+00
         -4   -1    0    0    0  501 -0.00000000000E+00  0.00000000000E+00  0.36786423642E+03  0.36786423642E+03  0.00000000000E+00 0.  1.
          4   -1    0    0  501    0  0.00000000000E+00 -0.00000000000E+00 -0.50212788341E+02  0.50212788341E+02  0.00000000000E+00 0.  1.
         25    1    1    2    0    0 -0.51094250992E+02 -0.33221900909E+01  0.21739014253E+03  0.25353527072E+03  0.12000000000E+03 0.  0.
         25    1    1    2    0    0  0.51094250992E+02  0.33221900909E+01  0.10026130555E+03  0.16454175404E+03  0.12000000000E+03 0.  0.
<mgrwt>
<rscale>  0 0.27181971E+03</rscale>
<asrwt>0</asrwt>
<pdfrwt beam="1">  1        4 0.77250446E-02 0.27181971E+03</pdfrwt>
<pdfrwt beam="2">  1       -4 0.56594496E-01 0.27181971E+03</pdfrwt>
<totfact> 0.65712522E+02</totfact>
</mgrwt>
</event>
<event>
 4    1  0.1807309E-004  0.2743859E+03  0.7818608E-02  0.1098795E+00
         -2   -1    0    0    0  501 -0.00000000000E+00  0.00000000000E+00  0.26397366959E+02  0.26397366959E+02  0.00000000000E+00 0.  1.
          2   -1    0    0  501    0  0.00000000000E+00 -0.00000000000E+00 -0.71302229408E+03  0.71302229408E+03  0.00000000000E+00 0.  1.
         25    1    1    2    0    0 -0.15984825194E+02  0.36548181296E+02 -0.19993844500E+03  0.23657274987E+03  0.12000000000E+03 0.  0.
         25    1    1    2    0    0  0.15984825194E+02 -0.36548181296E+02 -0.48668648212E+03  0.50284691117E+03  0.12000000000E+03 0.  0.
<mgrwt>
<rscale>  0 0.27438594E+03</rscale>
<asrwt>0</asrwt>
<pdfrwt beam="1">  1        2 0.10969572E+00 0.27438594E+03</pdfrwt>
<pdfrwt beam="2">  1       -2 0.40611339E-02 0.27438594E+03</pdfrwt>
<totfact> 0.10969005E+04</totfact>
</mgrwt>
</event>
<event>
 4    1  0.1807309E-004  0.2635058E+03  0.7818608E-02  0.1105055E+00
         -1   -1    0    0    0  501 -0.00000000000E+00  0.00000000000E+00  0.74662921708E+02  0.74662921708E+02  0.00000000000E+00 0. -1.
          1   -1    0    0  501    0  0.00000000000E+00 -0.00000000000E+00 -0.23249591760E+03  0.23249591760E+03  0.00000000000E+00 0. -1.
         25    1    1    2    0    0 -0.16073104934E+02 -0.24535238253E+02 -0.13231481219E+03  0.18101804369E+03  0.12000000000E+03 0.  0.
         25    1    1    2    0    0  0.16073104934E+02  0.24535238253E+02 -0.25518183701E+02  0.12614079561E+03  0.12000000000E+03 0.  0.
<mgrwt>
<rscale>  0 0.26350578E+03</rscale>
<asrwt>0</asrwt>
<pdfrwt beam="1">  1        1 0.35768602E-01 0.26350578E+03</pdfrwt>
<pdfrwt beam="2">  1       -1 0.11486603E-01 0.26350578E+03</pdfrwt>
<totfact> 0.58861458E+03</totfact>
</mgrwt>
</event>
<event>
 4    1  0.1807309E-004  0.2679255E+03  0.7818608E-02  0.1102473E+00
         -3   -1    0    0    0  501 -0.00000000000E+00  0.00000000000E+00  0.21364902608E+03  0.21364902608E+03  0.00000000000E+00 0.  1.
          3   -1    0    0  501    0  0.00000000000E+00 -0.00000000000E+00 -0.83997663802E+02  0.83997663802E+02  0.00000000000E+00 0.  1.
         25    1    1    2    0    0  0.37725665684E+02  0.64707124951E+01  0.14148200779E+02  0.12674883651E+03  0.12000000000E+03 0.  0.
         25    1    1    2    0    0 -0.37725665684E+02 -0.64707124951E+01  0.11550316150E+03  0.17089785338E+03  0.12000000000E+03 0.  0.
<mgrwt>
<rscale>  0 0.26792551E+03</rscale>
<asrwt>0</asrwt>
<pdfrwt beam="1">  1        3 0.12922718E-01 0.26792551E+03</pdfrwt>
<pdfrwt beam="2">  1       -3 0.32869081E-01 0.26792551E+03</pdfrwt>
<totfact> 0.10991985E+03</totfact>
</mgrwt>
</event>
<event>
 4    1  0.1807309E-004  0.2858768E+03  0.7818608E-02  0.1092522E+00
         -2   -1    0    0    0  501 -0.00000000000E+00  0.00000000000E+00  0.82944433580E+01  0.82944433580E+01  0.00000000000E+00 0.  1.
          2   -1    0    0  501    0  0.00000000000E+00 -0.00000000000E+00 -0.24632619375E+04  0.24632619375E+04  0.00000000000E+00 0.  1.
         25    1    1    2    0    0 -0.79875420028E+01  0.76392227051E+02 -0.13267431013E+04  0.13343713238E+04  0.12000000000E+03 0.  0.
         25    1    1    2    0    0  0.79875420028E+01 -0.76392227051E+02 -0.11282243929E+04  0.11371850570E+04  0.12000000000E+03 0.  0.
<mgrwt>
<rscale>  0 0.28587680E+03</rscale>
<asrwt>0</asrwt>
<pdfrwt beam="1">  1        2 0.37896335E+00 0.28587680E+03</pdfrwt>
<pdfrwt beam="2">  1       -2 0.12760683E-02 0.28587680E+03</pdfrwt>
<totfact> 0.62777246E+03</totfact>
</mgrwt>
</event>
<event>
 4    1  0.1807309E-004  0.3394404E+03  0.7818608E-02  0.1067034E+00
         -2   -1    0    0    0  501 -0.00000000000E+00  0.00000000000E+00  0.51629790512E+02  0.51629790512E+02  0.00000000000E+00 0. -1.
          2   -1    0    0  501    0  0.00000000000E+00 -0.00000000000E+00 -0.55791344033E+03  0.55791344033E+03  0.00000000000E+00 0. -1.
         25    1    1    2    0    0  0.12803368253E+02  0.50585778882E+02 -0.59052562546E+02  0.14356201589E+03  0.12000000000E+03 0.  0.
         25    1    1    2    0    0 -0.12803368253E+02 -0.50585778882E+02 -0.44723108727E+03  0.46598121495E+03  0.12000000000E+03 0.  0.
<mgrwt>
<rscale>  0 0.33944045E+03</rscale>
<asrwt>0</asrwt>
<pdfrwt beam="1">  1        2 0.85832843E-01 0.33944045E+03</pdfrwt>
<pdfrwt beam="2">  1       -2 0.79430441E-02 0.33944045E+03</pdfrwt>
<totfact> 0.52679026E+03</totfact>
</mgrwt>
</event>
<event>
 4    1  0.1807309E-004  0.2613111E+03  0.7818608E-02  0.1106358E+00
         -3   -1    0    0    0  501 -0.00000000000E+00  0.00000000000E+00  0.10955036919E+03  0.10955036919E+03  0.00000000000E+00 0.  1.
          3   -1    0    0  501    0  0.00000000000E+00 -0.00000000000E+00 -0.15582665936E+03  0.15582665936E+03  0.00000000000E+00 0.  1.
         25    1    1    2    0    0 -0.39490766162E+02  0.19914282840E+02 -0.50289300690E+02  0.13742311682E+03  0.12000000000E+03 0.  0.
         25    1    1    2    0    0  0.39490766162E+02 -0.19914282840E+02  0.40130105201E+01  0.12795391173E+03  0.12000000000E+03 0.  0.
<mgrwt>
<rscale>  0 0.26131106E+03</rscale>
<asrwt>0</asrwt>
<pdfrwt beam="1">  1        3 0.23973332E-01 0.26131106E+03</pdfrwt>
<pdfrwt beam="2">  1       -3 0.16853903E-01 0.26131106E+03</pdfrwt>
<totfact> 0.12439114E+03</totfact>
</mgrwt>
</event>
<event>
 4    1  0.1807309E-004  0.3637156E+03  0.7818608E-02  0.1057122E+00
          2   -1    0    0  501    0  0.00000000000E+00  0.00000000000E+00  0.20360730499E+03  0.20360730499E+03  0.00000000000E+00 0. -1.
         -2   -1    0    0    0  501 -0.00000000000E+00 -0.00000000000E+00 -0.16243155629E+03  0.16243155629E+03  0.00000000000E+00 0. -1.
         25    1    1    2    0    0 -0.10002894277E+03  0.35121725172E+01 -0.73033916318E+02  0.17248790590E+03  0.12000000000E+03 0.  0.
         25    1    1    2    0    0  0.10002894277E+03 -0.35121725172E+01  0.11420966501E+03  0.19355095538E+03  0.12000000000E+03 0.  0.
<mgrwt>
<rscale>  0 0.36371556E+03</rscale>
<asrwt>0</asrwt>
<pdfrwt beam="1">  1        2 0.31324201E-01 0.36371556E+03</pdfrwt>
<pdfrwt beam="2">  1       -2 0.24989470E-01 0.36371556E+03</pdfrwt>
<totfact> 0.23901459E+03</totfact>
</mgrwt>
</event>
<event>
 4    1  0.1807309E-004  0.3023363E+03  0.7818608E-02  0.1084079E+00
         -1   -1    0    0    0  501 -0.00000000000E+00  0.00000000000E+00  0.48709093894E+03  0.48709093894E+03  0.00000000000E+00 0.  1.
          1   -1    0    0  501    0  0.00000000000E+00 -0.00000000000E+00 -0.46914857877E+02  0.46914857877E+02  0.00000000000E+00 0.  1.
         25    1    1    2    0    0 -0.58647043237E+02  0.55131166117E+02  0.14163564760E+03  0.20233531039E+03  0.12000000000E+03 0.  0.
         25    1    1    2    0    0  0.58647043237E+02 -0.55131166117E+02  0.29854043346E+03  0.33167048643E+03  0.12000000000E+03 0.  0.
<mgrwt>
<rscale>  0 0.30233625E+03</rscale>
<asrwt>0</asrwt>
<pdfrwt beam="1">  1        1 0.72176708E-02 0.30233625E+03</pdfrwt>
<pdfrwt beam="2">  1       -1 0.74937064E-01 0.30233625E+03</pdfrwt>
<totfact> 0.18712488E+03</totfact>
</mgrwt>
</event>
<event>
 4    1  0.1807309E-004  0.2410236E+03  0.7818608E-02  0.1119113E+00
          2   -1    0    0  501    0  0.00000000000E+00  0.00000000000E+00  0.13762803593E+03  0.13762803593E+03  0.00000000000E+00 0.  1.
         -2   -1    0    0    0  501 -0.00000000000E+00 -0.00000000000E+00 -0.10552422586E+03  0.10552422586E+03  0.00000000000E+00 0.  1.
         25    1    1    2    0    0  0.35350579168E+01  0.75919951753E+01  0.87104837559E+01  0.12060683046E+03  0.12000000000E+03 0.  0.
         25    1    1    2    0    0 -0.35350579168E+01 -0.75919951753E+01  0.23393326312E+02  0.12254543134E+03  0.12000000000E+03 0.  0.
<mgrwt>
<rscale>  0 0.24102358E+03</rscale>
<asrwt>0</asrwt>
<pdfrwt beam="1">  1        2 0.21173544E-01 0.24102358E+03</pdfrwt>
<pdfrwt beam="2">  1       -2 0.16234496E-01 0.24102358E+03</pdfrwt>
<totfact> 0.76674178E+03</totfact>
</mgrwt>
</event>
<event>
 4    1  0.1807309E-004  0.3061617E+03  0.7818608E-02  0.1082200E+00
          1   -1    0    0  501    0  0.00000000000E+00  0.00000000000E+00  0.36360303296E+03  0.36360303296E+03  0.00000000000E+00 0. -1.
         -1   -1    0    0    0  501 -0.00000000000E+00 -0.00000000000E+00 -0.64448728474E+02  0.64448728474E+02  0.00000000000E+00 0. -1.
         25    1    1    2    0    0  0.20245818684E+02 -0.28613649964E+02  0.27309654050E+03  0.30035038633E+03  0.12000000000E+03 0.  0.
         25    1    1    2    0    0 -0.20245818684E+02  0.28613649964E+02  0.26057763987E+02  0.12770137510E+03  0.12000000000E+03 0.  0.
<mgrwt>
<rscale>  0 0.30616174E+03</rscale>
<asrwt>0</asrwt>
<pdfrwt beam="1">  1        1 0.55938927E-01 0.30616174E+03</pdfrwt>
<pdfrwt beam="2">  1       -1 0.99151892E-02 0.30616174E+03</pdfrwt>
<totfact> 0.42278585E+03</totfact>
</mgrwt>
</event>
<event>
 4    1  0.1807309E-004  0.2616820E+03  0.7818608E-02  0.1106137E+00
         -1   -1    0    0    0  501 -0.00000000000E+00  0.00000000000E+00  0.34149991209E+03  0.34149991209E+03  0.00000000000E+00 0. -1.
          1   -1    0    0  501    0  0.00000000000E+00 -0.00000000000E+00 -0.50129926913E+02  0.50129926913E+02  0.00000000000E+00 0. -1.
         25    1    1    2    0    0 -0.45064094032E+02 -0.25357337625E+02  0.13557904173E+03  0.18829615954E+03  0.12000000000E+03 0.  0.
         25    1    1    2    0    0  0.45064094032E+02  0.25357337625E+02  0.15579094345E+03  0.20333367946E+03  0.12000000000E+03 0.  0.
<mgrwt>
<rscale>  0 0.26168199E+03</rscale>
<asrwt>0</asrwt>
<pdfrwt beam="1">  1        1 0.77122967E-02 0.26168199E+03</pdfrwt>
<pdfrwt beam="2">  1       -1 0.52538446E-01 0.26168199E+03</pdfrwt>
<totfact> 0.34030289E+03</totfact>
</mgrwt>
</event>
<event>
 4    1  0.1807309E-004  0.2576346E+03  0.7818608E-02  0.1108573E+00
          1   -1    0    0  501    0  0.00000000000E+00  0.00000000000E+00  0.39418793636E+03  0.39418793636E+03  0.00000000000E+00 0. -1.
         -1   -1    0    0    0  501 -0.00000000000E+00 -0.00000000000E+00 -0.42096398283E+02  0.42096398283E+02  0.00000000000E+00 0. -1.
         25    1    1    2    0    0 -0.13912563374E+02  0.28617254889E+02  0.11784062897E+03  0.17116927450E+03  0.12000000000E+03 0.  0.
         25    1    1    2    0    0  0.13912563374E+02 -0.28617254889E+02  0.23425090911E+03  0.26511506014E+03  0.12000000000E+03 0.  0.
<mgrwt>
<rscale>  0 0.25763457E+03</rscale>
<asrwt>0</asrwt>
<pdfrwt beam="1">  1        1 0.60644295E-01 0.25763457E+03</pdfrwt>
<pdfrwt beam="2">  1       -1 0.64763693E-02 0.25763457E+03</pdfrwt>
<totfact> 0.72764464E+03</totfact>
</mgrwt>
</event>
<event>
 4    1  0.1807309E-004  0.2569349E+03  0.7818608E-02  0.1108999E+00
          2   -1    0    0  501    0  0.00000000000E+00  0.00000000000E+00  0.48551625526E+03  0.48551625526E+03  0.00000000000E+00 0.  1.
         -2   -1    0    0    0  501 -0.00000000000E+00 -0.00000000000E+00 -0.33992440192E+02  0.33992440192E+02  0.00000000000E+00 0.  1.
         25    1    1    2    0    0  0.47807294771E+00  0.44397452637E+02  0.24903801430E+03  0.27998445479E+03  0.12000000000E+03 0.  0.
         25    1    1    2    0    0 -0.47807294771E+00 -0.44397452637E+02  0.20248580077E+03  0.23952424066E+03  0.12000000000E+03 0.  0.
<mgrwt>
<rscale>  0 0.25693487E+03</rscale>
<asrwt>0</asrwt>
<pdfrwt beam="1">  1        2 0.74694803E-01 0.25693487E+03</pdfrwt>
<pdfrwt beam="2">  1       -2 0.52296066E-02 0.25693487E+03</pdfrwt>
<totfact> 0.11647282E+04</totfact>
</mgrwt>
</event>
<event>
 4    1  0.1807309E-004  0.3187452E+03  0.7818608E-02  0.1076228E+00
          2   -1    0    0  501    0  0.00000000000E+00  0.00000000000E+00  0.74470944089E+03  0.74470944089E+03  0.00000000000E+00 0. -1.
         -2   -1    0    0    0  501 -0.00000000000E+00 -0.00000000000E+00 -0.34106769150E+02  0.34106769150E+02  0.00000000000E+00 0. -1.
         25    1    1    2    0    0 -0.11044819846E+02  0.89111415527E+02  0.48771368584E+03  0.51022296281E+03  0.12000000000E+03 0.  0.
         25    1    1    2    0    0  0.11044819846E+02 -0.89111415527E+02  0.22288898590E+03  0.26859324723E+03  0.12000000000E+03 0.  0.
<mgrwt>
<rscale>  0 0.31874525E+03</rscale>
<asrwt>0</asrwt>
<pdfrwt beam="1">  1        2 0.11457067E+00 0.31874525E+03</pdfrwt>
<pdfrwt beam="2">  1       -2 0.52471958E-02 0.31874525E+03</pdfrwt>
<totfact> 0.70795842E+03</totfact>
</mgrwt>
</event>
<event>
 4    1  0.1807309E-004  0.2830608E+03  0.7818608E-02  0.1094029E+00
         -2   -1    0    0    0  501 -0.00000000000E+00  0.00000000000E+00  0.13195840808E+02  0.13195840808E+02  0.00000000000E+00 0.  1.
          2   -1    0    0  501    0  0.00000000000E+00 -0.00000000000E+00 -0.15179668215E+04  0.15179668215E+04  0.00000000000E+00 0.  1.
         25    1    1    2    0    0 -0.42088350880E+02 -0.58256458711E+02 -0.63566418468E+03  0.65087187675E+03  0.12000000000E+03 0.  0.
         25    1    1    2    0    0  0.42088350880E+02  0.58256458711E+02 -0.86910679605E+03  0.88029078560E+03  0.12000000000E+03 0.  0.
<mgrwt>
<rscale>  0 0.28306076E+03</rscale>
<asrwt>0</asrwt>
<pdfrwt beam="1">  1        2 0.23353326E+00 0.28306076E+03</pdfrwt>
<pdfrwt beam="2">  1       -2 0.20301302E-02 0.28306076E+03</pdfrwt>
<totfact> 0.10098335E+04</totfact>
</mgrwt>
</event>
<event>
 4    1  0.1807309E-004  0.3555141E+03  0.7818608E-02  0.1060374E+00
          2   -1    0    0  501    0  0.00000000000E+00  0.00000000000E+00  0.38621498259E+04  0.38621498259E+04  0.00000000000E+00 0.  1.
         -2   -1    0    0    0  501 -0.00000000000E+00 -0.00000000000E+00 -0.81813425964E+01  0.81813425964E+01  0.00000000000E+00 0.  1.
         25    1    1    2    0    0 -0.11559590191E+03 -0.24423676023E+02  0.25465291351E+04  0.25520912140E+04  0.12000000000E+03 0.  0.
         25    1    1    2    0    0  0.11559590191E+03  0.24423676023E+02  0.13074393481E+04  0.13182399545E+04  0.12000000000E+03 0.  0.
<mgrwt>
<rscale>  0 0.35551411E+03</rscale>
<asrwt>0</asrwt>
<pdfrwt beam="1">  1        2 0.59417544E+00 0.35551411E+03</pdfrwt>
<pdfrwt beam="2">  1       -2 0.12586712E-02 0.35551411E+03</pdfrwt>
<totfact> 0.85041986E+02</totfact>
</mgrwt>
</event>
<event>
 4    1  0.1807309E-004  0.3768079E+03  0.7818608E-02  0.1052120E+00
         -2   -1    0    0    0  501 -0.00000000000E+00  0.00000000000E+00  0.75092599352E+02  0.75092599352E+02  0.00000000000E+00 0.  1.
          2   -1    0    0  501    0  0.00000000000E+00 -0.00000000000E+00 -0.47269690387E+03  0.47269690387E+03  0.00000000000E+00 0.  1.
         25    1    1    2    0    0  0.68571848008E+02 -0.33265631291E+02 -0.37854834730E+03  0.40436067045E+03  0.12000000000E+03 0.  0.
         25    1    1    2    0    0 -0.68571848008E+02  0.33265631291E+02 -0.19055957219E+02  0.14342883277E+03  0.12000000000E+03 0.  0.
<mgrwt>
<rscale>  0 0.37680785E+03</rscale>
<asrwt>0</asrwt>
<pdfrwt beam="1">  1        2 0.72722601E-01 0.37680785E+03</pdfrwt>
<pdfrwt beam="2">  1       -2 0.11552708E-01 0.37680785E+03</pdfrwt>
<totfact> 0.35054669E+03</totfact>
</mgrwt>
</event>
<event>
 4    1  0.1807309E-004  0.3241094E+03  0.7818608E-02  0.1073773E+00
          2   -1    0    0  501    0  0.00000000000E+00  0.00000000000E+00  0.14974426148E+04  0.14974426148E+04  0.00000000000E+00 0. -1.
         -2   -1    0    0    0  501 -0.00000000000E+00 -0.00000000000E+00 -0.17537721864E+02  0.17537721864E+02  0.00000000000E+00 0. -1.
         25    1    1    2    0    0  0.93026153248E+02 -0.47866197279E+02  0.88147560884E+03  0.89573672863E+03  0.12000000000E+03 0.  0.
         25    1    1    2    0    0 -0.93026153248E+02  0.47866197279E+02  0.59842928406E+03  0.61924360800E+03  0.12000000000E+03 0.  0.
<mgrwt>
<rscale>  0 0.32410944E+03</rscale>
<asrwt>0</asrwt>
<pdfrwt beam="1">  1        2 0.23037569E+00 0.32410944E+03</pdfrwt>
<pdfrwt beam="2">  1       -2 0.26981122E-02 0.32410944E+03</pdfrwt>
<totfact> 0.68083739E+03</totfact>
</mgrwt>
</event>
<event>
 4    1  0.1807309E-004  0.2925268E+03  0.7818608E-02  0.1089037E+00
         -3   -1    0    0    0  501 -0.00000000000E+00  0.00000000000E+00  0.55774649416E+02  0.55774649416E+02  0.00000000000E+00 0. -1.
          3   -1    0    0  501    0  0.00000000000E+00 -0.00000000000E+00 -0.38356112231E+03  0.38356112231E+03  0.00000000000E+00 0. -1.
         25    1    1    2    0    0  0.61483219652E+02  0.52274477068E+02 -0.13098286134E+03  0.19511360080E+03  0.12000000000E+03 0.  0.
         25    1    1    2    0    0 -0.61483219652E+02 -0.52274477068E+02 -0.19680361156E+03  0.24422217093E+03  0.12000000000E+03 0.  0.
<mgrwt>
<rscale>  0 0.29252683E+03</rscale>
<asrwt>0</asrwt>
<pdfrwt beam="1">  1        3 0.59009404E-01 0.29252683E+03</pdfrwt>
<pdfrwt beam="2">  1       -3 0.85807152E-02 0.29252683E+03</pdfrwt>
<totfact> 0.69280291E+02</totfact>
</mgrwt>
</event>
<event>
 4    1  0.1807309E-004  0.2885682E+03  0.7818608E-02  0.1091099E+00
         -2   -1    0    0    0  501 -0.00000000000E+00  0.00000000000E+00  0.22489437173E+02  0.22489437173E+02  0.00000000000E+00 0.  1.
          2   -1    0    0  501    0  0.00000000000E+00 -0.00000000000E+00 -0.92567489356E+03  0.92567489356E+03  0.00000000000E+00 0.  1.
         25    1    1    2    0    0 -0.23774682726E+02 -0.23519198206E+02 -0.69078839862E+03  0.70193090821E+03  0.12000000000E+03 0.  0.
         25    1    1    2    0    0  0.23774682726E+02  0.23519198206E+02 -0.21239705777E+03  0.24623342253E+03  0.12000000000E+03 0.  0.
<mgrwt>
<rscale>  0 0.28856824E+03</rscale>
<asrwt>0</asrwt>
<pdfrwt beam="1">  1        2 0.14241153E+00 0.28856824E+03</pdfrwt>
<pdfrwt beam="2">  1       -2 0.34599131E-02 0.28856824E+03</pdfrwt>
<totfact> 0.99934382E+03</totfact>
</mgrwt>
</event>
<event>
 4    1  0.1807309E-004  0.3615902E+03  0.7818608E-02  0.1057956E+00
         -1   -1    0    0    0  501 -0.00000000000E+00  0.00000000000E+00  0.21968838957E+03  0.21968838957E+03  0.00000000000E+00 0.  1.
          1   -1    0    0  501    0  0.00000000000E+00 -0.00000000000E+00 -0.14878738677E+03  0.14878738677E+03  0.00000000000E+00 0.  1.
         25    1    1    2    0    0 -0.12683890705E+03 -0.98825006848E+01  0.82161008724E+02  0.19322578377E+03  0.12000000000E+03 0.  0.
         25    1    1    2    0    0  0.12683890705E+03  0.98825006848E+01 -0.11260005930E+02  0.17524999257E+03  0.12000000000E+03 0.  0.
<mgrwt>
<rscale>  0 0.36159016E+03</rscale>
<asrwt>0</asrwt>
<pdfrwt beam="1">  1        1 0.22890367E-01 0.36159016E+03</pdfrwt>
<pdfrwt beam="2">  1       -1 0.33798214E-01 0.36159016E+03</pdfrwt>
<totfact> 0.17892709E+03</totfact>
</mgrwt>
</event>
<event>
 4    1  0.1807309E-004  0.3453246E+03  0.7818608E-02  0.1064551E+00
         -2   -1    0    0    0  501 -0.00000000000E+00  0.00000000000E+00  0.50881271055E+02  0.50881271055E+02  0.00000000000E+00 0. -1.
          2   -1    0    0  501    0  0.00000000000E+00 -0.00000000000E+00 -0.58591824126E+03  0.58591824126E+03  0.00000000000E+00 0. -1.
         25    1    1    2    0    0  0.58338647675E+01 -0.42126842085E+02 -0.52437741130E+02  0.13768958384E+03  0.12000000000E+03 0.  0.
         25    1    1    2    0    0 -0.58338647675E+01  0.42126842085E+02 -0.48259922907E+03  0.49910992848E+03  0.12000000000E+03 0.  0.
<mgrwt>
<rscale>  0 0.34532457E+03</rscale>
<asrwt>0</asrwt>
<pdfrwt beam="1">  1        2 0.90141273E-01 0.34532457E+03</pdfrwt>
<pdfrwt beam="2">  1       -2 0.78278875E-02 0.34532457E+03</pdfrwt>
<totfact> 0.50945793E+03</totfact>
</mgrwt>
</event>
<event>
 4    1  0.1807309E-004  0.2491126E+03  0.7818608E-02  0.1113867E+00
         -1   -1    0    0    0  501 -0.00000000000E+00  0.00000000000E+00  0.71168432787E+02  0.71168432787E+02  0.00000000000E+00 0. -1.
          1   -1    0    0  501    0  0.00000000000E+00 -0.00000000000E+00 -0.21799378964E+03  0.21799378964E+03  0.00000000000E+00 0. -1.
         25    1    1    2    0    0 -0.17214923769E+02  0.12817313971E+02 -0.43736030064E+02  0.12951246065E+03  0.12000000000E+03 0.  0.
         25    1    1    2    0    0  0.17214923769E+02 -0.12817313971E+02 -0.10308932679E+03  0.15964976178E+03  0.12000000000E+03 0.  0.
<mgrwt>
<rscale>  0 0.24911264E+03</rscale>
<asrwt>0</asrwt>
<pdfrwt beam="1">  1        1 0.33537506E-01 0.24911264E+03</pdfrwt>
<pdfrwt beam="2">  1       -1 0.10948990E-01 0.24911264E+03</pdfrwt>
<totfact> 0.68602356E+03</totfact>
</mgrwt>
</event>
<event>
 4    1  0.1807309E-004  0.3435680E+03  0.7818608E-02  0.1065286E+00
         -2   -1    0    0    0  501 -0.00000000000E+00  0.00000000000E+00  0.74353981806E+02  0.74353981806E+02  0.00000000000E+00 0. -1.
          2   -1    0    0  501    0  0.00000000000E+00 -0.00000000000E+00 -0.39688169584E+03  0.39688169584E+03  0.00000000000E+00 0. -1.
         25    1    1    2    0    0 -0.11370931723E+03 -0.26463471380E+02 -0.10850453774E+03  0.19950779146E+03  0.12000000000E+03 0.  0.
         25    1    1    2    0    0  0.11370931723E+03  0.26463471380E+02 -0.21402317629E+03  0.27172788619E+03  0.12000000000E+03 0.  0.
<mgrwt>
<rscale>  0 0.34356795E+03</rscale>
<asrwt>0</asrwt>
<pdfrwt beam="1">  1        2 0.61058724E-01 0.34356795E+03</pdfrwt>
<pdfrwt beam="2">  1       -2 0.11439074E-01 0.34356795E+03</pdfrwt>
<totfact> 0.43156571E+03</totfact>
</mgrwt>
</event>
<event>
 4    1  0.1807309E-004  0.3157066E+03  0.7818608E-02  0.1077642E+00
          4   -1    0    0  501    0  0.00000000000E+00  0.00000000000E+00  0.81295563641E+02  0.81295563641E+02  0.00000000000E+00 0.  1.
         -4   -1    0    0    0  501 -0.00000000000E+00 -0.00000000000E+00 -0.30650707727E+03  0.30650707727E+03  0.00000000000E+00 0.  1.
         25    1    1    2    0    0 -0.71852658742E+02  0.68931675772E+02 -0.14277666577E+03  0.21142269694E+03  0.12000000000E+03 0.  0.
         25    1    1    2    0    0  0.71852658742E+02 -0.68931675772E+02 -0.82434847856E+02  0.17637994397E+03  0.12000000000E+03 0.  0.
<mgrwt>
<rscale>  0 0.31570661E+03</rscale>
<asrwt>0</asrwt>
<pdfrwt beam="1">  1        4 0.12507010E-01 0.31570661E+03</pdfrwt>
<pdfrwt beam="2">  1       -4 0.47154935E-01 0.31570661E+03</pdfrwt>
<totfact> 0.43076922E+02</totfact>
</mgrwt>
</event>
<event>
 4    1  0.1807309E-004  0.3252960E+03  0.7818608E-02  0.1073237E+00
         -2   -1    0    0    0  501 -0.00000000000E+00  0.00000000000E+00  0.10202742846E+03  0.10202742846E+03  0.00000000000E+00 0. -1.
          2   -1    0    0  501    0  0.00000000000E+00 -0.00000000000E+00 -0.25928684233E+03  0.25928684233E+03  0.00000000000E+00 0. -1.
         25    1    1    2    0    0 -0.74599565835E+02  0.13637418940E+02 -0.16681379700E+03  0.21903862054E+03  0.12000000000E+03 0.  0.
         25    1    1    2    0    0  0.74599565835E+02 -0.13637418940E+02  0.95543831341E+01  0.14227565025E+03  0.12000000000E+03 0.  0.
<mgrwt>
<rscale>  0 0.32529599E+03</rscale>
<asrwt>0</asrwt>
<pdfrwt beam="1">  1        2 0.39890283E-01 0.32529599E+03</pdfrwt>
<pdfrwt beam="2">  1       -2 0.15696528E-01 0.32529599E+03</pdfrwt>
<totfact> 0.40709897E+03</totfact>
</mgrwt>
</event>
<event>
 4    1  0.1807309E-004  0.2485410E+03  0.7818608E-02  0.1114230E+00
          2   -1    0    0  501    0  0.00000000000E+00  0.00000000000E+00  0.14113935469E+03  0.14113935469E+03  0.00000000000E+00 0. -1.
         -2   -1    0    0    0  501 -0.00000000000E+00 -0.00000000000E+00 -0.10941777598E+03  0.10941777598E+03  0.00000000000E+00 0. -1.
         25    1    1    2    0    0  0.49313440846E+00  0.23182959170E+02  0.38525637503E+02  0.12814802973E+03  0.12000000000E+03 0.  0.
         25    1    1    2    0    0 -0.49313440846E+00 -0.23182959170E+02 -0.68040587981E+01  0.12240910094E+03  0.12000000000E+03 0.  0.
<mgrwt>
<rscale>  0 0.24854098E+03</rscale>
<asrwt>0</asrwt>
<pdfrwt beam="1">  1        2 0.21713747E-01 0.24854098E+03</pdfrwt>
<pdfrwt beam="2">  1       -2 0.16833504E-01 0.24854098E+03</pdfrwt>
<totfact> 0.70244780E+03</totfact>
</mgrwt>
</event>
<event>
 4    1  0.1807309E-004  0.2469611E+03  0.7818608E-02  0.1115241E+00
         -2   -1    0    0    0  501 -0.00000000000E+00  0.00000000000E+00  0.76089972024E+01  0.76089972024E+01  0.00000000000E+00 0. -1.
          2   -1    0    0  501    0  0.00000000000E+00 -0.00000000000E+00 -0.20038707136E+04  0.20038707136E+04  0.00000000000E+00 0. -1.
         25    1    1    2    0    0 -0.14564683070E+02  0.19937638385E+02 -0.11237337482E+04  0.11303924877E+04  0.12000000000E+03 0.  0.
         25    1    1    2    0    0  0.14564683070E+02 -0.19937638385E+02 -0.87252796816E+03  0.88108722306E+03  0.12000000000E+03 0.  0.
<mgrwt>
<rscale>  0 0.24696110E+03</rscale>
<asrwt>0</asrwt>
<pdfrwt beam="1">  1        2 0.30828768E+00 0.24696110E+03</pdfrwt>
<pdfrwt beam="2">  1       -2 0.11706154E-02 0.24696110E+03</pdfrwt>
<totfact> 0.12504092E+04</totfact>
</mgrwt>
</event>
<event>
 4    1  0.1807309E-004  0.2419269E+03  0.7818608E-02  0.1118516E+00
         -3   -1    0    0    0  501 -0.00000000000E+00  0.00000000000E+00  0.40982478830E+02  0.40982478830E+02  0.00000000000E+00 0. -1.
          3   -1    0    0  501    0  0.00000000000E+00 -0.00000000000E+00 -0.35703448603E+03  0.35703448603E+03  0.00000000000E+00 0. -1.
         25    1    1    2    0    0  0.85142468838E+01  0.15905919317E+01 -0.13740284993E+03  0.18263232341E+03  0.12000000000E+03 0.  0.
         25    1    1    2    0    0 -0.85142468838E+01 -0.15905919317E+01 -0.17864915727E+03  0.21538464146E+03  0.12000000000E+03 0.  0.
<mgrwt>
<rscale>  0 0.24192692E+03</rscale>
<asrwt>0</asrwt>
<pdfrwt beam="1">  1        3 0.54928382E-01 0.24192692E+03</pdfrwt>
<pdfrwt beam="2">  1       -3 0.63049968E-02 0.24192692E+03</pdfrwt>
<totfact> 0.13016515E+03</totfact>
</mgrwt>
</event>
<event>
 4    1  0.1807309E-004  0.2460462E+03  0.7818608E-02  0.1115829E+00
          1   -1    0    0  501    0  0.00000000000E+00  0.00000000000E+00  0.25658841499E+04  0.25658841499E+04  0.00000000000E+00 0. -1.
         -1   -1    0    0    0  501 -0.00000000000E+00 -0.00000000000E+00 -0.58984276589E+01  0.58984276589E+01  0.00000000000E+00 0. -1.
         25    1    1    2    0    0  0.11452140706E+02  0.17537958793E+02  0.11001773496E+04  0.11069005972E+04  0.12000000000E+03 0.  0.
         25    1    1    2    0    0 -0.11452140706E+02 -0.17537958793E+02  0.14598083726E+04  0.14648819803E+04  0.12000000000E+03 0.  0.
<mgrwt>
<rscale>  0 0.24604619E+03</rscale>
<asrwt>0</asrwt>
<pdfrwt beam="1">  1        1 0.39475052E+00 0.24604619E+03</pdfrwt>
<pdfrwt beam="2">  1       -1 0.90745246E-03 0.24604619E+03</pdfrwt>
<totfact> 0.31052224E+03</totfact>
</mgrwt>
</event>
<event>
 4    1  0.1807309E-004  0.3068691E+03  0.7818608E-02  0.1081856E+00
          2   -1    0    0  501    0  0.00000000000E+00  0.00000000000E+00  0.13837509727E+04  0.13837509727E+04  0.00000000000E+00 0. -1.
         -2   -1    0    0    0  501 -0.00000000000E+00 -0.00000000000E+00 -0.17013295710E+02  0.17013295710E+02  0.00000000000E+00 0. -1.
         25    1    1    2    0    0  0.73689281410E+02  0.11528844812E+02  0.95645595352E+03  0.96683556796E+03  0.12000000000E+03 0.  0.
         25    1    1    2    0    0 -0.73689281410E+02 -0.11528844812E+02  0.41028172348E+03  0.43392870046E+03  0.12000000000E+03 0.  0.
<mgrwt>
<rscale>  0 0.30686912E+03</rscale>
<asrwt>0</asrwt>
<pdfrwt beam="1">  1        2 0.21288468E+00 0.30686912E+03</pdfrwt>
<pdfrwt beam="2">  1       -2 0.26174312E-02 0.30686912E+03</pdfrwt>
<totfact> 0.82052969E+03</totfact>
</mgrwt>
</event>
<event>
 4    1  0.1807309E-004  0.2580522E+03  0.7818608E-02  0.1108319E+00
         -1   -1    0    0    0  501 -0.00000000000E+00  0.00000000000E+00  0.72049675393E+03  0.72049675393E+03  0.00000000000E+00 0. -1.
          1   -1    0    0  501    0  0.00000000000E+00 -0.00000000000E+00 -0.23105911914E+02  0.23105911914E+02  0.00000000000E+00 0. -1.
         25    1    1    2    0    0 -0.24607674272E+01 -0.30588900842E+02  0.45283232867E+03  0.46946656336E+03  0.12000000000E+03 0.  0.
         25    1    1    2    0    0  0.24607674272E+01  0.30588900842E+02  0.24455851335E+03  0.27413610248E+03  0.12000000000E+03 0.  0.
<mgrwt>
<rscale>  0 0.25805220E+03</rscale>
<asrwt>0</asrwt>
<pdfrwt beam="1">  1        1 0.35547562E-02 0.25805220E+03</pdfrwt>
<pdfrwt beam="2">  1       -1 0.11084564E+00 0.25805220E+03</pdfrwt>
<totfact> 0.21323259E+03</totfact>
</mgrwt>
</event>
<event>
 4    1  0.1807309E-004  0.2646641E+03  0.7818608E-02  0.1104373E+00
          3   -1    0    0  501    0  0.00000000000E+00  0.00000000000E+00  0.14614781776E+03  0.14614781776E+03  0.00000000000E+00 0. -1.
         -3   -1    0    0    0  501 -0.00000000000E+00 -0.00000000000E+00 -0.11982228935E+03  0.11982228935E+03  0.00000000000E+00 0. -1.
         25    1    1    2    0    0  0.32713728197E+02 -0.43623815505E+02  0.24991183969E+02  0.13415582197E+03  0.12000000000E+03 0.  0.
         25    1    1    2    0    0 -0.32713728197E+02  0.43623815505E+02  0.13343444387E+01  0.13181428514E+03  0.12000000000E+03 0.  0.
<mgrwt>
<rscale>  0 0.26466406E+03</rscale>
<asrwt>0</asrwt>
<pdfrwt beam="1">  1        3 0.22484280E-01 0.26466406E+03</pdfrwt>
<pdfrwt beam="2">  1       -3 0.18434198E-01 0.26466406E+03</pdfrwt>
<totfact> 0.11953383E+03</totfact>
</mgrwt>
</event>
<event>
 4    1  0.1807309E-004  0.3082255E+03  0.7818608E-02  0.1081200E+00
         -1   -1    0    0    0  501 -0.00000000000E+00  0.00000000000E+00  0.45937340591E+02  0.45937340591E+02  0.00000000000E+00 0.  1.
          1   -1    0    0  501    0  0.00000000000E+00 -0.00000000000E+00 -0.51702454244E+03  0.51702454244E+03  0.00000000000E+00 0.  1.
         25    1    1    2    0    0  0.16639417163E+02 -0.87632980790E+02 -0.30374482706E+03  0.33855181212E+03  0.12000000000E+03 0.  0.
         25    1    1    2    0    0 -0.16639417163E+02  0.87632980790E+02 -0.16734237480E+03  0.22441007092E+03  0.12000000000E+03 0.  0.
<mgrwt>
<rscale>  0 0.30822545E+03</rscale>
<asrwt>0</asrwt>
<pdfrwt beam="1">  1        1 0.79542238E-01 0.30822545E+03</pdfrwt>
<pdfrwt beam="2">  1       -1 0.70672831E-02 0.30822545E+03</pdfrwt>
<totfact> 0.44938860E+03</totfact>
</mgrwt>
</event>
<event>
 4    1  0.1807309E-004  0.2648110E+03  0.7818608E-02  0.1104287E+00
         -2   -1    0    0    0  501 -0.00000000000E+00  0.00000000000E+00  0.11167063970E+02  0.11167063970E+02  0.00000000000E+00 0.  1.
          2   -1    0    0  501    0  0.00000000000E+00 -0.00000000000E+00 -0.15699038038E+04  0.15699038038E+04  0.00000000000E+00 0.  1.
         25    1    1    2    0    0 -0.30178193156E+02 -0.44533653779E+02 -0.87133182193E+03  0.88119981478E+03  0.12000000000E+03 0.  0.
         25    1    1    2    0    0  0.30178193156E+02  0.44533653779E+02 -0.68740491790E+03  0.69987105299E+03  0.12000000000E+03 0.  0.
<mgrwt>
<rscale>  0 0.26481100E+03</rscale>
<asrwt>0</asrwt>
<pdfrwt beam="1">  1        2 0.24152365E+00 0.26481100E+03</pdfrwt>
<pdfrwt beam="2">  1       -2 0.17180099E-02 0.26481100E+03</pdfrwt>
<totfact> 0.12091644E+04</totfact>
</mgrwt>
</event>
<event>
 4    1  0.1807309E-004  0.2846954E+03  0.7818608E-02  0.1093152E+00
          2   -1    0    0  501    0  0.00000000000E+00  0.00000000000E+00  0.13466410568E+04  0.13466410568E+04  0.00000000000E+00 0. -1.
         -2   -1    0    0    0  501 -0.00000000000E+00 -0.00000000000E+00 -0.15046972822E+02  0.15046972822E+02  0.00000000000E+00 0. -1.
         25    1    1    2    0    0  0.36261218895E+02  0.23277477062E+02  0.36306319873E+03  0.38480073182E+03  0.12000000000E+03 0.  0.
         25    1    1    2    0    0 -0.36261218895E+02 -0.23277477062E+02  0.96853088526E+03  0.97688729782E+03  0.12000000000E+03 0.  0.
<mgrwt>
<rscale>  0 0.28469543E+03</rscale>
<asrwt>0</asrwt>
<pdfrwt beam="1">  1        2 0.20717545E+00 0.28469543E+03</pdfrwt>
<pdfrwt beam="2">  1       -2 0.23149200E-02 0.28469543E+03</pdfrwt>
<totfact> 0.10301702E+04</totfact>
</mgrwt>
</event>
<event>
 4    1  0.1807309E-004  0.3924913E+03  0.7818608E-02  0.1046411E+00
         -1   -1    0    0    0  501 -0.00000000000E+00  0.00000000000E+00  0.40381904336E+03  0.40381904336E+03  0.00000000000E+00 0. -1.
          1   -1    0    0  501    0  0.00000000000E+00 -0.00000000000E+00 -0.95370352464E+02  0.95370352464E+02  0.00000000000E+00 0. -1.
         25    1    1    2    0    0  0.78856579162E+02  0.72051246531E+01  0.32411055788E+03  0.35456723993E+03  0.12000000000E+03 0.  0.
         25    1    1    2    0    0 -0.78856579162E+02 -0.72051246531E+01 -0.15661866988E+02  0.14462215590E+03  0.12000000000E+03 0.  0.
<mgrwt>
<rscale>  0 0.39249135E+03</rscale>
<asrwt>0</asrwt>
<pdfrwt beam="1">  1        1 0.14672362E-01 0.39249135E+03</pdfrwt>
<pdfrwt beam="2">  1       -1 0.62126006E-01 0.39249135E+03</pdfrwt>
<totfact> 0.10461424E+03</totfact>
</mgrwt>
</event>
<event>
 4    1  0.1807309E-004  0.2692923E+03  0.7818608E-02  0.1101685E+00
          1   -1    0    0  501    0  0.00000000000E+00  0.00000000000E+00  0.44220489931E+03  0.44220489931E+03  0.00000000000E+00 0.  1.
         -1   -1    0    0    0  501 -0.00000000000E+00 -0.00000000000E+00 -0.40998142328E+02  0.40998142328E+02  0.00000000000E+00 0.  1.
         25    1    1    2    0    0  0.57991741689E+02  0.17173767170E+02  0.18542031773E+03  0.22899492267E+03  0.12000000000E+03 0.  0.
         25    1    1    2    0    0 -0.57991741689E+02 -0.17173767170E+02  0.21578643926E+03  0.25420811897E+03  0.12000000000E+03 0.  0.
<mgrwt>
<rscale>  0 0.26929225E+03</rscale>
<asrwt>0</asrwt>
<pdfrwt beam="1">  1        1 0.68031520E-01 0.26929225E+03</pdfrwt>
<pdfrwt beam="2">  1       -1 0.63074068E-02 0.26929225E+03</pdfrwt>
<totfact> 0.65407587E+03</totfact>
</mgrwt>
</event>
<event>
 4    1  0.1807309E-004  0.2935349E+03  0.7818608E-02  0.1088518E+00
         -2   -1    0    0    0  501 -0.00000000000E+00  0.00000000000E+00  0.10414158752E+02  0.10414158752E+02  0.00000000000E+00 0. -1.
          2   -1    0    0  501    0  0.00000000000E+00 -0.00000000000E+00 -0.20684043616E+04  0.20684043616E+04  0.00000000000E+00 0. -1.
         25    1    1    2    0    0 -0.48903310069E+02 -0.66318710653E+02 -0.11616739896E+04  0.11707587981E+04  0.12000000000E+03 0.  0.
         25    1    1    2    0    0  0.48903310069E+02  0.66318710653E+02 -0.89631621318E+03  0.90805972223E+03  0.12000000000E+03 0.  0.
<mgrwt>
<rscale>  0 0.29353495E+03</rscale>
<asrwt>0</asrwt>
<pdfrwt beam="1">  1        2 0.31821611E+00 0.29353495E+03</pdfrwt>
<pdfrwt beam="2">  1       -2 0.16021780E-02 0.29353495E+03</pdfrwt>
<totfact> 0.73271164E+03</totfact>
</mgrwt>
</event>
<event>
 4    1  0.1807309E-004  0.3723477E+03  0.7818608E-02  0.1053799E+00
         -2   -1    0    0    0  501 -0.00000000000E+00  0.00000000000E+00  0.22311434300E+03  0.22311434300E+03  0.00000000000E+00 0. -1.
          2   -1    0    0  501    0  0.00000000000E+00 -0.00000000000E+00 -0.15534946246E+03  0.15534946246E+03  0.00000000000E+00 0. -1.
         25    1    1    2    0    0  0.88668905453E+02  0.11131845828E+03  0.31247699636E+02  0.18876014590E+03  0.12000000000E+03 0.  0.
         25    1    1    2    0    0 -0.88668905453E+02 -0.11131845828E+03  0.36517180909E+02  0.18970365956E+03  0.12000000000E+03 0.  0.
<mgrwt>
<rscale>  0 0.37234765E+03</rscale>
<asrwt>0</asrwt>
<pdfrwt beam="1">  1        2 0.23899917E-01 0.37234765E+03</pdfrwt>
<pdfrwt beam="2">  1       -2 0.34325284E-01 0.37234765E+03</pdfrwt>
<totfact> 0.18144767E+03</totfact>
</mgrwt>
</event>
<event>
 4    1  0.1807309E-004  0.2913852E+03  0.7818608E-02  0.1089628E+00
         -2   -1    0    0    0  501 -0.00000000000E+00  0.00000000000E+00  0.37555362430E+02  0.37555362430E+02  0.00000000000E+00 0.  1.
          2   -1    0    0  501    0  0.00000000000E+00 -0.00000000000E+00 -0.56520108494E+03  0.56520108494E+03  0.00000000000E+00 0.  1.
         25    1    1    2    0    0 -0.20137421050E+02 -0.21863993495E+02 -0.10435642689E+03  0.16178323081E+03  0.12000000000E+03 0.  0.
         25    1    1    2    0    0  0.20137421050E+02  0.21863993495E+02 -0.42328929561E+03  0.44097321655E+03  0.12000000000E+03 0.  0.
<mgrwt>
<rscale>  0 0.29138519E+03</rscale>
<asrwt>0</asrwt>
<pdfrwt beam="1">  1        2 0.86954005E-01 0.29138519E+03</pdfrwt>
<pdfrwt beam="2">  1       -2 0.57777486E-02 0.29138519E+03</pdfrwt>
<totfact> 0.84673200E+03</totfact>
</mgrwt>
</event>
<event>
 4    1  0.1807309E-004  0.3077998E+03  0.7818608E-02  0.1081405E+00
          2   -1    0    0  501    0  0.00000000000E+00  0.00000000000E+00  0.21448609524E+03  0.21448609524E+03  0.00000000000E+00 0.  1.
         -2   -1    0    0    0  501 -0.00000000000E+00 -0.00000000000E+00 -0.11042756441E+03  0.11042756441E+03  0.00000000000E+00 0.  1.
         25    1    1    2    0    0  0.80783331797E+02 -0.28177239271E+02  0.98825527533E+02  0.17744404301E+03  0.12000000000E+03 0.  0.
         25    1    1    2    0    0 -0.80783331797E+02  0.28177239271E+02  0.52330032944E+01  0.14746961664E+03  0.12000000000E+03 0.  0.
<mgrwt>
<rscale>  0 0.30779979E+03</rscale>
<asrwt>0</asrwt>
<pdfrwt beam="1">  1        2 0.32997861E-01 0.30779979E+03</pdfrwt>
<pdfrwt beam="2">  1       -2 0.16988856E-01 0.30779979E+03</pdfrwt>
<totfact> 0.43780356E+03</totfact>
</mgrwt>
</event>
<event>
 4    1  0.1807309E-004  0.3413941E+03  0.7818608E-02  0.1066204E+00
          3   -1    0    0  501    0  0.00000000000E+00  0.00000000000E+00  0.18799782300E+04  0.18799782300E+04  0.00000000000E+00 0.  1.
         -3   -1    0    0    0  501 -0.00000000000E+00 -0.00000000000E+00 -0.15498844740E+02  0.15498844740E+02  0.00000000000E+00 0.  1.
         25    1    1    2    0    0 -0.31072999563E+02 -0.11385531012E+03  0.10901524929E+04  0.11030689102E+04  0.12000000000E+03 0.  0.
         25    1    1    2    0    0  0.31072999563E+02  0.11385531012E+03  0.77432689239E+03  0.79240816453E+03  0.12000000000E+03 0.  0.
<mgrwt>
<rscale>  0 0.34139415E+03</rscale>
<asrwt>0</asrwt>
<pdfrwt beam="1">  1        3 0.28922724E+00 0.34139415E+03</pdfrwt>
<pdfrwt beam="2">  1       -3 0.23844391E-02 0.34139415E+03</pdfrwt>
<totfact> 0.94089720E+01</totfact>
</mgrwt>
</event>
<event>
 4    1  0.1807309E-004  0.2752697E+03  0.7818608E-02  0.1098301E+00
          2   -1    0    0  501    0  0.00000000000E+00  0.00000000000E+00  0.78653121751E+03  0.78653121751E+03  0.00000000000E+00 0.  1.
         -2   -1    0    0    0  501 -0.00000000000E+00 -0.00000000000E+00 -0.24084680428E+02  0.24084680428E+02  0.00000000000E+00 0.  1.
         25    1    1    2    0    0  0.23639699180E+02  0.57304612616E+02  0.45917440454E+03  0.47862698189E+03  0.12000000000E+03 0.  0.
         25    1    1    2    0    0 -0.23639699180E+02 -0.57304612616E+02  0.30327213254E+03  0.33198891605E+03  0.12000000000E+03 0.  0.
<mgrwt>
<rscale>  0 0.27526971E+03</rscale>
<asrwt>0</asrwt>
<pdfrwt beam="1">  1        2 0.12100478E+00 0.27526971E+03</pdfrwt>
<pdfrwt beam="2">  1       -2 0.37053361E-02 0.27526971E+03</pdfrwt>
<totfact> 0.11145960E+04</totfact>
</mgrwt>
</event>
<event>
 4    1  0.1807309E-004  0.2861816E+03  0.7818608E-02  0.1092360E+00
          1   -1    0    0  501    0  0.00000000000E+00  0.00000000000E+00  0.11448500338E+04  0.11448500338E+04  0.00000000000E+00 0. -1.
         -1   -1    0    0    0  501 -0.00000000000E+00 -0.00000000000E+00 -0.17884421396E+02  0.17884421396E+02  0.00000000000E+00 0. -1.
         25    1    1    2    0    0  0.72202452596E+02  0.28145121852E+02  0.59738776114E+03  0.61422917482E+03  0.12000000000E+03 0.  0.
         25    1    1    2    0    0 -0.72202452596E+02 -0.28145121852E+02  0.52957785123E+03  0.54850528033E+03  0.12000000000E+03 0.  0.
<mgrwt>
<rscale>  0 0.28618162E+03</rscale>
<asrwt>0</asrwt>
<pdfrwt beam="1">  1        1 0.17613072E+00 0.28618162E+03</pdfrwt>
<pdfrwt beam="2">  1       -1 0.27514503E-02 0.28618162E+03</pdfrwt>
<totfact> 0.53743352E+03</totfact>
</mgrwt>
</event>
<event>
 4    1  0.1807309E-004  0.2489136E+03  0.7818608E-02  0.1113993E+00
         -1   -1    0    0    0  501 -0.00000000000E+00  0.00000000000E+00  0.68331732421E+02  0.68331732421E+02  0.00000000000E+00 0. -1.
          1   -1    0    0  501    0  0.00000000000E+00 -0.00000000000E+00 -0.22668086156E+03  0.22668086156E+03  0.00000000000E+00 0. -1.
         25    1    1    2    0    0  0.30369481400E+02  0.35612668948E+00 -0.63855472352E+02  0.13928371612E+03  0.12000000000E+03 0.  0.
         25    1    1    2    0    0 -0.30369481400E+02 -0.35612668948E+00 -0.94493656783E+02  0.15572887786E+03  0.12000000000E+03 0.  0.
<mgrwt>
<rscale>  0 0.24891361E+03</rscale>
<asrwt>0</asrwt>
<pdfrwt beam="1">  1        1 0.34873978E-01 0.24891361E+03</pdfrwt>
<pdfrwt beam="2">  1       -1 0.10512574E-01 0.24891361E+03</pdfrwt>
<totfact> 0.69565205E+03</totfact>
</mgrwt>
</event>
<event>
 4    1  0.1807309E-004  0.3961217E+03  0.7818608E-02  0.1045131E+00
          1   -1    0    0  501    0  0.00000000000E+00  0.00000000000E+00  0.71666827210E+03  0.71666827210E+03  0.00000000000E+00 0. -1.
         -1   -1    0    0    0  501 -0.00000000000E+00 -0.00000000000E+00 -0.54736770371E+02  0.54736770371E+02  0.00000000000E+00 0. -1.
         25    1    1    2    0    0  0.15736913547E+03 -0.45777065784E+01  0.31832921299E+03  0.37485929099E+03  0.12000000000E+03 0.  0.
         25    1    1    2    0    0 -0.15736913547E+03  0.45777065784E+01  0.34360228874E+03  0.39654575149E+03  0.12000000000E+03 0.  0.
<mgrwt>
<rscale>  0 0.39612173E+03</rscale>
<asrwt>0</asrwt>
<pdfrwt beam="1">  1        1 0.11025665E+00 0.39612173E+03</pdfrwt>
<pdfrwt beam="2">  1       -1 0.84210421E-02 0.39612173E+03</pdfrwt>
<totfact> 0.21727717E+03</totfact>
</mgrwt>
</event>
<event>
 4    1  0.1807309E-004  0.2678207E+03  0.7818608E-02  0.1102533E+00
          2   -1    0    0  501    0  0.00000000000E+00  0.00000000000E+00  0.60281480691E+03  0.60281480691E+03  0.00000000000E+00 0.  1.
         -2   -1    0    0    0  501 -0.00000000000E+00 -0.00000000000E+00 -0.29747081527E+02  0.29747081527E+02  0.00000000000E+00 0.  1.
         25    1    1    2    0    0  0.42979731335E+02 -0.40914919541E+02  0.29425735912E+03  0.32327802484E+03  0.12000000000E+03 0.  0.
         25    1    1    2    0    0 -0.42979731335E+02  0.40914919541E+02  0.27881036626E+03  0.30928386360E+03  0.12000000000E+03 0.  0.
<mgrwt>
<rscale>  0 0.26782070E+03</rscale>
<asrwt>0</asrwt>
<pdfrwt beam="1">  1        2 0.92740730E-01 0.26782070E+03</pdfrwt>
<pdfrwt beam="2">  1       -2 0.45764745E-02 0.26782070E+03</pdfrwt>
<totfact> 0.11174857E+04</totfact>
</mgrwt>
</event>
<event>
 4    1  0.1807309E-004  0.3189354E+03  0.7818608E-02  0.1076140E+00
         -2   -1    0    0    0  501 -0.00000000000E+00  0.00000000000E+00  0.14644389366E+02  0.14644389366E+02  0.00000000000E+00 0. -1.
          2   -1    0    0  501    0  0.00000000000E+00 -0.00000000000E+00 -0.17364979414E+04  0.17364979414E+04  0.00000000000E+00 0. -1.
         25    1    1    2    0    0 -0.93048976470E+02  0.45590157281E+02 -0.76688255791E+03  0.78309988640E+03  0.12000000000E+03 0.  0.
         25    1    1    2    0    0  0.93048976470E+02 -0.45590157281E+02 -0.95497099409E+03  0.96804244433E+03  0.12000000000E+03 0.  0.
<mgrwt>
<rscale>  0 0.31893543E+03</rscale>
<asrwt>0</asrwt>
<pdfrwt beam="1">  1        2 0.26715341E+00 0.31893543E+03</pdfrwt>
<pdfrwt beam="2">  1       -2 0.22529840E-02 0.31893543E+03</pdfrwt>
<totfact> 0.66362573E+03</totfact>
</mgrwt>
</event>
<event>
 4    1  0.1807309E-004  0.3111525E+03  0.7818608E-02  0.1079795E+00
         -2   -1    0    0    0  501 -0.00000000000E+00  0.00000000000E+00  0.23646608688E+02  0.23646608688E+02  0.00000000000E+00 0. -1.
          2   -1    0    0  501    0  0.00000000000E+00 -0.00000000000E+00 -0.10235701582E+04  0.10235701582E+04  0.00000000000E+00 0. -1.
         25    1    1    2    0    0  0.43554912721E+02  0.64300420854E+02 -0.70667656667E+03  0.72098775608E+03  0.12000000000E+03 0.  0.
         25    1    1    2    0    0 -0.43554912721E+02 -0.64300420854E+02 -0.29324698285E+03  0.32622901081E+03  0.12000000000E+03 0.  0.
<mgrwt>
<rscale>  0 0.31115246E+03</rscale>
<asrwt>0</asrwt>
<pdfrwt beam="1">  1        2 0.15747234E+00 0.31115246E+03</pdfrwt>
<pdfrwt beam="2">  1       -2 0.36379395E-02 0.31115246E+03</pdfrwt>
<totfact> 0.80697331E+03</totfact>
</mgrwt>
</event>
<event>
 4    1  0.1807309E-004  0.3236493E+03  0.7818608E-02  0.1073982E+00
         -3   -1    0    0    0  501 -0.00000000000E+00  0.00000000000E+00  0.19169399765E+03  0.19169399765E+03  0.00000000000E+00 0.  1.
          3   -1    0    0  501    0  0.00000000000E+00 -0.00000000000E+00 -0.13660948544E+03  0.13660948544E+03  0.00000000000E+00 0.  1.
         25    1    1    2    0    0 -0.10322819715E+02  0.61140788935E+02  0.11794432600E+03  0.17931988376E+03  0.12000000000E+03 0.  0.
         25    1    1    2    0    0  0.10322819715E+02 -0.61140788935E+02 -0.62859813780E+02  0.14898359932E+03  0.12000000000E+03 0.  0.
<mgrwt>
<rscale>  0 0.32364931E+03</rscale>
<asrwt>0</asrwt>
<pdfrwt beam="1">  1        3 0.21016844E-01 0.32364931E+03</pdfrwt>
<pdfrwt beam="2">  1       -3 0.29491384E-01 0.32364931E+03</pdfrwt>
<totfact> 0.58710564E+02</totfact>
</mgrwt>
</event>
<event>
 4    1  0.1807309E-004  0.3049326E+03  0.7818608E-02  0.1082801E+00
          1   -1    0    0  501    0  0.00000000000E+00  0.00000000000E+00  0.54382047797E+02  0.54382047797E+02  0.00000000000E+00 0.  1.
         -1   -1    0    0    0  501 -0.00000000000E+00 -0.00000000000E+00 -0.42745683415E+03  0.42745683415E+03  0.00000000000E+00 0.  1.
         25    1    1    2    0    0 -0.58601627754E+02  0.64280771359E+02 -0.13000848142E+03  0.19715063678E+03  0.12000000000E+03 0.  0.
         25    1    1    2    0    0  0.58601627754E+02 -0.64280771359E+02 -0.24306630493E+03  0.28468824517E+03  0.12000000000E+03 0.  0.
<mgrwt>
<rscale>  0 0.30493264E+03</rscale>
<asrwt>0</asrwt>
<pdfrwt beam="1">  1        1 0.83664693E-02 0.30493264E+03</pdfrwt>
<pdfrwt beam="2">  1       -1 0.65762586E-01 0.30493264E+03</pdfrwt>
<totfact> 0.19876544E+03</totfact>
</mgrwt>
</event>
<event>
 4    1  0.1807309E-004  0.2918031E+03  0.7818608E-02  0.1089411E+00
          1   -1    0    0  501    0  0.00000000000E+00  0.00000000000E+00  0.45231867429E+03  0.45231867429E+03  0.00000000000E+00 0. -1.
         -1   -1    0    0    0  501 -0.00000000000E+00 -0.00000000000E+00 -0.47062527908E+02  0.47062527908E+02  0.00000000000E+00 0. -1.
         25    1    1    2    0    0 -0.17409742884E+01  0.73862235164E+02  0.26731217479E+03  0.30218282474E+03  0.12000000000E+03 0.  0.
         25    1    1    2    0    0  0.17409742884E+01 -0.73862235164E+02  0.13794397159E+03  0.19719837746E+03  0.12000000000E+03 0.  0.
<mgrwt>
<rscale>  0 0.29180309E+03</rscale>
<asrwt>0</asrwt>
<pdfrwt beam="1">  1        1 0.69587486E-01 0.29180309E+03</pdfrwt>
<pdfrwt beam="2">  1       -1 0.72403892E-02 0.29180309E+03</pdfrwt>
<totfact> 0.51638476E+03</totfact>
</mgrwt>
</event>
<event>
 4    1  0.1807309E-004  0.4315060E+03  0.7818608E-02  0.1033385E+00
          1   -1    0    0  501    0  0.00000000000E+00  0.00000000000E+00  0.33711086073E+02  0.33711086073E+02  0.00000000000E+00 0. -1.
         -1   -1    0    0    0  501 -0.00000000000E+00 -0.00000000000E+00 -0.13808323279E+04  0.13808323279E+04  0.00000000000E+00 0. -1.
         25    1    1    2    0    0  0.11693256983E+03 -0.37674071288E+02 -0.24542815063E+03  0.29954555356E+03  0.12000000000E+03 0.  0.
         25    1    1    2    0    0 -0.11693256983E+03  0.37674071288E+02 -0.11016930912E+04  0.11149978604E+04  0.12000000000E+03 0.  0.
<mgrwt>
<rscale>  0 0.43150600E+03</rscale>
<asrwt>0</asrwt>
<pdfrwt beam="1">  1        1 0.51863217E-02 0.43150600E+03</pdfrwt>
<pdfrwt beam="2">  1       -1 0.21243571E+00 0.43150600E+03</pdfrwt>
<totfact> 0.21667521E+02</totfact>
</mgrwt>
</event>
<event>
 4    1  0.1807309E-004  0.2743909E+03  0.7818608E-02  0.1098793E+00
          1   -1    0    0  501    0  0.00000000000E+00  0.00000000000E+00  0.54616314398E+03  0.54616314398E+03  0.00000000000E+00 0.  1.
         -1   -1    0    0    0  501 -0.00000000000E+00 -0.00000000000E+00 -0.34463310779E+02  0.34463310779E+02  0.00000000000E+00 0.  1.
         25    1    1    2    0    0 -0.35251374959E+02 -0.34564891319E+02  0.35013199691E+03  0.37340300804E+03  0.12000000000E+03 0.  0.
         25    1    1    2    0    0  0.35251374959E+02  0.34564891319E+02  0.16156783629E+03  0.20722344672E+03  0.12000000000E+03 0.  0.
<mgrwt>
<rscale>  0 0.27439089E+03</rscale>
<asrwt>0</asrwt>
<pdfrwt beam="1">  1        1 0.84025093E-01 0.27439089E+03</pdfrwt>
<pdfrwt beam="2">  1       -1 0.53020482E-02 0.27439089E+03</pdfrwt>
<totfact> 0.64261737E+03</totfact>
</mgrwt>
</event>
<event>
 4    1  0.1807309E-004  0.3026556E+03  0.7818608E-02  0.1083921E+00
         -2   -1    0    0    0  501 -0.00000000000E+00  0.00000000000E+00  0.19174560594E+02  0.19174560594E+02  0.00000000000E+00 0.  1.
          2   -1    0    0  501    0  0.00000000000E+00 -0.00000000000E+00 -0.11942962497E+04  0.11942962497E+04  0.00000000000E+00 0.  1.
         25    1    1    2    0    0 -0.69477031883E+02  0.28992813847E+02 -0.37417635972E+03  0.40009447558E+03  0.12000000000E+03 0.  0.
         25    1    1    2    0    0  0.69477031883E+02 -0.28992813847E+02 -0.80094532941E+03  0.81337633474E+03  0.12000000000E+03 0.  0.
<mgrwt>
<rscale>  0 0.30265562E+03</rscale>
<asrwt>0</asrwt>
<pdfrwt beam="1">  1        2 0.18373785E+00 0.30265562E+03</pdfrwt>
<pdfrwt beam="2">  1       -2 0.29499329E-02 0.30265562E+03</pdfrwt>
<totfact> 0.87581035E+03</totfact>
</mgrwt>
</event>
<event>
 4    1  0.1807309E-004  0.2544407E+03  0.7818608E-02  0.1110530E+00
         -1   -1    0    0    0  501 -0.00000000000E+00  0.00000000000E+00  0.36510257198E+02  0.36510257198E+02  0.00000000000E+00 0. -1.
          1   -1    0    0  501    0  0.00000000000E+00 -0.00000000000E+00 -0.44330054793E+03  0.44330054793E+03  0.00000000000E+00 0. -1.
         25    1    1    2    0    0 -0.34770128036E+02 -0.18133590987E+02 -0.23304566845E+03  0.26504352946E+03  0.12000000000E+03 0.  0.
         25    1    1    2    0    0  0.34770128036E+02  0.18133590987E+02 -0.17374462229E+03  0.21476727567E+03  0.12000000000E+03 0.  0.
<mgrwt>
<rscale>  0 0.25444070E+03</rscale>
<asrwt>0</asrwt>
<pdfrwt beam="1">  1        1 0.68200076E-01 0.25444070E+03</pdfrwt>
<pdfrwt beam="2">  1       -1 0.56169633E-02 0.25444070E+03</pdfrwt>
<totfact> 0.77482244E+03</totfact>
</mgrwt>
</event>
<event>
 4    1  0.1807309E-004  0.4077205E+03  0.7818608E-02  0.1041139E+00
         -2   -1    0    0    0  501 -0.00000000000E+00  0.00000000000E+00  0.12123811582E+02  0.12123811582E+02  0.00000000000E+00 0.  1.
          2   -1    0    0  501    0  0.00000000000E+00 -0.00000000000E+00 -0.34278823404E+04  0.34278823404E+04  0.00000000000E+00 0.  1.
         25    1    1    2    0    0 -0.13085911600E+00  0.16035577648E+03 -0.20286034594E+04  0.20384665776E+04  0.12000000000E+03 0.  0.
         25    1    1    2    0    0  0.13085911600E+00 -0.16035577648E+03 -0.13871550694E+04  0.14015395744E+04  0.12000000000E+03 0.  0.
<mgrwt>
<rscale>  0 0.40772049E+03</rscale>
<asrwt>0</asrwt>
<pdfrwt beam="1">  1        2 0.52736769E+00 0.40772049E+03</pdfrwt>
<pdfrwt beam="2">  1       -2 0.18651976E-02 0.40772049E+03</pdfrwt>
<totfact> 0.94624342E+02</totfact>
</mgrwt>
</event>
<event>
 4    1  0.1807309E-004  0.2655522E+03  0.7818608E-02  0.1103853E+00
          2   -1    0    0  501    0  0.00000000000E+00  0.00000000000E+00  0.95870463531E+02  0.95870463531E+02  0.00000000000E+00 0.  1.
         -2   -1    0    0    0  501 -0.00000000000E+00 -0.00000000000E+00 -0.18388866445E+03  0.18388866445E+03  0.00000000000E+00 0.  1.
         25    1    1    2    0    0  0.34697826034E+02  0.44702206911E+02 -0.49510049809E+02  0.14161028023E+03  0.12000000000E+03 0.  0.
         25    1    1    2    0    0 -0.34697826034E+02 -0.44702206911E+02 -0.38508151113E+02  0.13814884776E+03  0.12000000000E+03 0.  0.
<mgrwt>
<rscale>  0 0.26555219E+03</rscale>
<asrwt>0</asrwt>
<pdfrwt beam="1">  1        2 0.14749302E-01 0.26555219E+03</pdfrwt>
<pdfrwt beam="2">  1       -2 0.28290564E-01 0.26555219E+03</pdfrwt>
<totfact> 0.44904325E+03</totfact>
</mgrwt>
</event>
<event>
 4    1  0.1807309E-004  0.2688272E+03  0.7818608E-02  0.1101953E+00
          2   -1    0    0  501    0  0.00000000000E+00  0.00000000000E+00  0.15369606846E+03  0.15369606846E+03  0.00000000000E+00 0.  1.
         -2   -1    0    0    0  501 -0.00000000000E+00 -0.00000000000E+00 -0.11755030319E+03  0.11755030319E+03  0.00000000000E+00 0.  1.
         25    1    1    2    0    0  0.32708971748E+01 -0.53308399119E+02  0.46869775504E+02  0.13946060390E+03  0.12000000000E+03 0.  0.
         25    1    1    2    0    0 -0.32708971748E+01  0.53308399119E+02 -0.10724010229E+02  0.13178576775E+03  0.12000000000E+03 0.  0.
<mgrwt>
<rscale>  0 0.26882723E+03</rscale>
<asrwt>0</asrwt>
<pdfrwt beam="1">  1        2 0.23645549E-01 0.26882723E+03</pdfrwt>
<pdfrwt beam="2">  1       -2 0.18084662E-01 0.26882723E+03</pdfrwt>
<totfact> 0.56749880E+03</totfact>
</mgrwt>
</event>
<event>
 4    1  0.1807309E-004  0.2951920E+03  0.7818608E-02  0.1087669E+00
         -2   -1    0    0    0  501 -0.00000000000E+00  0.00000000000E+00  0.15815803321E+02  0.15815803321E+02  0.00000000000E+00 0.  1.
          2   -1    0    0  501    0  0.00000000000E+00 -0.00000000000E+00 -0.13773928625E+04  0.13773928625E+04  0.00000000000E+00 0.  1.
         25    1    1    2    0    0 -0.15675613038E+02 -0.73032293824E+02 -0.88131251681E+03  0.89257559516E+03  0.12000000000E+03 0.  0.
         25    1    1    2    0    0  0.15675613038E+02  0.73032293824E+02 -0.48026454236E+03  0.50063307066E+03  0.12000000000E+03 0.  0.
<mgrwt>
<rscale>  0 0.29519197E+03</rscale>
<asrwt>0</asrwt>
<pdfrwt beam="1">  1        2 0.21190657E+00 0.29519197E+03</pdfrwt>
<pdfrwt beam="2">  1       -2 0.24332008E-02 0.29519197E+03</pdfrwt>
<totfact> 0.92115953E+03</totfact>
</mgrwt>
</event>
<event>
 4    1  0.1807309E-004  0.3713871E+03  0.7818608E-02  0.1054164E+00
         -2   -1    0    0    0  501 -0.00000000000E+00  0.00000000000E+00  0.11597542791E+03  0.11597542791E+03  0.00000000000E+00 0. -1.
          2   -1    0    0  501    0  0.00000000000E+00 -0.00000000000E+00 -0.29732248566E+03  0.29732248566E+03  0.00000000000E+00 0. -1.
         25    1    1    2    0    0 -0.24181005017E+02 -0.70194667839E+02 -0.22500181284E+03  0.26558958598E+03  0.12000000000E+03 0.  0.
         25    1    1    2    0    0  0.24181005017E+02  0.70194667839E+02  0.43654755091E+02  0.14770832759E+03  0.12000000000E+03 0.  0.
<mgrwt>
<rscale>  0 0.37138714E+03</rscale>
<asrwt>0</asrwt>
<pdfrwt beam="1">  1        2 0.45741920E-01 0.37138714E+03</pdfrwt>
<pdfrwt beam="2">  1       -2 0.17842374E-01 0.37138714E+03</pdfrwt>
<totfact> 0.28364322E+03</totfact>
</mgrwt>
</event>
<event>
 4    1  0.1807309E-004  0.2962187E+03  0.7818608E-02  0.1087146E+00
          2   -1    0    0  501    0  0.00000000000E+00  0.00000000000E+00  0.10071320045E+04  0.10071320045E+04  0.00000000000E+00 0. -1.
         -2   -1    0    0    0  501 -0.00000000000E+00 -0.00000000000E+00 -0.21781038671E+02  0.21781038671E+02  0.00000000000E+00 0. -1.
         25    1    1    2    0    0 -0.38617638973E+02  0.77715639550E+02  0.48464993970E+03  0.50677076348E+03  0.12000000000E+03 0.  0.
         25    1    1    2    0    0  0.38617638973E+02 -0.77715639550E+02  0.50070102615E+03  0.52214227971E+03  0.12000000000E+03 0.  0.
<mgrwt>
<rscale>  0 0.29621871E+03</rscale>
<asrwt>0</asrwt>
<pdfrwt beam="1">  1        2 0.15494335E+00 0.29621871E+03</pdfrwt>
<pdfrwt beam="2">  1       -2 0.33509298E-02 0.29621871E+03</pdfrwt>
<totfact> 0.93314900E+03</totfact>
</mgrwt>
</event>
<event>
 4    1  0.1807309E-004  0.3782093E+03  0.7818608E-02  0.1051598E+00
         -2   -1    0    0    0  501 -0.00000000000E+00  0.00000000000E+00  0.70927495925E+02  0.70927495925E+02  0.00000000000E+00 0.  1.
          2   -1    0    0  501    0  0.00000000000E+00 -0.00000000000E+00 -0.50418481249E+03  0.50418481249E+03  0.00000000000E+00 0.  1.
         25    1    1    2    0    0  0.10542913938E+03 -0.84112379525E+02 -0.13100860840E+03  0.22305481680E+03  0.12000000000E+03 0.  0.
         25    1    1    2    0    0 -0.10542913938E+03  0.84112379525E+02 -0.30224870816E+03  0.35205749162E+03  0.12000000000E+03 0.  0.
<mgrwt>
<rscale>  0 0.37820929E+03</rscale>
<asrwt>0</asrwt>
<pdfrwt beam="1">  1        2 0.77566895E-01 0.37820929E+03</pdfrwt>
<pdfrwt beam="2">  1       -2 0.10911922E-01 0.37820929E+03</pdfrwt>
<totfact> 0.35750047E+03</totfact>
</mgrwt>
</event>
<event>
 4    1  0.1807309E-004  0.3146211E+03  0.7818608E-02  0.1078152E+00
         -1   -1    0    0    0  501 -0.00000000000E+00  0.00000000000E+00  0.14834757277E+02  0.14834757277E+02  0.00000000000E+00 0.  1.
          1   -1    0    0  501    0  0.00000000000E+00 -0.00000000000E+00 -0.16681502474E+04  0.16681502474E+04  0.00000000000E+00 0.  1.
         25    1    1    2    0    0  0.34547080027E+02 -0.59188894902E+02 -0.42458175688E+03  0.44650475282E+03  0.12000000000E+03 0.  0.
         25    1    1    2    0    0 -0.34547080027E+02  0.59188894902E+02 -0.12287337332E+04  0.12364802518E+04  0.12000000000E+03 0.  0.
<mgrwt>
<rscale>  0 0.31462107E+03</rscale>
<asrwt>0</asrwt>
<pdfrwt beam="1">  1        1 0.25663835E+00 0.31462107E+03</pdfrwt>
<pdfrwt beam="2">  1       -1 0.22822717E-02 0.31462107E+03</pdfrwt>
<totfact> 0.31328339E+03</totfact>
</mgrwt>
</event>
<event>
 4    1  0.1807309E-004  0.2789860E+03  0.7818608E-02  0.1096244E+00
         -1   -1    0    0    0  501 -0.00000000000E+00  0.00000000000E+00  0.41904086280E+03  0.41904086280E+03  0.00000000000E+00 0. -1.
          1   -1    0    0  501    0  0.00000000000E+00 -0.00000000000E+00 -0.46435316022E+02  0.46435316022E+02  0.00000000000E+00 0. -1.
         25    1    1    2    0    0  0.27743624109E+02 -0.36561178330E+02  0.27695185884E+03  0.30530109819E+03  0.12000000000E+03 0.  0.
         25    1    1    2    0    0 -0.27743624109E+02  0.36561178330E+02  0.95653687931E+02  0.16017508063E+03  0.12000000000E+03 0.  0.
<mgrwt>
<rscale>  0 0.27898598E+03</rscale>
<asrwt>0</asrwt>
<pdfrwt beam="1">  1        1 0.71438951E-02 0.27898598E+03</pdfrwt>
<pdfrwt beam="2">  1       -1 0.64467823E-01 0.27898598E+03</pdfrwt>
<totfact> 0.25596666E+03</totfact>
</mgrwt>
</event>
<event>
 4    1  0.1807309E-004  0.2640838E+03  0.7818608E-02  0.1104714E+00
         -2   -1    0    0    0  501 -0.00000000000E+00  0.00000000000E+00  0.14847585800E+02  0.14847585800E+02  0.00000000000E+00 0. -1.
          2   -1    0    0  501    0  0.00000000000E+00 -0.00000000000E+00 -0.11742692188E+04  0.11742692188E+04  0.00000000000E+00 0. -1.
         25    1    1    2    0    0 -0.28813210994E+02  0.19115509910E+02 -0.77283107432E+03  0.78285597224E+03  0.12000000000E+03 0.  0.
         25    1    1    2    0    0  0.28813210994E+02 -0.19115509910E+02 -0.38659055873E+03  0.40626083240E+03  0.12000000000E+03 0.  0.
<mgrwt>
<rscale>  0 0.26408380E+03</rscale>
<asrwt>0</asrwt>
<pdfrwt beam="1">  1        2 0.18065690E+00 0.26408380E+03</pdfrwt>
<pdfrwt beam="2">  1       -2 0.22842428E-02 0.26408380E+03</pdfrwt>
<totfact> 0.13093019E+04</totfact>
</mgrwt>
</event>
<event>
 4    1  0.1807309E-004  0.2418960E+03  0.7818608E-02  0.1118536E+00
         -1   -1    0    0    0  501 -0.00000000000E+00  0.00000000000E+00  0.25780702911E+03  0.25780702911E+03  0.00000000000E+00 0. -1.
          1   -1    0    0  501    0  0.00000000000E+00 -0.00000000000E+00 -0.56741739136E+02  0.56741739136E+02  0.00000000000E+00 0. -1.
         25    1    1    2    0    0  0.63275471123E+01  0.13664639566E+02  0.10220750332E+03  0.15834498401E+03  0.12000000000E+03 0.  0.
         25    1    1    2    0    0 -0.63275471123E+01 -0.13664639566E+02  0.98857786653E+02  0.15620378423E+03  0.12000000000E+03 0.  0.
<mgrwt>
<rscale>  0 0.24189600E+03</rscale>
<asrwt>0</asrwt>
<pdfrwt beam="1">  1        1 0.87294985E-02 0.24189600E+03</pdfrwt>
<pdfrwt beam="2">  1       -1 0.39662619E-01 0.24189600E+03</pdfrwt>
<totfact> 0.47795423E+03</totfact>
</mgrwt>
</event>
<event>
 4    1  0.1807309E-004  0.3593623E+03  0.7818608E-02  0.1058837E+00
         -4   -1    0    0    0  501 -0.00000000000E+00  0.00000000000E+00  0.45770163735E+03  0.45770163735E+03  0.00000000000E+00 0.  1.
          4   -1    0    0  501    0  0.00000000000E+00 -0.00000000000E+00 -0.70537896384E+02  0.70537896384E+02  0.00000000000E+00 0.  1.
         25    1    1    2    0    0  0.94422710375E+02  0.93152008030E+02  0.21871587745E+03  0.28254128881E+03  0.12000000000E+03 0.  0.
         25    1    1    2    0    0 -0.94422710375E+02 -0.93152008030E+02  0.16844786351E+03  0.24569824492E+03  0.12000000000E+03 0.  0.
<mgrwt>
<rscale>  0 0.35936227E+03</rscale>
<asrwt>0</asrwt>
<pdfrwt beam="1">  1        4 0.10851984E-01 0.35936227E+03</pdfrwt>
<pdfrwt beam="2">  1       -4 0.70415635E-01 0.35936227E+03</pdfrwt>
<totfact> 0.23906476E+02</totfact>
</mgrwt>
</event>
<event>
 4    1  0.1807309E-004  0.3334336E+03  0.7818608E-02  0.1069628E+00
         -1   -1    0    0    0  501 -0.00000000000E+00  0.00000000000E+00  0.35243977188E+02  0.35243977188E+02  0.00000000000E+00 0. -1.
          1   -1    0    0  501    0  0.00000000000E+00 -0.00000000000E+00 -0.78863091044E+03  0.78863091044E+03  0.00000000000E+00 0. -1.
         25    1    1    2    0    0  0.36936922897E+02  0.42767709497E+01 -0.64749872775E+03  0.65957352090E+03  0.12000000000E+03 0.  0.
         25    1    1    2    0    0 -0.36936922897E+02 -0.42767709497E+01 -0.10588820551E+03  0.16430136673E+03  0.12000000000E+03 0.  0.
<mgrwt>
<rscale>  0 0.33343359E+03</rscale>
<asrwt>0</asrwt>
<pdfrwt beam="1">  1        1 0.12132782E+00 0.33343359E+03</pdfrwt>
<pdfrwt beam="2">  1       -1 0.54221511E-02 0.33343359E+03</pdfrwt>
<totfact> 0.36783513E+03</totfact>
</mgrwt>
</event>
<event>
 4    1  0.1807309E-004  0.2472204E+03  0.7818608E-02  0.1115074E+00
         -2   -1    0    0    0  501 -0.00000000000E+00  0.00000000000E+00  0.39550357590E+01  0.39550357590E+01  0.00000000000E+00 0.  1.
          2   -1    0    0  501    0  0.00000000000E+00 -0.00000000000E+00 -0.38632971243E+04  0.38632971243E+04  0.00000000000E+00 0.  1.
         25    1    1    2    0    0 -0.27281548837E+02 -0.51075556626E+01 -0.20930691482E+04  0.20966899697E+04  0.12000000000E+03 0.  0.
         25    1    1    2    0    0  0.27281548837E+02  0.51075556626E+01 -0.17662729403E+04  0.17705621903E+04  0.12000000000E+03 0.  0.
<mgrwt>
<rscale>  0 0.24722037E+03</rscale>
<asrwt>0</asrwt>
<pdfrwt beam="1">  1        2 0.59435326E+00 0.24722037E+03</pdfrwt>
<pdfrwt beam="2">  1       -2 0.60846719E-03 0.24722037E+03</pdfrwt>
<totfact> 0.24908733E+03</totfact>
</mgrwt>
</event>
<event>
 4    1  0.1807309E-004  0.2597157E+03  0.7818608E-02  0.1107314E+00
          1   -1    0    0  501    0  0.00000000000E+00  0.00000000000E+00  0.30883813758E+03  0.30883813758E+03  0.00000000000E+00 0. -1.
         -1   -1    0    0    0  501 -0.00000000000E+00 -0.00000000000E+00 -0.54601621837E+02  0.54601621837E+02  0.00000000000E+00 0. -1.
         25    1    1    2    0    0  0.90244794432E+01 -0.32004236799E+02  0.75562134101E+02  0.14565489526E+03  0.12000000000E+03 0.  0.
         25    1    1    2    0    0 -0.90244794432E+01  0.32004236799E+02  0.17867438164E+03  0.21778486416E+03  0.12000000000E+03 0.  0.
<mgrwt>
<rscale>  0 0.25971572E+03</rscale>
<asrwt>0</asrwt>
<pdfrwt beam="1">  1        1 0.47513559E-01 0.25971572E+03</pdfrwt>
<pdfrwt beam="2">  1       -1 0.84002497E-02 0.25971572E+03</pdfrwt>
<totfact> 0.66766361E+03</totfact>
</mgrwt>
</event>
<event>
 4    1  0.1807309E-004  0.3865847E+03  0.7818608E-02  0.1048526E+00
         -1   -1    0    0    0  501 -0.00000000000E+00  0.00000000000E+00  0.24568339370E+02  0.24568339370E+02  0.00000000000E+00 0.  1.
          1   -1    0    0  501    0  0.00000000000E+00 -0.00000000000E+00 -0.15207353230E+04  0.15207353230E+04  0.00000000000E+00 0.  1.
         25    1    1    2    0    0  0.72020451543E+02  0.11985212309E+03 -0.98152382624E+03  0.99866936387E+03  0.12000000000E+03 0.  0.
         25    1    1    2    0    0 -0.72020451543E+02 -0.11985212309E+03 -0.51464315738E+03  0.54663429849E+03  0.12000000000E+03 0.  0.
<mgrwt>
<rscale>  0 0.38658475E+03</rscale>
<asrwt>0</asrwt>
<pdfrwt beam="1">  1        1 0.23395934E+00 0.38658475E+03</pdfrwt>
<pdfrwt beam="2">  1       -1 0.37797436E-02 0.38658475E+03</pdfrwt>
<totfact> 0.18507981E+03</totfact>
</mgrwt>
</event>
<event>
 4    1  0.1807309E-004  0.3274461E+03  0.7818608E-02  0.1072272E+00
          2   -1    0    0  501    0  0.00000000000E+00  0.00000000000E+00  0.14416248935E+04  0.14416248935E+04  0.00000000000E+00 0.  1.
         -2   -1    0    0    0  501 -0.00000000000E+00 -0.00000000000E+00 -0.18593770943E+02  0.18593770943E+02  0.00000000000E+00 0.  1.
         25    1    1    2    0    0 -0.88890242910E+02 -0.54832027361E+02  0.53896342762E+03  0.56195160185E+03  0.12000000000E+03 0.  0.
         25    1    1    2    0    0  0.88890242910E+02  0.54832027361E+02  0.88406769490E+03  0.89826706255E+03  0.12000000000E+03 0.  0.
<mgrwt>
<rscale>  0 0.32744614E+03</rscale>
<asrwt>0</asrwt>
<pdfrwt beam="1">  1        2 0.22178836E+00 0.32744614E+03</pdfrwt>
<pdfrwt beam="2">  1       -2 0.28605813E-02 0.32744614E+03</pdfrwt>
<totfact> 0.66897965E+03</totfact>
</mgrwt>
</event>
<event>
 4    1  0.1807309E-004  0.2618948E+03  0.7818608E-02  0.1106010E+00
         -2   -1    0    0    0  501 -0.00000000000E+00  0.00000000000E+00  0.63445344365E+02  0.63445344365E+02  0.00000000000E+00 0. -1.
          2   -1    0    0  501    0  0.00000000000E+00 -0.00000000000E+00 -0.27026752775E+03  0.27026752775E+03  0.00000000000E+00 0. -1.
         25    1    1    2    0    0 -0.41947874628E+01  0.24947124826E+02 -0.16190428390E+03  0.20310822835E+03  0.12000000000E+03 0.  0.
         25    1    1    2    0    0  0.41947874628E+01 -0.24947124826E+02 -0.44917899487E+02  0.13060464377E+03  0.12000000000E+03 0.  0.
<mgrwt>
<rscale>  0 0.26189476E+03</rscale>
<asrwt>0</asrwt>
<pdfrwt beam="1">  1        2 0.41579620E-01 0.26189476E+03</pdfrwt>
<pdfrwt beam="2">  1       -2 0.97608222E-02 0.26189476E+03</pdfrwt>
<totfact> 0.83585749E+03</totfact>
</mgrwt>
</event>
<event>
 4    1  0.1807309E-004  0.2715059E+03  0.7818608E-02  0.1100421E+00
         -2   -1    0    0    0  501 -0.00000000000E+00  0.00000000000E+00  0.12548258692E+02  0.12548258692E+02  0.00000000000E+00 0.  1.
          2   -1    0    0  501    0  0.00000000000E+00 -0.00000000000E+00 -0.14686390354E+04  0.14686390354E+04  0.00000000000E+00 0.  1.
         25    1    1    2    0    0  0.57806922428E+02  0.12347933672E+02 -0.85420096010E+03  0.86461170012E+03  0.12000000000E+03 0.  0.
         25    1    1    2    0    0 -0.57806922428E+02 -0.12347933672E+02 -0.60188981659E+03  0.61657559395E+03  0.12000000000E+03 0.  0.
<mgrwt>
<rscale>  0 0.27150589E+03</rscale>
<asrwt>0</asrwt>
<pdfrwt beam="1">  1        2 0.22594434E+00 0.27150589E+03</pdfrwt>
<pdfrwt beam="2">  1       -2 0.19305024E-02 0.27150589E+03</pdfrwt>
<totfact> 0.11546970E+04</totfact>
</mgrwt>
</event>
<event>
 4    1  0.1807309E-004  0.2875981E+03  0.7818608E-02  0.1091610E+00
          1   -1    0    0  501    0  0.00000000000E+00  0.00000000000E+00  0.17896951087E+04  0.17896951087E+04  0.00000000000E+00 0.  1.
         -1   -1    0    0    0  501 -0.00000000000E+00 -0.00000000000E+00 -0.11554016499E+02  0.11554016499E+02  0.00000000000E+00 0.  1.
         25    1    1    2    0    0 -0.26231467260E+02  0.72802055438E+02  0.78242564693E+03  0.79534779947E+03  0.12000000000E+03 0.  0.
         25    1    1    2    0    0  0.26231467260E+02 -0.72802055438E+02  0.99571544527E+03  0.10059013257E+04  0.12000000000E+03 0.  0.
<mgrwt>
<rscale>  0 0.28759810E+03</rscale>
<asrwt>0</asrwt>
<pdfrwt beam="1">  1        1 0.27533749E+00 0.28759810E+03</pdfrwt>
<pdfrwt beam="2">  1       -1 0.17775424E-02 0.28759810E+03</pdfrwt>
<totfact> 0.37652440E+03</totfact>
</mgrwt>
</event>
<event>
 4    1  0.1807309E-004  0.3078089E+03  0.7818608E-02  0.1081401E+00
         -1   -1    0    0    0  501 -0.00000000000E+00  0.00000000000E+00  0.70124762358E+02  0.70124762358E+02  0.00000000000E+00 0.  1.
          1   -1    0    0  501    0  0.00000000000E+00 -0.00000000000E+00 -0.33777773453E+03  0.33777773453E+03  0.00000000000E+00 0.  1.
         25    1    1    2    0    0  0.36001055456E+02 -0.44363934808E+02 -0.30987424492E+02  0.13647144457E+03  0.12000000000E+03 0.  0.
         25    1    1    2    0    0 -0.36001055456E+02  0.44363934808E+02 -0.23666554768E+03  0.27143105232E+03  0.12000000000E+03 0.  0.
<mgrwt>
<rscale>  0 0.30780892E+03</rscale>
<asrwt>0</asrwt>
<pdfrwt beam="1">  1        1 0.51965806E-01 0.30780892E+03</pdfrwt>
<pdfrwt beam="2">  1       -1 0.10788425E-01 0.30780892E+03</pdfrwt>
<totfact> 0.40736560E+03</totfact>
</mgrwt>
</event>
<event>
 4    1  0.1807309E-004  0.2844581E+03  0.7818608E-02  0.1093279E+00
          1   -1    0    0  501    0  0.00000000000E+00  0.00000000000E+00  0.10399135676E+03  0.10399135676E+03  0.00000000000E+00 0. -1.
         -1   -1    0    0    0  501 -0.00000000000E+00 -0.00000000000E+00 -0.19452677755E+03  0.19452677755E+03  0.00000000000E+00 0. -1.
         25    1    1    2    0    0 -0.44818615258E+02 -0.57536554560E+02 -0.21569693576E+02  0.14207186585E+03  0.12000000000E+03 0.  0.
         25    1    1    2    0    0  0.44818615258E+02  0.57536554560E+02 -0.68965727219E+02  0.15644626846E+03  0.12000000000E+03 0.  0.
<mgrwt>
<rscale>  0 0.28445811E+03</rscale>
<asrwt>0</asrwt>
<pdfrwt beam="1">  1        1 0.15998670E-01 0.28445811E+03</pdfrwt>
<pdfrwt beam="2">  1       -1 0.29927196E-01 0.28445811E+03</pdfrwt>
<totfact> 0.34979481E+03</totfact>
</mgrwt>
</event>
<event>
 4    1  0.1807309E-004  0.2882632E+03  0.7818608E-02  0.1091259E+00
          2   -1    0    0  501    0  0.00000000000E+00  0.00000000000E+00  0.13778551029E+03  0.13778551029E+03  0.00000000000E+00 0.  1.
         -2   -1    0    0    0  501 -0.00000000000E+00 -0.00000000000E+00 -0.15077000531E+03  0.15077000531E+03  0.00000000000E+00 0.  1.
         25    1    1    2    0    0 -0.34201589365E+01 -0.47133576055E+02 -0.70905381404E+02  0.14717623650E+03  0.12000000000E+03 0.  0.
         25    1    1    2    0    0  0.34201589365E+01  0.47133576055E+02  0.57920886384E+02  0.14137927910E+03  0.12000000000E+03 0.  0.
<mgrwt>
<rscale>  0 0.28826323E+03</rscale>
<asrwt>0</asrwt>
<pdfrwt beam="1">  1        2 0.21197771E-01 0.28826323E+03</pdfrwt>
<pdfrwt beam="2">  1       -2 0.23195385E-01 0.28826323E+03</pdfrwt>
<totfact> 0.41984257E+03</totfact>
</mgrwt>
</event>
<event>
 4    1  0.1807309E-004  0.2675925E+03  0.7818608E-02  0.1102665E+00
         -1   -1    0    0    0  501 -0.00000000000E+00  0.00000000000E+00  0.45130541519E+02  0.45130541519E+02  0.00000000000E+00 0.  1.
          1   -1    0    0  501    0  0.00000000000E+00 -0.00000000000E+00 -0.39665892275E+03  0.39665892275E+03  0.00000000000E+00 0.  1.
         25    1    1    2    0    0  0.52717860809E+02  0.24786302002E+02 -0.19291358976E+03  0.23454037334E+03  0.12000000000E+03 0.  0.
         25    1    1    2    0    0 -0.52717860809E+02 -0.24786302002E+02 -0.15861479148E+03  0.20724909093E+03  0.12000000000E+03 0.  0.
<mgrwt>
<rscale>  0 0.26759247E+03</rscale>
<asrwt>0</asrwt>
<pdfrwt beam="1">  1        1 0.61024448E-01 0.26759247E+03</pdfrwt>
<pdfrwt beam="2">  1       -1 0.69431604E-02 0.26759247E+03</pdfrwt>
<totfact> 0.65053997E+03</totfact>
</mgrwt>
</event>
<event>
 4    1  0.1807309E-004  0.2410889E+03  0.7818608E-02  0.1119070E+00
         -3   -1    0    0    0  501 -0.00000000000E+00  0.00000000000E+00  0.35041617863E+03  0.35041617863E+03  0.00000000000E+00 0.  1.
          3   -1    0    0  501    0  0.00000000000E+00 -0.00000000000E+00 -0.41467741429E+02  0.41467741429E+02  0.00000000000E+00 0.  1.
         25    1    1    2    0    0 -0.76770910302E+00  0.31615667131E+01  0.17230876441E+03  0.21000213136E+03  0.12000000000E+03 0.  0.
         25    1    1    2    0    0  0.76770910302E+00 -0.31615667131E+01  0.13663967279E+03  0.18188178870E+03  0.12000000000E+03 0.  0.
<mgrwt>
<rscale>  0 0.24108893E+03</rscale>
<asrwt>0</asrwt>
<pdfrwt beam="1">  1        3 0.63796528E-02 0.24108893E+03</pdfrwt>
<pdfrwt beam="2">  1       -3 0.53910179E-01 0.24108893E+03</pdfrwt>
<totfact> 0.13254506E+03</totfact>
</mgrwt>
</event>
<event>
 4    1  0.1807309E-004  0.2474073E+03  0.7818608E-02  0.1114954E+00
         -2   -1    0    0    0  501 -0.00000000000E+00  0.00000000000E+00  0.12125996894E+02  0.12125996894E+02  0.00000000000E+00 0. -1.
          2   -1    0    0  501    0  0.00000000000E+00 -0.00000000000E+00 -0.12619661808E+04  0.12619661808E+04  0.00000000000E+00 0. -1.
         25    1    1    2    0    0  0.33528792444E+01 -0.18909818593E+02 -0.50594190039E+03  0.52033261440E+03  0.12000000000E+03 0.  0.
         25    1    1    2    0    0 -0.33528792444E+01  0.18909818593E+02 -0.74389828350E+03  0.75375956328E+03  0.12000000000E+03 0.  0.
<mgrwt>
<rscale>  0 0.24740734E+03</rscale>
<asrwt>0</asrwt>
<pdfrwt beam="1">  1        2 0.19414863E+00 0.24740734E+03</pdfrwt>
<pdfrwt beam="2">  1       -2 0.18655381E-02 0.24740734E+03</pdfrwt>
<totfact> 0.15699797E+04</totfact>
</mgrwt>
</event>
<event>
 4    1  0.1807309E-004  0.2841454E+03  0.7818608E-02  0.1093446E+00
          4   -1    0    0  501    0  0.00000000000E+00  0.00000000000E+00  0.12746143409E+03  0.12746143409E+03  0.00000000000E+00 0.  1.
         -4   -1    0    0    0  501 -0.00000000000E+00 -0.00000000000E+00 -0.15835890325E+03  0.15835890325E+03  0.00000000000E+00 0.  1.
         25    1    1    2    0    0  0.35596310528E+02  0.67088036064E+02 -0.11331810113E+02  0.14246512495E+03  0.12000000000E+03 0.  0.
         25    1    1    2    0    0 -0.35596310528E+02 -0.67088036064E+02 -0.19565659046E+02  0.14335521239E+03  0.12000000000E+03 0.  0.
<mgrwt>
<rscale>  0 0.28414541E+03</rscale>
<asrwt>0</asrwt>
<pdfrwt beam="1">  1        4 0.19609451E-01 0.28414541E+03</pdfrwt>
<pdfrwt beam="2">  1       -4 0.24362908E-01 0.28414541E+03</pdfrwt>
<totfact> 0.69210559E+02</totfact>
</mgrwt>
</event>
<event>
 4    1  0.1807309E-004  0.3858006E+03  0.7818608E-02  0.1048810E+00
         -2   -1    0    0    0  501 -0.00000000000E+00  0.00000000000E+00  0.48932374177E+03  0.48932374177E+03  0.00000000000E+00 0. -1.
          2   -1    0    0  501    0  0.00000000000E+00 -0.00000000000E+00 -0.76044795461E+02  0.76044795461E+02  0.00000000000E+00 0. -1.
         25    1    1    2    0    0 -0.40729262601E+02 -0.14191667484E+03  0.16003682866E+03  0.24861818509E+03  0.12000000000E+03 0.  0.
         25    1    1    2    0    0  0.40729262601E+02  0.14191667484E+03  0.25324211764E+03  0.31675035214E+03  0.12000000000E+03 0.  0.
<mgrwt>
<rscale>  0 0.38580059E+03</rscale>
<asrwt>0</asrwt>
<pdfrwt beam="1">  1        2 0.11699200E-01 0.38580059E+03</pdfrwt>
<pdfrwt beam="2">  1       -2 0.75280574E-01 0.38580059E+03</pdfrwt>
<totfact> 0.86418207E+02</totfact>
</mgrwt>
</event>
<event>
 4    1  0.1807309E-004  0.2723176E+03  0.7818608E-02  0.1099960E+00
          1   -1    0    0  501    0  0.00000000000E+00  0.00000000000E+00  0.20845441851E+03  0.20845441851E+03  0.00000000000E+00 0.  1.
         -1   -1    0    0    0  501 -0.00000000000E+00 -0.00000000000E+00 -0.88936568038E+02  0.88936568038E+02  0.00000000000E+00 0.  1.
         25    1    1    2    0    0  0.41949413962E+02  0.22158992131E+02  0.12301476065E+02  0.12962291687E+03  0.12000000000E+03 0.  0.
         25    1    1    2    0    0 -0.41949413962E+02 -0.22158992131E+02  0.10721637441E+03  0.16776806969E+03  0.12000000000E+03 0.  0.
<mgrwt>
<rscale>  0 0.27231761E+03</rscale>
<asrwt>0</asrwt>
<pdfrwt beam="1">  1        1 0.32069910E-01 0.27231761E+03</pdfrwt>
<pdfrwt beam="2">  1       -1 0.13682549E-01 0.27231761E+03</pdfrwt>
<totfact> 0.51395769E+03</totfact>
</mgrwt>
</event>
<event>
 4    1  0.1807309E-004  0.2497941E+03  0.7818608E-02  0.1113435E+00
          2   -1    0    0  501    0  0.00000000000E+00  0.00000000000E+00  0.52690644053E+03  0.52690644053E+03  0.00000000000E+00 0. -1.
         -2   -1    0    0    0  501 -0.00000000000E+00 -0.00000000000E+00 -0.29605385322E+02  0.29605385322E+02  0.00000000000E+00 0. -1.
         25    1    1    2    0    0 -0.15069875684E+02  0.14740313136E+02  0.18743886332E+03  0.22355694010E+03  0.12000000000E+03 0.  0.
         25    1    1    2    0    0  0.15069875684E+02 -0.14740313136E+02  0.30986219189E+03  0.33295488575E+03  0.12000000000E+03 0.  0.
<mgrwt>
<rscale>  0 0.24979406E+03</rscale>
<asrwt>0</asrwt>
<pdfrwt beam="1">  1        2 0.81062522E-01 0.24979406E+03</pdfrwt>
<pdfrwt beam="2">  1       -2 0.45546751E-02 0.24979406E+03</pdfrwt>
<totfact> 0.13087968E+04</totfact>
</mgrwt>
</event>
<event>
 4    1  0.1807309E-004  0.2925462E+03  0.7818608E-02  0.1089027E+00
         -2   -1    0    0    0  501 -0.00000000000E+00  0.00000000000E+00  0.66282728385E+02  0.66282728385E+02  0.00000000000E+00 0.  1.
          2   -1    0    0  501    0  0.00000000000E+00 -0.00000000000E+00 -0.32279629352E+03  0.32279629352E+03  0.00000000000E+00 0.  1.
         25    1    1    2    0    0 -0.94683018237E+01 -0.67405777006E+02 -0.19290273819E+03  0.23715955371E+03  0.12000000000E+03 0.  0.
         25    1    1    2    0    0  0.94683018237E+01  0.67405777006E+02 -0.63610826948E+02  0.15191946820E+03  0.12000000000E+03 0.  0.
<mgrwt>
<rscale>  0 0.29254619E+03</rscale>
<asrwt>0</asrwt>
<pdfrwt beam="1">  1        2 0.49660968E-01 0.29254619E+03</pdfrwt>
<pdfrwt beam="2">  1       -2 0.10197343E-01 0.29254619E+03</pdfrwt>
<totfact> 0.64671104E+03</totfact>
</mgrwt>
</event>
<event>
 4    1  0.1807309E-004  0.2645611E+03  0.7818608E-02  0.1104433E+00
          2   -1    0    0  501    0  0.00000000000E+00  0.00000000000E+00  0.18115986354E+04  0.18115986354E+04  0.00000000000E+00 0. -1.
         -2   -1    0    0    0  501 -0.00000000000E+00 -0.00000000000E+00 -0.96589540490E+01  0.96589540490E+01  0.00000000000E+00 0. -1.
         25    1    1    2    0    0  0.46200862166E+02  0.30587033788E+02  0.86450266578E+03  0.87454842372E+03  0.12000000000E+03 0.  0.
         25    1    1    2    0    0 -0.46200862166E+02 -0.30587033788E+02  0.93743701554E+03  0.94670916569E+03  0.12000000000E+03 0.  0.
<mgrwt>
<rscale>  0 0.26456113E+03</rscale>
<asrwt>0</asrwt>
<pdfrwt beam="1">  1        2 0.27870721E+00 0.26456113E+03</pdfrwt>
<pdfrwt beam="2">  1       -2 0.14859944E-02 0.26456113E+03</pdfrwt>
<totfact> 0.11153155E+04</totfact>
</mgrwt>
</event>
<event>
 4    1  0.1807309E-004  0.2960229E+03  0.7818608E-02  0.1087246E+00
          2   -1    0    0  501    0  0.00000000000E+00  0.00000000000E+00  0.13531773059E+04  0.13531773059E+04  0.00000000000E+00 0.  1.
         -2   -1    0    0    0  501 -0.00000000000E+00 -0.00000000000E+00 -0.16189587997E+02  0.16189587997E+02  0.00000000000E+00 0.  1.
         25    1    1    2    0    0  0.63431944755E+01  0.18010126932E+02  0.27753749805E+03  0.30297139075E+03  0.12000000000E+03 0.  0.
         25    1    1    2    0    0 -0.63431944755E+01 -0.18010126932E+02  0.10594502199E+04  0.10663955032E+04  0.12000000000E+03 0.  0.
<mgrwt>
<rscale>  0 0.29602286E+03</rscale>
<asrwt>0</asrwt>
<pdfrwt beam="1">  1        2 0.20818104E+00 0.29602286E+03</pdfrwt>
<pdfrwt beam="2">  1       -2 0.24907069E-02 0.29602286E+03</pdfrwt>
<totfact> 0.91747022E+03</totfact>
</mgrwt>
</event>
<event>
 4    1  0.1807309E-004  0.3178267E+03  0.7818608E-02  0.1076654E+00
         -2   -1    0    0    0  501 -0.00000000000E+00  0.00000000000E+00  0.22785095213E+02  0.22785095213E+02  0.00000000000E+00 0. -1.
          2   -1    0    0  501    0  0.00000000000E+00 -0.00000000000E+00 -0.11083319438E+04  0.11083319438E+04  0.00000000000E+00 0. -1.
         25    1    1    2    0    0  0.49615242299E+02 -0.59601345005E+02 -0.29519346630E+03  0.32795300752E+03  0.12000000000E+03 0.  0.
         25    1    1    2    0    0 -0.49615242299E+02  0.59601345005E+02 -0.79035338232E+03  0.80316403152E+03  0.12000000000E+03 0.  0.
<mgrwt>
<rscale>  0 0.31782668E+03</rscale>
<asrwt>0</asrwt>
<pdfrwt beam="1">  1        2 0.17051250E+00 0.31782668E+03</pdfrwt>
<pdfrwt beam="2">  1       -2 0.35054014E-02 0.31782668E+03</pdfrwt>
<totfact> 0.75948359E+03</totfact>
</mgrwt>
</event>
<event>
 4    1  0.1807309E-004  0.6897462E+03  0.7818608E-02  0.9734930E-01
          2   -1    0    0  501    0  0.00000000000E+00  0.00000000000E+00  0.77278960687E+03  0.77278960687E+03  0.00000000000E+00 0. -1.
         -2   -1    0    0    0  501 -0.00000000000E+00 -0.00000000000E+00 -0.15390664260E+03  0.15390664260E+03  0.00000000000E+00 0. -1.
         25    1    1    2    0    0 -0.25760997181E+03  0.53001666904E+02  0.56210192493E+03  0.63208436801E+03  0.12000000000E+03 0.  0.
         25    1    1    2    0    0  0.25760997181E+03 -0.53001666904E+02  0.56781039343E+02  0.29461188146E+03  0.12000000000E+03 0.  0.
<mgrwt>
<rscale>  0 0.68974620E+03</rscale>
<asrwt>0</asrwt>
<pdfrwt beam="1">  1        2 0.11889071E+00 0.68974620E+03</pdfrwt>
<pdfrwt beam="2">  1       -2 0.23677945E-01 0.68974620E+03</pdfrwt>
<totfact> 0.57350355E+02</totfact>
</mgrwt>
</event>
<event>
 4    1  0.1807309E-004  0.3198093E+03  0.7818608E-02  0.1075737E+00
         -1   -1    0    0    0  501 -0.00000000000E+00  0.00000000000E+00  0.29048923202E+03  0.29048923202E+03  0.00000000000E+00 0.  1.
          1   -1    0    0  501    0  0.00000000000E+00 -0.00000000000E+00 -0.88022196736E+02  0.88022196736E+02  0.00000000000E+00 0.  1.
         25    1    1    2    0    0  0.71834853212E+02 -0.49029353853E+02  0.30167299939E+02  0.15124215570E+03  0.12000000000E+03 0.  0.
         25    1    1    2    0    0 -0.71834853212E+02  0.49029353853E+02  0.17229973535E+03  0.22726927306E+03  0.12000000000E+03 0.  0.
<mgrwt>
<rscale>  0 0.31980932E+03</rscale>
<asrwt>0</asrwt>
<pdfrwt beam="1">  1        1 0.13541877E-01 0.31980932E+03</pdfrwt>
<pdfrwt beam="2">  1       -1 0.44690651E-01 0.31980932E+03</pdfrwt>
<totfact> 0.21600726E+03</totfact>
</mgrwt>
</event>
<event>
 4    1  0.1807309E-004  0.3286153E+03  0.7818608E-02  0.1071751E+00
         -3   -1    0    0    0  501 -0.00000000000E+00  0.00000000000E+00  0.85697661545E+02  0.85697661545E+02  0.00000000000E+00 0.  1.
          3   -1    0    0  501    0  0.00000000000E+00 -0.00000000000E+00 -0.31502618556E+03  0.31502618556E+03  0.00000000000E+00 0.  1.
         25    1    1    2    0    0  0.10272688002E+03  0.45212505659E+02 -0.11447191162E+03  0.20025184418E+03  0.12000000000E+03 0.  0.
         25    1    1    2    0    0 -0.10272688002E+03 -0.45212505659E+02 -0.11485661239E+03  0.20047200292E+03  0.12000000000E+03 0.  0.
<mgrwt>
<rscale>  0 0.32861532E+03</rscale>
<asrwt>0</asrwt>
<pdfrwt beam="1">  1        3 0.48465567E-01 0.32861532E+03</pdfrwt>
<pdfrwt beam="2">  1       -3 0.13184256E-01 0.32861532E+03</pdfrwt>
<totfact> 0.50833425E+02</totfact>
</mgrwt>
</event>
<event>
 4    1  0.1807309E-004  0.4570926E+03  0.7818608E-02  0.1025628E+00
         -2   -1    0    0    0  501 -0.00000000000E+00  0.00000000000E+00  0.42167508951E+02  0.42167508951E+02  0.00000000000E+00 0.  1.
          2   -1    0    0  501    0  0.00000000000E+00 -0.00000000000E+00 -0.12387121128E+04  0.12387121128E+04  0.00000000000E+00 0.  1.
         25    1    1    2    0    0  0.84306674490E+02  0.17076899897E+03 -0.48746047543E+03  0.53692399973E+03  0.12000000000E+03 0.  0.
         25    1    1    2    0    0 -0.84306674490E+02 -0.17076899897E+03 -0.70908412841E+03  0.74395562202E+03  0.12000000000E+03 0.  0.
<mgrwt>
<rscale>  0 0.45709257E+03</rscale>
<asrwt>0</asrwt>
<pdfrwt beam="1">  1        2 0.19057110E+00 0.45709257E+03</pdfrwt>
<pdfrwt beam="2">  1       -2 0.64873088E-02 0.45709257E+03</pdfrwt>
<totfact> 0.24911577E+03</totfact>
</mgrwt>
</event>
<event>
 4    1  0.1807309E-004  0.2859796E+03  0.7818608E-02  0.1092467E+00
          1   -1    0    0  501    0  0.00000000000E+00  0.00000000000E+00  0.14222684369E+03  0.14222684369E+03  0.00000000000E+00 0.  1.
         -1   -1    0    0    0  501 -0.00000000000E+00 -0.00000000000E+00 -0.14375681245E+03  0.14375681245E+03  0.00000000000E+00 0.  1.
         25    1    1    2    0    0  0.15230192212E+02  0.40404400631E+02 -0.65431227763E+02  0.14333778257E+03  0.12000000000E+03 0.  0.
         25    1    1    2    0    0 -0.15230192212E+02 -0.40404400631E+02  0.63901259008E+02  0.14264587358E+03  0.12000000000E+03 0.  0.
<mgrwt>
<rscale>  0 0.28597956E+03</rscale>
<asrwt>0</asrwt>
<pdfrwt beam="1">  1        1 0.21881053E-01 0.28597956E+03</pdfrwt>
<pdfrwt beam="2">  1       -1 0.22116433E-01 0.28597956E+03</pdfrwt>
<totfact> 0.38655649E+03</totfact>
</mgrwt>
</event>
<event>
 4    1  0.1807309E-004  0.4554841E+03  0.7818608E-02  0.1026099E+00
         -2   -1    0    0    0  501 -0.00000000000E+00  0.00000000000E+00  0.78330791881E+03  0.78330791881E+03  0.00000000000E+00 0.  1.
          2   -1    0    0  501    0  0.00000000000E+00 -0.00000000000E+00 -0.66214640324E+02  0.66214640324E+02  0.00000000000E+00 0.  1.
         25    1    1    2    0    0  0.15174578300E+03  0.59559260748E+02  0.16389291337E+03  0.26045148349E+03  0.12000000000E+03 0.  0.
         25    1    1    2    0    0 -0.15174578300E+03 -0.59559260748E+02  0.55320036511E+03  0.58907107564E+03  0.12000000000E+03 0.  0.
<mgrwt>
<rscale>  0 0.45548415E+03</rscale>
<asrwt>0</asrwt>
<pdfrwt beam="1">  1        2 0.10186868E-01 0.45548415E+03</pdfrwt>
<pdfrwt beam="2">  1       -2 0.12050890E+00 0.45548415E+03</pdfrwt>
<totfact> 0.34525977E+02</totfact>
</mgrwt>
</event>
<event>
 4    1  0.1807309E-004  0.4375874E+03  0.7818608E-02  0.1031490E+00
          1   -1    0    0  501    0  0.00000000000E+00  0.00000000000E+00  0.11921836502E+03  0.11921836502E+03  0.00000000000E+00 0. -1.
         -1   -1    0    0    0  501 -0.00000000000E+00 -0.00000000000E+00 -0.40153787457E+03  0.40153787457E+03  0.00000000000E+00 0. -1.
         25    1    1    2    0    0 -0.89079125617E+02  0.10256514372E+03 -0.28698967122E+03  0.33943743269E+03  0.12000000000E+03 0.  0.
         25    1    1    2    0    0  0.89079125617E+02 -0.10256514372E+03  0.46701616710E+01  0.18131880690E+03  0.12000000000E+03 0.  0.
<mgrwt>
<rscale>  0 0.43758743E+03</rscale>
<asrwt>0</asrwt>
<pdfrwt beam="1">  1        1 0.18341287E-01 0.43758743E+03</pdfrwt>
<pdfrwt beam="2">  1       -1 0.61775058E-01 0.43758743E+03</pdfrwt>
<totfact> 0.78746897E+02</totfact>
</mgrwt>
</event>
<event>
 4    1  0.1807309E-004  0.2771792E+03  0.7818608E-02  0.1097240E+00
         -2   -1    0    0    0  501 -0.00000000000E+00  0.00000000000E+00  0.76578682139E+01  0.76578682139E+01  0.00000000000E+00 0.  1.
          2   -1    0    0  501    0  0.00000000000E+00 -0.00000000000E+00 -0.25081486172E+04  0.25081486172E+04  0.00000000000E+00 0.  1.
         25    1    1    2    0    0  0.15200890424E+02 -0.67261891451E+02 -0.11848932876E+04  0.11929490065E+04  0.12000000000E+03 0.  0.
         25    1    1    2    0    0 -0.15200890424E+02  0.67261891451E+02 -0.13155974613E+04  0.13228574789E+04  0.12000000000E+03 0.  0.
<mgrwt>
<rscale>  0 0.27717916E+03</rscale>
<asrwt>0</asrwt>
<pdfrwt beam="1">  1        2 0.38586987E+00 0.27717916E+03</pdfrwt>
<pdfrwt beam="2">  1       -2 0.11781310E-02 0.27717916E+03</pdfrwt>
<totfact> 0.66660983E+03</totfact>
</mgrwt>
</event>
<event>
 4    1  0.1807309E-004  0.3018685E+03  0.7818608E-02  0.1084310E+00
         -1   -1    0    0    0  501 -0.00000000000E+00  0.00000000000E+00  0.11878435970E+03  0.11878435970E+03  0.00000000000E+00 0. -1.
          1   -1    0    0  501    0  0.00000000000E+00 -0.00000000000E+00 -0.19178569248E+03  0.19178569248E+03  0.00000000000E+00 0. -1.
         25    1    1    2    0    0  0.83468274655E+02 -0.24038450324E+02 -0.66253851615E+02  0.16227868875E+03  0.12000000000E+03 0.  0.
         25    1    1    2    0    0 -0.83468274655E+02  0.24038450324E+02 -0.67474811639E+01  0.14829136344E+03  0.12000000000E+03 0.  0.
<mgrwt>
<rscale>  0 0.30186845E+03</rscale>
<asrwt>0</asrwt>
<pdfrwt beam="1">  1        1 0.29505491E-01 0.30186845E+03</pdfrwt>
<pdfrwt beam="2">  1       -1 0.18274517E-01 0.30186845E+03</pdfrwt>
<totfact> 0.36088442E+03</totfact>
</mgrwt>
</event>
<event>
 4    1  0.1807309E-004  0.2502081E+03  0.7818608E-02  0.1113173E+00
         -2   -1    0    0    0  501 -0.00000000000E+00  0.00000000000E+00  0.37786009397E+03  0.37786009397E+03  0.00000000000E+00 0. -1.
          2   -1    0    0  501    0  0.00000000000E+00 -0.00000000000E+00 -0.41420149606E+02  0.41420149606E+02  0.00000000000E+00 0. -1.
         25    1    1    2    0    0  0.89606461651E+01 -0.27385940946E+02  0.20259232637E+03  0.23722127570E+03  0.12000000000E+03 0.  0.
         25    1    1    2    0    0 -0.89606461651E+01  0.27385940946E+02  0.13384761800E+03  0.18205896788E+03  0.12000000000E+03 0.  0.
<mgrwt>
<rscale>  0 0.25020809E+03</rscale>
<asrwt>0</asrwt>
<pdfrwt beam="1">  1        2 0.63723310E-02 0.25020809E+03</pdfrwt>
<pdfrwt beam="2">  1       -2 0.58132320E-01 0.25020809E+03</pdfrwt>
<totfact> 0.31976771E+03</totfact>
</mgrwt>
</event>
<event>
 4    1  0.1807309E-004  0.2442134E+03  0.7818608E-02  0.1117017E+00
          1   -1    0    0  501    0  0.00000000000E+00  0.00000000000E+00  0.56016152239E+03  0.56016152239E+03  0.00000000000E+00 0.  1.
         -1   -1    0    0    0  501 -0.00000000000E+00 -0.00000000000E+00 -0.26617414684E+02  0.26617414684E+02  0.00000000000E+00 0.  1.
         25    1    1    2    0    0 -0.35345352414E+01  0.20139483830E+02  0.28981319147E+03  0.31434022603E+03  0.12000000000E+03 0.  0.
         25    1    1    2    0    0  0.35345352414E+01 -0.20139483830E+02  0.24373091623E+03  0.27243871105E+03  0.12000000000E+03 0.  0.
<mgrwt>
<rscale>  0 0.24421344E+03</rscale>
<asrwt>0</asrwt>
<pdfrwt beam="1">  1        1 0.86178687E-01 0.24421344E+03</pdfrwt>
<pdfrwt beam="2">  1       -1 0.40949873E-02 0.24421344E+03</pdfrwt>
<totfact> 0.90937475E+03</totfact>
</mgrwt>
</event>
<event>
 4    1  0.1807309E-004  0.2629154E+03  0.7818608E-02  0.1105404E+00
          1   -1    0    0  501    0  0.00000000000E+00  0.00000000000E+00  0.12513259907E+03  0.12513259907E+03  0.00000000000E+00 0.  1.
         -1   -1    0    0    0  501 -0.00000000000E+00 -0.00000000000E+00 -0.13810252003E+03  0.13810252003E+03  0.00000000000E+00 0.  1.
         25    1    1    2    0    0 -0.34513914942E+02  0.40242723553E+02  0.19181083919E+01  0.13120352992E+03  0.12000000000E+03 0.  0.
         25    1    1    2    0    0  0.34513914942E+02 -0.40242723553E+02 -0.14888029352E+02  0.13203158918E+03  0.12000000000E+03 0.  0.
<mgrwt>
<rscale>  0 0.26291540E+03</rscale>
<asrwt>0</asrwt>
<pdfrwt beam="1">  1        1 0.19251169E-01 0.26291540E+03</pdfrwt>
<pdfrwt beam="2">  1       -1 0.21246542E-01 0.26291540E+03</pdfrwt>
<totfact> 0.48552050E+03</totfact>
</mgrwt>
</event>
<event>
 4    1  0.1807309E-004  0.3209419E+03  0.7818608E-02  0.1075217E+00
          2   -1    0    0  501    0  0.00000000000E+00  0.00000000000E+00  0.29353395538E+03  0.29353395538E+03  0.00000000000E+00 0.  1.
         -2   -1    0    0    0  501 -0.00000000000E+00 -0.00000000000E+00 -0.87727229301E+02  0.87727229301E+02  0.00000000000E+00 0.  1.
         25    1    1    2    0    0 -0.46398795103E+02  0.75617808208E+02  0.32824498503E+02  0.15280166494E+03  0.12000000000E+03 0.  0.
         25    1    1    2    0    0  0.46398795103E+02 -0.75617808208E+02  0.17298222758E+03  0.22845951975E+03  0.12000000000E+03 0.  0.
<mgrwt>
<rscale>  0 0.32094187E+03</rscale>
<asrwt>0</asrwt>
<pdfrwt beam="1">  1        2 0.45159070E-01 0.32094187E+03</pdfrwt>
<pdfrwt beam="2">  1       -2 0.13496497E-01 0.32094187E+03</pdfrwt>
<totfact> 0.45675781E+03</totfact>
</mgrwt>
</event>
<event>
 4    1  0.1807309E-004  0.2759720E+03  0.7818608E-02  0.1097910E+00
         -1   -1    0    0    0  501 -0.00000000000E+00  0.00000000000E+00  0.74134024532E+02  0.74134024532E+02  0.00000000000E+00 0. -1.
          1   -1    0    0  501    0  0.00000000000E+00 -0.00000000000E+00 -0.25683392244E+03  0.25683392244E+03  0.00000000000E+00 0. -1.
         25    1    1    2    0    0  0.63888679109E+02  0.20871378793E+01 -0.11957799883E+03  0.18106633389E+03  0.12000000000E+03 0.  0.
         25    1    1    2    0    0 -0.63888679109E+02 -0.20871378793E+01 -0.63121899078E+02  0.14990161309E+03  0.12000000000E+03 0.  0.
<mgrwt>
<rscale>  0 0.27597197E+03</rscale>
<asrwt>0</asrwt>
<pdfrwt beam="1">  1        1 0.39512912E-01 0.27597197E+03</pdfrwt>
<pdfrwt beam="2">  1       -1 0.11405234E-01 0.27597197E+03</pdfrwt>
<totfact> 0.52608094E+03</totfact>
</mgrwt>
</event>
<event>
 4    1  0.1807309E-004  0.2710457E+03  0.7818608E-02  0.1100683E+00
         -1   -1    0    0    0  501 -0.00000000000E+00  0.00000000000E+00  0.15607337660E+03  0.15607337660E+03  0.00000000000E+00 0. -1.
          1   -1    0    0  501    0  0.00000000000E+00 -0.00000000000E+00 -0.11767824381E+03  0.11767824381E+03  0.00000000000E+00 0. -1.
         25    1    1    2    0    0  0.34248978156E+02  0.28430816295E+02 -0.25802115863E+02  0.13056436345E+03  0.12000000000E+03 0.  0.
         25    1    1    2    0    0 -0.34248978156E+02 -0.28430816295E+02  0.64197248657E+02  0.14318725696E+03  0.12000000000E+03 0.  0.
<mgrwt>
<rscale>  0 0.27104569E+03</rscale>
<asrwt>0</asrwt>
<pdfrwt beam="1">  1        1 0.18104345E-01 0.27104569E+03</pdfrwt>
<pdfrwt beam="2">  1       -1 0.24011289E-01 0.27104569E+03</pdfrwt>
<totfact> 0.43030521E+03</totfact>
</mgrwt>
</event>
<event>
 4    1  0.1807309E-004  0.2765941E+03  0.7818608E-02  0.1097564E+00
          2   -1    0    0  501    0  0.00000000000E+00  0.00000000000E+00  0.19095810267E+04  0.19095810267E+04  0.00000000000E+00 0.  1.
         -2   -1    0    0    0  501 -0.00000000000E+00 -0.00000000000E+00 -0.10015849139E+02  0.10015849139E+02  0.00000000000E+00 0.  1.
         25    1    1    2    0    0 -0.46884074352E+02  0.23924923365E+02  0.12566864527E+04  0.12634996473E+04  0.12000000000E+03 0.  0.
         25    1    1    2    0    0  0.46884074352E+02 -0.23924923365E+02  0.64287872484E+03  0.65609722850E+03  0.12000000000E+03 0.  0.
<mgrwt>
<rscale>  0 0.27659411E+03</rscale>
<asrwt>0</asrwt>
<pdfrwt beam="1">  1        2 0.29378141E+00 0.27659411E+03</pdfrwt>
<pdfrwt beam="2">  1       -2 0.15409014E-02 0.27659411E+03</pdfrwt>
<totfact> 0.94022798E+03</totfact>
</mgrwt>
</event>
<event>
 4    1  0.1807309E-004  0.2794291E+03  0.7818608E-02  0.1096001E+00
          2   -1    0    0  501    0  0.00000000000E+00  0.00000000000E+00  0.29064812253E+03  0.29064812253E+03  0.00000000000E+00 0. -1.
         -2   -1    0    0    0  501 -0.00000000000E+00 -0.00000000000E+00 -0.67160799848E+02  0.67160799848E+02  0.00000000000E+00 0. -1.
         25    1    1    2    0    0 -0.38832617745E+00 -0.38595410793E+02  0.18889739530E+03  0.22709465534E+03  0.12000000000E+03 0.  0.
         25    1    1    2    0    0  0.38832617745E+00  0.38595410793E+02  0.34589927380E+02  0.13071426704E+03  0.12000000000E+03 0.  0.
<mgrwt>
<rscale>  0 0.27942914E+03</rscale>
<asrwt>0</asrwt>
<pdfrwt beam="1">  1        2 0.44715095E-01 0.27942914E+03</pdfrwt>
<pdfrwt beam="2">  1       -2 0.10332431E-01 0.27942914E+03</pdfrwt>
<totfact> 0.70795050E+03</totfact>
</mgrwt>
</event>
<event>
 4    1  0.1807309E-004  0.3325268E+03  0.7818608E-02  0.1070024E+00
          2   -1    0    0  501    0  0.00000000000E+00  0.00000000000E+00  0.42953870642E+04  0.42953870642E+04  0.00000000000E+00 0. -1.
         -2   -1    0    0    0  501 -0.00000000000E+00 -0.00000000000E+00 -0.64356307258E+01  0.64356307258E+01  0.00000000000E+00 0. -1.
         25    1    1    2    0    0  0.10793396231E+03  0.35706107297E+02  0.23754825904E+04  0.23812270374E+04  0.12000000000E+03 0.  0.
         25    1    1    2    0    0 -0.10793396231E+03 -0.35706107297E+02  0.19134688431E+04  0.19205956576E+04  0.12000000000E+03 0.  0.
<mgrwt>
<rscale>  0 0.33252684E+03</rscale>
<asrwt>0</asrwt>
<pdfrwt beam="1">  1        2 0.66082649E+00 0.33252684E+03</pdfrwt>
<pdfrwt beam="2">  1       -2 0.99010047E-03 0.33252684E+03</pdfrwt>
<totfact> 0.54972317E+02</totfact>
</mgrwt>
</event>
<event>
 4    1  0.1807309E-004  0.2640234E+03  0.7818608E-02  0.1104750E+00
          2   -1    0    0  501    0  0.00000000000E+00  0.00000000000E+00  0.86973804495E+02  0.86973804495E+02  0.00000000000E+00 0. -1.
         -2   -1    0    0    0  501 -0.00000000000E+00 -0.00000000000E+00 -0.20037165385E+03  0.20037165385E+03  0.00000000000E+00 0. -1.
         25    1    1    2    0    0 -0.28468656170E+01 -0.44299266164E+02 -0.92074874375E+02  0.15763347398E+03  0.12000000000E+03 0.  0.
         25    1    1    2    0    0  0.28468656170E+01  0.44299266164E+02 -0.21322974978E+02  0.12971198437E+03  0.12000000000E+03 0.  0.
<mgrwt>
<rscale>  0 0.26402337E+03</rscale>
<asrwt>0</asrwt>
<pdfrwt beam="1">  1        2 0.13380586E-01 0.26402337E+03</pdfrwt>
<pdfrwt beam="2">  1       -2 0.30826408E-01 0.26402337E+03</pdfrwt>
<totfact> 0.43171516E+03</totfact>
</mgrwt>
</event>
<event>
 4    1  0.1807309E-004  0.3029855E+03  0.7818608E-02  0.1083758E+00
          2   -1    0    0  501    0  0.00000000000E+00  0.00000000000E+00  0.11819474987E+04  0.11819474987E+04  0.00000000000E+00 0.  1.
         -2   -1    0    0    0  501 -0.00000000000E+00 -0.00000000000E+00 -0.19417146777E+02  0.19417146777E+02  0.00000000000E+00 0.  1.
         25    1    1    2    0    0  0.68281879683E+02 -0.25117695834E+02  0.80754415866E+03  0.81964680315E+03  0.12000000000E+03 0.  0.
         25    1    1    2    0    0 -0.68281879683E+02  0.25117695834E+02  0.35498619322E+03  0.38171784228E+03  0.12000000000E+03 0.  0.
<mgrwt>
<rscale>  0 0.30298547E+03</rscale>
<asrwt>0</asrwt>
<pdfrwt beam="1">  1        2 0.18183802E+00 0.30298547E+03</pdfrwt>
<pdfrwt beam="2">  1       -2 0.29872543E-02 0.30298547E+03</pdfrwt>
<totfact> 0.87366395E+03</totfact>
</mgrwt>
</event>
<event>
 4    1  0.1807309E-004  0.3398077E+03  0.7818608E-02  0.1066878E+00
          2   -1    0    0  501    0  0.00000000000E+00  0.00000000000E+00  0.13931000375E+04  0.13931000375E+04  0.00000000000E+00 0. -1.
         -2   -1    0    0    0  501 -0.00000000000E+00 -0.00000000000E+00 -0.20721641143E+02  0.20721641143E+02  0.00000000000E+00 0. -1.
         25    1    1    2    0    0  0.34549920267E+01 -0.11534249017E+03  0.82737527990E+03  0.84395834068E+03  0.12000000000E+03 0.  0.
         25    1    1    2    0    0 -0.34549920267E+01  0.11534249017E+03  0.54500311642E+03  0.56986333793E+03  0.12000000000E+03 0.  0.
<mgrwt>
<rscale>  0 0.33980770E+03</rscale>
<asrwt>0</asrwt>
<pdfrwt beam="1">  1        2 0.21432301E+00 0.33980770E+03</pdfrwt>
<pdfrwt beam="2">  1       -2 0.31879459E-02 0.33980770E+03</pdfrwt>
<totfact> 0.60479385E+03</totfact>
</mgrwt>
</event>
<event>
 4    1  0.1807309E-004  0.2739184E+03  0.7818608E-02  0.1099058E+00
          2   -1    0    0  501    0  0.00000000000E+00  0.00000000000E+00  0.81641733439E+03  0.81641733439E+03  0.00000000000E+00 0. -1.
         -2   -1    0    0    0  501 -0.00000000000E+00 -0.00000000000E+00 -0.22975776518E+02  0.22975776518E+02  0.00000000000E+00 0. -1.
         25    1    1    2    0    0 -0.64770104602E+02 -0.33338282437E+01  0.43444408838E+03  0.45535474829E+03  0.12000000000E+03 0.  0.
         25    1    1    2    0    0  0.64770104602E+02  0.33338282437E+01  0.35899746949E+03  0.38403836262E+03  0.12000000000E+03 0.  0.
<mgrwt>
<rscale>  0 0.27391840E+03</rscale>
<asrwt>0</asrwt>
<pdfrwt beam="1">  1        2 0.12560264E+00 0.27391840E+03</pdfrwt>
<pdfrwt beam="2">  1       -2 0.35347355E-02 0.27391840E+03</pdfrwt>
<totfact> 0.11404629E+04</totfact>
</mgrwt>
</event>
<event>
 4    1  0.1807309E-004  0.2433097E+03  0.7818608E-02  0.1117607E+00
          1   -1    0    0  501    0  0.00000000000E+00  0.00000000000E+00  0.12584790823E+04  0.12584790823E+04  0.00000000000E+00 0.  1.
         -1   -1    0    0    0  501 -0.00000000000E+00 -0.00000000000E+00 -0.11760146817E+02  0.11760146817E+02  0.00000000000E+00 0.  1.
         25    1    1    2    0    0 -0.11545700545E+02 -0.93340492718E+01  0.55341982462E+03  0.56647500383E+03  0.12000000000E+03 0.  0.
         25    1    1    2    0    0  0.11545700545E+02  0.93340492718E+01  0.69329911084E+03  0.70376422527E+03  0.12000000000E+03 0.  0.
<mgrwt>
<rscale>  0 0.24330967E+03</rscale>
<asrwt>0</asrwt>
<pdfrwt beam="1">  1        1 0.19361206E+00 0.24330967E+03</pdfrwt>
<pdfrwt beam="2">  1       -1 0.18092543E-02 0.24330967E+03</pdfrwt>
<totfact> 0.82439302E+03</totfact>
</mgrwt>
</event>
<event>
 4    1  0.1807309E-004  0.2637764E+03  0.7818608E-02  0.1104895E+00
         -1   -1    0    0    0  501 -0.00000000000E+00  0.00000000000E+00  0.15457355768E+02  0.15457355768E+02  0.00000000000E+00 0.  1.
          1   -1    0    0  501    0  0.00000000000E+00 -0.00000000000E+00 -0.11253214016E+04  0.11253214016E+04  0.00000000000E+00 0.  1.
         25    1    1    2    0    0 -0.18068916051E+02 -0.47161022323E+02 -0.64604525483E+03  0.65903347338E+03  0.12000000000E+03 0.  0.
         25    1    1    2    0    0  0.18068916051E+02  0.47161022323E+02 -0.46381879103E+03  0.48174528401E+03  0.12000000000E+03 0.  0.
<mgrwt>
<rscale>  0 0.26377637E+03</rscale>
<asrwt>0</asrwt>
<pdfrwt beam="1">  1        1 0.17312637E+00 0.26377637E+03</pdfrwt>
<pdfrwt beam="2">  1       -1 0.23780547E-02 0.26377637E+03</pdfrwt>
<totfact> 0.68662234E+03</totfact>
</mgrwt>
</event>
<event>
 4    1  0.1807309E-004  0.2835664E+03  0.7818608E-02  0.1093757E+00
          1   -1    0    0  501    0  0.00000000000E+00  0.00000000000E+00  0.12509981441E+04  0.12509981441E+04  0.00000000000E+00 0. -1.
         -1   -1    0    0    0  501 -0.00000000000E+00 -0.00000000000E+00 -0.16069154553E+02  0.16069154553E+02  0.00000000000E+00 0. -1.
         25    1    1    2    0    0  0.32949675791E+01 -0.72288591263E+02  0.71392087097E+03  0.72754347447E+03  0.12000000000E+03 0.  0.
         25    1    1    2    0    0 -0.32949675791E+01  0.72288591263E+02  0.52100811861E+03  0.53952382422E+03  0.12000000000E+03 0.  0.
<mgrwt>
<rscale>  0 0.28356645E+03</rscale>
<asrwt>0</asrwt>
<pdfrwt beam="1">  1        1 0.19246118E+00 0.28356645E+03</pdfrwt>
<pdfrwt beam="2">  1       -1 0.24721786E-02 0.28356645E+03</pdfrwt>
<totfact> 0.52997321E+03</totfact>
</mgrwt>
</event>
<event>
 4    1  0.1807309E-004  0.3736482E+03  0.7818608E-02  0.1053307E+00
          2   -1    0    0  501    0  0.00000000000E+00  0.00000000000E+00  0.14891204184E+03  0.14891204184E+03  0.00000000000E+00 0.  1.
         -2   -1    0    0    0  501 -0.00000000000E+00 -0.00000000000E+00 -0.23438833692E+03  0.23438833692E+03  0.00000000000E+00 0.  1.
         25    1    1    2    0    0  0.56197158019E+02 -0.49374978529E+02  0.82511040524E+02  0.16371951894E+03  0.12000000000E+03 0.  0.
         25    1    1    2    0    0 -0.56197158019E+02  0.49374978529E+02 -0.16798733561E+03  0.21958085982E+03  0.12000000000E+03 0.  0.
<mgrwt>
<rscale>  0 0.37364821E+03</rscale>
<asrwt>0</asrwt>
<pdfrwt beam="1">  1        2 0.22909545E-01 0.37364821E+03</pdfrwt>
<pdfrwt beam="2">  1       -2 0.36059744E-01 0.37364821E+03</pdfrwt>
<totfact> 0.17355218E+03</totfact>
</mgrwt>
</event>
<event>
 4    1  0.1807309E-004  0.3522745E+03  0.7818608E-02  0.1061685E+00
          2   -1    0    0  501    0  0.00000000000E+00  0.00000000000E+00  0.34547145853E+03  0.34547145853E+03  0.00000000000E+00 0. -1.
         -2   -1    0    0    0  501 -0.00000000000E+00 -0.00000000000E+00 -0.89802855420E+02  0.89802855420E+02  0.00000000000E+00 0. -1.
         25    1    1    2    0    0 -0.87797986009E+02 -0.93061610774E+02  0.14757988471E+03  0.22923518953E+03  0.12000000000E+03 0.  0.
         25    1    1    2    0    0  0.87797986009E+02  0.93061610774E+02  0.10808871840E+03  0.20603912442E+03  0.12000000000E+03 0.  0.
<mgrwt>
<rscale>  0 0.35227446E+03</rscale>
<asrwt>0</asrwt>
<pdfrwt beam="1">  1        2 0.53149455E-01 0.35227446E+03</pdfrwt>
<pdfrwt beam="2">  1       -2 0.13815824E-01 0.35227446E+03</pdfrwt>
<totfact> 0.36916882E+03</totfact>
</mgrwt>
</event>
<event>
 4    1  0.1807309E-004  0.5979133E+03  0.7818608E-02  0.9909745E-01
          2   -1    0    0  501    0  0.00000000000E+00  0.00000000000E+00  0.21121225714E+04  0.21121225714E+04  0.00000000000E+00 0. -1.
         -2   -1    0    0    0  501 -0.00000000000E+00 -0.00000000000E+00 -0.42315289666E+02  0.42315289666E+02  0.00000000000E+00 0. -1.
         25    1    1    2    0    0  0.17266263031E+03  0.60023027989E+01  0.26946146624E+03  0.34184483809E+03  0.12000000000E+03 0.  0.
         25    1    1    2    0    0 -0.17266263031E+03 -0.60023027989E+01  0.18003458155E+04  0.18125930230E+04  0.12000000000E+03 0.  0.
<mgrwt>
<rscale>  0 0.59791330E+03</rscale>
<asrwt>0</asrwt>
<pdfrwt beam="1">  1        2 0.32494185E+00 0.59791330E+03</pdfrwt>
<pdfrwt beam="2">  1       -2 0.65100462E-02 0.59791330E+03</pdfrwt>
<totfact> 0.81909621E+02</totfact>
</mgrwt>
</event>
<event>
 4    1  0.1807309E-004  0.2847718E+03  0.7818608E-02  0.1093111E+00
          2   -1    0    0  501    0  0.00000000000E+00  0.00000000000E+00  0.74876337257E+03  0.74876337257E+03  0.00000000000E+00 0. -1.
         -2   -1    0    0    0  501 -0.00000000000E+00 -0.00000000000E+00 -0.27076297342E+02  0.27076297342E+02  0.00000000000E+00 0. -1.
         25    1    1    2    0    0 -0.12164668064E+02  0.32745331404E+02  0.17499245672E+03  0.21504091654E+03  0.12000000000E+03 0.  0.
         25    1    1    2    0    0  0.12164668064E+02 -0.32745331404E+02  0.54669461851E+03  0.56079875337E+03  0.12000000000E+03 0.  0.
<mgrwt>
<rscale>  0 0.28477177E+03</rscale>
<asrwt>0</asrwt>
<pdfrwt beam="1">  1        2 0.11519435E+00 0.28477177E+03</pdfrwt>
<pdfrwt beam="2">  1       -2 0.41655848E-02 0.28477177E+03</pdfrwt>
<totfact> 0.99526919E+03</totfact>
</mgrwt>
</event>
<event>
 4    1  0.1807309E-004  0.2620333E+03  0.7818608E-02  0.1105928E+00
          2   -1    0    0  501    0  0.00000000000E+00  0.00000000000E+00  0.41042184290E+03  0.41042184290E+03  0.00000000000E+00 0.  1.
         -2   -1    0    0    0  501 -0.00000000000E+00 -0.00000000000E+00 -0.41823694499E+02  0.41823694499E+02  0.00000000000E+00 0.  1.
         25    1    1    2    0    0  0.24199097485E+02  0.23089137741E+02  0.11426346154E+03  0.16904095138E+03  0.12000000000E+03 0.  0.
         25    1    1    2    0    0 -0.24199097485E+02 -0.23089137741E+02  0.25433468686E+03  0.28320458602E+03  0.12000000000E+03 0.  0.
<mgrwt>
<rscale>  0 0.26203326E+03</rscale>
<asrwt>0</asrwt>
<pdfrwt beam="1">  1        2 0.63141819E-01 0.26203326E+03</pdfrwt>
<pdfrwt beam="2">  1       -2 0.64344148E-02 0.26203326E+03</pdfrwt>
<totfact> 0.10210237E+04</totfact>
</mgrwt>
</event>
<event>
 4    1  0.1807309E-004  0.3183032E+03  0.7818608E-02  0.1076433E+00
          4   -1    0    0  501    0  0.00000000000E+00  0.00000000000E+00  0.14368882680E+03  0.14368882680E+03  0.00000000000E+00 0. -1.
         -4   -1    0    0    0  501 -0.00000000000E+00 -0.00000000000E+00 -0.17627837195E+03  0.17627837195E+03  0.00000000000E+00 0. -1.
         25    1    1    2    0    0  0.55640817771E+02  0.41560749916E+01  0.72575878155E+02  0.15093187752E+03  0.12000000000E+03 0.  0.
         25    1    1    2    0    0 -0.55640817771E+02 -0.41560749916E+01 -0.10516542330E+03  0.16903532122E+03  0.12000000000E+03 0.  0.
<mgrwt>
<rscale>  0 0.31830320E+03</rscale>
<asrwt>0</asrwt>
<pdfrwt beam="1">  1        4 0.22105973E-01 0.31830320E+03</pdfrwt>
<pdfrwt beam="2">  1       -4 0.27119749E-01 0.31830320E+03</pdfrwt>
<totfact> 0.46143662E+02</totfact>
</mgrwt>
</event>
<event>
 4    1  0.1807309E-004  0.5178351E+03  0.7818608E-02  0.1009226E+00
         -2   -1    0    0    0  501 -0.00000000000E+00  0.00000000000E+00  0.82924249940E+03  0.82924249940E+03  0.00000000000E+00 0. -1.
          2   -1    0    0  501    0  0.00000000000E+00 -0.00000000000E+00 -0.80842808847E+02  0.80842808847E+02  0.00000000000E+00 0. -1.
         25    1    1    2    0    0  0.27683941143E+01  0.22922730058E+03  0.35795160064E+03  0.44168107017E+03  0.12000000000E+03 0.  0.
         25    1    1    2    0    0 -0.27683941143E+01 -0.22922730058E+03  0.39044808991E+03  0.46840423808E+03  0.12000000000E+03 0.  0.
<mgrwt>
<rscale>  0 0.51783508E+03</rscale>
<asrwt>0</asrwt>
<pdfrwt beam="1">  1        2 0.12437356E-01 0.51783508E+03</pdfrwt>
<pdfrwt beam="2">  1       -2 0.12757576E+00 0.51783508E+03</pdfrwt>
<totfact> 0.23339141E+02</totfact>
</mgrwt>
</event>
<event>
 4    1  0.1807309E-004  0.3038101E+03  0.7818608E-02  0.1083351E+00
          2   -1    0    0  501    0  0.00000000000E+00  0.00000000000E+00  0.45556893929E+03  0.45556893929E+03  0.00000000000E+00 0.  1.
         -2   -1    0    0    0  501 -0.00000000000E+00 -0.00000000000E+00 -0.50651277128E+02  0.50651277128E+02  0.00000000000E+00 0.  1.
         25    1    1    2    0    0  0.41422628008E+01 -0.76307645537E+02  0.11373832876E+03  0.18214396102E+03  0.12000000000E+03 0.  0.
         25    1    1    2    0    0 -0.41422628008E+01  0.76307645537E+02  0.29117933341E+03  0.32407625540E+03  0.12000000000E+03 0.  0.
<mgrwt>
<rscale>  0 0.30381013E+03</rscale>
<asrwt>0</asrwt>
<pdfrwt beam="1">  1        2 0.70087526E-01 0.30381013E+03</pdfrwt>
<pdfrwt beam="2">  1       -2 0.77925045E-02 0.30381013E+03</pdfrwt>
<totfact> 0.68019305E+03</totfact>
</mgrwt>
</event>
<event>
 4    1  0.1807309E-004  0.3384088E+03  0.7818608E-02  0.1067476E+00
         -1   -1    0    0    0  501 -0.00000000000E+00  0.00000000000E+00  0.11303267109E+03  0.11303267109E+03  0.00000000000E+00 0. -1.
          1   -1    0    0  501    0  0.00000000000E+00 -0.00000000000E+00 -0.25329074061E+03  0.25329074061E+03  0.00000000000E+00 0. -1.
         25    1    1    2    0    0  0.13474329095E+01  0.36766845168E+02 -0.19296404155E+03  0.23019282745E+03  0.12000000000E+03 0.  0.
         25    1    1    2    0    0 -0.13474329095E+01 -0.36766845168E+02  0.52705972037E+02  0.13613058425E+03  0.12000000000E+03 0.  0.
<mgrwt>
<rscale>  0 0.33840880E+03</rscale>
<asrwt>0</asrwt>
<pdfrwt beam="1">  1        1 0.38967806E-01 0.33840880E+03</pdfrwt>
<pdfrwt beam="2">  1       -1 0.17389642E-01 0.33840880E+03</pdfrwt>
<totfact> 0.27574724E+03</totfact>
</mgrwt>
</event>
<event>
 4    1  0.1807309E-004  0.2782503E+03  0.7818608E-02  0.1096648E+00
         -2   -1    0    0    0  501 -0.00000000000E+00  0.00000000000E+00  0.52923221027E+02  0.52923221027E+02  0.00000000000E+00 0.  1.
          2   -1    0    0  501    0  0.00000000000E+00 -0.00000000000E+00 -0.36573362013E+03  0.36573362013E+03  0.00000000000E+00 0.  1.
         25    1    1    2    0    0  0.62615695080E+02  0.11346594694E+02 -0.20170183802E+03  0.24317298769E+03  0.12000000000E+03 0.  0.
         25    1    1    2    0    0 -0.62615695080E+02 -0.11346594694E+02 -0.11110856108E+03  0.17548385347E+03  0.12000000000E+03 0.  0.
<mgrwt>
<rscale>  0 0.27825026E+03</rscale>
<asrwt>0</asrwt>
<pdfrwt beam="1">  1        2 0.56266712E-01 0.27825026E+03</pdfrwt>
<pdfrwt beam="2">  1       -2 0.81420339E-02 0.27825026E+03</pdfrwt>
<totfact> 0.80492710E+03</totfact>
</mgrwt>
</event>
<event>
 4    1  0.1807309E-004  0.2713303E+03  0.7818608E-02  0.1100521E+00
          2   -1    0    0  501    0  0.00000000000E+00  0.00000000000E+00  0.28516075277E+04  0.28516075277E+04  0.00000000000E+00 0.  1.
         -2   -1    0    0    0  501 -0.00000000000E+00 -0.00000000000E+00 -0.64542635973E+01  0.64542635973E+01  0.00000000000E+00 0.  1.
         25    1    1    2    0    0 -0.10356701299E+02  0.14134826365E+02  0.20631298347E+04  0.20666910193E+04  0.12000000000E+03 0.  0.
         25    1    1    2    0    0  0.10356701299E+02 -0.14134826365E+02  0.78202342939E+03  0.79137077195E+03  0.12000000000E+03 0.  0.
<mgrwt>
<rscale>  0 0.27133025E+03</rscale>
<asrwt>0</asrwt>
<pdfrwt beam="1">  1        2 0.43870784E+00 0.27133025E+03</pdfrwt>
<pdfrwt beam="2">  1       -2 0.99296591E-03 0.27133025E+03</pdfrwt>
<totfact> 0.54823449E+03</totfact>
</mgrwt>
</event>
<event>
 4    1  0.1807309E-004  0.2781140E+03  0.7818608E-02  0.1096724E+00
         -1   -1    0    0    0  501 -0.00000000000E+00  0.00000000000E+00  0.70723941428E+02  0.70723941428E+02  0.00000000000E+00 0.  1.
          1   -1    0    0  501    0  0.00000000000E+00 -0.00000000000E+00 -0.27341301094E+03  0.27341301094E+03  0.00000000000E+00 0.  1.
         25    1    1    2    0    0 -0.69793088792E+01 -0.56510884240E+02 -0.50405684033E+02  0.14206661738E+03  0.12000000000E+03 0.  0.
         25    1    1    2    0    0  0.69793088792E+01  0.56510884240E+02 -0.15228338548E+03  0.20207033499E+03  0.12000000000E+03 0.  0.
<mgrwt>
<rscale>  0 0.27811397E+03</rscale>
<asrwt>0</asrwt>
<pdfrwt beam="1">  1        1 0.42063540E-01 0.27811397E+03</pdfrwt>
<pdfrwt beam="2">  1       -1 0.10880606E-01 0.27811397E+03</pdfrwt>
<totfact> 0.52345909E+03</totfact>
</mgrwt>
</event>
<event>
 4    1  0.1807309E-004  0.2799493E+03  0.7818608E-02  0.1095717E+00
         -1   -1    0    0    0  501 -0.00000000000E+00  0.00000000000E+00  0.20016020560E+04  0.20016020560E+04  0.00000000000E+00 0.  1.
          1   -1    0    0  501    0  0.00000000000E+00 -0.00000000000E+00 -0.97886124435E+01  0.97886124435E+01  0.00000000000E+00 0.  1.
         25    1    1    2    0    0  0.42559942638E+02  0.57892404557E+02  0.95653566313E+03  0.96670748113E+03  0.12000000000E+03 0.  0.
         25    1    1    2    0    0 -0.42559942638E+02 -0.57892404557E+02  0.10352777805E+04  0.10446831873E+04  0.12000000000E+03 0.  0.
<mgrwt>
<rscale>  0 0.27994933E+03</rscale>
<asrwt>0</asrwt>
<pdfrwt beam="1">  1        1 0.15059420E-02 0.27994933E+03</pdfrwt>
<pdfrwt beam="2">  1       -1 0.30793845E+00 0.27994933E+03</pdfrwt>
<totfact> 0.31158617E+02</totfact>
</mgrwt>
</event>
<event>
 4    1  0.1807309E-004  0.4512900E+03  0.7818608E-02  0.1027338E+00
         -1   -1    0    0    0  501 -0.00000000000E+00  0.00000000000E+00  0.40916678566E+02  0.40916678566E+02  0.00000000000E+00 0. -1.
          1   -1    0    0  501    0  0.00000000000E+00 -0.00000000000E+00 -0.12443740936E+04  0.12443740936E+04  0.00000000000E+00 0. -1.
         25    1    1    2    0    0 -0.76844478212E+02  0.17059572515E+03 -0.49114268275E+03  0.53910027832E+03  0.12000000000E+03 0.  0.
         25    1    1    2    0    0  0.76844478212E+02 -0.17059572515E+03 -0.71231473230E+03  0.74619049386E+03  0.12000000000E+03 0.  0.
<mgrwt>
<rscale>  0 0.45128995E+03</rscale>
<asrwt>0</asrwt>
<pdfrwt beam="1">  1        1 0.19144220E+00 0.45128995E+03</pdfrwt>
<pdfrwt beam="2">  1       -1 0.62948727E-02 0.45128995E+03</pdfrwt>
<totfact> 0.13179927E+03</totfact>
</mgrwt>
</event>
<event>
 4    1  0.1807309E-004  0.3116191E+03  0.7818608E-02  0.1079572E+00
          2   -1    0    0  501    0  0.00000000000E+00  0.00000000000E+00  0.13212339706E+04  0.13212339706E+04  0.00000000000E+00 0.  1.
         -2   -1    0    0    0  501 -0.00000000000E+00 -0.00000000000E+00 -0.18374200615E+02  0.18374200615E+02  0.00000000000E+00 0.  1.
         25    1    1    2    0    0  0.42995333981E+02  0.89585321693E+02  0.64464717113E+03  0.66320743652E+03  0.12000000000E+03 0.  0.
         25    1    1    2    0    0 -0.42995333981E+02 -0.89585321693E+02  0.65821259883E+03  0.67640073467E+03  0.12000000000E+03 0.  0.
<mgrwt>
<rscale>  0 0.31161911E+03</rscale>
<asrwt>0</asrwt>
<pdfrwt beam="1">  1        2 0.20326669E+00 0.31161911E+03</pdfrwt>
<pdfrwt beam="2">  1       -2 0.28268011E-02 0.31161911E+03</pdfrwt>
<totfact> 0.79225975E+03</totfact>
</mgrwt>
</event>
<event>
 4    1  0.1807309E-004  0.3614063E+03  0.7818608E-02  0.1058028E+00
          1   -1    0    0  501    0  0.00000000000E+00  0.00000000000E+00  0.13691605564E+03  0.13691605564E+03  0.00000000000E+00 0.  1.
         -1   -1    0    0    0  501 -0.00000000000E+00 -0.00000000000E+00 -0.23849379375E+03  0.23849379375E+03  0.00000000000E+00 0.  1.
         25    1    1    2    0    0  0.56690954703E+02  0.60774838093E+02 -0.16143464842E+03  0.21764326546E+03  0.12000000000E+03 0.  0.
         25    1    1    2    0    0 -0.56690954703E+02 -0.60774838093E+02  0.59856910320E+02  0.15776658393E+03  0.12000000000E+03 0.  0.
<mgrwt>
<rscale>  0 0.36140631E+03</rscale>
<asrwt>0</asrwt>
<pdfrwt beam="1">  1        1 0.21064009E-01 0.36140631E+03</pdfrwt>
<pdfrwt beam="2">  1       -1 0.36691353E-01 0.36140631E+03</pdfrwt>
<totfact> 0.17252755E+03</totfact>
</mgrwt>
</event>
<event>
 4    1  0.1807309E-004  0.3003786E+03  0.7818608E-02  0.1085052E+00
         -2   -1    0    0    0  501 -0.00000000000E+00  0.00000000000E+00  0.31011649282E+02  0.31011649282E+02  0.00000000000E+00 0.  1.
          2   -1    0    0  501    0  0.00000000000E+00 -0.00000000000E+00 -0.72736608705E+03  0.72736608705E+03  0.00000000000E+00 0.  1.
         25    1    1    2    0    0 -0.39997172980E+02  0.58698824177E+02 -0.48900919058E+03  0.50850301304E+03  0.12000000000E+03 0.  0.
         25    1    1    2    0    0  0.39997172980E+02 -0.58698824177E+02 -0.20734524720E+03  0.24987472329E+03  0.12000000000E+03 0.  0.
<mgrwt>
<rscale>  0 0.30037857E+03</rscale>
<asrwt>0</asrwt>
<pdfrwt beam="1">  1        2 0.11190247E+00 0.30037857E+03</pdfrwt>
<pdfrwt beam="2">  1       -2 0.47710231E-02 0.30037857E+03</pdfrwt>
<totfact> 0.84139132E+03</totfact>
</mgrwt>
</event>
<event>
 4    1  0.1807309E-004  0.2480501E+03  0.7818608E-02  0.1114543E+00
         -2   -1    0    0    0  501 -0.00000000000E+00  0.00000000000E+00  0.12952609909E+02  0.12952609909E+02  0.00000000000E+00 0. -1.
          2   -1    0    0  501    0  0.00000000000E+00 -0.00000000000E+00 -0.11875764898E+04  0.11875764898E+04  0.00000000000E+00 0. -1.
         25    1    1    2    0    0  0.23718011193E+02  0.20372230546E+02 -0.57688298294E+03  0.59006063064E+03  0.12000000000E+03 0.  0.
         25    1    1    2    0    0 -0.23718011193E+02 -0.20372230546E+02 -0.59774089692E+03  0.61046846903E+03  0.12000000000E+03 0.  0.
<mgrwt>
<rscale>  0 0.24805012E+03</rscale>
<asrwt>0</asrwt>
<pdfrwt beam="1">  1        2 0.18270406E+00 0.24805012E+03</pdfrwt>
<pdfrwt beam="2">  1       -2 0.19927093E-02 0.24805012E+03</pdfrwt>
<totfact> 0.15695029E+04</totfact>
</mgrwt>
</event>
<event>
 4    1  0.1807309E-004  0.5007209E+03  0.7818608E-02  0.1013591E+00
          2   -1    0    0  501    0  0.00000000000E+00  0.00000000000E+00  0.16294805197E+04  0.16294805197E+04  0.00000000000E+00 0.  1.
         -2   -1    0    0    0  501 -0.00000000000E+00 -0.00000000000E+00 -0.38466467536E+02  0.38466467536E+02  0.00000000000E+00 0.  1.
         25    1    1    2    0    0 -0.50481389324E+00  0.91203745056E+02  0.12960549149E+03  0.19878622028E+03  0.12000000000E+03 0.  0.
         25    1    1    2    0    0  0.50481389324E+00 -0.91203745056E+02  0.14614085606E+04  0.14691607669E+04  0.12000000000E+03 0.  0.
<mgrwt>
<rscale>  0 0.50072092E+03</rscale>
<asrwt>0</asrwt>
<pdfrwt beam="1">  1        2 0.25068926E+00 0.50072092E+03</pdfrwt>
<pdfrwt beam="2">  1       -2 0.59179193E-02 0.50072092E+03</pdfrwt>
<totfact> 0.17435407E+03</totfact>
</mgrwt>
</event>
<event>
 4    1  0.1807309E-004  0.2778933E+03  0.7818608E-02  0.1096845E+00
          2   -1    0    0  501    0  0.00000000000E+00  0.00000000000E+00  0.45088366167E+03  0.45088366167E+03  0.00000000000E+00 0. -1.
         -2   -1    0    0    0  501 -0.00000000000E+00 -0.00000000000E+00 -0.42818511370E+02  0.42818511370E+02  0.00000000000E+00 0. -1.
         25    1    1    2    0    0  0.40695998433E+02  0.56263096730E+02  0.18770468139E+03  0.23335541082E+03  0.12000000000E+03 0.  0.
         25    1    1    2    0    0 -0.40695998433E+02 -0.56263096730E+02  0.22036046891E+03  0.26034676223E+03  0.12000000000E+03 0.  0.
<mgrwt>
<rscale>  0 0.27789327E+03</rscale>
<asrwt>0</asrwt>
<pdfrwt beam="1">  1        2 0.69366714E-01 0.27789327E+03</pdfrwt>
<pdfrwt beam="2">  1       -2 0.65874636E-02 0.27789327E+03</pdfrwt>
<totfact> 0.89049384E+03</totfact>
</mgrwt>
</event>
<event>
 4    1  0.1807309E-004  0.2548232E+03  0.7818608E-02  0.1110294E+00
         -1   -1    0    0    0  501 -0.00000000000E+00  0.00000000000E+00  0.16133855739E+02  0.16133855739E+02  0.00000000000E+00 0. -1.
          1   -1    0    0  501    0  0.00000000000E+00 -0.00000000000E+00 -0.10061897729E+04  0.10061897729E+04  0.00000000000E+00 0. -1.
         25    1    1    2    0    0 -0.36653324804E+02  0.18974402057E+02 -0.54081040920E+03  0.55549922849E+03  0.12000000000E+03 0.  0.
         25    1    1    2    0    0  0.36653324804E+02 -0.18974402057E+02 -0.44924550796E+03  0.46682440015E+03  0.12000000000E+03 0.  0.
<mgrwt>
<rscale>  0 0.25482324E+03</rscale>
<asrwt>0</asrwt>
<pdfrwt beam="1">  1        1 0.15479847E+00 0.25482324E+03</pdfrwt>
<pdfrwt beam="2">  1       -1 0.24821309E-02 0.25482324E+03</pdfrwt>
<totfact> 0.78679637E+03</totfact>
</mgrwt>
</event>
<event>
 4    1  0.1807309E-004  0.2901734E+03  0.7818608E-02  0.1090259E+00
          1   -1    0    0  501    0  0.00000000000E+00  0.00000000000E+00  0.22624784214E+03  0.22624784214E+03  0.00000000000E+00 0.  1.
         -1   -1    0    0    0  501 -0.00000000000E+00 -0.00000000000E+00 -0.93040219286E+02  0.93040219286E+02  0.00000000000E+00 0.  1.
         25    1    1    2    0    0  0.75393904499E+02  0.14518193023E+02  0.36367000485E+02  0.14702917224E+03  0.12000000000E+03 0.  0.
         25    1    1    2    0    0 -0.75393904499E+02 -0.14518193023E+02  0.96840622371E+02  0.17225888919E+03  0.12000000000E+03 0.  0.
<mgrwt>
<rscale>  0 0.29017339E+03</rscale>
<asrwt>0</asrwt>
<pdfrwt beam="1">  1        1 0.34807360E-01 0.29017339E+03</pdfrwt>
<pdfrwt beam="2">  1       -1 0.14313880E-01 0.29017339E+03</pdfrwt>
<totfact> 0.43253101E+03</totfact>
</mgrwt>
</event>
<event>
 4    1  0.1807309E-004  0.2594480E+03  0.7818608E-02  0.1107475E+00
          3   -1    0    0  501    0  0.00000000000E+00  0.00000000000E+00  0.52078655473E+03  0.52078655473E+03  0.00000000000E+00 0.  1.
         -3   -1    0    0    0  501 -0.00000000000E+00 -0.00000000000E+00 -0.32313276353E+02  0.32313276353E+02  0.00000000000E+00 0.  1.
         25    1    1    2    0    0 -0.46759069410E+02  0.51444207178E+01  0.21294555710E+03  0.24891501747E+03  0.12000000000E+03 0.  0.
         25    1    1    2    0    0  0.46759069410E+02 -0.51444207178E+01  0.27552772128E+03  0.30418481361E+03  0.12000000000E+03 0.  0.
<mgrwt>
<rscale>  0 0.25944803E+03</rscale>
<asrwt>0</asrwt>
<pdfrwt beam="1">  1        3 0.80121002E-01 0.25944803E+03</pdfrwt>
<pdfrwt beam="2">  1       -3 0.49712737E-02 0.25944803E+03</pdfrwt>
<totfact> 0.86447199E+02</totfact>
</mgrwt>
</event>
<event>
 4    1  0.1807309E-004  0.2833481E+03  0.7818608E-02  0.1093874E+00
         -1   -1    0    0    0  501 -0.00000000000E+00  0.00000000000E+00  0.16169672874E+02  0.16169672874E+02  0.00000000000E+00 0.  1.
          1   -1    0    0  501    0  0.00000000000E+00 -0.00000000000E+00 -0.12413073328E+04  0.12413073328E+04  0.00000000000E+00 0.  1.
         25    1    1    2    0    0 -0.61763088072E+02 -0.48188985971E+01 -0.80260485998E+03  0.81388725392E+03  0.12000000000E+03 0.  0.
         25    1    1    2    0    0  0.61763088072E+02  0.48188985971E+01 -0.42253279998E+03  0.44358975178E+03  0.12000000000E+03 0.  0.
<mgrwt>
<rscale>  0 0.28334808E+03</rscale>
<asrwt>0</asrwt>
<pdfrwt beam="1">  1        1 0.19097034E+00 0.28334808E+03</pdfrwt>
<pdfrwt beam="2">  1       -1 0.24876422E-02 0.28334808E+03</pdfrwt>
<totfact> 0.53331019E+03</totfact>
</mgrwt>
</event>
<event>
 4    1  0.1807309E-004  0.3304236E+03  0.7818608E-02  0.1070950E+00
          1   -1    0    0  501    0  0.00000000000E+00  0.00000000000E+00  0.44479523150E+03  0.44479523150E+03  0.00000000000E+00 0.  1.
         -1   -1    0    0    0  501 -0.00000000000E+00 -0.00000000000E+00 -0.61365185641E+02  0.61365185641E+02  0.00000000000E+00 0.  1.
         25    1    1    2    0    0 -0.59737873773E+02 -0.20627539225E+02  0.33623651043E+03  0.36255909847E+03  0.12000000000E+03 0.  0.
         25    1    1    2    0    0  0.59737873773E+02  0.20627539225E+02  0.47193535428E+02  0.14360131867E+03  0.12000000000E+03 0.  0.
<mgrwt>
<rscale>  0 0.33042362E+03</rscale>
<asrwt>0</asrwt>
<pdfrwt beam="1">  1        1 0.68430033E-01 0.33042362E+03</pdfrwt>
<pdfrwt beam="2">  1       -1 0.94407981E-02 0.33042362E+03</pdfrwt>
<totfact> 0.35218210E+03</totfact>
</mgrwt>
</event>
<event>
 4    1  0.1807309E-004  0.2766626E+03  0.7818608E-02  0.1097526E+00
         -1   -1    0    0    0  501 -0.00000000000E+00  0.00000000000E+00  0.37700672306E+02  0.37700672306E+02  0.00000000000E+00 0.  1.
          1   -1    0    0  501    0  0.00000000000E+00 -0.00000000000E+00 -0.50756513469E+03  0.50756513469E+03  0.00000000000E+00 0.  1.
         25    1    1    2    0    0  0.58452499357E+02  0.44407640551E+01 -0.16389526122E+03  0.21141918484E+03  0.12000000000E+03 0.  0.
         25    1    1    2    0    0 -0.58452499357E+02 -0.44407640551E+01 -0.30596920117E+03  0.33384662216E+03  0.12000000000E+03 0.  0.
<mgrwt>
<rscale>  0 0.27666259E+03</rscale>
<asrwt>0</asrwt>
<pdfrwt beam="1">  1        1 0.78086945E-01 0.27666259E+03</pdfrwt>
<pdfrwt beam="2">  1       -1 0.58001033E-02 0.27666259E+03</pdfrwt>
<totfact> 0.61971589E+03</totfact>
</mgrwt>
</event>
<event>
 4    1  0.1807309E-004  0.2521327E+03  0.7818608E-02  0.1111964E+00
         -1   -1    0    0    0  501 -0.00000000000E+00  0.00000000000E+00  0.27426625249E+02  0.27426625249E+02  0.00000000000E+00 0.  1.
          1   -1    0    0  501    0  0.00000000000E+00 -0.00000000000E+00 -0.57946348423E+03  0.57946348423E+03  0.00000000000E+00 0.  1.
         25    1    1    2    0    0  0.25821571194E+01  0.20084206194E+02 -0.35521965322E+03  0.37548774269E+03  0.12000000000E+03 0.  0.
         25    1    1    2    0    0 -0.25821571194E+01 -0.20084206194E+02 -0.19681720576E+03  0.23140236679E+03  0.12000000000E+03 0.  0.
<mgrwt>
<rscale>  0 0.25213273E+03</rscale>
<asrwt>0</asrwt>
<pdfrwt beam="1">  1        1 0.89148230E-01 0.25213273E+03</pdfrwt>
<pdfrwt beam="2">  1       -1 0.42194807E-02 0.25213273E+03</pdfrwt>
<totfact> 0.83149884E+03</totfact>
</mgrwt>
</event>
<event>
 4    1  0.1807309E-004  0.3346172E+03  0.7818608E-02  0.1069112E+00
         -2   -1    0    0    0  501 -0.00000000000E+00  0.00000000000E+00  0.33489802840E+02  0.33489802840E+02  0.00000000000E+00 0. -1.
          2   -1    0    0  501    0  0.00000000000E+00 -0.00000000000E+00 -0.83584158501E+03  0.83584158501E+03  0.00000000000E+00 0. -1.
         25    1    1    2    0    0 -0.49938341058E+02 -0.10532318986E+03 -0.40718935342E+03  0.44021583543E+03  0.12000000000E+03 0.  0.
         25    1    1    2    0    0  0.49938341058E+02  0.10532318986E+03 -0.39516242875E+03  0.42911555241E+03  0.12000000000E+03 0.  0.
<mgrwt>
<rscale>  0 0.33461721E+03</rscale>
<asrwt>0</asrwt>
<pdfrwt beam="1">  1        2 0.12859101E+00 0.33461721E+03</pdfrwt>
<pdfrwt beam="2">  1       -2 0.51522777E-02 0.33461721E+03</pdfrwt>
<totfact> 0.62900784E+03</totfact>
</mgrwt>
</event>
<event>
 4    1  0.1807309E-004  0.2410625E+03  0.7818608E-02  0.1119087E+00
          2   -1    0    0  501    0  0.00000000000E+00  0.00000000000E+00  0.73571739342E+03  0.73571739342E+03  0.00000000000E+00 0. -1.
         -2   -1    0    0    0  501 -0.00000000000E+00 -0.00000000000E+00 -0.19746420342E+02  0.19746420342E+02  0.00000000000E+00 0. -1.
         25    1    1    2    0    0 -0.37713447444E+01 -0.21311425726E+01  0.39070729108E+03  0.40874313708E+03  0.12000000000E+03 0.  0.
         25    1    1    2    0    0  0.37713447444E+01  0.21311425726E+01  0.32526368201E+03  0.34672067669E+03  0.12000000000E+03 0.  0.
<mgrwt>
<rscale>  0 0.24106252E+03</rscale>
<asrwt>0</asrwt>
<pdfrwt beam="1">  1        2 0.11318727E+00 0.24106252E+03</pdfrwt>
<pdfrwt beam="2">  1       -2 0.30379114E-02 0.24106252E+03</pdfrwt>
<totfact> 0.16202326E+04</totfact>
</mgrwt>
</event>
<event>
 4    1  0.1807309E-004  0.3240791E+03  0.7818608E-02  0.1073787E+00
          2   -1    0    0  501    0  0.00000000000E+00  0.00000000000E+00  0.81496952617E+03  0.81496952617E+03  0.00000000000E+00 0. -1.
         -2   -1    0    0    0  501 -0.00000000000E+00 -0.00000000000E+00 -0.32218162657E+02  0.32218162657E+02  0.00000000000E+00 0. -1.
         25    1    1    2    0    0  0.25930742940E+02  0.59868883948E+02  0.16347837272E+03  0.21303019749E+03  0.12000000000E+03 0.  0.
         25    1    1    2    0    0 -0.25930742940E+02 -0.59868883948E+02  0.61927299079E+03  0.63415749134E+03  0.12000000000E+03 0.  0.
<mgrwt>
<rscale>  0 0.32407913E+03</rscale>
<asrwt>0</asrwt>
<pdfrwt beam="1">  1        2 0.12537991E+00 0.32407913E+03</pdfrwt>
<pdfrwt beam="2">  1       -2 0.49566411E-02 0.32407913E+03</pdfrwt>
<totfact> 0.68913834E+03</totfact>
</mgrwt>
</event>
<event>
 4    1  0.1807309E-004  0.2454095E+03  0.7818608E-02  0.1116241E+00
         -3   -1    0    0    0  501 -0.00000000000E+00  0.00000000000E+00  0.90787372681E+03  0.90787372681E+03  0.00000000000E+00 0. -1.
          3   -1    0    0  501    0  0.00000000000E+00 -0.00000000000E+00 -0.16584308296E+02  0.16584308296E+02  0.00000000000E+00 0. -1.
         25    1    1    2    0    0  0.16781754190E+02 -0.86098825213E+01  0.38032220530E+03  0.39925021878E+03  0.12000000000E+03 0.  0.
         25    1    1    2    0    0 -0.16781754190E+02  0.86098825213E+01  0.51096721322E+03  0.52520781633E+03  0.12000000000E+03 0.  0.
<mgrwt>
<rscale>  0 0.24540952E+03</rscale>
<asrwt>0</asrwt>
<pdfrwt beam="1">  1        3 0.25514327E-02 0.24540952E+03</pdfrwt>
<pdfrwt beam="2">  1       -3 0.13967284E+00 0.24540952E+03</pdfrwt>
<totfact> 0.67193931E+02</totfact>
</mgrwt>
</event>
<event>
 4    1  0.1807309E-004  0.2884038E+03  0.7818608E-02  0.1091185E+00
         -2   -1    0    0    0  501 -0.00000000000E+00  0.00000000000E+00  0.85586637795E+02  0.85586637795E+02  0.00000000000E+00 0. -1.
          2   -1    0    0  501    0  0.00000000000E+00 -0.00000000000E+00 -0.24296074264E+03  0.24296074264E+03  0.00000000000E+00 0. -1.
         25    1    1    2    0    0  0.53166634241E+02  0.57812304426E+02 -0.61590076798E+02  0.15608424360E+03  0.12000000000E+03 0.  0.
         25    1    1    2    0    0 -0.53166634241E+02 -0.57812304426E+02 -0.95784028050E+02  0.17246313684E+03  0.12000000000E+03 0.  0.
<mgrwt>
<rscale>  0 0.28840384E+03</rscale>
<asrwt>0</asrwt>
<pdfrwt beam="1">  1        2 0.37378575E-01 0.28840384E+03</pdfrwt>
<pdfrwt beam="2">  1       -2 0.13167175E-01 0.28840384E+03</pdfrwt>
<totfact> 0.58168752E+03</totfact>
</mgrwt>
</event>
<event>
 4    1  0.1807309E-004  0.3111773E+03  0.7818608E-02  0.1079783E+00
         -2   -1    0    0    0  501 -0.00000000000E+00  0.00000000000E+00  0.96662908963E+01  0.96662908963E+01  0.00000000000E+00 0. -1.
          2   -1    0    0  501    0  0.00000000000E+00 -0.00000000000E+00 -0.25043555636E+04  0.25043555636E+04  0.00000000000E+00 0. -1.
         25    1    1    2    0    0 -0.26069430147E+02 -0.82377021684E+02 -0.85634453423E+03  0.86901757761E+03  0.12000000000E+03 0.  0.
         25    1    1    2    0    0  0.26069430147E+02  0.82377021684E+02 -0.16383447385E+04  0.16450042769E+04  0.12000000000E+03 0.  0.
<mgrwt>
<rscale>  0 0.31117731E+03</rscale>
<asrwt>0</asrwt>
<pdfrwt beam="1">  1        2 0.38528521E+00 0.31117731E+03</pdfrwt>
<pdfrwt beam="2">  1       -2 0.14871227E-02 0.31117731E+03</pdfrwt>
<totfact> 0.47600848E+03</totfact>
</mgrwt>
</event>
<event>
 4    1  0.1807309E-004  0.2783046E+03  0.7818608E-02  0.1096619E+00
         -2   -1    0    0    0  501 -0.00000000000E+00  0.00000000000E+00  0.12430635952E+02  0.12430635952E+02  0.00000000000E+00 0. -1.
          2   -1    0    0  501    0  0.00000000000E+00 -0.00000000000E+00 -0.15577130225E+04  0.15577130225E+04  0.00000000000E+00 0. -1.
         25    1    1    2    0    0  0.34949461578E+02  0.61141927850E+02 -0.76199130966E+03  0.77459057327E+03  0.12000000000E+03 0.  0.
         25    1    1    2    0    0 -0.34949461578E+02 -0.61141927850E+02 -0.78329107691E+03  0.79555308520E+03  0.12000000000E+03 0.  0.
<mgrwt>
<rscale>  0 0.27830461E+03</rscale>
<asrwt>0</asrwt>
<pdfrwt beam="1">  1        2 0.23964799E+00 0.27830461E+03</pdfrwt>
<pdfrwt beam="2">  1       -2 0.19124069E-02 0.27830461E+03</pdfrwt>
<totfact> 0.10497593E+04</totfact>
</mgrwt>
</event>
<event>
 4    1  0.1807309E-004  0.2715811E+03  0.7818608E-02  0.1100378E+00
          2   -1    0    0  501    0  0.00000000000E+00  0.00000000000E+00  0.27702799234E+03  0.27702799234E+03  0.00000000000E+00 0. -1.
         -2   -1    0    0    0  501 -0.00000000000E+00 -0.00000000000E+00 -0.66560301679E+02  0.66560301679E+02  0.00000000000E+00 0. -1.
         25    1    1    2    0    0  0.55939133084E+02 -0.23785650516E+02  0.81764783879E+02  0.15741799028E+03  0.12000000000E+03 0.  0.
         25    1    1    2    0    0 -0.55939133084E+02  0.23785650516E+02  0.12870290678E+03  0.18617030374E+03  0.12000000000E+03 0.  0.
<mgrwt>
<rscale>  0 0.27158105E+03</rscale>
<asrwt>0</asrwt>
<pdfrwt beam="1">  1        2 0.42619691E-01 0.27158105E+03</pdfrwt>
<pdfrwt beam="2">  1       -2 0.10240047E-01 0.27158105E+03</pdfrwt>
<totfact> 0.75538384E+03</totfact>
</mgrwt>
</event>
<event>
 4    1  0.1807309E-004  0.2634791E+03  0.7818608E-02  0.1105071E+00
          1   -1    0    0  501    0  0.00000000000E+00  0.00000000000E+00  0.41924516683E+03  0.41924516683E+03  0.00000000000E+00 0.  1.
         -1   -1    0    0    0  501 -0.00000000000E+00 -0.00000000000E+00 -0.41396572225E+02  0.41396572225E+02  0.00000000000E+00 0.  1.
         25    1    1    2    0    0 -0.23077832249E+02 -0.22430815607E+02  0.26552288141E+03  0.29315205676E+03  0.12000000000E+03 0.  0.
         25    1    1    2    0    0  0.23077832249E+02  0.22430815607E+02  0.11232571319E+03  0.16748968229E+03  0.12000000000E+03 0.  0.
<mgrwt>
<rscale>  0 0.26347913E+03</rscale>
<asrwt>0</asrwt>
<pdfrwt beam="1">  1        1 0.64499253E-01 0.26347913E+03</pdfrwt>
<pdfrwt beam="2">  1       -1 0.63687037E-02 0.26347913E+03</pdfrwt>
<totfact> 0.69011449E+03</totfact>
</mgrwt>
</event>
<event>
 4    1  0.1807309E-004  0.3862660E+03  0.7818608E-02  0.1048642E+00
         -1   -1    0    0    0  501 -0.00000000000E+00  0.00000000000E+00  0.26771257936E+02  0.26771257936E+02  0.00000000000E+00 0.  1.
          1   -1    0    0  501    0  0.00000000000E+00 -0.00000000000E+00 -0.13932988825E+04  0.13932988825E+04  0.00000000000E+00 0.  1.
         25    1    1    2    0    0 -0.13146712922E+03  0.59708485256E+02 -0.51674037043E+03  0.54979025065E+03  0.12000000000E+03 0.  0.
         25    1    1    2    0    0  0.13146712922E+03 -0.59708485256E+02 -0.84978725411E+03  0.87027988976E+03  0.12000000000E+03 0.  0.
<mgrwt>
<rscale>  0 0.38626604E+03</rscale>
<asrwt>0</asrwt>
<pdfrwt beam="1">  1        1 0.21435371E+00 0.38626604E+03</pdfrwt>
<pdfrwt beam="2">  1       -1 0.41186544E-02 0.38626604E+03</pdfrwt>
<totfact> 0.19830807E+03</totfact>
</mgrwt>
</event>
<event>
 4    1  0.1807309E-004  0.2963667E+03  0.7818608E-02  0.1087071E+00
          1   -1    0    0  501    0  0.00000000000E+00  0.00000000000E+00  0.66243695504E+03  0.66243695504E+03  0.00000000000E+00 0.  1.
         -1   -1    0    0    0  501 -0.00000000000E+00 -0.00000000000E+00 -0.33147773061E+02  0.33147773061E+02  0.00000000000E+00 0.  1.
         25    1    1    2    0    0 -0.27331555072E+02 -0.54548602741E+02  0.16928439422E+03  0.21628631508E+03  0.12000000000E+03 0.  0.
         25    1    1    2    0    0  0.27331555072E+02  0.54548602741E+02  0.46000478776E+03  0.47929841303E+03  0.12000000000E+03 0.  0.
<mgrwt>
<rscale>  0 0.29636673E+03</rscale>
<asrwt>0</asrwt>
<pdfrwt beam="1">  1        1 0.10191337E+00 0.29636673E+03</pdfrwt>
<pdfrwt beam="2">  1       -1 0.50996579E-02 0.29636673E+03</pdfrwt>
<totfact> 0.52170154E+03</totfact>
</mgrwt>
</event>
<event>
 4    1  0.1807309E-004  0.3541303E+03  0.7818608E-02  0.1060932E+00
         -2   -1    0    0    0  501 -0.00000000000E+00  0.00000000000E+00  0.12005474552E+02  0.12005474552E+02  0.00000000000E+00 0.  1.
          2   -1    0    0  501    0  0.00000000000E+00 -0.00000000000E+00 -0.26114806026E+04  0.26114806026E+04  0.00000000000E+00 0.  1.
         25    1    1    2    0    0  0.11678485342E+03  0.33512405361E+02 -0.16464469348E+04  0.16552792189E+04  0.12000000000E+03 0.  0.
         25    1    1    2    0    0 -0.11678485342E+03 -0.33512405361E+02 -0.95302819318E+03  0.96820685821E+03  0.12000000000E+03 0.  0.
<mgrwt>
<rscale>  0 0.35413028E+03</rscale>
<asrwt>0</asrwt>
<pdfrwt beam="1">  1        2 0.40176682E+00 0.35413028E+03</pdfrwt>
<pdfrwt beam="2">  1       -2 0.18469934E-02 0.35413028E+03</pdfrwt>
<totfact> 0.30079550E+03</totfact>
</mgrwt>
</event>
<event>
 4    1  0.1807309E-004  0.3034228E+03  0.7818608E-02  0.1083542E+00
          1   -1    0    0  501    0  0.00000000000E+00  0.00000000000E+00  0.23732762264E+03  0.23732762264E+03  0.00000000000E+00 0. -1.
         -1   -1    0    0    0  501 -0.00000000000E+00 -0.00000000000E+00 -0.96981356033E+02  0.96981356033E+02  0.00000000000E+00 0. -1.
         25    1    1    2    0    0 -0.56134191649E+02 -0.67739255520E+02  0.10279624561E+03  0.18084999951E+03  0.12000000000E+03 0.  0.
         25    1    1    2    0    0  0.56134191649E+02  0.67739255520E+02  0.37550021001E+02  0.15345897917E+03  0.12000000000E+03 0.  0.
<mgrwt>
<rscale>  0 0.30342284E+03</rscale>
<asrwt>0</asrwt>
<pdfrwt beam="1">  1        1 0.36511942E-01 0.30342284E+03</pdfrwt>
<pdfrwt beam="2">  1       -1 0.14920209E-01 0.30342284E+03</pdfrwt>
<totfact> 0.38173380E+03</totfact>
</mgrwt>
</event>
<event>
 4    1  0.1807309E-004  0.3034389E+03  0.7818608E-02  0.1083534E+00
         -2   -1    0    0    0  501 -0.00000000000E+00  0.00000000000E+00  0.15716247652E+02  0.15716247652E+02  0.00000000000E+00 0. -1.
          2   -1    0    0  501    0  0.00000000000E+00 -0.00000000000E+00 -0.14646497522E+04  0.14646497522E+04  0.00000000000E+00 0. -1.
         25    1    1    2    0    0 -0.73475688200E+02 -0.38597539119E+02 -0.92740548468E+03  0.93881275013E+03  0.12000000000E+03 0.  0.
         25    1    1    2    0    0  0.73475688200E+02  0.38597539119E+02 -0.52152801986E+03  0.54155324972E+03  0.12000000000E+03 0.  0.
<mgrwt>
<rscale>  0 0.30343894E+03</rscale>
<asrwt>0</asrwt>
<pdfrwt beam="1">  1        2 0.22533069E+00 0.30343894E+03</pdfrwt>
<pdfrwt beam="2">  1       -2 0.24178847E-02 0.30343894E+03</pdfrwt>
<totfact> 0.83405512E+03</totfact>
</mgrwt>
</event>
<event>
 4    1  0.1807309E-004  0.6089862E+03  0.7818608E-02  0.9886936E-01
         -2   -1    0    0    0  501 -0.00000000000E+00  0.00000000000E+00  0.13563336492E+03  0.13563336492E+03  0.00000000000E+00 0. -1.
          2   -1    0    0  501    0  0.00000000000E+00 -0.00000000000E+00 -0.68357850488E+03  0.68357850488E+03  0.00000000000E+00 0. -1.
         25    1    1    2    0    0 -0.17253869251E+03 -0.17391724638E+03 -0.45594489553E+03  0.53132151919E+03  0.12000000000E+03 0.  0.
         25    1    1    2    0    0  0.17253869251E+03  0.17391724638E+03 -0.92000244429E+02  0.28789035061E+03  0.12000000000E+03 0.  0.
<mgrwt>
<rscale>  0 0.60898622E+03</rscale>
<asrwt>0</asrwt>
<pdfrwt beam="1">  1        2 0.10516592E+00 0.60898622E+03</pdfrwt>
<pdfrwt beam="2">  1       -2 0.20866672E-01 0.60898622E+03</pdfrwt>
<totfact> 0.84026604E+02</totfact>
</mgrwt>
</event>
<event>
 4    1  0.1807309E-004  0.2918465E+03  0.7818608E-02  0.1089389E+00
          2   -1    0    0  501    0  0.00000000000E+00  0.00000000000E+00  0.27763708757E+03  0.27763708757E+03  0.00000000000E+00 0.  1.
         -2   -1    0    0    0  501 -0.00000000000E+00 -0.00000000000E+00 -0.76695785089E+02  0.76695785089E+02  0.00000000000E+00 0.  1.
         25    1    1    2    0    0 -0.82647819056E+02  0.76288488822E+01  0.97829285859E+02  0.17566852450E+03  0.12000000000E+03 0.  0.
         25    1    1    2    0    0  0.82647819056E+02 -0.76288488822E+01  0.10311201662E+03  0.17866434816E+03  0.12000000000E+03 0.  0.
<mgrwt>
<rscale>  0 0.29184650E+03</rscale>
<asrwt>0</asrwt>
<pdfrwt beam="1">  1        2 0.42713398E-01 0.29184650E+03</pdfrwt>
<pdfrwt beam="2">  1       -2 0.11799352E-01 0.29184650E+03</pdfrwt>
<totfact> 0.60194211E+03</totfact>
</mgrwt>
</event>
<event>
 4    1  0.1807309E-004  0.3234516E+03  0.7818608E-02  0.1074072E+00
         -2   -1    0    0    0  501 -0.00000000000E+00  0.00000000000E+00  0.12978031179E+02  0.12978031179E+02  0.00000000000E+00 0. -1.
          2   -1    0    0  501    0  0.00000000000E+00 -0.00000000000E+00 -0.20153472762E+04  0.20153472762E+04  0.00000000000E+00 0. -1.
         25    1    1    2    0    0 -0.12365550373E+01  0.80870508873E+02 -0.14539780281E+04  0.14611617551E+04  0.12000000000E+03 0.  0.
         25    1    1    2    0    0  0.12365550373E+01 -0.80870508873E+02 -0.54839121690E+03  0.56716355229E+03  0.12000000000E+03 0.  0.
<mgrwt>
<rscale>  0 0.32345163E+03</rscale>
<asrwt>0</asrwt>
<pdfrwt beam="1">  1        2 0.31005357E+00 0.32345163E+03</pdfrwt>
<pdfrwt beam="2">  1       -2 0.19966193E-02 0.32345163E+03</pdfrwt>
<totfact> 0.56524173E+03</totfact>
</mgrwt>
</event>
<event>
 4    1  0.1807309E-004  0.2624747E+03  0.7818608E-02  0.1105665E+00
          2   -1    0    0  501    0  0.00000000000E+00  0.00000000000E+00  0.70795678832E+02  0.70795678832E+02  0.00000000000E+00 0.  1.
         -2   -1    0    0    0  501 -0.00000000000E+00 -0.00000000000E+00 -0.24328098185E+03  0.24328098185E+03  0.00000000000E+00 0.  1.
         25    1    1    2    0    0 -0.28918457250E+02  0.42572305718E+02 -0.70432887077E+02  0.14835588956E+03  0.12000000000E+03 0.  0.
         25    1    1    2    0    0  0.28918457250E+02 -0.42572305718E+02 -0.10205241594E+03  0.16572077113E+03  0.12000000000E+03 0.  0.
<mgrwt>
<rscale>  0 0.26247470E+03</rscale>
<asrwt>0</asrwt>
<pdfrwt beam="1">  1        2 0.10891643E-01 0.26247470E+03</pdfrwt>
<pdfrwt beam="2">  1       -2 0.37427843E-01 0.26247470E+03</pdfrwt>
<totfact> 0.38684275E+03</totfact>
</mgrwt>
</event>
<event>
 4    1  0.1807309E-004  0.3046659E+03  0.7818608E-02  0.1082931E+00
          1   -1    0    0  501    0  0.00000000000E+00  0.00000000000E+00  0.10622365864E+04  0.10622365864E+04  0.00000000000E+00 0.  1.
         -1   -1    0    0    0  501 -0.00000000000E+00 -0.00000000000E+00 -0.21845730855E+02  0.21845730855E+02  0.00000000000E+00 0.  1.
         25    1    1    2    0    0  0.77926315012E+02 -0.47149778187E+02  0.43986035072E+03  0.46494380336E+03  0.12000000000E+03 0.  0.
         25    1    1    2    0    0 -0.77926315012E+02  0.47149778187E+02  0.60053050486E+03  0.61913851392E+03  0.12000000000E+03 0.  0.
<mgrwt>
<rscale>  0 0.30466595E+03</rscale>
<asrwt>0</asrwt>
<pdfrwt beam="1">  1        1 0.16342097E+00 0.30466595E+03</pdfrwt>
<pdfrwt beam="2">  1       -1 0.33608825E-02 0.30466595E+03</pdfrwt>
<totfact> 0.45899184E+03</totfact>
</mgrwt>
</event>
<event>
 4    1  0.1807309E-004  0.2522446E+03  0.7818608E-02  0.1111894E+00
          1   -1    0    0  501    0  0.00000000000E+00  0.00000000000E+00  0.49684526213E+03  0.49684526213E+03  0.00000000000E+00 0.  1.
         -1   -1    0    0    0  501 -0.00000000000E+00 -0.00000000000E+00 -0.32015672829E+02  0.32015672829E+02  0.00000000000E+00 0.  1.
         25    1    1    2    0    0  0.13534929973E+02 -0.33304116208E+02  0.26311984645E+03  0.29141793370E+03  0.12000000000E+03 0.  0.
         25    1    1    2    0    0 -0.13534929973E+02  0.33304116208E+02  0.20170974284E+03  0.23744300125E+03  0.12000000000E+03 0.  0.
<mgrwt>
<rscale>  0 0.25224461E+03</rscale>
<asrwt>0</asrwt>
<pdfrwt beam="1">  1        1 0.76437727E-01 0.25224461E+03</pdfrwt>
<pdfrwt beam="2">  1       -1 0.49254885E-02 0.25224461E+03</pdfrwt>
<totfact> 0.81219257E+03</totfact>
</mgrwt>
</event>
<event>
 4    1  0.1807309E-004  0.5576390E+03  0.7818608E-02  0.9997411E-01
         -2   -1    0    0    0  501 -0.00000000000E+00  0.00000000000E+00  0.71579515107E+02  0.71579515107E+02  0.00000000000E+00 0.  1.
          2   -1    0    0  501    0  0.00000000000E+00 -0.00000000000E+00 -0.10860692487E+04  0.10860692487E+04  0.00000000000E+00 0.  1.
         25    1    1    2    0    0 -0.21747687923E+03  0.43583678679E+02 -0.75414351524E+03  0.79519065111E+03  0.12000000000E+03 0.  0.
         25    1    1    2    0    0  0.21747687923E+03 -0.43583678679E+02 -0.26034621838E+03  0.36245811272E+03  0.12000000000E+03 0.  0.
<mgrwt>
<rscale>  0 0.55763899E+03</rscale>
<asrwt>0</asrwt>
<pdfrwt beam="1">  1        2 0.16708758E+00 0.55763899E+03</pdfrwt>
<pdfrwt beam="2">  1       -2 0.11012233E-01 0.55763899E+03</pdfrwt>
<totfact> 0.13153045E+03</totfact>
</mgrwt>
</event>
<event>
 4    1  0.1807309E-004  0.3239483E+03  0.7818608E-02  0.1073846E+00
         -2   -1    0    0    0  501 -0.00000000000E+00  0.00000000000E+00  0.15365047261E+02  0.15365047261E+02  0.00000000000E+00 0. -1.
          2   -1    0    0  501    0  0.00000000000E+00 -0.00000000000E+00 -0.17074879230E+04  0.17074879230E+04  0.00000000000E+00 0. -1.
         25    1    1    2    0    0 -0.67851104388E+02 -0.70473142806E+02 -0.59293089311E+03  0.61281096615E+03  0.12000000000E+03 0.  0.
         25    1    1    2    0    0  0.67851104388E+02  0.70473142806E+02 -0.10991919826E+04  0.11100420041E+04  0.12000000000E+03 0.  0.
<mgrwt>
<rscale>  0 0.32394835E+03</rscale>
<asrwt>0</asrwt>
<pdfrwt beam="1">  1        2 0.26269041E+00 0.32394835E+03</pdfrwt>
<pdfrwt beam="2">  1       -2 0.23638538E-02 0.32394835E+03</pdfrwt>
<totfact> 0.64026779E+03</totfact>
</mgrwt>
</event>
<event>
 4    1  0.1807309E-004  0.2752709E+03  0.7818608E-02  0.1098300E+00
          2   -1    0    0  501    0  0.00000000000E+00  0.00000000000E+00  0.55426143174E+03  0.55426143174E+03  0.00000000000E+00 0. -1.
         -2   -1    0    0    0  501 -0.00000000000E+00 -0.00000000000E+00 -0.34177948508E+02  0.34177948508E+02  0.00000000000E+00 0. -1.
         25    1    1    2    0    0  0.20900817720E+02 -0.30186212686E+01  0.39687894746E+03  0.41516123999E+03  0.12000000000E+03 0.  0.
         25    1    1    2    0    0 -0.20900817720E+02  0.30186212686E+01  0.12320453577E+03  0.17327814026E+03  0.12000000000E+03 0.  0.
<mgrwt>
<rscale>  0 0.27527091E+03</rscale>
<asrwt>0</asrwt>
<pdfrwt beam="1">  1        2 0.85270983E-01 0.27527091E+03</pdfrwt>
<pdfrwt beam="2">  1       -2 0.52581463E-02 0.27527091E+03</pdfrwt>
<totfact> 0.99803646E+03</totfact>
</mgrwt>
</event>
<event>
 4    1  0.1807309E-004  0.2568149E+03  0.7818608E-02  0.1109072E+00
         -2   -1    0    0    0  501 -0.00000000000E+00  0.00000000000E+00  0.10763035763E+03  0.10763035763E+03  0.00000000000E+00 0. -1.
          2   -1    0    0  501    0  0.00000000000E+00 -0.00000000000E+00 -0.15319537325E+03  0.15319537325E+03  0.00000000000E+00 0. -1.
         25    1    1    2    0    0  0.13592312661E+02 -0.19242285484E+02 -0.62553453921E+02  0.13736066071E+03  0.12000000000E+03 0.  0.
         25    1    1    2    0    0 -0.13592312661E+02  0.19242285484E+02  0.16988438304E+02  0.12346507016E+03  0.12000000000E+03 0.  0.
<mgrwt>
<rscale>  0 0.25681490E+03</rscale>
<asrwt>0</asrwt>
<pdfrwt beam="1">  1        2 0.23568519E-01 0.25681490E+03</pdfrwt>
<pdfrwt beam="2">  1       -2 0.16558517E-01 0.25681490E+03</pdfrwt>
<totfact> 0.65921099E+03</totfact>
</mgrwt>
</event>
<event>
 4    1  0.1807309E-004  0.2675802E+03  0.7818608E-02  0.1102673E+00
         -2   -1    0    0    0  501 -0.00000000000E+00  0.00000000000E+00  0.70396981919E+01  0.70396981919E+01  0.00000000000E+00 0.  1.
          2   -1    0    0  501    0  0.00000000000E+00 -0.00000000000E+00 -0.25426927193E+04  0.25426927193E+04  0.00000000000E+00 0.  1.
         25    1    1    2    0    0 -0.39672391943E+02 -0.15220202981E+02 -0.87560842748E+03  0.88481391916E+03  0.12000000000E+03 0.  0.
         25    1    1    2    0    0  0.39672391943E+02  0.15220202981E+02 -0.16600445936E+04  0.16649184983E+04  0.12000000000E+03 0.  0.
<mgrwt>
<rscale>  0 0.26758019E+03</rscale>
<asrwt>0</asrwt>
<pdfrwt beam="1">  1        2 0.39118339E+00 0.26758019E+03</pdfrwt>
<pdfrwt beam="2">  1       -2 0.10830308E-02 0.26758019E+03</pdfrwt>
<totfact> 0.72136756E+03</totfact>
</mgrwt>
</event>
<event>
 4    1  0.1807309E-004  0.3129002E+03  0.7818608E-02  0.1078964E+00
          2   -1    0    0  501    0  0.00000000000E+00  0.00000000000E+00  0.17546150957E+04  0.17546150957E+04  0.00000000000E+00 0.  1.
         -2   -1    0    0    0  501 -0.00000000000E+00 -0.00000000000E+00 -0.13949860438E+02  0.13949860438E+02  0.00000000000E+00 0.  1.
         25    1    1    2    0    0 -0.86041001999E+02 -0.66099117779E+01  0.58047547199E+03  0.59899792866E+03  0.12000000000E+03 0.  0.
         25    1    1    2    0    0  0.86041001999E+02  0.66099117779E+01  0.11601897633E+04  0.11695670275E+04  0.12000000000E+03 0.  0.
<mgrwt>
<rscale>  0 0.31290021E+03</rscale>
<asrwt>0</asrwt>
<pdfrwt beam="1">  1        2 0.26994061E+00 0.31290021E+03</pdfrwt>
<pdfrwt beam="2">  1       -2 0.21461338E-02 0.31290021E+03</pdfrwt>
<totfact> 0.69751729E+03</totfact>
</mgrwt>
</event>
<event>
 4    1  0.1807309E-004  0.2451320E+03  0.7818608E-02  0.1116421E+00
         -4   -1    0    0    0  501 -0.00000000000E+00  0.00000000000E+00  0.53865943168E+02  0.53865943168E+02  0.00000000000E+00 0.  1.
          4   -1    0    0  501    0  0.00000000000E+00 -0.00000000000E+00 -0.27888534209E+03  0.27888534209E+03  0.00000000000E+00 0.  1.
         25    1    1    2    0    0 -0.50181568952E+01  0.18372915520E+02 -0.90635320721E+02  0.15158333446E+03  0.12000000000E+03 0.  0.
         25    1    1    2    0    0  0.50181568952E+01 -0.18372915520E+02 -0.13438407821E+03  0.18116795080E+03  0.12000000000E+03 0.  0.
<mgrwt>
<rscale>  0 0.24513198E+03</rscale>
<asrwt>0</asrwt>
<pdfrwt beam="1">  1        4 0.42905438E-01 0.24513198E+03</pdfrwt>
<pdfrwt beam="2">  1       -4 0.82870681E-02 0.24513198E+03</pdfrwt>
<totfact> 0.10160629E+03</totfact>
</mgrwt>
</event>
<event>
 4    1  0.1807309E-004  0.2741304E+03  0.7818608E-02  0.1098939E+00
          2   -1    0    0  501    0  0.00000000000E+00  0.00000000000E+00  0.29866410889E+02  0.29866410889E+02  0.00000000000E+00 0. -1.
         -2   -1    0    0    0  501 -0.00000000000E+00 -0.00000000000E+00 -0.62903011544E+03  0.62903011544E+03  0.00000000000E+00 0. -1.
         25    1    1    2    0    0  0.28234969091E+02  0.58688263190E+02 -0.32855941048E+03  0.35579883633E+03  0.12000000000E+03 0.  0.
         25    1    1    2    0    0 -0.28234969091E+02 -0.58688263190E+02 -0.27060429407E+03  0.30309769000E+03  0.12000000000E+03 0.  0.
<mgrwt>
<rscale>  0 0.27413042E+03</rscale>
<asrwt>0</asrwt>
<pdfrwt beam="1">  1        2 0.45948329E-02 0.27413042E+03</pdfrwt>
<pdfrwt beam="2">  1       -2 0.96773854E-01 0.27413042E+03</pdfrwt>
<totfact> 0.16267406E+03</totfact>
</mgrwt>
</event>
<event>
 4    1  0.1807309E-004  0.2747432E+03  0.7818608E-02  0.1098595E+00
         -1   -1    0    0    0  501 -0.00000000000E+00  0.00000000000E+00  0.31733270687E+03  0.31733270687E+03  0.00000000000E+00 0.  1.
          1   -1    0    0  501    0  0.00000000000E+00 -0.00000000000E+00 -0.59467396092E+02  0.59467396092E+02  0.00000000000E+00 0.  1.
         25    1    1    2    0    0 -0.22804715475E+02 -0.35047419442E+02  0.57372065221E+02  0.13942715132E+03  0.12000000000E+03 0.  0.
         25    1    1    2    0    0  0.22804715475E+02  0.35047419442E+02  0.20049324556E+03  0.23737295164E+03  0.12000000000E+03 0.  0.
<mgrwt>
<rscale>  0 0.27474315E+03</rscale>
<asrwt>0</asrwt>
<pdfrwt beam="1">  1        1 0.91488304E-02 0.27474315E+03</pdfrwt>
<pdfrwt beam="2">  1       -1 0.48820415E-01 0.27474315E+03</pdfrwt>
<totfact> 0.30971899E+03</totfact>
</mgrwt>
</event>
<event>
 4    1  0.1807309E-004  0.2635168E+03  0.7818608E-02  0.1105048E+00
         -1   -1    0    0    0  501 -0.00000000000E+00  0.00000000000E+00  0.66582922112E+03  0.66582922112E+03  0.00000000000E+00 0. -1.
          1   -1    0    0  501    0  0.00000000000E+00 -0.00000000000E+00 -0.26073174454E+02  0.26073174454E+02  0.00000000000E+00 0. -1.
         25    1    1    2    0    0  0.30640340339E+01  0.46261195169E+02  0.24511411833E+03  0.27682199604E+03  0.12000000000E+03 0.  0.
         25    1    1    2    0    0 -0.30640340339E+01 -0.46261195169E+02  0.39464192833E+03  0.41508039954E+03  0.12000000000E+03 0.  0.
<mgrwt>
<rscale>  0 0.26351684E+03</rscale>
<asrwt>0</asrwt>
<pdfrwt beam="1">  1        1 0.40112581E-02 0.26351684E+03</pdfrwt>
<pdfrwt beam="2">  1       -1 0.10243525E+00 0.26351684E+03</pdfrwt>
<totfact> 0.21570917E+03</totfact>
</mgrwt>
</event>
<event>
 4    1  0.1807309E-004  0.2925613E+03  0.7818608E-02  0.1089019E+00
          2   -1    0    0  501    0  0.00000000000E+00  0.00000000000E+00  0.28582199138E+03  0.28582199138E+03  0.00000000000E+00 0. -1.
         -2   -1    0    0    0  501 -0.00000000000E+00 -0.00000000000E+00 -0.74864869491E+02  0.74864869491E+02  0.00000000000E+00 0. -1.
         25    1    1    2    0    0 -0.72783949025E+01 -0.72669515672E+02  0.15577245423E+03  0.20975912623E+03  0.12000000000E+03 0.  0.
         25    1    1    2    0    0  0.72783949025E+01  0.72669515672E+02  0.55184667669E+02  0.15092773465E+03  0.12000000000E+03 0.  0.
<mgrwt>
<rscale>  0 0.29256128E+03</rscale>
<asrwt>0</asrwt>
<pdfrwt beam="1">  1        2 0.43972613E-01 0.29256128E+03</pdfrwt>
<pdfrwt beam="2">  1       -2 0.11517672E-01 0.29256128E+03</pdfrwt>
<totfact> 0.60661434E+03</totfact>
</mgrwt>
</event>
<event>
 4    1  0.1807309E-004  0.2578650E+03  0.7818608E-02  0.1108433E+00
         -3   -1    0    0    0  501 -0.00000000000E+00  0.00000000000E+00  0.93022785074E+03  0.93022785074E+03  0.00000000000E+00 0.  1.
          3   -1    0    0  501    0  0.00000000000E+00 -0.00000000000E+00 -0.17870443731E+02  0.17870443731E+02  0.00000000000E+00 0.  1.
         25    1    1    2    0    0 -0.10886883631E+02 -0.33114771577E+02  0.57293840694E+03  0.58640730766E+03  0.12000000000E+03 0.  0.
         25    1    1    2    0    0  0.10886883631E+02  0.33114771577E+02  0.33941900007E+03  0.36169098681E+03  0.12000000000E+03 0.  0.
<mgrwt>
<rscale>  0 0.25786496E+03</rscale>
<asrwt>0</asrwt>
<pdfrwt beam="1">  1        3 0.27492998E-02 0.25786496E+03</pdfrwt>
<pdfrwt beam="2">  1       -3 0.14311194E+00 0.25786496E+03</pdfrwt>
<totfact> 0.56605350E+02</totfact>
</mgrwt>
</event>
<event>
 4    1  0.1807309E-004  0.3099984E+03  0.7818608E-02  0.1080347E+00
         -3   -1    0    0    0  501 -0.00000000000E+00  0.00000000000E+00  0.33989736116E+02  0.33989736116E+02  0.00000000000E+00 0.  1.
          3   -1    0    0  501    0  0.00000000000E+00 -0.00000000000E+00 -0.70682386700E+03  0.70682386700E+03  0.00000000000E+00 0.  1.
         25    1    1    2    0    0  0.63184754072E+02 -0.23525606335E+02 -0.50672626489E+03  0.52508787344E+03  0.12000000000E+03 0.  0.
         25    1    1    2    0    0 -0.63184754072E+02  0.23525606335E+02 -0.16610786599E+03  0.21572572968E+03  0.12000000000E+03 0.  0.
<mgrwt>
<rscale>  0 0.30999843E+03</rscale>
<asrwt>0</asrwt>
<pdfrwt beam="1">  1        3 0.10874211E+00 0.30999843E+03</pdfrwt>
<pdfrwt beam="2">  1       -3 0.52291914E-02 0.30999843E+03</pdfrwt>
<totfact> 0.40602709E+02</totfact>
</mgrwt>
</event>
<event>
 4    1  0.1807309E-004  0.4028741E+03  0.7818608E-02  0.1042789E+00
          1   -1    0    0  501    0  0.00000000000E+00  0.00000000000E+00  0.85691747413E+03  0.85691747413E+03  0.00000000000E+00 0.  1.
         -1   -1    0    0    0  501 -0.00000000000E+00 -0.00000000000E+00 -0.47352159524E+02  0.47352159524E+02  0.00000000000E+00 0.  1.
         25    1    1    2    0    0 -0.11509988653E+03 -0.96818230664E+02  0.53861370132E+03  0.57194971188E+03  0.12000000000E+03 0.  0.
         25    1    1    2    0    0  0.11509988653E+03  0.96818230664E+02  0.27095161329E+03  0.33231992178E+03  0.12000000000E+03 0.  0.
<mgrwt>
<rscale>  0 0.40287414E+03</rscale>
<asrwt>0</asrwt>
<pdfrwt beam="1">  1        1 0.13183345E+00 0.40287414E+03</pdfrwt>
<pdfrwt beam="2">  1       -1 0.72849482E-02 0.40287414E+03</pdfrwt>
<totfact> 0.20597474E+03</totfact>
</mgrwt>
</event>
<event>
 4    1  0.1807309E-004  0.2916739E+03  0.7818608E-02  0.1089478E+00
          2   -1    0    0  501    0  0.00000000000E+00  0.00000000000E+00  0.12105545558E+04  0.12105545558E+04  0.00000000000E+00 0.  1.
         -2   -1    0    0    0  501 -0.00000000000E+00 -0.00000000000E+00 -0.17569145184E+02  0.17569145184E+02  0.00000000000E+00 0.  1.
         25    1    1    2    0    0  0.23849208036E+02  0.52715444810E+02  0.84633127896E+03  0.85675220256E+03  0.12000000000E+03 0.  0.
         25    1    1    2    0    0 -0.23849208036E+02 -0.52715444810E+02  0.34665413163E+03  0.37137149840E+03  0.12000000000E+03 0.  0.
<mgrwt>
<rscale>  0 0.29167385E+03</rscale>
<asrwt>0</asrwt>
<pdfrwt beam="1">  1        2 0.18623910E+00 0.29167385E+03</pdfrwt>
<pdfrwt beam="2">  1       -2 0.27029464E-02 0.29167385E+03</pdfrwt>
<totfact> 0.97574052E+03</totfact>
</mgrwt>
</event>
<event>
 4    1  0.1807309E-004  0.2813760E+03  0.7818608E-02  0.1094940E+00
         -2   -1    0    0    0  501 -0.00000000000E+00  0.00000000000E+00  0.89026339452E+01  0.89026339452E+01  0.00000000000E+00 0. -1.
          2   -1    0    0  501    0  0.00000000000E+00 -0.00000000000E+00 -0.22232866579E+04  0.22232866579E+04  0.00000000000E+00 0. -1.
         25    1    1    2    0    0  0.32106519710E+02 -0.64608282557E+02 -0.99840452151E+03  0.10081749091E+04  0.12000000000E+03 0.  0.
         25    1    1    2    0    0 -0.32106519710E+02  0.64608282557E+02 -0.12159795025E+04  0.12240143828E+04  0.12000000000E+03 0.  0.
<mgrwt>
<rscale>  0 0.28137596E+03</rscale>
<asrwt>0</asrwt>
<pdfrwt beam="1">  1        2 0.34204391E+00 0.28137596E+03</pdfrwt>
<pdfrwt beam="2">  1       -2 0.13696368E-02 0.28137596E+03</pdfrwt>
<totfact> 0.76274060E+03</totfact>
</mgrwt>
</event>
<event>
 4    1  0.1807309E-004  0.2767483E+03  0.7818608E-02  0.1097478E+00
          2   -1    0    0  501    0  0.00000000000E+00  0.00000000000E+00  0.14823199163E+04  0.14823199163E+04  0.00000000000E+00 0. -1.
         -2   -1    0    0    0  501 -0.00000000000E+00 -0.00000000000E+00 -0.12917191016E+02  0.12917191016E+02  0.00000000000E+00 0. -1.
         25    1    1    2    0    0 -0.58070202000E+02 -0.29450246864E+02  0.85646931978E+03  0.86728263047E+03  0.12000000000E+03 0.  0.
         25    1    1    2    0    0  0.58070202000E+02  0.29450246864E+02  0.61293340550E+03  0.62795447684E+03  0.12000000000E+03 0.  0.
<mgrwt>
<rscale>  0 0.27674833E+03</rscale>
<asrwt>0</asrwt>
<pdfrwt beam="1">  1        2 0.22804908E+00 0.27674833E+03</pdfrwt>
<pdfrwt beam="2">  1       -2 0.19872613E-02 0.27674833E+03</pdfrwt>
<totfact> 0.10884279E+04</totfact>
</mgrwt>
</event>
<event>
 4    1  0.1807309E-004  0.3067220E+03  0.7818608E-02  0.1081928E+00
          1   -1    0    0  501    0  0.00000000000E+00  0.00000000000E+00  0.10493079248E+04  0.10493079248E+04  0.00000000000E+00 0.  1.
         -1   -1    0    0    0  501 -0.00000000000E+00 -0.00000000000E+00 -0.22414383109E+02  0.22414383109E+02  0.00000000000E+00 0.  1.
         25    1    1    2    0    0 -0.84559934780E+01  0.44846203015E+02  0.80655513973E+03  0.81670917662E+03  0.12000000000E+03 0.  0.
         25    1    1    2    0    0  0.84559934780E+01 -0.44846203015E+02  0.22033840196E+03  0.25501313128E+03  0.12000000000E+03 0.  0.
<mgrwt>
<rscale>  0 0.30672196E+03</rscale>
<asrwt>0</asrwt>
<pdfrwt beam="1">  1        1 0.16143195E+00 0.30672196E+03</pdfrwt>
<pdfrwt beam="2">  1       -1 0.34483674E-02 0.30672196E+03</pdfrwt>
<totfact> 0.45161703E+03</totfact>
</mgrwt>
</event>
<event>
 4    1  0.1807309E-004  0.2705391E+03  0.7818608E-02  0.1100971E+00
         -2   -1    0    0    0  501 -0.00000000000E+00  0.00000000000E+00  0.29707672661E+03  0.29707672661E+03  0.00000000000E+00 0.  1.
          2   -1    0    0  501    0  0.00000000000E+00 -0.00000000000E+00 -0.61593002889E+02  0.61593002889E+02  0.00000000000E+00 0.  1.
         25    1    1    2    0    0 -0.52696761317E+02  0.29384153358E+02  0.96468872968E+02  0.16536813651E+03  0.12000000000E+03 0.  0.
         25    1    1    2    0    0  0.52696761317E+02 -0.29384153358E+02  0.13901485076E+03  0.19330159299E+03  0.12000000000E+03 0.  0.
<mgrwt>
<rscale>  0 0.27053907E+03</rscale>
<asrwt>0</asrwt>
<pdfrwt beam="1">  1        2 0.94758468E-02 0.27053907E+03</pdfrwt>
<pdfrwt beam="2">  1       -2 0.45704111E-01 0.27053907E+03</pdfrwt>
<totfact> 0.31348108E+03</totfact>
</mgrwt>
</event>
<event>
 4    1  0.1807309E-004  0.2852110E+03  0.7818608E-02  0.1092876E+00
         -2   -1    0    0    0  501 -0.00000000000E+00  0.00000000000E+00  0.10784476771E+02  0.10784476771E+02  0.00000000000E+00 0. -1.
          2   -1    0    0  501    0  0.00000000000E+00 -0.00000000000E+00 -0.18857036693E+04  0.18857036693E+04  0.00000000000E+00 0. -1.
         25    1    1    2    0    0 -0.70692090643E+02 -0.18217636818E+02 -0.77362542335E+03  0.78627320291E+03  0.12000000000E+03 0.  0.
         25    1    1    2    0    0  0.70692090643E+02  0.18217636818E+02 -0.11012937692E+04  0.11102149432E+04  0.12000000000E+03 0.  0.
<mgrwt>
<rscale>  0 0.28521099E+03</rscale>
<asrwt>0</asrwt>
<pdfrwt beam="1">  1        2 0.29010795E+00 0.28521099E+03</pdfrwt>
<pdfrwt beam="2">  1       -2 0.16591521E-02 0.28521099E+03</pdfrwt>
<totfact> 0.86867767E+03</totfact>
</mgrwt>
</event>
<event>
 4    1  0.1807309E-004  0.2682879E+03  0.7818608E-02  0.1102263E+00
         -1   -1    0    0    0  501 -0.00000000000E+00  0.00000000000E+00  0.94871254095E+02  0.94871254095E+02  0.00000000000E+00 0. -1.
          1   -1    0    0  501    0  0.00000000000E+00 -0.00000000000E+00 -0.18967392124E+03  0.18967392124E+03  0.00000000000E+00 0. -1.
         25    1    1    2    0    0 -0.51057865707E+02 -0.12065374832E+02 -0.16623497384E+02  0.13201825474E+03  0.12000000000E+03 0.  0.
         25    1    1    2    0    0  0.51057865707E+02  0.12065374832E+02 -0.78179169761E+02  0.15252692059E+03  0.12000000000E+03 0.  0.
<mgrwt>
<rscale>  0 0.26828793E+03</rscale>
<asrwt>0</asrwt>
<pdfrwt beam="1">  1        1 0.29180603E-01 0.26828793E+03</pdfrwt>
<pdfrwt beam="2">  1       -1 0.14595578E-01 0.26828793E+03</pdfrwt>
<totfact> 0.52250416E+03</totfact>
</mgrwt>
</event>
<event>
 4    1  0.1807309E-004  0.4327102E+03  0.7818608E-02  0.1033007E+00
         -1   -1    0    0    0  501 -0.00000000000E+00  0.00000000000E+00  0.16338883086E+02  0.16338883086E+02  0.00000000000E+00 0. -1.
          1   -1    0    0  501    0  0.00000000000E+00 -0.00000000000E+00 -0.28649161934E+04  0.28649161934E+04  0.00000000000E+00 0. -1.
         25    1    1    2    0    0 -0.13246835540E+03 -0.20309524674E+00 -0.61254723355E+03  0.63809248527E+03  0.12000000000E+03 0.  0.
         25    1    1    2    0    0  0.13246835540E+03  0.20309524674E+00 -0.22360300768E+04  0.22431625912E+04  0.12000000000E+03 0.  0.
<mgrwt>
<rscale>  0 0.43271021E+03</rscale>
<asrwt>0</asrwt>
<pdfrwt beam="1">  1        1 0.44075613E+00 0.43271021E+03</pdfrwt>
<pdfrwt beam="2">  1       -1 0.25136755E-02 0.43271021E+03</pdfrwt>
<totfact> 0.42927154E+02</totfact>
</mgrwt>
</event>
<event>
 4    1  0.1807309E-004  0.2558523E+03  0.7818608E-02  0.1109661E+00
          2   -1    0    0  501    0  0.00000000000E+00  0.00000000000E+00  0.21871261608E+04  0.21871261608E+04  0.00000000000E+00 0. -1.
         -2   -1    0    0    0  501 -0.00000000000E+00 -0.00000000000E+00 -0.74824652502E+01  0.74824652502E+01  0.00000000000E+00 0. -1.
         25    1    1    2    0    0 -0.16211679811E+02 -0.24570172838E+02  0.80551693899E+03  0.81493806572E+03  0.12000000000E+03 0.  0.
         25    1    1    2    0    0  0.16211679811E+02  0.24570172838E+02  0.13741267566E+04  0.13796705604E+04  0.12000000000E+03 0.  0.
<mgrwt>
<rscale>  0 0.25585227E+03</rscale>
<asrwt>0</asrwt>
<pdfrwt beam="1">  1        2 0.33648044E+00 0.25585227E+03</pdfrwt>
<pdfrwt beam="2">  1       -2 0.11511502E-02 0.25585227E+03</pdfrwt>
<totfact> 0.10264442E+04</totfact>
</mgrwt>
</event>
<event>
 4    1  0.1807309E-004  0.2680202E+03  0.7818608E-02  0.1102418E+00
          2   -1    0    0  501    0  0.00000000000E+00  0.00000000000E+00  0.50731933857E+03  0.50731933857E+03  0.00000000000E+00 0. -1.
         -2   -1    0    0    0  501 -0.00000000000E+00 -0.00000000000E+00 -0.35399217701E+02  0.35399217701E+02  0.00000000000E+00 0. -1.
         25    1    1    2    0    0  0.47880600338E+02 -0.11000149266E+02  0.16743667615E+03  0.21177487030E+03  0.12000000000E+03 0.  0.
         25    1    1    2    0    0 -0.47880600338E+02  0.11000149266E+02  0.30448344472E+03  0.33094368597E+03  0.12000000000E+03 0.  0.
<mgrwt>
<rscale>  0 0.26802021E+03</rscale>
<asrwt>0</asrwt>
<pdfrwt beam="1">  1        2 0.78049124E-01 0.26802021E+03</pdfrwt>
<pdfrwt beam="2">  1       -2 0.54460339E-02 0.26802021E+03</pdfrwt>
<totfact> 0.10444562E+04</totfact>
</mgrwt>
</event>
<event>
 4    1  0.1807309E-004  0.2751299E+03  0.7818608E-02  0.1098379E+00
         -1   -1    0    0    0  501 -0.00000000000E+00  0.00000000000E+00  0.10930866309E+03  0.10930866309E+03  0.00000000000E+00 0.  1.
          1   -1    0    0  501    0  0.00000000000E+00 -0.00000000000E+00 -0.17312550265E+03  0.17312550265E+03  0.00000000000E+00 0.  1.
         25    1    1    2    0    0 -0.12240882045E+02  0.27195000128E+01  0.35928351250E+02  0.12588916275E+03  0.12000000000E+03 0.  0.
         25    1    1    2    0    0  0.12240882045E+02 -0.27195000128E+01 -0.99745190808E+02  0.15654500300E+03  0.12000000000E+03 0.  0.
<mgrwt>
<rscale>  0 0.27512991E+03</rscale>
<asrwt>0</asrwt>
<pdfrwt beam="1">  1        1 0.26634693E-01 0.27512991E+03</pdfrwt>
<pdfrwt beam="2">  1       -1 0.16816717E-01 0.27512991E+03</pdfrwt>
<totfact> 0.46848647E+03</totfact>
</mgrwt>
</event>
<event>
 4    1  0.1807309E-004  0.2679210E+03  0.7818608E-02  0.1102475E+00
          2   -1    0    0  501    0  0.00000000000E+00  0.00000000000E+00  0.25370368261E+03  0.25370368261E+03  0.00000000000E+00 0.  1.
         -2   -1    0    0    0  501 -0.00000000000E+00 -0.00000000000E+00 -0.70733741675E+02  0.70733741675E+02  0.00000000000E+00 0.  1.
         25    1    1    2    0    0  0.65784782671E+01  0.11884261316E+02  0.16168737042E+03  0.20181010330E+03  0.12000000000E+03 0.  0.
         25    1    1    2    0    0 -0.65784782671E+01 -0.11884261316E+02  0.21282570520E+02  0.12262732098E+03  0.12000000000E+03 0.  0.
<mgrwt>
<rscale>  0 0.26792096E+03</rscale>
<asrwt>0</asrwt>
<pdfrwt beam="1">  1        2 0.39031335E-01 0.26792096E+03</pdfrwt>
<pdfrwt beam="2">  1       -2 0.10882114E-01 0.26792096E+03</pdfrwt>
<totfact> 0.75320360E+03</totfact>
</mgrwt>
</event>
<event>
 4    1  0.1807309E-004  0.3086757E+03  0.7818608E-02  0.1080982E+00
          4   -1    0    0  501    0  0.00000000000E+00  0.00000000000E+00  0.82969860421E+02  0.82969860421E+02  0.00000000000E+00 0.  1.
         -4   -1    0    0    0  501 -0.00000000000E+00 -0.00000000000E+00 -0.28709422918E+03  0.28709422918E+03  0.00000000000E+00 0.  1.
         25    1    1    2    0    0  0.11079994628E+02  0.90124030612E+02 -0.14315867464E+03  0.20770053755E+03  0.12000000000E+03 0.  0.
         25    1    1    2    0    0 -0.11079994628E+02 -0.90124030612E+02 -0.60965694122E+02  0.16236355205E+03  0.12000000000E+03 0.  0.
<mgrwt>
<rscale>  0 0.30867568E+03</rscale>
<asrwt>0</asrwt>
<pdfrwt beam="1">  1        4 0.12764594E-01 0.30867568E+03</pdfrwt>
<pdfrwt beam="2">  1       -4 0.44168342E-01 0.30867568E+03</pdfrwt>
<totfact> 0.47361084E+02</totfact>
</mgrwt>
</event>
<event>
 4    1  0.1807309E-004  0.2705903E+03  0.7818608E-02  0.1100942E+00
         -1   -1    0    0    0  501 -0.00000000000E+00  0.00000000000E+00  0.17937358901E+02  0.17937358901E+02  0.00000000000E+00 0. -1.
          1   -1    0    0  501    0  0.00000000000E+00 -0.00000000000E+00 -0.10204832349E+04  0.10204832349E+04  0.00000000000E+00 0. -1.
         25    1    1    2    0    0  0.31884110440E+02  0.21677588283E+02 -0.31255526173E+03  0.33701232317E+03  0.12000000000E+03 0.  0.
         25    1    1    2    0    0 -0.31884110440E+02 -0.21677588283E+02 -0.68999061427E+03  0.70140827064E+03  0.12000000000E+03 0.  0.
<mgrwt>
<rscale>  0 0.27059027E+03</rscale>
<asrwt>0</asrwt>
<pdfrwt beam="1">  1        1 0.15699743E+00 0.27059027E+03</pdfrwt>
<pdfrwt beam="2">  1       -1 0.27595935E-02 0.27059027E+03</pdfrwt>
<totfact> 0.65807007E+03</totfact>
</mgrwt>
</event>
<event>
 4    1  0.1807309E-004  0.3954643E+03  0.7818608E-02  0.1045362E+00
          1   -1    0    0  501    0  0.00000000000E+00  0.00000000000E+00  0.92475430886E+02  0.92475430886E+02  0.00000000000E+00 0. -1.
         -1   -1    0    0    0  501 -0.00000000000E+00 -0.00000000000E+00 -0.42279342593E+03  0.42279342593E+03  0.00000000000E+00 0. -1.
         25    1    1    2    0    0 -0.85213608920E+01  0.10646744902E+03 -0.14951958115E+02  0.16134277903E+03  0.12000000000E+03 0.  0.
         25    1    1    2    0    0  0.85213608920E+01 -0.10646744902E+03 -0.31536603693E+03  0.35392607779E+03  0.12000000000E+03 0.  0.
<mgrwt>
<rscale>  0 0.39546431E+03</rscale>
<asrwt>0</asrwt>
<pdfrwt beam="1">  1        1 0.14226989E-01 0.39546431E+03</pdfrwt>
<pdfrwt beam="2">  1       -1 0.65045143E-01 0.39546431E+03</pdfrwt>
<totfact> 0.99571903E+02</totfact>
</mgrwt>
</event>
<event>
 4    1  0.1807309E-004  0.3071177E+03  0.7818608E-02  0.1081736E+00
         -1   -1    0    0    0  501 -0.00000000000E+00  0.00000000000E+00  0.24779207729E+02  0.24779207729E+02  0.00000000000E+00 0. -1.
          1   -1    0    0  501    0  0.00000000000E+00 -0.00000000000E+00 -0.95161733437E+03  0.95161733437E+03  0.00000000000E+00 0. -1.
         25    1    1    2    0    0 -0.76665730893E+02 -0.57468929639E+02 -0.46375910779E+03  0.48852105607E+03  0.12000000000E+03 0.  0.
         25    1    1    2    0    0  0.76665730893E+02  0.57468929639E+02 -0.46307901885E+03  0.48787548603E+03  0.12000000000E+03 0.  0.
<mgrwt>
<rscale>  0 0.30711772E+03</rscale>
<asrwt>0</asrwt>
<pdfrwt beam="1">  1        1 0.14640267E+00 0.30711772E+03</pdfrwt>
<pdfrwt beam="2">  1       -1 0.38121858E-02 0.30711772E+03</pdfrwt>
<totfact> 0.46070925E+03</totfact>
</mgrwt>
</event>
<event>
 4    1  0.1807309E-004  0.2825270E+03  0.7818608E-02  0.1094317E+00
          2   -1    0    0  501    0  0.00000000000E+00  0.00000000000E+00  0.26028313733E+04  0.26028313733E+04  0.00000000000E+00 0.  1.
         -2   -1    0    0    0  501 -0.00000000000E+00 -0.00000000000E+00 -0.76667949775E+01  0.76667949775E+01  0.00000000000E+00 0.  1.
         25    1    1    2    0    0  0.64917060631E+02  0.15819400146E+02  0.99240290392E+03  0.10018622669E+04  0.12000000000E+03 0.  0.
         25    1    1    2    0    0 -0.64917060631E+02 -0.15819400146E+02  0.16027616744E+04  0.16086359013E+04  0.12000000000E+03 0.  0.
<mgrwt>
<rscale>  0 0.28252699E+03</rscale>
<asrwt>0</asrwt>
<pdfrwt beam="1">  1        2 0.40043489E+00 0.28252699E+03</pdfrwt>
<pdfrwt beam="2">  1       -2 0.11795090E-02 0.28252699E+03</pdfrwt>
<totfact> 0.58989900E+03</totfact>
</mgrwt>
</event>
<event>
 4    1  0.1807309E-004  0.2547366E+03  0.7818608E-02  0.1110347E+00
          2   -1    0    0  501    0  0.00000000000E+00  0.00000000000E+00  0.16050964793E+03  0.16050964793E+03  0.00000000000E+00 0. -1.
         -2   -1    0    0    0  501 -0.00000000000E+00 -0.00000000000E+00 -0.10106982123E+03  0.10106982123E+03  0.00000000000E+00 0. -1.
         25    1    1    2    0    0  0.50454138560E+01 -0.42347942055E+02  0.27698004110E+02  0.13033028746E+03  0.12000000000E+03 0.  0.
         25    1    1    2    0    0 -0.50454138560E+01  0.42347942055E+02  0.31741822591E+02  0.13124918171E+03  0.12000000000E+03 0.  0.
<mgrwt>
<rscale>  0 0.25473658E+03</rscale>
<asrwt>0</asrwt>
<pdfrwt beam="1">  1        2 0.24693792E-01 0.25473658E+03</pdfrwt>
<pdfrwt beam="2">  1       -2 0.15549203E-01 0.25473658E+03</pdfrwt>
<totfact> 0.69438494E+03</totfact>
</mgrwt>
</event>
<event>
 4    1  0.1807309E-004  0.3431641E+03  0.7818608E-02  0.1065456E+00
         -1   -1    0    0    0  501 -0.00000000000E+00  0.00000000000E+00  0.18109242247E+03  0.18109242247E+03  0.00000000000E+00 0. -1.
          1   -1    0    0  501    0  0.00000000000E+00 -0.00000000000E+00 -0.16257112423E+03  0.16257112423E+03  0.00000000000E+00 0. -1.
         25    1    1    2    0    0  0.55208204489E+02  0.82933364690E+02  0.80880537502E+02  0.17569163375E+03  0.12000000000E+03 0.  0.
         25    1    1    2    0    0 -0.55208204489E+02 -0.82933364690E+02 -0.62359239265E+02  0.16797191296E+03  0.12000000000E+03 0.  0.
<mgrwt>
<rscale>  0 0.34316409E+03</rscale>
<asrwt>0</asrwt>
<pdfrwt beam="1">  1        1 0.25010942E-01 0.34316409E+03</pdfrwt>
<pdfrwt beam="2">  1       -1 0.27860372E-01 0.34316409E+03</pdfrwt>
<totfact> 0.22237313E+03</totfact>
</mgrwt>
</event>
<event>
 4    1  0.1807309E-004  0.2843313E+03  0.7818608E-02  0.1093346E+00
          2   -1    0    0  501    0  0.00000000000E+00  0.00000000000E+00  0.77532570230E+03  0.77532570230E+03  0.00000000000E+00 0. -1.
         -2   -1    0    0    0  501 -0.00000000000E+00 -0.00000000000E+00 -0.26067856113E+02  0.26067856113E+02  0.00000000000E+00 0. -1.
         25    1    1    2    0    0  0.37500636060E+02 -0.50505478546E+01  0.18811033528E+03  0.22631240350E+03  0.12000000000E+03 0.  0.
         25    1    1    2    0    0 -0.37500636060E+02  0.50505478546E+01  0.56114751090E+03  0.57508115491E+03  0.12000000000E+03 0.  0.
<mgrwt>
<rscale>  0 0.28433135E+03</rscale>
<asrwt>0</asrwt>
<pdfrwt beam="1">  1        2 0.11928086E+00 0.28433135E+03</pdfrwt>
<pdfrwt beam="2">  1       -2 0.40104400E-02 0.28433135E+03</pdfrwt>
<totfact> 0.10088276E+04</totfact>
</mgrwt>
</event>
<event>
 4    1  0.1807309E-004  0.2490265E+03  0.7818608E-02  0.1113922E+00
          2   -1    0    0  501    0  0.00000000000E+00  0.00000000000E+00  0.20574502092E+04  0.20574502092E+04  0.00000000000E+00 0. -1.
         -2   -1    0    0    0  501 -0.00000000000E+00 -0.00000000000E+00 -0.75353227844E+01  0.75353227844E+01  0.00000000000E+00 0. -1.
         25    1    1    2    0    0  0.17725761468E+02  0.23231449921E+02  0.11559769461E+04  0.11625560644E+04  0.12000000000E+03 0.  0.
         25    1    1    2    0    0 -0.17725761468E+02 -0.23231449921E+02  0.89393794024E+03  0.90242946754E+03  0.12000000000E+03 0.  0.
<mgrwt>
<rscale>  0 0.24902652E+03</rscale>
<asrwt>0</asrwt>
<pdfrwt beam="1">  1        2 0.31653035E+00 0.24902652E+03</pdfrwt>
<pdfrwt beam="2">  1       -2 0.11592821E-02 0.24902652E+03</pdfrwt>
<totfact> 0.11888893E+04</totfact>
</mgrwt>
</event>
<event>
 4    1  0.1807309E-004  0.2772068E+03  0.7818608E-02  0.1097224E+00
         -4   -1    0    0    0  501 -0.00000000000E+00  0.00000000000E+00  0.92911156850E+02  0.92911156850E+02  0.00000000000E+00 0. -1.
          4   -1    0    0  501    0  0.00000000000E+00 -0.00000000000E+00 -0.20676637557E+03  0.20676637557E+03  0.00000000000E+00 0. -1.
         25    1    1    2    0    0 -0.32423445792E+02  0.48959564303E+02 -0.96833039802E+02  0.16499986779E+03  0.12000000000E+03 0.  0.
         25    1    1    2    0    0  0.32423445792E+02 -0.48959564303E+02 -0.17022178913E+02  0.13467766462E+03  0.12000000000E+03 0.  0.
<mgrwt>
<rscale>  0 0.27720680E+03</rscale>
<asrwt>0</asrwt>
<pdfrwt beam="1">  1        4 0.31810211E-01 0.27720680E+03</pdfrwt>
<pdfrwt beam="2">  1       -4 0.14294024E-01 0.27720680E+03</pdfrwt>
<totfact> 0.73199353E+02</totfact>
</mgrwt>
</event>
<event>
 4    1  0.1807309E-004  0.2627656E+03  0.7818608E-02  0.1105493E+00
          1   -1    0    0  501    0  0.00000000000E+00  0.00000000000E+00  0.43380183669E+03  0.43380183669E+03  0.00000000000E+00 0.  1.
         -1   -1    0    0    0  501 -0.00000000000E+00 -0.00000000000E+00 -0.39791076298E+02  0.39791076298E+02  0.00000000000E+00 0.  1.
         25    1    1    2    0    0 -0.22044765092E+02  0.44484700529E+02  0.16111293749E+03  0.20693534951E+03  0.12000000000E+03 0.  0.
         25    1    1    2    0    0  0.22044765092E+02 -0.44484700529E+02  0.23289782290E+03  0.26665756348E+03  0.12000000000E+03 0.  0.
<mgrwt>
<rscale>  0 0.26276561E+03</rscale>
<asrwt>0</asrwt>
<pdfrwt beam="1">  1        1 0.66738741E-01 0.26276561E+03</pdfrwt>
<pdfrwt beam="2">  1       -1 0.61217044E-02 0.26276561E+03</pdfrwt>
<totfact> 0.70091209E+03</totfact>
</mgrwt>
</event>
<event>
 4    1  0.1807309E-004  0.2670864E+03  0.7818608E-02  0.1102959E+00
         -3   -1    0    0    0  501 -0.00000000000E+00  0.00000000000E+00  0.31546121242E+04  0.31546121242E+04  0.00000000000E+00 0. -1.
          3   -1    0    0  501    0  0.00000000000E+00 -0.00000000000E+00 -0.56532433638E+01  0.56532433638E+01  0.00000000000E+00 0. -1.
         25    1    1    2    0    0 -0.14513610545E+02 -0.56233808216E+02  0.16668204385E+04  0.16721433133E+04  0.12000000000E+03 0.  0.
         25    1    1    2    0    0  0.14513610545E+02  0.56233808216E+02  0.14821384423E+04  0.14881220542E+04  0.12000000000E+03 0.  0.
<mgrwt>
<rscale>  0 0.26708643E+03</rscale>
<asrwt>0</asrwt>
<pdfrwt beam="1">  1        3 0.86973227E-03 0.26708643E+03</pdfrwt>
<pdfrwt beam="2">  1       -3 0.48532354E+00 0.26708643E+03</pdfrwt>
<totfact> 0.38862119E+01</totfact>
</mgrwt>
</event>
<event>
 4    1  0.1807309E-004  0.2524302E+03  0.7818608E-02  0.1111779E+00
         -1   -1    0    0    0  501 -0.00000000000E+00  0.00000000000E+00  0.12509272772E+04  0.12509272772E+04  0.00000000000E+00 0. -1.
          1   -1    0    0  501    0  0.00000000000E+00 -0.00000000000E+00 -0.12734752885E+02  0.12734752885E+02  0.00000000000E+00 0. -1.
         25    1    1    2    0    0  0.23617363869E+00  0.10255822662E+02  0.80806889792E+03  0.81699484788E+03  0.12000000000E+03 0.  0.
         25    1    1    2    0    0 -0.23617363869E+00 -0.10255822662E+02  0.43012362638E+03  0.44666718219E+03  0.12000000000E+03 0.  0.
<mgrwt>
<rscale>  0 0.25243019E+03</rscale>
<asrwt>0</asrwt>
<pdfrwt beam="1">  1        1 0.19591937E-02 0.25243019E+03</pdfrwt>
<pdfrwt beam="2">  1       -1 0.19245025E+00 0.25243019E+03</pdfrwt>
<totfact> 0.11671752E+03</totfact>
</mgrwt>
</event>
<event>
 4    1  0.1807309E-004  0.2642980E+03  0.7818608E-02  0.1104588E+00
         -1   -1    0    0    0  501 -0.00000000000E+00  0.00000000000E+00  0.86956470686E+03  0.86956470686E+03  0.00000000000E+00 0.  1.
          1   -1    0    0  501    0  0.00000000000E+00 -0.00000000000E+00 -0.20082867123E+02  0.20082867123E+02  0.00000000000E+00 0.  1.
         25    1    1    2    0    0 -0.20959955967E+02  0.51098978194E+02  0.43684342718E+03  0.45637989132E+03  0.12000000000E+03 0.  0.
         25    1    1    2    0    0  0.20959955967E+02 -0.51098978194E+02  0.41263841256E+03  0.43326768267E+03  0.12000000000E+03 0.  0.
<mgrwt>
<rscale>  0 0.26429796E+03</rscale>
<asrwt>0</asrwt>
<pdfrwt beam="1">  1        1 0.30896725E-02 0.26429796E+03</pdfrwt>
<pdfrwt beam="2">  1       -1 0.13377916E+00 0.26429796E+03</pdfrwt>
<totfact> 0.16550231E+03</totfact>
</mgrwt>
</event>
<event>
 4    1  0.1807309E-004  0.3383633E+03  0.7818608E-02  0.1067495E+00
          3   -1    0    0  501    0  0.00000000000E+00  0.00000000000E+00  0.15586708908E+03  0.15586708908E+03  0.00000000000E+00 0.  1.
         -3   -1    0    0    0  501 -0.00000000000E+00 -0.00000000000E+00 -0.18363355928E+03  0.18363355928E+03  0.00000000000E+00 0.  1.
         25    1    1    2    0    0 -0.48094999291E+02 -0.18803143667E+02  0.93975736943E+02  0.16092894799E+03  0.12000000000E+03 0.  0.
         25    1    1    2    0    0  0.48094999291E+02  0.18803143667E+02 -0.12174220715E+03  0.17857170036E+03  0.12000000000E+03 0.  0.
<mgrwt>
<rscale>  0 0.33836329E+03</rscale>
<asrwt>0</asrwt>
<pdfrwt beam="1">  1        3 0.23979552E-01 0.33836329E+03</pdfrwt>
<pdfrwt beam="2">  1       -3 0.28251317E-01 0.33836329E+03</pdfrwt>
<totfact> 0.50308268E+02</totfact>
</mgrwt>
</event>
<event>
 4    1  0.1807309E-004  0.2446362E+03  0.7818608E-02  0.1116742E+00
          2   -1    0    0  501    0  0.00000000000E+00  0.00000000000E+00  0.25971992128E+03  0.25971992128E+03  0.00000000000E+00 0.  1.
         -2   -1    0    0    0  501 -0.00000000000E+00 -0.00000000000E+00 -0.57607139117E+02  0.57607139117E+02  0.00000000000E+00 0.  1.
         25    1    1    2    0    0 -0.10070208066E+02 -0.21031963628E+02  0.95557831779E+02  0.15516137341E+03  0.12000000000E+03 0.  0.
         25    1    1    2    0    0  0.10070208066E+02  0.21031963628E+02  0.10655495039E+03  0.16216568699E+03  0.12000000000E+03 0.  0.
<mgrwt>
<rscale>  0 0.24463623E+03</rscale>
<asrwt>0</asrwt>
<pdfrwt beam="1">  1        2 0.39956911E-01 0.24463623E+03</pdfrwt>
<pdfrwt beam="2">  1       -2 0.88626369E-02 0.24463623E+03</pdfrwt>
<totfact> 0.10128372E+04</totfact>
</mgrwt>
</event>
<event>
 4    1  0.1807309E-004  0.3397405E+03  0.7818608E-02  0.1066907E+00
         -2   -1    0    0    0  501 -0.00000000000E+00  0.00000000000E+00  0.23322425043E+02  0.23322425043E+02  0.00000000000E+00 0.  1.
          2   -1    0    0  501    0  0.00000000000E+00 -0.00000000000E+00 -0.12372596740E+04  0.12372596740E+04  0.00000000000E+00 0.  1.
         25    1    1    2    0    0 -0.28729258482E+02  0.10658365192E+03 -0.43016958102E+03  0.46003403525E+03  0.12000000000E+03 0.  0.
         25    1    1    2    0    0  0.28729258482E+02 -0.10658365192E+03 -0.78376766794E+03  0.80054806380E+03  0.12000000000E+03 0.  0.
<mgrwt>
<rscale>  0 0.33974047E+03</rscale>
<asrwt>0</asrwt>
<pdfrwt beam="1">  1        2 0.19034772E+00 0.33974047E+03</pdfrwt>
<pdfrwt beam="2">  1       -2 0.35880639E-02 0.33974047E+03</pdfrwt>
<totfact> 0.61837415E+03</totfact>
</mgrwt>
</event>
<event>
 4    1  0.1807309E-004  0.2990904E+03  0.7818608E-02  0.1085696E+00
         -3   -1    0    0    0  501 -0.00000000000E+00  0.00000000000E+00  0.47630069276E+03  0.47630069276E+03  0.00000000000E+00 0. -1.
          3   -1    0    0  501    0  0.00000000000E+00 -0.00000000000E+00 -0.46953047231E+02  0.46953047231E+02  0.00000000000E+00 0. -1.
         25    1    1    2    0    0 -0.30485959595E+01  0.50747079028E+02  0.86361296732E+02  0.15634204022E+03  0.12000000000E+03 0.  0.
         25    1    1    2    0    0  0.30485959595E+01 -0.50747079028E+02  0.34298634879E+03  0.36691169977E+03  0.12000000000E+03 0.  0.
<mgrwt>
<rscale>  0 0.29909041E+03</rscale>
<asrwt>0</asrwt>
<pdfrwt beam="1">  1        3 0.72235461E-02 0.29909041E+03</pdfrwt>
<pdfrwt beam="2">  1       -3 0.73277026E-01 0.29909041E+03</pdfrwt>
<totfact> 0.58175674E+02</totfact>
</mgrwt>
</event>
<event>
 4    1  0.1807309E-004  0.2963803E+03  0.7818608E-02  0.1087064E+00
          2   -1    0    0  501    0  0.00000000000E+00  0.00000000000E+00  0.50024320632E+03  0.50024320632E+03  0.00000000000E+00 0.  1.
         -2   -1    0    0    0  501 -0.00000000000E+00 -0.00000000000E+00 -0.43899282430E+02  0.43899282430E+02  0.00000000000E+00 0.  1.
         25    1    1    2    0    0 -0.30931520069E+02  0.60426924159E+02  0.32792640002E+03  0.35573008859E+03  0.12000000000E+03 0.  0.
         25    1    1    2    0    0  0.30931520069E+02 -0.60426924159E+02  0.12841752387E+03  0.18841240016E+03  0.12000000000E+03 0.  0.
<mgrwt>
<rscale>  0 0.29638028E+03</rscale>
<asrwt>0</asrwt>
<pdfrwt beam="1">  1        2 0.76960489E-01 0.29638028E+03</pdfrwt>
<pdfrwt beam="2">  1       -2 0.67537361E-02 0.29638028E+03</pdfrwt>
<totfact> 0.76505845E+03</totfact>
</mgrwt>
</event>
<event>
 4    1  0.1807309E-004  0.4603424E+03  0.7818608E-02  0.1024682E+00
         -2   -1    0    0    0  501 -0.00000000000E+00  0.00000000000E+00  0.65610639522E+02  0.65610639522E+02  0.00000000000E+00 0.  1.
          2   -1    0    0  501    0  0.00000000000E+00 -0.00000000000E+00 -0.80747238316E+03  0.80747238316E+03  0.00000000000E+00 0.  1.
         25    1    1    2    0    0  0.12172121801E+03  0.46748216944E+02 -0.64952593267E+03  0.67326472350E+03  0.12000000000E+03 0.  0.
         25    1    1    2    0    0 -0.12172121801E+03 -0.46748216944E+02 -0.92335810968E+02  0.19981829918E+03  0.12000000000E+03 0.  0.
<mgrwt>
<rscale>  0 0.46034239E+03</rscale>
<asrwt>0</asrwt>
<pdfrwt beam="1">  1        2 0.12422653E+00 0.46034239E+03</pdfrwt>
<pdfrwt beam="2">  1       -2 0.10093944E-01 0.46034239E+03</pdfrwt>
<totfact> 0.22999359E+03</totfact>
</mgrwt>
</event>
<event>
 4    1  0.1807309E-004  0.3835357E+03  0.7818608E-02  0.1049635E+00
          2   -1    0    0  501    0  0.00000000000E+00  0.00000000000E+00  0.49389414913E+03  0.49389414913E+03  0.00000000000E+00 0. -1.
         -2   -1    0    0    0  501 -0.00000000000E+00 -0.00000000000E+00 -0.74459094710E+02  0.74459094710E+02  0.00000000000E+00 0. -1.
         25    1    1    2    0    0  0.18305299524E+02  0.98658260877E+02  0.37410836156E+03  0.40549426952E+03  0.12000000000E+03 0.  0.
         25    1    1    2    0    0 -0.18305299524E+02 -0.98658260877E+02  0.45326692865E+02  0.16285897432E+03  0.12000000000E+03 0.  0.
<mgrwt>
<rscale>  0 0.38353572E+03</rscale>
<asrwt>0</asrwt>
<pdfrwt beam="1">  1        2 0.75983713E-01 0.38353572E+03</pdfrwt>
<pdfrwt beam="2">  1       -2 0.11455246E-01 0.38353572E+03</pdfrwt>
<totfact> 0.33835479E+03</totfact>
</mgrwt>
</event>
<event>
 4    1  0.1807309E-004  0.5469869E+03  0.7818608E-02  0.1002194E+00
         -2   -1    0    0    0  501 -0.00000000000E+00  0.00000000000E+00  0.11570485928E+03  0.11570485928E+03  0.00000000000E+00 0. -1.
          2   -1    0    0  501    0  0.00000000000E+00 -0.00000000000E+00 -0.64646093982E+03  0.64646093982E+03  0.00000000000E+00 0. -1.
         25    1    1    2    0    0 -0.25095101503E+02 -0.23366443314E+03 -0.16519110421E+03  0.31131484440E+03  0.12000000000E+03 0.  0.
         25    1    1    2    0    0  0.25095101503E+02  0.23366443314E+03 -0.36556497634E+03  0.45085095470E+03  0.12000000000E+03 0.  0.
<mgrwt>
<rscale>  0 0.54698692E+03</rscale>
<asrwt>0</asrwt>
<pdfrwt beam="1">  1        2 0.99455530E-01 0.54698692E+03</pdfrwt>
<pdfrwt beam="2">  1       -2 0.17800747E-01 0.54698692E+03</pdfrwt>
<totfact> 0.11865786E+03</totfact>
</mgrwt>
</event>
<event>
 4    1  0.1807309E-004  0.2704074E+03  0.7818608E-02  0.1101047E+00
          1   -1    0    0  501    0  0.00000000000E+00  0.00000000000E+00  0.22680282370E+03  0.22680282370E+03  0.00000000000E+00 0.  1.
         -1   -1    0    0    0  501 -0.00000000000E+00 -0.00000000000E+00 -0.80598802621E+02  0.80598802621E+02  0.00000000000E+00 0.  1.
         25    1    1    2    0    0 -0.19273657515E+02 -0.39805600327E+02  0.23236669912E+02  0.12998423951E+03  0.12000000000E+03 0.  0.
         25    1    1    2    0    0  0.19273657515E+02  0.39805600327E+02  0.12296735117E+03  0.17741738682E+03  0.12000000000E+03 0.  0.
<mgrwt>
<rscale>  0 0.27040737E+03</rscale>
<asrwt>0</asrwt>
<pdfrwt beam="1">  1        1 0.34892742E-01 0.27040737E+03</pdfrwt>
<pdfrwt beam="2">  1       -1 0.12399816E-01 0.27040737E+03</pdfrwt>
<totfact> 0.53937405E+03</totfact>
</mgrwt>
</event>
<event>
 4    1  0.1807309E-004  0.3529136E+03  0.7818608E-02  0.1061425E+00
         -2   -1    0    0    0  501 -0.00000000000E+00  0.00000000000E+00  0.23375217628E+03  0.23375217628E+03  0.00000000000E+00 0. -1.
          2   -1    0    0  501    0  0.00000000000E+00 -0.00000000000E+00 -0.13320518522E+03  0.13320518522E+03  0.00000000000E+00 0. -1.
         25    1    1    2    0    0  0.11712284937E+03 -0.47756826028E+02  0.22016238212E+02  0.17573614034E+03  0.12000000000E+03 0.  0.
         25    1    1    2    0    0 -0.11712284937E+03  0.47756826028E+02  0.78530752851E+02  0.19122122116E+03  0.12000000000E+03 0.  0.
<mgrwt>
<rscale>  0 0.35291360E+03</rscale>
<asrwt>0</asrwt>
<pdfrwt beam="1">  1        2 0.20493105E-01 0.35291360E+03</pdfrwt>
<pdfrwt beam="2">  1       -2 0.35961873E-01 0.35291360E+03</pdfrwt>
<totfact> 0.19802344E+03</totfact>
</mgrwt>
</event>
<event>
 4    1  0.1807309E-004  0.2680749E+03  0.7818608E-02  0.1102386E+00
         -2   -1    0    0    0  501 -0.00000000000E+00  0.00000000000E+00  0.19944060537E+02  0.19944060537E+02  0.00000000000E+00 0. -1.
          2   -1    0    0  501    0  0.00000000000E+00 -0.00000000000E+00 -0.90082160782E+03  0.90082160782E+03  0.00000000000E+00 0. -1.
         25    1    1    2    0    0  0.42699814546E+02  0.10423172988E+02 -0.57928543286E+03  0.59321457284E+03  0.12000000000E+03 0.  0.
         25    1    1    2    0    0 -0.42699814546E+02 -0.10423172988E+02 -0.30159211442E+03  0.32755109552E+03  0.12000000000E+03 0.  0.
<mgrwt>
<rscale>  0 0.26807492E+03</rscale>
<asrwt>0</asrwt>
<pdfrwt beam="1">  1        2 0.13858795E+00 0.26807492E+03</pdfrwt>
<pdfrwt beam="2">  1       -2 0.30683167E-02 0.26807492E+03</pdfrwt>
<totfact> 0.12374305E+04</totfact>
</mgrwt>
</event>
<event>
 4    1  0.1807309E-004  0.3171842E+03  0.7818608E-02  0.1076953E+00
         -2   -1    0    0    0  501 -0.00000000000E+00  0.00000000000E+00  0.10776033067E+02  0.10776033067E+02  0.00000000000E+00 0. -1.
          2   -1    0    0  501    0  0.00000000000E+00 -0.00000000000E+00 -0.23340176646E+04  0.23340176646E+04  0.00000000000E+00 0. -1.
         25    1    1    2    0    0  0.66160606570E+02  0.28924134935E+02 -0.17117373449E+04  0.17174570065E+04  0.12000000000E+03 0.  0.
         25    1    1    2    0    0 -0.66160606570E+02 -0.28924134935E+02 -0.61150428664E+03  0.62733669111E+03  0.12000000000E+03 0.  0.
<mgrwt>
<rscale>  0 0.31718418E+03</rscale>
<asrwt>0</asrwt>
<pdfrwt beam="1">  1        2 0.35908011E+00 0.31718418E+03</pdfrwt>
<pdfrwt beam="2">  1       -2 0.16578491E-02 0.31718418E+03</pdfrwt>
<totfact> 0.50244220E+03</totfact>
</mgrwt>
</event>
<event>
 4    1  0.1807309E-004  0.2892658E+03  0.7818608E-02  0.1090733E+00
          2   -1    0    0  501    0  0.00000000000E+00  0.00000000000E+00  0.52137249900E+03  0.52137249900E+03  0.00000000000E+00 0.  1.
         -2   -1    0    0    0  501 -0.00000000000E+00 -0.00000000000E+00 -0.40122313493E+02  0.40122313493E+02  0.00000000000E+00 0.  1.
         25    1    1    2    0    0 -0.46970815241E+02  0.39064279286E+02  0.34308880484E+03  0.36856777315E+03  0.12000000000E+03 0.  0.
         25    1    1    2    0    0  0.46970815241E+02 -0.39064279286E+02  0.13816138067E+03  0.19292703934E+03  0.12000000000E+03 0.  0.
<mgrwt>
<rscale>  0 0.28926577E+03</rscale>
<asrwt>0</asrwt>
<pdfrwt beam="1">  1        2 0.80211149E-01 0.28926577E+03</pdfrwt>
<pdfrwt beam="2">  1       -2 0.61726640E-02 0.28926577E+03</pdfrwt>
<totfact> 0.83838077E+03</totfact>
</mgrwt>
</event>
<event>
 4    1  0.1807309E-004  0.2644417E+03  0.7818608E-02  0.1104504E+00
         -1   -1    0    0    0  501 -0.00000000000E+00  0.00000000000E+00  0.85230053438E+02  0.85230053438E+02  0.00000000000E+00 0.  1.
          1   -1    0    0  501    0  0.00000000000E+00 -0.00000000000E+00 -0.20511954269E+03  0.20511954269E+03  0.00000000000E+00 0.  1.
         25    1    1    2    0    0  0.14752497130E+02  0.34205186520E+02 -0.10514492126E+03  0.16383859565E+03  0.12000000000E+03 0.  0.
         25    1    1    2    0    0 -0.14752497130E+02 -0.34205186520E+02 -0.14744567984E+02  0.12651100048E+03  0.12000000000E+03 0.  0.
<mgrwt>
<rscale>  0 0.26444167E+03</rscale>
<asrwt>0</asrwt>
<pdfrwt beam="1">  1        1 0.31556852E-01 0.26444167E+03</pdfrwt>
<pdfrwt beam="2">  1       -1 0.13112316E-01 0.26444167E+03</pdfrwt>
<totfact> 0.56026114E+03</totfact>
</mgrwt>
</event>
<event>
 4    1  0.1807309E-004  0.2958744E+03  0.7818608E-02  0.1087321E+00
          2   -1    0    0  501    0  0.00000000000E+00  0.00000000000E+00  0.33911779940E+03  0.33911779940E+03  0.00000000000E+00 0.  1.
         -2   -1    0    0    0  501 -0.00000000000E+00 -0.00000000000E+00 -0.64536321793E+02  0.64536321793E+02  0.00000000000E+00 0.  1.
         25    1    1    2    0    0  0.51049613375E+02 -0.48842759307E+02  0.20541900638E+03  0.24817059927E+03  0.12000000000E+03 0.  0.
         25    1    1    2    0    0 -0.51049613375E+02  0.48842759307E+02  0.69162471232E+02  0.15548352192E+03  0.12000000000E+03 0.  0.
<mgrwt>
<rscale>  0 0.29587440E+03</rscale>
<asrwt>0</asrwt>
<pdfrwt beam="1">  1        2 0.52171968E-01 0.29587440E+03</pdfrwt>
<pdfrwt beam="2">  1       -2 0.99286650E-02 0.29587440E+03</pdfrwt>
<totfact> 0.64004117E+03</totfact>
</mgrwt>
</event>
<event>
 4    1  0.1807309E-004  0.2960137E+03  0.7818608E-02  0.1087250E+00
         -2   -1    0    0    0  501 -0.00000000000E+00  0.00000000000E+00  0.17688364181E+02  0.17688364181E+02  0.00000000000E+00 0. -1.
          2   -1    0    0  501    0  0.00000000000E+00 -0.00000000000E+00 -0.12384429571E+04  0.12384429571E+04  0.00000000000E+00 0. -1.
         25    1    1    2    0    0 -0.14689749174E+02  0.41474186138E+02 -0.29367150891E+03  0.32027933432E+03  0.12000000000E+03 0.  0.
         25    1    1    2    0    0  0.14689749174E+02 -0.41474186138E+02 -0.92708308405E+03  0.93585198701E+03  0.12000000000E+03 0.  0.
<mgrwt>
<rscale>  0 0.29601372E+03</rscale>
<asrwt>0</asrwt>
<pdfrwt beam="1">  1        2 0.19052976E+00 0.29601372E+03</pdfrwt>
<pdfrwt beam="2">  1       -2 0.27212858E-02 0.29601372E+03</pdfrwt>
<totfact> 0.93180221E+03</totfact>
</mgrwt>
</event>
<event>
 4    1  0.1807309E-004  0.2679976E+03  0.7818608E-02  0.1102431E+00
          2   -1    0    0  501    0  0.00000000000E+00  0.00000000000E+00  0.12023469591E+04  0.12023469591E+04  0.00000000000E+00 0.  1.
         -2   -1    0    0    0  501 -0.00000000000E+00 -0.00000000000E+00 -0.14933852409E+02  0.14933852409E+02  0.00000000000E+00 0.  1.
         25    1    1    2    0    0  0.45832178034E+02 -0.11816327552E+02  0.75844631136E+03  0.76933804101E+03  0.12000000000E+03 0.  0.
         25    1    1    2    0    0 -0.45832178034E+02  0.11816327552E+02  0.42896679533E+03  0.44794277049E+03  0.12000000000E+03 0.  0.
<mgrwt>
<rscale>  0 0.26799755E+03</rscale>
<asrwt>0</asrwt>
<pdfrwt beam="1">  1        2 0.18497638E+00 0.26799755E+03</pdfrwt>
<pdfrwt beam="2">  1       -2 0.22975167E-02 0.26799755E+03</pdfrwt>
<totfact> 0.12517954E+04</totfact>
</mgrwt>
</event>
<event>
 4    1  0.1807309E-004  0.2585113E+03  0.7818608E-02  0.1108041E+00
         -1   -1    0    0    0  501 -0.00000000000E+00  0.00000000000E+00  0.51910198850E+02  0.51910198850E+02  0.00000000000E+00 0. -1.
          1   -1    0    0  501    0  0.00000000000E+00 -0.00000000000E+00 -0.32184460061E+03  0.32184460061E+03  0.00000000000E+00 0. -1.
         25    1    1    2    0    0 -0.45609396866E+02  0.97665326920E+01 -0.11839310878E+03  0.17490720525E+03  0.12000000000E+03 0.  0.
         25    1    1    2    0    0  0.45609396866E+02 -0.97665326920E+01 -0.15154129298E+03  0.19884759421E+03  0.12000000000E+03 0.  0.
<mgrwt>
<rscale>  0 0.25851125E+03</rscale>
<asrwt>0</asrwt>
<pdfrwt beam="1">  1        1 0.49514555E-01 0.25851125E+03</pdfrwt>
<pdfrwt beam="2">  1       -1 0.79861843E-02 0.25851125E+03</pdfrwt>
<totfact> 0.68465061E+03</totfact>
</mgrwt>
</event>
<event>
 4    1  0.1807309E-004  0.2468737E+03  0.7818608E-02  0.1115297E+00
          1   -1    0    0  501    0  0.00000000000E+00  0.00000000000E+00  0.85260655646E+03  0.85260655646E+03  0.00000000000E+00 0. -1.
         -1   -1    0    0    0  501 -0.00000000000E+00 -0.00000000000E+00 -0.17870680608E+02  0.17870680608E+02  0.00000000000E+00 0. -1.
         25    1    1    2    0    0  0.62868074011E+01 -0.10736127238E+02  0.50944123139E+03  0.52353142849E+03  0.12000000000E+03 0.  0.
         25    1    1    2    0    0 -0.62868074011E+01  0.10736127238E+02  0.32529464446E+03  0.34694580858E+03  0.12000000000E+03 0.  0.
<mgrwt>
<rscale>  0 0.24687373E+03</rscale>
<asrwt>0</asrwt>
<pdfrwt beam="1">  1        1 0.13117021E+00 0.24687373E+03</pdfrwt>
<pdfrwt beam="2">  1       -1 0.27493361E-02 0.24687373E+03</pdfrwt>
<totfact> 0.88903481E+03</totfact>
</mgrwt>
</event>
<event>
 4    1  0.1807309E-004  0.5006132E+03  0.7818608E-02  0.1013619E+00
         -2   -1    0    0    0  501 -0.00000000000E+00  0.00000000000E+00  0.63933220199E+02  0.63933220199E+02  0.00000000000E+00 0.  1.
          2   -1    0    0  501    0  0.00000000000E+00 -0.00000000000E+00 -0.97998195538E+03  0.97998195538E+03  0.00000000000E+00 0.  1.
         25    1    1    2    0    0  0.38695572365E+02  0.11489270432E+03 -0.84000925008E+03  0.85715414078E+03  0.12000000000E+03 0.  0.
         25    1    1    2    0    0 -0.38695572365E+02 -0.11489270432E+03 -0.76039485101E+02  0.18676103480E+03  0.12000000000E+03 0.  0.
<mgrwt>
<rscale>  0 0.50061323E+03</rscale>
<asrwt>0</asrwt>
<pdfrwt beam="1">  1        2 0.15076645E+00 0.50061323E+03</pdfrwt>
<pdfrwt beam="2">  1       -2 0.98358801E-02 0.50061323E+03</pdfrwt>
<totfact> 0.18405883E+03</totfact>
</mgrwt>
</event>
<event>
 4    1  0.1807309E-004  0.2861039E+03  0.7818608E-02  0.1092401E+00
         -2   -1    0    0    0  501 -0.00000000000E+00  0.00000000000E+00  0.94143101773E+01  0.94143101773E+01  0.00000000000E+00 0. -1.
          2   -1    0    0  501    0  0.00000000000E+00 -0.00000000000E+00 -0.21736973618E+04  0.21736973618E+04  0.00000000000E+00 0. -1.
         25    1    1    2    0    0  0.38728516819E+02 -0.65201232546E+02 -0.12170873568E+04  0.12253378036E+04  0.12000000000E+03 0.  0.
         25    1    1    2    0    0 -0.38728516819E+02  0.65201232546E+02 -0.94719569482E+03  0.95777386842E+03  0.12000000000E+03 0.  0.
<mgrwt>
<rscale>  0 0.28610391E+03</rscale>
<asrwt>0</asrwt>
<pdfrwt beam="1">  1        2 0.33441510E+00 0.28610391E+03</pdfrwt>
<pdfrwt beam="2">  1       -2 0.14483549E-02 0.28610391E+03</pdfrwt>
<totfact> 0.74698363E+03</totfact>
</mgrwt>
</event>
<event>
 4    1  0.1807309E-004  0.2803952E+03  0.7818608E-02  0.1095473E+00
          1   -1    0    0  501    0  0.00000000000E+00  0.00000000000E+00  0.11684866215E+04  0.11684866215E+04  0.00000000000E+00 0. -1.
         -1   -1    0    0    0  501 -0.00000000000E+00 -0.00000000000E+00 -0.16821212957E+02  0.16821212957E+02  0.00000000000E+00 0. -1.
         25    1    1    2    0    0 -0.68685889202E+02  0.91241406065E+01  0.66594024707E+03  0.68020395029E+03  0.12000000000E+03 0.  0.
         25    1    1    2    0    0  0.68685889202E+02 -0.91241406065E+01  0.48572516147E+03  0.50510388417E+03  0.12000000000E+03 0.  0.
<mgrwt>
<rscale>  0 0.28039517E+03</rscale>
<asrwt>0</asrwt>
<pdfrwt beam="1">  1        1 0.17976711E+00 0.28039517E+03</pdfrwt>
<pdfrwt beam="2">  1       -1 0.25878798E-02 0.28039517E+03</pdfrwt>
<totfact> 0.56575931E+03</totfact>
</mgrwt>
</event>
<event>
 4    1  0.1807309E-004  0.2534035E+03  0.7818608E-02  0.1111173E+00
         -2   -1    0    0    0  501 -0.00000000000E+00  0.00000000000E+00  0.40536708683E+01  0.40536708683E+01  0.00000000000E+00 0. -1.
          2   -1    0    0  501    0  0.00000000000E+00 -0.00000000000E+00 -0.39601950748E+04  0.39601950748E+04  0.00000000000E+00 0. -1.
         25    1    1    2    0    0  0.28867466025E+01 -0.40504511175E+02 -0.20108062629E+04  0.20147929858E+04  0.12000000000E+03 0.  0.
         25    1    1    2    0    0 -0.28867466025E+01  0.40504511175E+02 -0.19453351411E+04  0.19494557599E+04  0.12000000000E+03 0.  0.
<mgrwt>
<rscale>  0 0.25340345E+03</rscale>
<asrwt>0</asrwt>
<pdfrwt beam="1">  1        2 0.60926172E+00 0.25340345E+03</pdfrwt>
<pdfrwt beam="2">  1       -2 0.62364071E-03 0.25340345E+03</pdfrwt>
<totfact> 0.20345237E+03</totfact>
</mgrwt>
</event>
<event>
 4    1  0.1807309E-004  0.3196721E+03  0.7818608E-02  0.1075800E+00
         -2   -1    0    0    0  501 -0.00000000000E+00  0.00000000000E+00  0.45215639451E+02  0.45215639451E+02  0.00000000000E+00 0.  1.
          2   -1    0    0  501    0  0.00000000000E+00 -0.00000000000E+00 -0.56501598889E+03  0.56501598889E+03  0.00000000000E+00 0.  1.
         25    1    1    2    0    0  0.62278832643E+02 -0.83921760302E+02 -0.23119984559E+03  0.28066863638E+03  0.12000000000E+03 0.  0.
         25    1    1    2    0    0 -0.62278832643E+02  0.83921760302E+02 -0.28860050385E+03  0.32956299196E+03  0.12000000000E+03 0.  0.
<mgrwt>
<rscale>  0 0.31967208E+03</rscale>
<asrwt>0</asrwt>
<pdfrwt beam="1">  1        2 0.86925534E-01 0.31967208E+03</pdfrwt>
<pdfrwt beam="2">  1       -2 0.69562524E-02 0.31967208E+03</pdfrwt>
<totfact> 0.63775090E+03</totfact>
</mgrwt>
</event>
<event>
 4    1  0.1807309E-004  0.3460382E+03  0.7818608E-02  0.1064253E+00
          2   -1    0    0  501    0  0.00000000000E+00  0.00000000000E+00  0.90015146201E+03  0.90015146201E+03  0.00000000000E+00 0.  1.
         -2   -1    0    0    0  501 -0.00000000000E+00 -0.00000000000E+00 -0.33256191021E+02  0.33256191021E+02  0.00000000000E+00 0.  1.
         25    1    1    2    0    0  0.91960986763E+02  0.80264577575E+02  0.36540098417E+03  0.40350601574E+03  0.12000000000E+03 0.  0.
         25    1    1    2    0    0 -0.91960986763E+02 -0.80264577575E+02  0.50149428682E+03  0.52990163730E+03  0.12000000000E+03 0.  0.
<mgrwt>
<rscale>  0 0.34603820E+03</rscale>
<asrwt>0</asrwt>
<pdfrwt beam="1">  1        2 0.13848482E+00 0.34603820E+03</pdfrwt>
<pdfrwt beam="2">  1       -2 0.51163378E-02 0.34603820E+03</pdfrwt>
<totfact> 0.57649613E+03</totfact>
</mgrwt>
</event>
<event>
 4    1  0.1807309E-004  0.3166650E+03  0.7818608E-02  0.1077194E+00
          2   -1    0    0  501    0  0.00000000000E+00  0.00000000000E+00  0.40567915261E+03  0.40567915261E+03  0.00000000000E+00 0.  1.
         -2   -1    0    0    0  501 -0.00000000000E+00 -0.00000000000E+00 -0.61795604000E+02  0.61795604000E+02  0.00000000000E+00 0.  1.
         25    1    1    2    0    0  0.18214159141E+02  0.98601001438E+02  0.20855961520E+03  0.26067417626E+03  0.12000000000E+03 0.  0.
         25    1    1    2    0    0 -0.18214159141E+02 -0.98601001438E+02  0.13532393341E+03  0.20680058034E+03  0.12000000000E+03 0.  0.
<mgrwt>
<rscale>  0 0.31666505E+03</rscale>
<asrwt>0</asrwt>
<pdfrwt beam="1">  1        2 0.62412176E-01 0.31666505E+03</pdfrwt>
<pdfrwt beam="2">  1       -2 0.95070162E-02 0.31666505E+03</pdfrwt>
<totfact> 0.56556479E+03</totfact>
</mgrwt>
</event>
<event>
 4    1  0.1807309E-004  0.2429685E+03  0.7818608E-02  0.1117831E+00
         -2   -1    0    0    0  501 -0.00000000000E+00  0.00000000000E+00  0.22483282129E+02  0.22483282129E+02  0.00000000000E+00 0. -1.
          2   -1    0    0  501    0  0.00000000000E+00 -0.00000000000E+00 -0.65641774080E+03  0.65641774080E+03  0.00000000000E+00 0. -1.
         25    1    1    2    0    0 -0.96404998421E+01 -0.13888951798E+02 -0.29316190850E+03  0.31722192045E+03  0.12000000000E+03 0.  0.
         25    1    1    2    0    0  0.96404998421E+01  0.13888951798E+02 -0.34077255018E+03  0.36167910248E+03  0.12000000000E+03 0.  0.
<mgrwt>
<rscale>  0 0.24296852E+03</rscale>
<asrwt>0</asrwt>
<pdfrwt beam="1">  1        2 0.10098734E+00 0.24296852E+03</pdfrwt>
<pdfrwt beam="2">  1       -2 0.34589665E-02 0.24296852E+03</pdfrwt>
<totfact> 0.15331289E+04</totfact>
</mgrwt>
</event>
<event>
 4    1  0.1807309E-004  0.3447862E+03  0.7818608E-02  0.1064776E+00
         -2   -1    0    0    0  501 -0.00000000000E+00  0.00000000000E+00  0.18821056370E+03  0.18821056370E+03  0.00000000000E+00 0.  1.
          2   -1    0    0  501    0  0.00000000000E+00 -0.00000000000E+00 -0.15790499802E+03  0.15790499802E+03  0.00000000000E+00 0.  1.
         25    1    1    2    0    0 -0.78855758688E+02  0.92011404534E+02  0.40450328280E+02  0.17527281107E+03  0.12000000000E+03 0.  0.
         25    1    1    2    0    0  0.78855758688E+02 -0.92011404534E+02 -0.10144762598E+02  0.17084275065E+03  0.12000000000E+03 0.  0.
<mgrwt>
<rscale>  0 0.34478625E+03</rscale>
<asrwt>0</asrwt>
<pdfrwt beam="1">  1        2 0.24293077E-01 0.34478625E+03</pdfrwt>
<pdfrwt beam="2">  1       -2 0.28955471E-01 0.34478625E+03</pdfrwt>
<totfact> 0.24341866E+03</totfact>
</mgrwt>
</event>
<event>
 4    1  0.1807309E-004  0.2846150E+03  0.7818608E-02  0.1093195E+00
         -2   -1    0    0    0  501 -0.00000000000E+00  0.00000000000E+00  0.91798351438E+03  0.91798351438E+03  0.00000000000E+00 0.  1.
          2   -1    0    0  501    0  0.00000000000E+00 -0.00000000000E+00 -0.22060765909E+02  0.22060765909E+02  0.00000000000E+00 0.  1.
         25    1    1    2    0    0 -0.35700833286E+02 -0.61965570270E+02  0.53763505334E+03  0.55548693231E+03  0.12000000000E+03 0.  0.
         25    1    1    2    0    0  0.35700833286E+02  0.61965570270E+02  0.35828769513E+03  0.38455734797E+03  0.12000000000E+03 0.  0.
<mgrwt>
<rscale>  0 0.28461496E+03</rscale>
<asrwt>0</asrwt>
<pdfrwt beam="1">  1        2 0.33939647E-02 0.28461496E+03</pdfrwt>
<pdfrwt beam="2">  1       -2 0.14122820E+00 0.28461496E+03</pdfrwt>
<totfact> 0.98146991E+02</totfact>
</mgrwt>
</event>
<event>
 4    1  0.1807309E-004  0.5514354E+03  0.7818608E-02  0.1001162E+00
          2   -1    0    0  501    0  0.00000000000E+00  0.00000000000E+00  0.14475202796E+04  0.14475202796E+04  0.00000000000E+00 0. -1.
         -2   -1    0    0    0  501 -0.00000000000E+00 -0.00000000000E+00 -0.52517578492E+02  0.52517578492E+02  0.00000000000E+00 0. -1.
         25    1    1    2    0    0 -0.24172113956E+03  0.37153287766E+02  0.58174606000E+03  0.64236901733E+03  0.12000000000E+03 0.  0.
         25    1    1    2    0    0  0.24172113956E+03 -0.37153287766E+02  0.81325664112E+03  0.85766884077E+03  0.12000000000E+03 0.  0.
<mgrwt>
<rscale>  0 0.55143544E+03</rscale>
<asrwt>0</asrwt>
<pdfrwt beam="1">  1        2 0.22269540E+00 0.55143544E+03</pdfrwt>
<pdfrwt beam="2">  1       -2 0.80796286E-02 0.55143544E+03</pdfrwt>
<totfact> 0.13404110E+03</totfact>
</mgrwt>
</event>
<event>
 4    1  0.1807309E-004  0.3611507E+03  0.7818608E-02  0.1058129E+00
         -2   -1    0    0    0  501 -0.00000000000E+00  0.00000000000E+00  0.14410846956E+03  0.14410846956E+03  0.00000000000E+00 0. -1.
          2   -1    0    0  501    0  0.00000000000E+00 -0.00000000000E+00 -0.22627021441E+03  0.22627021441E+03  0.00000000000E+00 0. -1.
         25    1    1    2    0    0  0.35795327124E+02  0.84427957895E+02  0.60433558273E+02  0.16267022003E+03  0.12000000000E+03 0.  0.
         25    1    1    2    0    0 -0.35795327124E+02 -0.84427957895E+02 -0.14259530312E+03  0.20770846394E+03  0.12000000000E+03 0.  0.
<mgrwt>
<rscale>  0 0.36115068E+03</rscale>
<asrwt>0</asrwt>
<pdfrwt beam="1">  1        2 0.34810802E-01 0.36115068E+03</pdfrwt>
<pdfrwt beam="2">  1       -2 0.22170534E-01 0.36115068E+03</pdfrwt>
<totfact> 0.26270967E+03</totfact>
</mgrwt>
</event>
<event>
 4    1  0.1807309E-004  0.2525323E+03  0.7818608E-02  0.1111715E+00
         -2   -1    0    0    0  501 -0.00000000000E+00  0.00000000000E+00  0.18728479048E+02  0.18728479048E+02  0.00000000000E+00 0.  1.
          2   -1    0    0  501    0  0.00000000000E+00 -0.00000000000E+00 -0.85127795750E+03  0.85127795750E+03  0.00000000000E+00 0.  1.
         25    1    1    2    0    0  0.49928814859E+01 -0.38165536943E+02 -0.38923446507E+03  0.40912712679E+03  0.12000000000E+03 0.  0.
         25    1    1    2    0    0 -0.49928814859E+01  0.38165536943E+02 -0.44331501338E+03  0.46087930976E+03  0.12000000000E+03 0.  0.
<mgrwt>
<rscale>  0 0.25253231E+03</rscale>
<asrwt>0</asrwt>
<pdfrwt beam="1">  1        2 0.13096579E+00 0.25253231E+03</pdfrwt>
<pdfrwt beam="2">  1       -2 0.28813055E-02 0.25253231E+03</pdfrwt>
<totfact> 0.14605934E+04</totfact>
</mgrwt>
</event>
<event>
 4    1  0.1807309E-004  0.2435099E+03  0.7818608E-02  0.1117476E+00
         -2   -1    0    0    0  501 -0.00000000000E+00  0.00000000000E+00  0.69213886509E+02  0.69213886509E+02  0.00000000000E+00 0. -1.
          2   -1    0    0  501    0  0.00000000000E+00 -0.00000000000E+00 -0.21418062691E+03  0.21418062691E+03  0.00000000000E+00 0. -1.
         25    1    1    2    0    0 -0.15945600751E+02 -0.52030866640E+01 -0.58569415962E+02  0.13457975621E+03  0.12000000000E+03 0.  0.
         25    1    1    2    0    0  0.15945600751E+02  0.52030866640E+01 -0.86397324437E+02  0.14881475721E+03  0.12000000000E+03 0.  0.
<mgrwt>
<rscale>  0 0.24350995E+03</rscale>
<asrwt>0</asrwt>
<pdfrwt beam="1">  1        2 0.32950865E-01 0.24350995E+03</pdfrwt>
<pdfrwt beam="2">  1       -2 0.10648290E-01 0.24350995E+03</pdfrwt>
<totfact> 0.93286522E+03</totfact>
</mgrwt>
</event>
<event>
 4    1  0.1807309E-004  0.3130998E+03  0.7818608E-02  0.1078870E+00
          2   -1    0    0  501    0  0.00000000000E+00  0.00000000000E+00  0.49115965408E+03  0.49115965408E+03  0.00000000000E+00 0.  1.
         -2   -1    0    0    0  501 -0.00000000000E+00 -0.00000000000E+00 -0.49897985435E+02  0.49897985435E+02  0.00000000000E+00 0.  1.
         25    1    1    2    0    0  0.93759689766E+02  0.67911085464E+01  0.28223537693E+03  0.32077064481E+03  0.12000000000E+03 0.  0.
         25    1    1    2    0    0 -0.93759689766E+02 -0.67911085464E+01  0.15902629172E+03  0.22028699471E+03  0.12000000000E+03 0.  0.
<mgrwt>
<rscale>  0 0.31309984E+03</rscale>
<asrwt>0</asrwt>
<pdfrwt beam="1">  1        2 0.75563020E-01 0.31309984E+03</pdfrwt>
<pdfrwt beam="2">  1       -2 0.76766135E-02 0.31309984E+03</pdfrwt>
<totfact> 0.64091468E+03</totfact>
</mgrwt>
</event>
<event>
 4    1  0.1807309E-004  0.2700870E+03  0.7818608E-02  0.1101230E+00
         -1   -1    0    0    0  501 -0.00000000000E+00  0.00000000000E+00  0.59811045977E+01  0.59811045977E+01  0.00000000000E+00 0. -1.
          1   -1    0    0  501    0  0.00000000000E+00 -0.00000000000E+00 -0.30490599481E+04  0.30490599481E+04  0.00000000000E+00 0. -1.
         25    1    1    2    0    0  0.23939887206E+02 -0.36234522175E+02 -0.20211219538E+04  0.20251469109E+04  0.12000000000E+03 0.  0.
         25    1    1    2    0    0 -0.23939887206E+02  0.36234522175E+02 -0.10219568897E+04  0.10298941417E+04  0.12000000000E+03 0.  0.
<mgrwt>
<rscale>  0 0.27008700E+03</rscale>
<asrwt>0</asrwt>
<pdfrwt beam="1">  1        1 0.46908722E+00 0.27008700E+03</pdfrwt>
<pdfrwt beam="2">  1       -1 0.92016783E-03 0.27008700E+03</pdfrwt>
<totfact> 0.14192427E+03</totfact>
</mgrwt>
</event>
<event>
 4    1  0.1807309E-004  0.2946178E+03  0.7818608E-02  0.1087963E+00
          2   -1    0    0  501    0  0.00000000000E+00  0.00000000000E+00  0.88325752789E+03  0.88325752789E+03  0.00000000000E+00 0.  1.
         -2   -1    0    0    0  501 -0.00000000000E+00 -0.00000000000E+00 -0.24568040238E+02  0.24568040238E+02  0.00000000000E+00 0.  1.
         25    1    1    2    0    0 -0.65487301451E+01  0.37737892955E+02  0.66467876104E+03  0.67650934200E+03  0.12000000000E+03 0.  0.
         25    1    1    2    0    0  0.65487301451E+01 -0.37737892955E+02  0.19401072661E+03  0.23131622613E+03  0.12000000000E+03 0.  0.
<mgrwt>
<rscale>  0 0.29461776E+03</rscale>
<asrwt>0</asrwt>
<pdfrwt beam="1">  1        2 0.13588575E+00 0.29461776E+03</pdfrwt>
<pdfrwt beam="2">  1       -2 0.37796992E-02 0.29461776E+03</pdfrwt>
<totfact> 0.93272509E+03</totfact>
</mgrwt>
</event>
<event>
 4    1  0.1807309E-004  0.7452514E+03  0.7818608E-02  0.9642830E-01
         -4   -1    0    0    0  501 -0.00000000000E+00  0.00000000000E+00  0.14465797782E+04  0.14465797782E+04  0.00000000000E+00 0. -1.
          4   -1    0    0  501    0  0.00000000000E+00 -0.00000000000E+00 -0.95984971611E+02  0.95984971611E+02  0.00000000000E+00 0. -1.
         25    1    1    2    0    0  0.28438995459E+03  0.20190173955E+03  0.78497958214E+03  0.86731476586E+03  0.12000000000E+03 0.  0.
         25    1    1    2    0    0 -0.28438995459E+03 -0.20190173955E+03  0.56561522449E+03  0.67524998399E+03  0.12000000000E+03 0.  0.
<mgrwt>
<rscale>  0 0.74525142E+03</rscale>
<asrwt>0</asrwt>
<pdfrwt beam="1">  1        4 0.14766920E-01 0.74525142E+03</pdfrwt>
<pdfrwt beam="2">  1       -4 0.22255072E+00 0.74525142E+03</pdfrwt>
<totfact> 0.75934034E+00</totfact>
</mgrwt>
</event>
<event>
 4    1  0.1807309E-004  0.3395266E+03  0.7818608E-02  0.1066998E+00
          1   -1    0    0  501    0  0.00000000000E+00  0.00000000000E+00  0.15426931589E+03  0.15426931589E+03  0.00000000000E+00 0. -1.
         -1   -1    0    0    0  501 -0.00000000000E+00 -0.00000000000E+00 -0.18681339869E+03  0.18681339869E+03  0.00000000000E+00 0. -1.
         25    1    1    2    0    0  0.91289805139E+02  0.40414107945E+02 -0.83304521182E+02  0.17693719760E+03  0.12000000000E+03 0.  0.
         25    1    1    2    0    0 -0.91289805139E+02 -0.40414107945E+02  0.50760438383E+02  0.16414551699E+03  0.12000000000E+03 0.  0.
<mgrwt>
<rscale>  0 0.33952658E+03</rscale>
<asrwt>0</asrwt>
<pdfrwt beam="1">  1        1 0.23733741E-01 0.33952658E+03</pdfrwt>
<pdfrwt beam="2">  1       -1 0.28740523E-01 0.33952658E+03</pdfrwt>
<totfact> 0.22557435E+03</totfact>
</mgrwt>
</event>
<event>
 4    1  0.1807309E-004  0.3178162E+03  0.7818608E-02  0.1076659E+00
          1   -1    0    0  501    0  0.00000000000E+00  0.00000000000E+00  0.27751540415E+04  0.27751540415E+04  0.00000000000E+00 0.  1.
         -1   -1    0    0    0  501 -0.00000000000E+00 -0.00000000000E+00 -0.90992366523E+01  0.90992366523E+01  0.00000000000E+00 0.  1.
         25    1    1    2    0    0  0.82382470314E+02 -0.39525842903E+02  0.18212856984E+04  0.18275203854E+04  0.12000000000E+03 0.  0.
         25    1    1    2    0    0 -0.82382470314E+02  0.39525842903E+02  0.94476910643E+03  0.95673289278E+03  0.12000000000E+03 0.  0.
<mgrwt>
<rscale>  0 0.31781619E+03</rscale>
<asrwt>0</asrwt>
<pdfrwt beam="1">  1        1 0.42694610E+00 0.31781619E+03</pdfrwt>
<pdfrwt beam="2">  1       -1 0.13998848E-02 0.31781619E+03</pdfrwt>
<totfact> 0.11892532E+03</totfact>
</mgrwt>
</event>
<event>
 4    1  0.1807309E-004  0.2807332E+03  0.7818608E-02  0.1095289E+00
          2   -1    0    0  501    0  0.00000000000E+00  0.00000000000E+00  0.21155118624E+04  0.21155118624E+04  0.00000000000E+00 0.  1.
         -2   -1    0    0    0  501 -0.00000000000E+00 -0.00000000000E+00 -0.93134813243E+01  0.93134813243E+01  0.00000000000E+00 0.  1.
         25    1    1    2    0    0  0.27235151571E+02 -0.57448152697E+02  0.13218449669E+04  0.13288025287E+04  0.12000000000E+03 0.  0.
         25    1    1    2    0    0 -0.27235151571E+02  0.57448152697E+02  0.78435341420E+03  0.79602281506E+03  0.12000000000E+03 0.  0.
<mgrwt>
<rscale>  0 0.28073318E+03</rscale>
<asrwt>0</asrwt>
<pdfrwt beam="1">  1        2 0.32546298E+00 0.28073318E+03</pdfrwt>
<pdfrwt beam="2">  1       -2 0.14328450E-02 0.28073318E+03</pdfrwt>
<totfact> 0.81468325E+03</totfact>
</mgrwt>
</event>
<event>
 4    1  0.1807309E-004  0.2515894E+03  0.7818608E-02  0.1112304E+00
         -1   -1    0    0    0  501 -0.00000000000E+00  0.00000000000E+00  0.18693264874E+03  0.18693264874E+03  0.00000000000E+00 0.  1.
          1   -1    0    0  501    0  0.00000000000E+00 -0.00000000000E+00 -0.84652439638E+02  0.84652439638E+02  0.00000000000E+00 0.  1.
         25    1    1    2    0    0 -0.34487343797E+02  0.10543593907E+01  0.34633759772E+02  0.12957617787E+03  0.12000000000E+03 0.  0.
         25    1    1    2    0    0  0.34487343797E+02 -0.10543593907E+01  0.67646449327E+02  0.14200891050E+03  0.12000000000E+03 0.  0.
<mgrwt>
<rscale>  0 0.25158939E+03</rscale>
<asrwt>0</asrwt>
<pdfrwt beam="1">  1        1 0.13023452E-01 0.25158939E+03</pdfrwt>
<pdfrwt beam="2">  1       -1 0.28758869E-01 0.25158939E+03</pdfrwt>
<totfact> 0.48856546E+03</totfact>
</mgrwt>
</event>
<event>
 4    1  0.1807309E-004  0.3053199E+03  0.7818608E-02  0.1082611E+00
         -2   -1    0    0    0  501 -0.00000000000E+00  0.00000000000E+00  0.51111892843E+03  0.51111892843E+03  0.00000000000E+00 0.  1.
          2   -1    0    0  501    0  0.00000000000E+00 -0.00000000000E+00 -0.45596160213E+02  0.45596160213E+02  0.00000000000E+00 0.  1.
         25    1    1    2    0    0  0.64792429261E+02 -0.53474277810E+02  0.31113510876E+03  0.34389331657E+03  0.12000000000E+03 0.  0.
         25    1    1    2    0    0 -0.64792429261E+02  0.53474277810E+02  0.15438765946E+03  0.21282177208E+03  0.12000000000E+03 0.  0.
<mgrwt>
<rscale>  0 0.30531990E+03</rscale>
<asrwt>0</asrwt>
<pdfrwt beam="1">  1        2 0.70147942E-02 0.30531990E+03</pdfrwt>
<pdfrwt beam="2">  1       -2 0.78633677E-01 0.30531990E+03</pdfrwt>
<totfact> 0.14939365E+03</totfact>
</mgrwt>
</event>
<event>
 4    1  0.1807309E-004  0.2655182E+03  0.7818608E-02  0.1103872E+00
          3   -1    0    0  501    0  0.00000000000E+00  0.00000000000E+00  0.43071574193E+03  0.43071574193E+03  0.00000000000E+00 0.  1.
         -3   -1    0    0    0  501 -0.00000000000E+00 -0.00000000000E+00 -0.40920222237E+02  0.40920222237E+02  0.00000000000E+00 0.  1.
         25    1    1    2    0    0 -0.35350966105E+02 -0.76077403162E+01  0.11711727322E+03  0.17153432369E+03  0.12000000000E+03 0.  0.
         25    1    1    2    0    0  0.35350966105E+02  0.76077403162E+01  0.27267824647E+03  0.30010164047E+03  0.12000000000E+03 0.  0.
<mgrwt>
<rscale>  0 0.26551824E+03</rscale>
<asrwt>0</asrwt>
<pdfrwt beam="1">  1        3 0.66263957E-01 0.26551824E+03</pdfrwt>
<pdfrwt beam="2">  1       -3 0.62954191E-02 0.26551824E+03</pdfrwt>
<totfact> 0.89262539E+02</totfact>
</mgrwt>
</event>
<event>
 4    1  0.1807309E-004  0.3869130E+03  0.7818608E-02  0.1048408E+00
          1   -1    0    0  501    0  0.00000000000E+00  0.00000000000E+00  0.62982008234E+02  0.62982008234E+02  0.00000000000E+00 0.  1.
         -1   -1    0    0    0  501 -0.00000000000E+00 -0.00000000000E+00 -0.59422393604E+03  0.59422393604E+03  0.00000000000E+00 0.  1.
         25    1    1    2    0    0 -0.11476044111E+02 -0.69600799236E+02 -0.37418619235E+02  0.14413925180E+03  0.12000000000E+03 0.  0.
         25    1    1    2    0    0  0.11476044111E+02  0.69600799236E+02 -0.49382330857E+03  0.51306669248E+03  0.12000000000E+03 0.  0.
<mgrwt>
<rscale>  0 0.38691300E+03</rscale>
<asrwt>0</asrwt>
<pdfrwt beam="1">  1        1 0.96895397E-02 0.38691300E+03</pdfrwt>
<pdfrwt beam="2">  1       -1 0.91419067E-01 0.38691300E+03</pdfrwt>
<totfact> 0.82465252E+02</totfact>
</mgrwt>
</event>
<event>
 4    1  0.1807309E-004  0.2682509E+03  0.7818608E-02  0.1102285E+00
          2   -1    0    0  501    0  0.00000000000E+00  0.00000000000E+00  0.99438030200E+02  0.99438030200E+02  0.00000000000E+00 0.  1.
         -2   -1    0    0    0  501 -0.00000000000E+00 -0.00000000000E+00 -0.18091305765E+03  0.18091305765E+03  0.00000000000E+00 0.  1.
         25    1    1    2    0    0 -0.30094964449E+01 -0.55162540714E+02 -0.64971285220E+02  0.14721831024E+03  0.12000000000E+03 0.  0.
         25    1    1    2    0    0  0.30094964449E+01  0.55162540714E+02 -0.16503742232E+02  0.13313277761E+03  0.12000000000E+03 0.  0.
<mgrwt>
<rscale>  0 0.26825091E+03</rscale>
<asrwt>0</asrwt>
<pdfrwt beam="1">  1        2 0.15298159E-01 0.26825091E+03</pdfrwt>
<pdfrwt beam="2">  1       -2 0.27832778E-01 0.26825091E+03</pdfrwt>
<totfact> 0.44296534E+03</totfact>
</mgrwt>
</event>
<event>
 4    1  0.1807309E-004  0.3177506E+03  0.7818608E-02  0.1076689E+00
          1   -1    0    0  501    0  0.00000000000E+00  0.00000000000E+00  0.53263205900E+02  0.53263205900E+02  0.00000000000E+00 0.  1.
         -1   -1    0    0    0  501 -0.00000000000E+00 -0.00000000000E+00 -0.47389875633E+03  0.47389875633E+03  0.00000000000E+00 0.  1.
         25    1    1    2    0    0  0.19668759889E+02 -0.10126261238E+03 -0.23380306538E+03  0.28232047422E+03  0.12000000000E+03 0.  0.
         25    1    1    2    0    0 -0.19668759889E+02  0.10126261238E+03 -0.18683248505E+03  0.24484148802E+03  0.12000000000E+03 0.  0.
<mgrwt>
<rscale>  0 0.31775064E+03</rscale>
<asrwt>0</asrwt>
<pdfrwt beam="1">  1        1 0.81943394E-02 0.31775064E+03</pdfrwt>
<pdfrwt beam="2">  1       -1 0.72907500E-01 0.31775064E+03</pdfrwt>
<totfact> 0.16647055E+03</totfact>
</mgrwt>
</event>
<event>
 4    1  0.1807309E-004  0.2680812E+03  0.7818608E-02  0.1102383E+00
         -2   -1    0    0    0  501 -0.00000000000E+00  0.00000000000E+00  0.54825102130E+02  0.54825102130E+02  0.00000000000E+00 0. -1.
          2   -1    0    0  501    0  0.00000000000E+00 -0.00000000000E+00 -0.32771279451E+03  0.32771279451E+03  0.00000000000E+00 0. -1.
         25    1    1    2    0    0  0.23767005605E+02  0.33281615602E+01 -0.21448288516E+03  0.24693897068E+03  0.12000000000E+03 0.  0.
         25    1    1    2    0    0 -0.23767005605E+02 -0.33281615602E+01 -0.58404807220E+02  0.13559892596E+03  0.12000000000E+03 0.  0.
<mgrwt>
<rscale>  0 0.26808124E+03</rscale>
<asrwt>0</asrwt>
<pdfrwt beam="1">  1        2 0.50417352E-01 0.26808124E+03</pdfrwt>
<pdfrwt beam="2">  1       -2 0.84346312E-02 0.26808124E+03</pdfrwt>
<totfact> 0.85613705E+03</totfact>
</mgrwt>
</event>
<event>
 4    1  0.1807309E-004  0.2584452E+03  0.7818608E-02  0.1108081E+00
         -2   -1    0    0    0  501 -0.00000000000E+00  0.00000000000E+00  0.46580115355E+01  0.46580115355E+01  0.00000000000E+00 0.  1.
          2   -1    0    0  501    0  0.00000000000E+00 -0.00000000000E+00 -0.35848953055E+04  0.35848953055E+04  0.00000000000E+00 0.  1.
         25    1    1    2    0    0 -0.44893982607E+02  0.92544569126E+01 -0.15949943244E+04  0.16001587451E+04  0.12000000000E+03 0.  0.
         25    1    1    2    0    0  0.44893982607E+02 -0.92544569126E+01 -0.19852429696E+04  0.19893945720E+04  0.12000000000E+03 0.  0.
<mgrwt>
<rscale>  0 0.25844523E+03</rscale>
<asrwt>0</asrwt>
<pdfrwt beam="1">  1        2 0.55152537E+00 0.25844523E+03</pdfrwt>
<pdfrwt beam="2">  1       -2 0.71661324E-03 0.25844523E+03</pdfrwt>
<totfact> 0.30818745E+03</totfact>
</mgrwt>
</event>
<event>
 4    1  0.1807309E-004  0.2515063E+03  0.7818608E-02  0.1112357E+00
         -2   -1    0    0    0  501 -0.00000000000E+00  0.00000000000E+00  0.10497913118E+02  0.10497913118E+02  0.00000000000E+00 0.  1.
          2   -1    0    0  501    0  0.00000000000E+00 -0.00000000000E+00 -0.15063806587E+04  0.15063806587E+04  0.00000000000E+00 0.  1.
         25    1    1    2    0    0  0.29747541678E+02 -0.22924502180E+02 -0.75906924498E+03  0.76941313201E+03  0.12000000000E+03 0.  0.
         25    1    1    2    0    0 -0.29747541678E+02  0.22924502180E+02 -0.73681350063E+03  0.74746543983E+03  0.12000000000E+03 0.  0.
<mgrwt>
<rscale>  0 0.25150629E+03</rscale>
<asrwt>0</asrwt>
<pdfrwt beam="1">  1        2 0.23175071E+00 0.25150629E+03</pdfrwt>
<pdfrwt beam="2">  1       -2 0.16150647E-02 0.25150629E+03</pdfrwt>
<totfact> 0.14287174E+04</totfact>
</mgrwt>
</event>
<event>
 4    1  0.1807309E-004  0.2903521E+03  0.7818608E-02  0.1090165E+00
          2   -1    0    0  501    0  0.00000000000E+00  0.00000000000E+00  0.99438194243E+01  0.99438194243E+01  0.00000000000E+00 0. -1.
         -2   -1    0    0    0  501 -0.00000000000E+00 -0.00000000000E+00 -0.21195156944E+04  0.21195156944E+04  0.00000000000E+00 0. -1.
         25    1    1    2    0    0  0.58218409380E+01  0.38648256753E+02 -0.52854478542E+03  0.54340332330E+03  0.12000000000E+03 0.  0.
         25    1    1    2    0    0 -0.58218409380E+01 -0.38648256753E+02 -0.15810270895E+04  0.15860561905E+04  0.12000000000E+03 0.  0.
<mgrwt>
<rscale>  0 0.29035207E+03</rscale>
<asrwt>0</asrwt>
<pdfrwt beam="1">  1        2 0.15298186E-02 0.29035207E+03</pdfrwt>
<pdfrwt beam="2">  1       -2 0.32607928E+00 0.29035207E+03</pdfrwt>
<totfact> 0.20411836E+02</totfact>
</mgrwt>
</event>
<event>
 4    1  0.1807309E-004  0.2506931E+03  0.7818608E-02  0.1112868E+00
          2   -1    0    0  501    0  0.00000000000E+00  0.00000000000E+00  0.18807776829E+04  0.18807776829E+04  0.00000000000E+00 0.  1.
         -2   -1    0    0    0  501 -0.00000000000E+00 -0.00000000000E+00 -0.83538626427E+01  0.83538626427E+01  0.00000000000E+00 0.  1.
         25    1    1    2    0    0 -0.29355081874E+02  0.55434892325E+01  0.10905190529E+04  0.10975082031E+04  0.12000000000E+03 0.  0.
         25    1    1    2    0    0  0.29355081874E+02 -0.55434892325E+01  0.78190476735E+03  0.79162334245E+03  0.12000000000E+03 0.  0.
<mgrwt>
<rscale>  0 0.25069311E+03</rscale>
<asrwt>0</asrwt>
<pdfrwt beam="1">  1        2 0.28935008E+00 0.25069311E+03</pdfrwt>
<pdfrwt beam="2">  1       -2 0.12852111E-02 0.25069311E+03</pdfrwt>
<totfact> 0.12666232E+04</totfact>
</mgrwt>
</event>
<event>
 4    1  0.1807309E-004  0.2682932E+03  0.7818608E-02  0.1102260E+00
          4   -1    0    0  501    0  0.00000000000E+00  0.00000000000E+00  0.35668492893E+02  0.35668492893E+02  0.00000000000E+00 0.  1.
         -4   -1    0    0    0  501 -0.00000000000E+00 -0.00000000000E+00 -0.50451576356E+03  0.50451576356E+03  0.00000000000E+00 0.  1.
         25    1    1    2    0    0  0.47331749419E+02  0.36711594152E+02 -0.22899068154E+03  0.26537665285E+03  0.12000000000E+03 0.  0.
         25    1    1    2    0    0 -0.47331749419E+02 -0.36711594152E+02 -0.23985658913E+03  0.27480760360E+03  0.12000000000E+03 0.  0.
<mgrwt>
<rscale>  0 0.26829325E+03</rscale>
<asrwt>0</asrwt>
<pdfrwt beam="1">  1        4 0.54874604E-02 0.26829325E+03</pdfrwt>
<pdfrwt beam="2">  1       -4 0.77617810E-01 0.26829325E+03</pdfrwt>
<totfact> 0.58261376E+02</totfact>
</mgrwt>
</event>
<event>
 4    1  0.1807309E-004  0.2576913E+03  0.7818608E-02  0.1108538E+00
          2   -1    0    0  501    0  0.00000000000E+00  0.00000000000E+00  0.13394812726E+03  0.13394812726E+03  0.00000000000E+00 0. -1.
         -2   -1    0    0    0  501 -0.00000000000E+00 -0.00000000000E+00 -0.12393750950E+03  0.12393750950E+03  0.00000000000E+00 0. -1.
         25    1    1    2    0    0  0.36229925489E+02 -0.53620432402E+01 -0.24339807954E+02  0.12780369815E+03  0.12000000000E+03 0.  0.
         25    1    1    2    0    0 -0.36229925489E+02  0.53620432402E+01  0.34350425712E+02  0.13008193862E+03  0.12000000000E+03 0.  0.
<mgrwt>
<rscale>  0 0.25769127E+03</rscale>
<asrwt>0</asrwt>
<pdfrwt beam="1">  1        2 0.20607404E-01 0.25769127E+03</pdfrwt>
<pdfrwt beam="2">  1       -2 0.19067309E-01 0.25769127E+03</pdfrwt>
<totfact> 0.60525121E+03</totfact>
</mgrwt>
</event>
<event>
 4    1  0.1807309E-004  0.3823851E+03  0.7818608E-02  0.1050056E+00
          2   -1    0    0  501    0  0.00000000000E+00  0.00000000000E+00  0.92962248903E+03  0.92962248903E+03  0.00000000000E+00 0. -1.
         -2   -1    0    0    0  501 -0.00000000000E+00 -0.00000000000E+00 -0.39321979265E+02  0.39321979265E+02  0.00000000000E+00 0. -1.
         25    1    1    2    0    0 -0.44865951850E+02 -0.12664127317E+03  0.60747398820E+03  0.63362103189E+03  0.12000000000E+03 0.  0.
         25    1    1    2    0    0  0.44865951850E+02  0.12664127317E+03  0.28282652156E+03  0.33532343641E+03  0.12000000000E+03 0.  0.
<mgrwt>
<rscale>  0 0.38238513E+03</rscale>
<asrwt>0</asrwt>
<pdfrwt beam="1">  1        2 0.14301883E+00 0.38238513E+03</pdfrwt>
<pdfrwt beam="2">  1       -2 0.60495360E-02 0.38238513E+03</pdfrwt>
<totfact> 0.42680945E+03</totfact>
</mgrwt>
</event>
<event>
 4    1  0.1807309E-004  0.2574942E+03  0.7818608E-02  0.1108658E+00
         -2   -1    0    0    0  501 -0.00000000000E+00  0.00000000000E+00  0.13057116724E+02  0.13057116724E+02  0.00000000000E+00 0. -1.
          2   -1    0    0  501    0  0.00000000000E+00 -0.00000000000E+00 -0.12694849978E+04  0.12694849978E+04  0.00000000000E+00 0. -1.
         25    1    1    2    0    0  0.89460781316E+00 -0.44551767472E+02 -0.69689806342E+03  0.70855668164E+03  0.12000000000E+03 0.  0.
         25    1    1    2    0    0 -0.89460781316E+00  0.44551767472E+02 -0.55952981761E+03  0.57398543283E+03  0.12000000000E+03 0.  0.
<mgrwt>
<rscale>  0 0.25749418E+03</rscale>
<asrwt>0</asrwt>
<pdfrwt beam="1">  1        2 0.19530538E+00 0.25749418E+03</pdfrwt>
<pdfrwt beam="2">  1       -2 0.20087872E-02 0.25749418E+03</pdfrwt>
<totfact> 0.13968896E+04</totfact>
</mgrwt>
</event>
<event>
 4    1  0.1807309E-004  0.3034319E+03  0.7818608E-02  0.1083538E+00
          1   -1    0    0  501    0  0.00000000000E+00  0.00000000000E+00  0.18577422088E+04  0.18577422088E+04  0.00000000000E+00 0. -1.
         -1   -1    0    0    0  501 -0.00000000000E+00 -0.00000000000E+00 -0.12390161150E+02  0.12390161150E+02  0.00000000000E+00 0. -1.
         25    1    1    2    0    0  0.45238061876E+02 -0.14760540284E+02  0.14139380653E+04  0.14198187238E+04  0.12000000000E+03 0.  0.
         25    1    1    2    0    0 -0.45238061876E+02  0.14760540284E+02  0.43141398234E+03  0.45031364620E+03  0.12000000000E+03 0.  0.
<mgrwt>
<rscale>  0 0.30343187E+03</rscale>
<asrwt>0</asrwt>
<pdfrwt beam="1">  1        1 0.28580627E+00 0.30343187E+03</pdfrwt>
<pdfrwt beam="2">  1       -1 0.19061801E-02 0.30343187E+03</pdfrwt>
<totfact> 0.30689388E+03</totfact>
</mgrwt>
</event>
<event>
 4    1  0.1807309E-004  0.2981312E+03  0.7818608E-02  0.1086179E+00
          2   -1    0    0  501    0  0.00000000000E+00  0.00000000000E+00  0.38364549065E+03  0.38364549065E+03  0.00000000000E+00 0. -1.
         -2   -1    0    0    0  501 -0.00000000000E+00 -0.00000000000E+00 -0.57919514064E+02  0.57919514064E+02  0.00000000000E+00 0. -1.
         25    1    1    2    0    0  0.53149524490E+02  0.26182046964E+02  0.65625149554E+02  0.14905378825E+03  0.12000000000E+03 0.  0.
         25    1    1    2    0    0 -0.53149524490E+02 -0.26182046964E+02  0.26010082703E+03  0.29251121647E+03  0.12000000000E+03 0.  0.
<mgrwt>
<rscale>  0 0.29813125E+03</rscale>
<asrwt>0</asrwt>
<pdfrwt beam="1">  1        2 0.59022381E-01 0.29813125E+03</pdfrwt>
<pdfrwt beam="2">  1       -2 0.89106947E-02 0.29813125E+03</pdfrwt>
<totfact> 0.66480815E+03</totfact>
</mgrwt>
</event>
<event>
 4    1  0.1807309E-004  0.3169408E+03  0.7818608E-02  0.1077066E+00
         -1   -1    0    0    0  501 -0.00000000000E+00  0.00000000000E+00  0.65592390418E+02  0.65592390418E+02  0.00000000000E+00 0.  1.
          1   -1    0    0  501    0  0.00000000000E+00 -0.00000000000E+00 -0.38286250454E+03  0.38286250454E+03  0.00000000000E+00 0.  1.
         25    1    1    2    0    0 -0.17813945168E+02 -0.89852488248E+02 -0.22681826015E+03  0.27246528113E+03  0.12000000000E+03 0.  0.
         25    1    1    2    0    0  0.17813945168E+02  0.89852488248E+02 -0.90451853977E+02  0.17598961383E+03  0.12000000000E+03 0.  0.
<mgrwt>
<rscale>  0 0.31694079E+03</rscale>
<asrwt>0</asrwt>
<pdfrwt beam="1">  1        1 0.58901923E-01 0.31694079E+03</pdfrwt>
<pdfrwt beam="2">  1       -1 0.10091137E-01 0.31694079E+03</pdfrwt>
<totfact> 0.38541201E+03</totfact>
</mgrwt>
</event>
<event>
 4    1  0.1807309E-004  0.3367065E+03  0.7818608E-02  0.1068207E+00
          2   -1    0    0  501    0  0.00000000000E+00  0.00000000000E+00  0.10277391430E+04  0.10277391430E+04  0.00000000000E+00 0.  1.
         -2   -1    0    0    0  501 -0.00000000000E+00 -0.00000000000E+00 -0.27577827534E+02  0.27577827534E+02  0.00000000000E+00 0.  1.
         25    1    1    2    0    0 -0.51593684866E+02  0.10502198133E+03  0.45039657374E+03  0.48057111703E+03  0.12000000000E+03 0.  0.
         25    1    1    2    0    0  0.51593684866E+02 -0.10502198133E+03  0.54976474172E+03  0.57474585351E+03  0.12000000000E+03 0.  0.
<mgrwt>
<rscale>  0 0.33670648E+03</rscale>
<asrwt>0</asrwt>
<pdfrwt beam="1">  1        2 0.15811369E+00 0.33670648E+03</pdfrwt>
<pdfrwt beam="2">  1       -2 0.42427435E-02 0.33670648E+03</pdfrwt>
<totfact> 0.63697561E+03</totfact>
</mgrwt>
</event>
<event>
 4    1  0.1807309E-004  0.2620261E+03  0.7818608E-02  0.1105932E+00
         -1   -1    0    0    0  501 -0.00000000000E+00  0.00000000000E+00  0.14276113510E+04  0.14276113510E+04  0.00000000000E+00 0. -1.
          1   -1    0    0  501    0  0.00000000000E+00 -0.00000000000E+00 -0.12023171405E+02  0.12023171405E+02  0.00000000000E+00 0. -1.
         25    1    1    2    0    0  0.27308156289E+02 -0.36768963257E+02  0.56592729479E+03  0.58032007982E+03  0.12000000000E+03 0.  0.
         25    1    1    2    0    0 -0.27308156289E+02  0.36768963257E+02  0.84966088478E+03  0.85931444256E+03  0.12000000000E+03 0.  0.
<mgrwt>
<rscale>  0 0.26202607E+03</rscale>
<asrwt>0</asrwt>
<pdfrwt beam="1">  1        1 0.18497198E-02 0.26202607E+03</pdfrwt>
<pdfrwt beam="2">  1       -1 0.21963238E+00 0.26202607E+03</pdfrwt>
<totfact> 0.83742197E+02</totfact>
</mgrwt>
</event>
<event>
 4    1  0.1807309E-004  0.2796123E+03  0.7818608E-02  0.1095901E+00
          1   -1    0    0  501    0  0.00000000000E+00  0.00000000000E+00  0.35636443843E+03  0.35636443843E+03  0.00000000000E+00 0.  1.
         -1   -1    0    0    0  501 -0.00000000000E+00 -0.00000000000E+00 -0.54847655834E+02  0.54847655834E+02  0.00000000000E+00 0.  1.
         25    1    1    2    0    0  0.25874234505E+02  0.85356862251E+01  0.53168523462E+02  0.13404934106E+03  0.12000000000E+03 0.  0.
         25    1    1    2    0    0 -0.25874234505E+02 -0.85356862251E+01  0.24834825914E+03  0.27716275321E+03  0.12000000000E+03 0.  0.
<mgrwt>
<rscale>  0 0.27961226E+03</rscale>
<asrwt>0</asrwt>
<pdfrwt beam="1">  1        1 0.54825297E-01 0.27961226E+03</pdfrwt>
<pdfrwt beam="2">  1       -1 0.84381011E-02 0.27961226E+03</pdfrwt>
<totfact> 0.55479795E+03</totfact>
</mgrwt>
</event>
<event>
 4    1  0.1807309E-004  0.2922804E+03  0.7818608E-02  0.1089164E+00
          3   -1    0    0  501    0  0.00000000000E+00  0.00000000000E+00  0.50464294490E+03  0.50464294490E+03  0.00000000000E+00 0.  1.
         -3   -1    0    0    0  501 -0.00000000000E+00 -0.00000000000E+00 -0.42320941644E+02  0.42320941644E+02  0.00000000000E+00 0.  1.
         25    1    1    2    0    0  0.34439048414E+02 -0.53137592693E+02  0.33275592542E+03  0.35935519714E+03  0.12000000000E+03 0.  0.
         25    1    1    2    0    0 -0.34439048414E+02  0.53137592693E+02  0.12956607784E+03  0.18760868941E+03  0.12000000000E+03 0.  0.
<mgrwt>
<rscale>  0 0.29228044E+03</rscale>
<asrwt>0</asrwt>
<pdfrwt beam="1">  1        3 0.77637372E-01 0.29228044E+03</pdfrwt>
<pdfrwt beam="2">  1       -3 0.65109145E-02 0.29228044E+03</pdfrwt>
<totfact> 0.60717619E+02</totfact>
</mgrwt>
</event>
<event>
 4    1  0.1807309E-004  0.2939748E+03  0.7818608E-02  0.1088292E+00
         -2   -1    0    0    0  501 -0.00000000000E+00  0.00000000000E+00  0.25081393650E+03  0.25081393650E+03  0.00000000000E+00 0. -1.
          2   -1    0    0  501    0  0.00000000000E+00 -0.00000000000E+00 -0.86140711082E+02  0.86140711082E+02  0.00000000000E+00 0. -1.
         25    1    1    2    0    0  0.34208353294E+02  0.26974417543E+01 -0.66533304969E+01  0.12498701706E+03  0.12000000000E+03 0.  0.
         25    1    1    2    0    0 -0.34208353294E+02 -0.26974417543E+01  0.17132655591E+03  0.21196763052E+03  0.12000000000E+03 0.  0.
<mgrwt>
<rscale>  0 0.29397477E+03</rscale>
<asrwt>0</asrwt>
<pdfrwt beam="1">  1        2 0.13252417E-01 0.29397477E+03</pdfrwt>
<pdfrwt beam="2">  1       -2 0.38586759E-01 0.29397477E+03</pdfrwt>
<totfact> 0.28853161E+03</totfact>
</mgrwt>
</event>
<event>
 4    1  0.1807309E-004  0.2922156E+03  0.7818608E-02  0.1089198E+00
         -2   -1    0    0    0  501 -0.00000000000E+00  0.00000000000E+00  0.50122922170E+03  0.50122922170E+03  0.00000000000E+00 0.  1.
          2   -1    0    0  501    0  0.00000000000E+00 -0.00000000000E+00 -0.42590281702E+02  0.42590281702E+02  0.00000000000E+00 0.  1.
         25    1    1    2    0    0 -0.33669757504E+02 -0.57956936250E+02  0.32152616681E+03  0.34967375505E+03  0.12000000000E+03 0.  0.
         25    1    1    2    0    0  0.33669757504E+02  0.57956936250E+02  0.13711277319E+03  0.19414574834E+03  0.12000000000E+03 0.  0.
<mgrwt>
<rscale>  0 0.29221563E+03</rscale>
<asrwt>0</asrwt>
<pdfrwt beam="1">  1        2 0.65523514E-02 0.29221563E+03</pdfrwt>
<pdfrwt beam="2">  1       -2 0.77112184E-01 0.29221563E+03</pdfrwt>
<totfact> 0.17017517E+03</totfact>
</mgrwt>
</event>
<event>
 4    1  0.1807309E-004  0.2626928E+03  0.7818608E-02  0.1105536E+00
         -1   -1    0    0    0  501 -0.00000000000E+00  0.00000000000E+00  0.14167605479E+03  0.14167605479E+03  0.00000000000E+00 0.  1.
          1   -1    0    0  501    0  0.00000000000E+00 -0.00000000000E+00 -0.12176987453E+03  0.12176987453E+03  0.00000000000E+00 0.  1.
         25    1    1    2    0    0  0.39435655038E+02  0.93551653841E+01 -0.24919948347E+02  0.12908793063E+03  0.12000000000E+03 0.  0.
         25    1    1    2    0    0 -0.39435655038E+02 -0.93551653841E+01  0.44826128604E+02  0.13435799870E+03  0.12000000000E+03 0.  0.
<mgrwt>
<rscale>  0 0.26269279E+03</rscale>
<asrwt>0</asrwt>
<pdfrwt beam="1">  1        1 0.18733827E-01 0.26269279E+03</pdfrwt>
<pdfrwt beam="2">  1       -1 0.21796316E-01 0.26269279E+03</pdfrwt>
<totfact> 0.48230639E+03</totfact>
</mgrwt>
</event>
<event>
 4    1  0.1807309E-004  0.2702402E+03  0.7818608E-02  0.1101142E+00
         -2   -1    0    0    0  501 -0.00000000000E+00  0.00000000000E+00  0.12912047695E+02  0.12912047695E+02  0.00000000000E+00 0. -1.
          2   -1    0    0  501    0  0.00000000000E+00 -0.00000000000E+00 -0.14139852864E+04  0.14139852864E+04  0.00000000000E+00 0. -1.
         25    1    1    2    0    0  0.38028429623E+02 -0.48049283041E+02 -0.64706646985E+03  0.66094622433E+03  0.12000000000E+03 0.  0.
         25    1    1    2    0    0 -0.38028429623E+02  0.48049283041E+02 -0.75400676884E+03  0.76595110974E+03  0.12000000000E+03 0.  0.
<mgrwt>
<rscale>  0 0.27024023E+03</rscale>
<asrwt>0</asrwt>
<pdfrwt beam="1">  1        2 0.21753610E+00 0.27024023E+03</pdfrwt>
<pdfrwt beam="2">  1       -2 0.19864698E-02 0.27024023E+03</pdfrwt>
<totfact> 0.11848091E+04</totfact>
</mgrwt>
</event>
<event>
 4    1  0.1807309E-004  0.3070740E+03  0.7818608E-02  0.1081757E+00
          2   -1    0    0  501    0  0.00000000000E+00  0.00000000000E+00  0.10087738509E+04  0.10087738509E+04  0.00000000000E+00 0.  1.
         -2   -1    0    0    0  501 -0.00000000000E+00 -0.00000000000E+00 -0.23368576944E+02  0.23368576944E+02  0.00000000000E+00 0.  1.
         25    1    1    2    0    0 -0.17362792536E+02  0.17126982450E+02  0.18138043046E+03  0.21884620318E+03  0.12000000000E+03 0.  0.
         25    1    1    2    0    0  0.17362792536E+02 -0.17126982450E+02  0.80402484345E+03  0.81329622462E+03  0.12000000000E+03 0.  0.
<mgrwt>
<rscale>  0 0.30707399E+03</rscale>
<asrwt>0</asrwt>
<pdfrwt beam="1">  1        2 0.15519594E+00 0.30707399E+03</pdfrwt>
<pdfrwt beam="2">  1       -2 0.35951665E-02 0.30707399E+03</pdfrwt>
<totfact> 0.83848235E+03</totfact>
</mgrwt>
</event>
<event>
 4    1  0.1807309E-004  0.2786920E+03  0.7818608E-02  0.1096405E+00
          2   -1    0    0  501    0  0.00000000000E+00  0.00000000000E+00  0.39115985809E+03  0.39115985809E+03  0.00000000000E+00 0.  1.
         -2   -1    0    0    0  501 -0.00000000000E+00 -0.00000000000E+00 -0.49640335045E+02  0.49640335045E+02  0.00000000000E+00 0.  1.
         25    1    1    2    0    0  0.25179815957E+02 -0.42737883341E+02  0.90783337441E+02  0.15843662506E+03  0.12000000000E+03 0.  0.
         25    1    1    2    0    0 -0.25179815957E+02  0.42737883341E+02  0.25073618561E+03  0.28236356808E+03  0.12000000000E+03 0.  0.
<mgrwt>
<rscale>  0 0.27869199E+03</rscale>
<asrwt>0</asrwt>
<pdfrwt beam="1">  1        2 0.60178438E-01 0.27869199E+03</pdfrwt>
<pdfrwt beam="2">  1       -2 0.76369749E-02 0.27869199E+03</pdfrwt>
<totfact> 0.82714757E+03</totfact>
</mgrwt>
</event>
<event>
 4    1  0.1807309E-004  0.2521908E+03  0.7818608E-02  0.1111928E+00
          2   -1    0    0  501    0  0.00000000000E+00  0.00000000000E+00  0.43674172920E+03  0.43674172920E+03  0.00000000000E+00 0.  1.
         -2   -1    0    0    0  501 -0.00000000000E+00 -0.00000000000E+00 -0.36406071697E+02  0.36406071697E+02  0.00000000000E+00 0.  1.
         25    1    1    2    0    0 -0.32150209006E+02 -0.21568288144E+02  0.19809240161E+03  0.23481785828E+03  0.12000000000E+03 0.  0.
         25    1    1    2    0    0  0.32150209006E+02  0.21568288144E+02  0.20224325589E+03  0.23832994261E+03  0.12000000000E+03 0.  0.
<mgrwt>
<rscale>  0 0.25219081E+03</rscale>
<asrwt>0</asrwt>
<pdfrwt beam="1">  1        2 0.67191031E-01 0.25219081E+03</pdfrwt>
<pdfrwt beam="2">  1       -2 0.56009344E-02 0.25219081E+03</pdfrwt>
<totfact> 0.11780505E+04</totfact>
</mgrwt>
</event>
<event>
 4    1  0.1807309E-004  0.2788323E+03  0.7818608E-02  0.1096328E+00
          2   -1    0    0  501    0  0.00000000000E+00  0.00000000000E+00  0.28603664104E+03  0.28603664104E+03  0.00000000000E+00 0. -1.
         -2   -1    0    0    0  501 -0.00000000000E+00 -0.00000000000E+00 -0.67952359198E+02  0.67952359198E+02  0.00000000000E+00 0. -1.
         25    1    1    2    0    0  0.23581181739E+02 -0.63549079241E+02  0.13574197479E+03  0.19344363862E+03  0.12000000000E+03 0.  0.
         25    1    1    2    0    0 -0.23581181739E+02  0.63549079241E+02  0.82342307052E+02  0.16054536161E+03  0.12000000000E+03 0.  0.
<mgrwt>
<rscale>  0 0.27883231E+03</rscale>
<asrwt>0</asrwt>
<pdfrwt beam="1">  1        2 0.44005636E-01 0.27883231E+03</pdfrwt>
<pdfrwt beam="2">  1       -2 0.10454209E-01 0.27883231E+03</pdfrwt>
<totfact> 0.70684636E+03</totfact>
</mgrwt>
</event>
<event>
 4    1  0.1807309E-004  0.2752631E+03  0.7818608E-02  0.1098305E+00
         -2   -1    0    0    0  501 -0.00000000000E+00  0.00000000000E+00  0.23800532950E+02  0.23800532950E+02  0.00000000000E+00 0. -1.
          2   -1    0    0  501    0  0.00000000000E+00 -0.00000000000E+00 -0.79588302554E+03  0.79588302554E+03  0.00000000000E+00 0. -1.
         25    1    1    2    0    0 -0.22766985009E+02 -0.33539801582E+02 -0.54637919617E+03  0.56086850500E+03  0.12000000000E+03 0.  0.
         25    1    1    2    0    0  0.22766985009E+02  0.33539801582E+02 -0.22570329642E+03  0.25881505349E+03  0.12000000000E+03 0.  0.
<mgrwt>
<rscale>  0 0.27526308E+03</rscale>
<asrwt>0</asrwt>
<pdfrwt beam="1">  1        2 0.12244355E+00 0.27526308E+03</pdfrwt>
<pdfrwt beam="2">  1       -2 0.36616201E-02 0.27526308E+03</pdfrwt>
<totfact> 0.11177335E+04</totfact>
</mgrwt>
</event>
<event>
 4    1  0.1807309E-004  0.4258940E+03  0.7818608E-02  0.1035165E+00
          1   -1    0    0  501    0  0.00000000000E+00  0.00000000000E+00  0.19543596643E+04  0.19543596643E+04  0.00000000000E+00 0. -1.
         -1   -1    0    0    0  501 -0.00000000000E+00 -0.00000000000E+00 -0.23202704525E+02  0.23202704525E+02  0.00000000000E+00 0. -1.
         25    1    1    2    0    0  0.63929085975E+02 -0.14507945751E+03  0.13195521844E+04  0.13344485544E+04  0.12000000000E+03 0.  0.
         25    1    1    2    0    0 -0.63929085975E+02  0.14507945751E+03  0.61160477538E+03  0.64311381442E+03  0.12000000000E+03 0.  0.
<mgrwt>
<rscale>  0 0.42589402E+03</rscale>
<asrwt>0</asrwt>
<pdfrwt beam="1">  1        1 0.30067059E+00 0.42589402E+03</pdfrwt>
<pdfrwt beam="2">  1       -1 0.35696484E-02 0.42589402E+03</pdfrwt>
<totfact> 0.10400548E+03</totfact>
</mgrwt>
</event>
<event>
 4    1  0.1807309E-004  0.2904084E+03  0.7818608E-02  0.1090136E+00
         -2   -1    0    0    0  501 -0.00000000000E+00  0.00000000000E+00  0.23640510245E+02  0.23640510245E+02  0.00000000000E+00 0. -1.
          2   -1    0    0  501    0  0.00000000000E+00 -0.00000000000E+00 -0.89186971052E+03  0.89186971052E+03  0.00000000000E+00 0. -1.
         25    1    1    2    0    0 -0.40432390772E+02 -0.39094317978E+02 -0.62118020208E+03  0.63515981248E+03  0.12000000000E+03 0.  0.
         25    1    1    2    0    0  0.40432390772E+02  0.39094317978E+02 -0.24704899819E+03  0.28035040829E+03  0.12000000000E+03 0.  0.
<mgrwt>
<rscale>  0 0.29040837E+03</rscale>
<asrwt>0</asrwt>
<pdfrwt beam="1">  1        2 0.13721072E+00 0.29040837E+03</pdfrwt>
<pdfrwt beam="2">  1       -2 0.36370016E-02 0.29040837E+03</pdfrwt>
<totfact> 0.97513885E+03</totfact>
</mgrwt>
</event>
<event>
 4    1  0.1807309E-004  0.5140362E+03  0.7818608E-02  0.1010179E+00
          1   -1    0    0  501    0  0.00000000000E+00  0.00000000000E+00  0.33890090300E+04  0.33890090300E+04  0.00000000000E+00 0. -1.
         -1   -1    0    0    0  501 -0.00000000000E+00 -0.00000000000E+00 -0.19491926844E+02  0.19491926844E+02  0.00000000000E+00 0. -1.
         25    1    1    2    0    0 -0.10913361935E+03  0.18315355982E+03  0.22069966619E+04  0.22205156245E+04  0.12000000000E+03 0.  0.
         25    1    1    2    0    0  0.10913361935E+03 -0.18315355982E+03  0.11625204413E+04  0.11879853323E+04  0.12000000000E+03 0.  0.
<mgrwt>
<rscale>  0 0.51403625E+03</rscale>
<asrwt>0</asrwt>
<pdfrwt beam="1">  1        1 0.52138554E+00 0.51403625E+03</pdfrwt>
<pdfrwt beam="2">  1       -1 0.29987607E-02 0.51403625E+03</pdfrwt>
<totfact> 0.13629861E+02</totfact>
</mgrwt>
</event>
<event>
 4    1  0.1807309E-004  0.4620824E+03  0.7818608E-02  0.1024179E+00
         -1   -1    0    0    0  501 -0.00000000000E+00  0.00000000000E+00  0.27837021012E+03  0.27837021012E+03  0.00000000000E+00 0. -1.
          1   -1    0    0  501    0  0.00000000000E+00 -0.00000000000E+00 -0.19175913953E+03  0.19175913953E+03  0.00000000000E+00 0. -1.
         25    1    1    2    0    0  0.11702801877E+03 -0.37164096242E+02  0.20060488538E+03  0.26404364651E+03  0.12000000000E+03 0.  0.
         25    1    1    2    0    0 -0.11702801877E+03  0.37164096242E+02 -0.11399381479E+03  0.20608570314E+03  0.12000000000E+03 0.  0.
<mgrwt>
<rscale>  0 0.46208238E+03</rscale>
<asrwt>0</asrwt>
<pdfrwt beam="1">  1        1 0.29501406E-01 0.46208238E+03</pdfrwt>
<pdfrwt beam="2">  1       -1 0.42826186E-01 0.46208238E+03</pdfrwt>
<totfact> 0.84772052E+02</totfact>
</mgrwt>
</event>
<event>
 4    1  0.1807309E-004  0.2773168E+03  0.7818608E-02  0.1097164E+00
         -1   -1    0    0    0  501 -0.00000000000E+00  0.00000000000E+00  0.61235385133E+02  0.61235385133E+02  0.00000000000E+00 0. -1.
          1   -1    0    0  501    0  0.00000000000E+00 -0.00000000000E+00 -0.31397121405E+03  0.31397121405E+03  0.00000000000E+00 0. -1.
         25    1    1    2    0    0 -0.36566101412E+02  0.11498870929E+00 -0.20628658503E+03  0.24143580546E+03  0.12000000000E+03 0.  0.
         25    1    1    2    0    0  0.36566101412E+02 -0.11498870929E+00 -0.46449243884E+02  0.13377079372E+03  0.12000000000E+03 0.  0.
<mgrwt>
<rscale>  0 0.27731677E+03</rscale>
<asrwt>0</asrwt>
<pdfrwt beam="1">  1        1 0.48303263E-01 0.27731677E+03</pdfrwt>
<pdfrwt beam="2">  1       -1 0.94208287E-02 0.27731677E+03</pdfrwt>
<totfact> 0.54966425E+03</totfact>
</mgrwt>
</event>
<event>
 4    1  0.1807309E-004  0.3755427E+03  0.7818608E-02  0.1052594E+00
          3   -1    0    0  501    0  0.00000000000E+00  0.00000000000E+00  0.50941156882E+02  0.50941156882E+02  0.00000000000E+00 0.  1.
         -3   -1    0    0    0  501 -0.00000000000E+00 -0.00000000000E+00 -0.69213344201E+03  0.69213344201E+03  0.00000000000E+00 0.  1.
         25    1    1    2    0    0  0.11030096944E+03 -0.75914854817E+02 -0.21351543604E+03  0.27913833572E+03  0.12000000000E+03 0.  0.
         25    1    1    2    0    0 -0.11030096944E+03  0.75914854817E+02 -0.42767684909E+03  0.46393626317E+03  0.12000000000E+03 0.  0.
<mgrwt>
<rscale>  0 0.37554269E+03</rscale>
<asrwt>0</asrwt>
<pdfrwt beam="1">  1        3 0.78371022E-02 0.37554269E+03</pdfrwt>
<pdfrwt beam="2">  1       -3 0.10648205E+00 0.37554269E+03</pdfrwt>
<totfact> 0.22344061E+02</totfact>
</mgrwt>
</event>
<event>
 4    1  0.1807309E-004  0.2928523E+03  0.7818608E-02  0.1088869E+00
          1   -1    0    0  501    0  0.00000000000E+00  0.00000000000E+00  0.10160811068E+04  0.10160811068E+04  0.00000000000E+00 0.  1.
         -1   -1    0    0    0  501 -0.00000000000E+00 -0.00000000000E+00 -0.21101284701E+02  0.21101284701E+02  0.00000000000E+00 0.  1.
         25    1    1    2    0    0 -0.53768843869E+02 -0.62772761605E+02  0.44627547535E+03  0.46946065658E+03  0.12000000000E+03 0.  0.
         25    1    1    2    0    0  0.53768843869E+02  0.62772761605E+02  0.54870434675E+03  0.56772173493E+03  0.12000000000E+03 0.  0.
<mgrwt>
<rscale>  0 0.29285230E+03</rscale>
<asrwt>0</asrwt>
<pdfrwt beam="1">  1        1 0.15632013E+00 0.29285230E+03</pdfrwt>
<pdfrwt beam="2">  1       -1 0.32463523E-02 0.29285230E+03</pdfrwt>
<totfact> 0.52241292E+03</totfact>
</mgrwt>
</event>
<event>
 4    1  0.1807309E-004  0.4901602E+03  0.7818608E-02  0.1016380E+00
          1   -1    0    0  501    0  0.00000000000E+00  0.00000000000E+00  0.96546147070E+03  0.96546147070E+03  0.00000000000E+00 0.  1.
         -1   -1    0    0    0  501 -0.00000000000E+00 -0.00000000000E+00 -0.62213010442E+02  0.62213010442E+02  0.00000000000E+00 0.  1.
         25    1    1    2    0    0  0.16071173218E+03  0.40285278530E+02  0.73457405616E+03  0.76252882471E+03  0.12000000000E+03 0.  0.
         25    1    1    2    0    0 -0.16071173218E+03 -0.40285278530E+02  0.16867440410E+03  0.26514565643E+03  0.12000000000E+03 0.  0.
<mgrwt>
<rscale>  0 0.49016024E+03</rscale>
<asrwt>0</asrwt>
<pdfrwt beam="1">  1        1 0.14853252E+00 0.49016024E+03</pdfrwt>
<pdfrwt beam="2">  1       -1 0.95712331E-02 0.49016024E+03</pdfrwt>
<totfact> 0.11037334E+03</totfact>
</mgrwt>
</event>
<event>
 4    1  0.1807309E-004  0.2921253E+03  0.7818608E-02  0.1089245E+00
         -2   -1    0    0    0  501 -0.00000000000E+00  0.00000000000E+00  0.13652016553E+02  0.13652016553E+02  0.00000000000E+00 0.  1.
          2   -1    0    0  501    0  0.00000000000E+00 -0.00000000000E+00 -0.15627208687E+04  0.15627208687E+04  0.00000000000E+00 0.  1.
         25    1    1    2    0    0 -0.37586256407E+01 -0.78329992494E+02 -0.92568416783E+03  0.93671815055E+03  0.12000000000E+03 0.  0.
         25    1    1    2    0    0  0.37586256407E+01  0.78329992494E+02 -0.62338468428E+03  0.63965473467E+03  0.12000000000E+03 0.  0.
<mgrwt>
<rscale>  0 0.29212526E+03</rscale>
<asrwt>0</asrwt>
<pdfrwt beam="1">  1        2 0.24041849E+00 0.29212526E+03</pdfrwt>
<pdfrwt beam="2">  1       -2 0.21003111E-02 0.29212526E+03</pdfrwt>
<totfact> 0.90953641E+03</totfact>
</mgrwt>
</event>
<event>
 4    1  0.1807309E-004  0.2688210E+03  0.7818608E-02  0.1101956E+00
          1   -1    0    0  501    0  0.00000000000E+00  0.00000000000E+00  0.34675027809E+02  0.34675027809E+02  0.00000000000E+00 0.  1.
         -1   -1    0    0    0  501 -0.00000000000E+00 -0.00000000000E+00 -0.52101431309E+03  0.52101431309E+03  0.00000000000E+00 0.  1.
         25    1    1    2    0    0 -0.22815864858E+02 -0.37235532567E+02 -0.32986956197E+03  0.35372443581E+03  0.12000000000E+03 0.  0.
         25    1    1    2    0    0  0.22815864858E+02  0.37235532567E+02 -0.15646972331E+03  0.20196490509E+03  0.12000000000E+03 0.  0.
<mgrwt>
<rscale>  0 0.26882102E+03</rscale>
<asrwt>0</asrwt>
<pdfrwt beam="1">  1        1 0.53346199E-02 0.26882102E+03</pdfrwt>
<pdfrwt beam="2">  1       -1 0.80156045E-01 0.26882102E+03</pdfrwt>
<totfact> 0.24644109E+03</totfact>
</mgrwt>
</event>
<event>
 4    1  0.1807309E-004  0.3246358E+03  0.7818608E-02  0.1073535E+00
         -2   -1    0    0    0  501 -0.00000000000E+00  0.00000000000E+00  0.14091913116E+02  0.14091913116E+02  0.00000000000E+00 0. -1.
          2   -1    0    0  501    0  0.00000000000E+00 -0.00000000000E+00 -0.18696609523E+04  0.18696609523E+04  0.00000000000E+00 0. -1.
         25    1    1    2    0    0  0.77388150766E+02  0.45481731374E+02 -0.56589233177E+03  0.58539870594E+03  0.12000000000E+03 0.  0.
         25    1    1    2    0    0 -0.77388150766E+02 -0.45481731374E+02 -0.12896767074E+04  0.12983541595E+04  0.12000000000E+03 0.  0.
<mgrwt>
<rscale>  0 0.32463579E+03</rscale>
<asrwt>0</asrwt>
<pdfrwt beam="1">  1        2 0.28764014E+00 0.32463579E+03</pdfrwt>
<pdfrwt beam="2">  1       -2 0.21679867E-02 0.32463579E+03</pdfrwt>
<totfact> 0.59748938E+03</totfact>
</mgrwt>
</event>
<event>
 4    1  0.1807309E-004  0.2705713E+03  0.7818608E-02  0.1100953E+00
         -1   -1    0    0    0  501 -0.00000000000E+00  0.00000000000E+00  0.16546600327E+02  0.16546600327E+02  0.00000000000E+00 0.  1.
          1   -1    0    0  501    0  0.00000000000E+00 -0.00000000000E+00 -0.11061005650E+04  0.11061005650E+04  0.00000000000E+00 0.  1.
         25    1    1    2    0    0 -0.25698470708E+02 -0.14664421494E+02 -0.77304742229E+03  0.78286510573E+03  0.12000000000E+03 0.  0.
         25    1    1    2    0    0  0.25698470708E+02  0.14664421494E+02 -0.31650654236E+03  0.33978205958E+03  0.12000000000E+03 0.  0.
<mgrwt>
<rscale>  0 0.27057128E+03</rscale>
<asrwt>0</asrwt>
<pdfrwt beam="1">  1        1 0.17016938E+00 0.27057128E+03</pdfrwt>
<pdfrwt beam="2">  1       -1 0.25456299E-02 0.27057128E+03</pdfrwt>
<totfact> 0.64167156E+03</totfact>
</mgrwt>
</event>
<event>
 4    1  0.1807309E-004  0.2708930E+03  0.7818608E-02  0.1100770E+00
          3   -1    0    0  501    0  0.00000000000E+00  0.00000000000E+00  0.64897780610E+03  0.64897780610E+03  0.00000000000E+00 0. -1.
         -3   -1    0    0    0  501 -0.00000000000E+00 -0.00000000000E+00 -0.28268695069E+02  0.28268695069E+02  0.00000000000E+00 0. -1.
         25    1    1    2    0    0  0.58232945008E+02 -0.43116341535E+01  0.36823977388E+03  0.39167613808E+03  0.12000000000E+03 0.  0.
         25    1    1    2    0    0 -0.58232945008E+02  0.43116341535E+01  0.25246933715E+03  0.28557036309E+03  0.12000000000E+03 0.  0.
<mgrwt>
<rscale>  0 0.27089301E+03</rscale>
<asrwt>0</asrwt>
<pdfrwt beam="1">  1        3 0.99842728E-01 0.27089301E+03</pdfrwt>
<pdfrwt beam="2">  1       -3 0.43490305E-02 0.27089301E+03</pdfrwt>
<totfact> 0.65621740E+02</totfact>
</mgrwt>
</event>
<event>
 4    1  0.1807309E-004  0.2968901E+03  0.7818608E-02  0.1086806E+00
          2   -1    0    0  501    0  0.00000000000E+00  0.00000000000E+00  0.41984242419E+03  0.41984242419E+03  0.00000000000E+00 0. -1.
         -2   -1    0    0    0  501 -0.00000000000E+00 -0.00000000000E+00 -0.52486184059E+02  0.52486184059E+02  0.00000000000E+00 0. -1.
         25    1    1    2    0    0  0.76832369982E+02 -0.20650298529E+02  0.24117794760E+03  0.28088511943E+03  0.12000000000E+03 0.  0.
         25    1    1    2    0    0 -0.76832369982E+02  0.20650298529E+02  0.12617829252E+03  0.19144348882E+03  0.12000000000E+03 0.  0.
<mgrwt>
<rscale>  0 0.29689006E+03</rscale>
<asrwt>0</asrwt>
<pdfrwt beam="1">  1        2 0.64591140E-01 0.29689006E+03</pdfrwt>
<pdfrwt beam="2">  1       -2 0.80747978E-02 0.29689006E+03</pdfrwt>
<totfact> 0.70337282E+03</totfact>
</mgrwt>
</event>
<event>
 4    1  0.1807309E-004  0.2750586E+03  0.7818608E-02  0.1098419E+00
          2   -1    0    0  501    0  0.00000000000E+00  0.00000000000E+00  0.24794602715E+02  0.24794602715E+02  0.00000000000E+00 0. -1.
         -2   -1    0    0    0  501 -0.00000000000E+00 -0.00000000000E+00 -0.76283971065E+03  0.76283971065E+03  0.00000000000E+00 0. -1.
         25    1    1    2    0    0 -0.41757729391E+02  0.41990081233E+02 -0.27813437012E+03  0.30865126394E+03  0.12000000000E+03 0.  0.
         25    1    1    2    0    0  0.41757729391E+02 -0.41990081233E+02 -0.45991073781E+03  0.47898304943E+03  0.12000000000E+03 0.  0.
<mgrwt>
<rscale>  0 0.27505859E+03</rscale>
<asrwt>0</asrwt>
<pdfrwt beam="1">  1        2 0.38145546E-02 0.27505859E+03</pdfrwt>
<pdfrwt beam="2">  1       -2 0.11735995E+00 0.27505859E+03</pdfrwt>
<totfact> 0.13243842E+03</totfact>
</mgrwt>
</event>
<event>
 4    1  0.1807309E-004  0.4269389E+03  0.7818608E-02  0.1034831E+00
          2   -1    0    0  501    0  0.00000000000E+00  0.00000000000E+00  0.24107454648E+04  0.24107454648E+04  0.00000000000E+00 0.  1.
         -2   -1    0    0    0  501 -0.00000000000E+00 -0.00000000000E+00 -0.18902533314E+02  0.18902533314E+02  0.00000000000E+00 0.  1.
         25    1    1    2    0    0 -0.68344397543E+02 -0.85865317566E+02  0.40890685721E+03  0.44005525484E+03  0.12000000000E+03 0.  0.
         25    1    1    2    0    0  0.68344397543E+02  0.85865317566E+02  0.19829360743E+04  0.19895927433E+04  0.12000000000E+03 0.  0.
<mgrwt>
<rscale>  0 0.42693885E+03</rscale>
<asrwt>0</asrwt>
<pdfrwt beam="1">  1        2 0.37088368E+00 0.42693885E+03</pdfrwt>
<pdfrwt beam="2">  1       -2 0.29080839E-02 0.42693885E+03</pdfrwt>
<totfact> 0.19649190E+03</totfact>
</mgrwt>
</event>
<event>
 4    1  0.1807309E-004  0.2938462E+03  0.7818608E-02  0.1088358E+00
          1   -1    0    0  501    0  0.00000000000E+00  0.00000000000E+00  0.92399017214E+03  0.92399017214E+03  0.00000000000E+00 0.  1.
         -1   -1    0    0    0  501 -0.00000000000E+00 -0.00000000000E+00 -0.23362142435E+02  0.23362142435E+02  0.00000000000E+00 0.  1.
         25    1    1    2    0    0  0.69166694991E+02  0.38297740937E+02  0.35169827905E+03  0.37992424001E+03  0.12000000000E+03 0.  0.
         25    1    1    2    0    0 -0.69166694991E+02 -0.38297740937E+02  0.54892975065E+03  0.56742807456E+03  0.12000000000E+03 0.  0.
<mgrwt>
<rscale>  0 0.29384615E+03</rscale>
<asrwt>0</asrwt>
<pdfrwt beam="1">  1        1 0.14215231E+00 0.29384615E+03</pdfrwt>
<pdfrwt beam="2">  1       -1 0.35941765E-02 0.29384615E+03</pdfrwt>
<totfact> 0.52787541E+03</totfact>
</mgrwt>
</event>
<event>
 4    1  0.1807309E-004  0.2641314E+03  0.7818608E-02  0.1104686E+00
          2   -1    0    0  501    0  0.00000000000E+00  0.00000000000E+00  0.95931655358E+03  0.95931655358E+03  0.00000000000E+00 0. -1.
         -2   -1    0    0    0  501 -0.00000000000E+00 -0.00000000000E+00 -0.18181016162E+02  0.18181016162E+02  0.00000000000E+00 0. -1.
         25    1    1    2    0    0 -0.21459531845E+02  0.50121183406E+02  0.50124319096E+03  0.51828310895E+03  0.12000000000E+03 0.  0.
         25    1    1    2    0    0  0.21459531845E+02 -0.50121183406E+02  0.43989234646E+03  0.45921446080E+03  0.12000000000E+03 0.  0.
<mgrwt>
<rscale>  0 0.26413140E+03</rscale>
<asrwt>0</asrwt>
<pdfrwt beam="1">  1        2 0.14758712E+00 0.26413140E+03</pdfrwt>
<pdfrwt beam="2">  1       -2 0.27970802E-02 0.26413140E+03</pdfrwt>
<totfact> 0.13029216E+04</totfact>
</mgrwt>
</event>
<event>
 4    1  0.1807309E-004  0.2550910E+03  0.7818608E-02  0.1110129E+00
          1   -1    0    0  501    0  0.00000000000E+00  0.00000000000E+00  0.53209892544E+02  0.53209892544E+02  0.00000000000E+00 0. -1.
         -1   -1    0    0    0  501 -0.00000000000E+00 -0.00000000000E+00 -0.30573000866E+03  0.30573000866E+03  0.00000000000E+00 0. -1.
         25    1    1    2    0    0 -0.46058387512E+01  0.34667418260E+02 -0.90529084634E+02  0.15433262391E+03  0.12000000000E+03 0.  0.
         25    1    1    2    0    0  0.46058387512E+01 -0.34667418260E+02 -0.16199103148E+03  0.20460727729E+03  0.12000000000E+03 0.  0.
<mgrwt>
<rscale>  0 0.25509105E+03</rscale>
<asrwt>0</asrwt>
<pdfrwt beam="1">  1        1 0.81861370E-02 0.25509105E+03</pdfrwt>
<pdfrwt beam="2">  1       -1 0.47035388E-01 0.25509105E+03</pdfrwt>
<totfact> 0.38458389E+03</totfact>
</mgrwt>
</event>
<event>
 4    1  0.1807309E-004  0.3330743E+03  0.7818608E-02  0.1069785E+00
          2   -1    0    0  501    0  0.00000000000E+00  0.00000000000E+00  0.43391068016E+03  0.43391068016E+03  0.00000000000E+00 0.  1.
         -2   -1    0    0    0  501 -0.00000000000E+00 -0.00000000000E+00 -0.63917825410E+02  0.63917825410E+02  0.00000000000E+00 0.  1.
         25    1    1    2    0    0 -0.14520805383E+02  0.11453562071E+03  0.18845836529E+03  0.25148721170E+03  0.12000000000E+03 0.  0.
         25    1    1    2    0    0  0.14520805383E+02 -0.11453562071E+03  0.18153448946E+03  0.24634129387E+03  0.12000000000E+03 0.  0.
<mgrwt>
<rscale>  0 0.33307433E+03</rscale>
<asrwt>0</asrwt>
<pdfrwt beam="1">  1        2 0.66755487E-01 0.33307433E+03</pdfrwt>
<pdfrwt beam="2">  1       -2 0.98335119E-02 0.33307433E+03</pdfrwt>
<totfact> 0.49843776E+03</totfact>
</mgrwt>
</event>
<event>
 4    1  0.1807309E-004  0.2683982E+03  0.7818608E-02  0.1102200E+00
         -2   -1    0    0    0  501 -0.00000000000E+00  0.00000000000E+00  0.21935665363E+03  0.21935665363E+03  0.00000000000E+00 0. -1.
          2   -1    0    0  501    0  0.00000000000E+00 -0.00000000000E+00 -0.82101015719E+02  0.82101015719E+02  0.00000000000E+00 0. -1.
         25    1    1    2    0    0  0.26995492191E+02 -0.42278998583E+02  0.31492828081E+02  0.13382103176E+03  0.12000000000E+03 0.  0.
         25    1    1    2    0    0 -0.26995492191E+02  0.42278998583E+02  0.10576280983E+03  0.16763663759E+03  0.12000000000E+03 0.  0.
<mgrwt>
<rscale>  0 0.26839824E+03</rscale>
<asrwt>0</asrwt>
<pdfrwt beam="1">  1        2 0.12630926E-01 0.26839824E+03</pdfrwt>
<pdfrwt beam="2">  1       -2 0.33747177E-01 0.26839824E+03</pdfrwt>
<totfact> 0.39208957E+03</totfact>
</mgrwt>
</event>
<event>
 4    1  0.1807309E-004  0.3219193E+03  0.7818608E-02  0.1074769E+00
          1   -1    0    0  501    0  0.00000000000E+00  0.00000000000E+00  0.23548434710E+03  0.23548434710E+03  0.00000000000E+00 0.  1.
         -1   -1    0    0    0  501 -0.00000000000E+00 -0.00000000000E+00 -0.11002005620E+03  0.11002005620E+03  0.00000000000E+00 0.  1.
         25    1    1    2    0    0 -0.67647389021E+02 -0.80928653827E+02  0.83719465059E+02  0.18037340458E+03  0.12000000000E+03 0.  0.
         25    1    1    2    0    0  0.67647389021E+02  0.80928653827E+02  0.41744825838E+02  0.16513099871E+03  0.12000000000E+03 0.  0.
<mgrwt>
<rscale>  0 0.32191925E+03</rscale>
<asrwt>0</asrwt>
<pdfrwt beam="1">  1        1 0.36228361E-01 0.32191925E+03</pdfrwt>
<pdfrwt beam="2">  1       -1 0.16926163E-01 0.32191925E+03</pdfrwt>
<totfact> 0.31549244E+03</totfact>
</mgrwt>
</event>
<event>
 4    1  0.1807309E-004  0.4024652E+03  0.7818608E-02  0.1042929E+00
         -3   -1    0    0    0  501 -0.00000000000E+00  0.00000000000E+00  0.77772818777E+02  0.77772818777E+02  0.00000000000E+00 0. -1.
          3   -1    0    0  501    0  0.00000000000E+00 -0.00000000000E+00 -0.52067751885E+03  0.52067751885E+03  0.00000000000E+00 0. -1.
         25    1    1    2    0    0 -0.37365674937E+02 -0.13517978690E+03 -0.34063944964E+03  0.38743386932E+03  0.12000000000E+03 0.  0.
         25    1    1    2    0    0  0.37365674937E+02  0.13517978690E+03 -0.10226525043E+03  0.21101646830E+03  0.12000000000E+03 0.  0.
<mgrwt>
<rscale>  0 0.40246520E+03</rscale>
<asrwt>0</asrwt>
<pdfrwt beam="1">  1        3 0.80104232E-01 0.40246520E+03</pdfrwt>
<pdfrwt beam="2">  1       -3 0.11965049E-01 0.40246520E+03</pdfrwt>
<totfact> 0.21132296E+02</totfact>
</mgrwt>
</event>
<event>
 4    1  0.1807309E-004  0.2469621E+03  0.7818608E-02  0.1115240E+00
         -1   -1    0    0    0  501 -0.00000000000E+00  0.00000000000E+00  0.11450111600E+03  0.11450111600E+03  0.00000000000E+00 0.  1.
          1   -1    0    0  501    0  0.00000000000E+00 -0.00000000000E+00 -0.13316526097E+03  0.13316526097E+03  0.00000000000E+00 0.  1.
         25    1    1    2    0    0  0.20437146959E+02 -0.18418187448E+02 -0.18881010889E+02  0.12455279674E+03  0.12000000000E+03 0.  0.
         25    1    1    2    0    0 -0.20437146959E+02  0.18418187448E+02  0.21686591987E+00  0.12311358022E+03  0.12000000000E+03 0.  0.
<mgrwt>
<rscale>  0 0.24696211E+03</rscale>
<asrwt>0</asrwt>
<pdfrwt beam="1">  1        1 0.20486963E-01 0.24696211E+03</pdfrwt>
<pdfrwt beam="2">  1       -1 0.17615556E-01 0.24696211E+03</pdfrwt>
<totfact> 0.60555284E+03</totfact>
</mgrwt>
</event>
<event>
 4    1  0.1807309E-004  0.2490031E+03  0.7818608E-02  0.1113936E+00
          1   -1    0    0  501    0  0.00000000000E+00  0.00000000000E+00  0.12241166270E+04  0.12241166270E+04  0.00000000000E+00 0.  1.
         -1   -1    0    0    0  501 -0.00000000000E+00 -0.00000000000E+00 -0.12662710217E+02  0.12662710217E+02  0.00000000000E+00 0.  1.
         25    1    1    2    0    0  0.83813587706E+01 -0.11924325126E+02  0.45769951274E+03  0.47339336779E+03  0.12000000000E+03 0.  0.
         25    1    1    2    0    0 -0.83813587706E+01  0.11924325126E+02  0.75375440404E+03  0.76338596942E+03  0.12000000000E+03 0.  0.
<mgrwt>
<rscale>  0 0.24900309E+03</rscale>
<asrwt>0</asrwt>
<pdfrwt beam="1">  1        1 0.18832554E+00 0.24900309E+03</pdfrwt>
<pdfrwt beam="2">  1       -1 0.19481102E-02 0.24900309E+03</pdfrwt>
<totfact> 0.78219746E+03</totfact>
</mgrwt>
</event>
<event>
 4    1  0.1807309E-004  0.2459159E+03  0.7818608E-02  0.1115913E+00
          1   -1    0    0  501    0  0.00000000000E+00  0.00000000000E+00  0.83906075987E+02  0.83906075987E+02  0.00000000000E+00 0.  1.
         -1   -1    0    0    0  501 -0.00000000000E+00 -0.00000000000E+00 -0.18018549682E+03  0.18018549682E+03  0.00000000000E+00 0.  1.
         25    1    1    2    0    0 -0.19001056862E+02  0.18436818580E+02 -0.43621426293E+02  0.13039856316E+03  0.12000000000E+03 0.  0.
         25    1    1    2    0    0  0.19001056862E+02 -0.18436818580E+02 -0.52657994545E+02  0.13369300966E+03  0.12000000000E+03 0.  0.
<mgrwt>
<rscale>  0 0.24591590E+03</rscale>
<asrwt>0</asrwt>
<pdfrwt beam="1">  1        1 0.12908627E-01 0.24591590E+03</pdfrwt>
<pdfrwt beam="2">  1       -1 0.27720845E-01 0.24591590E+03</pdfrwt>
<totfact> 0.52544924E+03</totfact>
</mgrwt>
</event>
<event>
 4    1  0.1807309E-004  0.3382575E+03  0.7818608E-02  0.1067541E+00
         -2   -1    0    0    0  501 -0.00000000000E+00  0.00000000000E+00  0.20395281948E+02  0.20395281948E+02  0.00000000000E+00 0.  1.
          2   -1    0    0  501    0  0.00000000000E+00 -0.00000000000E+00 -0.14025074017E+04  0.14025074017E+04  0.00000000000E+00 0.  1.
         25    1    1    2    0    0  0.13963989557E+02 -0.22933868195E+02 -0.11795175729E+04  0.11859100556E+04  0.12000000000E+03 0.  0.
         25    1    1    2    0    0 -0.13963989557E+02  0.22933868195E+02 -0.20259454691E+03  0.23699262805E+03  0.12000000000E+03 0.  0.
<mgrwt>
<rscale>  0 0.33825750E+03</rscale>
<asrwt>0</asrwt>
<pdfrwt beam="1">  1        2 0.21577035E+00 0.33825750E+03</pdfrwt>
<pdfrwt beam="2">  1       -2 0.31377360E-02 0.33825750E+03</pdfrwt>
<totfact> 0.61203553E+03</totfact>
</mgrwt>
</event>
<event>
 4    1  0.1807309E-004  0.2494021E+03  0.7818608E-02  0.1113683E+00
         -1   -1    0    0    0  501 -0.00000000000E+00  0.00000000000E+00  0.11282478260E+02  0.11282478260E+02  0.00000000000E+00 0. -1.
          1   -1    0    0  501    0  0.00000000000E+00 -0.00000000000E+00 -0.13782740998E+04  0.13782740998E+04  0.00000000000E+00 0. -1.
         25    1    1    2    0    0 -0.78599331740E+01  0.32972471553E+02 -0.67693854657E+03  0.68832750799E+03  0.12000000000E+03 0.  0.
         25    1    1    2    0    0  0.78599331740E+01 -0.32972471553E+02 -0.69005307496E+03  0.70122907005E+03  0.12000000000E+03 0.  0.
<mgrwt>
<rscale>  0 0.24940207E+03</rscale>
<asrwt>0</asrwt>
<pdfrwt beam="1">  1        1 0.21204223E+00 0.24940207E+03</pdfrwt>
<pdfrwt beam="2">  1       -1 0.17357654E-02 0.24940207E+03</pdfrwt>
<totfact> 0.72650140E+03</totfact>
</mgrwt>
</event>
<event>
 4    1  0.1807309E-004  0.2700046E+03  0.7818608E-02  0.1101277E+00
          2   -1    0    0  501    0  0.00000000000E+00  0.00000000000E+00  0.61784011305E+03  0.61784011305E+03  0.00000000000E+00 0.  1.
         -2   -1    0    0    0  501 -0.00000000000E+00 -0.00000000000E+00 -0.29498926735E+02  0.29498926735E+02  0.00000000000E+00 0.  1.
         25    1    1    2    0    0  0.11159690195E+02  0.16679698478E+02  0.15390349990E+03  0.19618623374E+03  0.12000000000E+03 0.  0.
         25    1    1    2    0    0 -0.11159690195E+02 -0.16679698478E+02  0.43443768642E+03  0.45115280605E+03  0.12000000000E+03 0.  0.
<mgrwt>
<rscale>  0 0.27000459E+03</rscale>
<asrwt>0</asrwt>
<pdfrwt beam="1">  1        2 0.95052315E-01 0.27000459E+03</pdfrwt>
<pdfrwt beam="2">  1       -2 0.45382969E-02 0.27000459E+03</pdfrwt>
<totfact> 0.11000679E+04</totfact>
</mgrwt>
</event>
<event>
 4    1  0.1807309E-004  0.2853986E+03  0.7818608E-02  0.1092776E+00
          1   -1    0    0  501    0  0.00000000000E+00  0.00000000000E+00  0.87208832282E+03  0.87208832282E+03  0.00000000000E+00 0. -1.
         -1   -1    0    0    0  501 -0.00000000000E+00 -0.00000000000E+00 -0.23349807497E+02  0.23349807497E+02  0.00000000000E+00 0. -1.
         25    1    1    2    0    0  0.11246861120E+02  0.33961817922E+02  0.20965794017E+03  0.24420554629E+03  0.12000000000E+03 0.  0.
         25    1    1    2    0    0 -0.11246861120E+02 -0.33961817922E+02  0.63908057516E+03  0.65123258403E+03  0.12000000000E+03 0.  0.
<mgrwt>
<rscale>  0 0.28539863E+03</rscale>
<asrwt>0</asrwt>
<pdfrwt beam="1">  1        1 0.13416741E+00 0.28539863E+03</pdfrwt>
<pdfrwt beam="2">  1       -1 0.35922788E-02 0.28539863E+03</pdfrwt>
<totfact> 0.58015879E+03</totfact>
</mgrwt>
</event>
<event>
 4    1  0.1807309E-004  0.2484616E+03  0.7818608E-02  0.1114281E+00
          2   -1    0    0  501    0  0.00000000000E+00  0.00000000000E+00  0.17685022837E+04  0.17685022837E+04  0.00000000000E+00 0.  1.
         -2   -1    0    0    0  501 -0.00000000000E+00 -0.00000000000E+00 -0.87267549681E+01  0.87267549681E+01  0.00000000000E+00 0.  1.
         25    1    1    2    0    0  0.12165412886E+02 -0.27609296600E+02  0.95922265514E+03  0.96717029145E+03  0.12000000000E+03 0.  0.
         25    1    1    2    0    0 -0.12165412886E+02  0.27609296600E+02  0.80055287363E+03  0.81005874726E+03  0.12000000000E+03 0.  0.
<mgrwt>
<rscale>  0 0.24846156E+03</rscale>
<asrwt>0</asrwt>
<pdfrwt beam="1">  1        2 0.27207699E+00 0.24846156E+03</pdfrwt>
<pdfrwt beam="2">  1       -2 0.13425791E-02 0.24846156E+03</pdfrwt>
<totfact> 0.13604455E+04</totfact>
</mgrwt>
</event>
<event>
 4    1  0.1807309E-004  0.2524451E+03  0.7818608E-02  0.1111769E+00
         -2   -1    0    0    0  501 -0.00000000000E+00  0.00000000000E+00  0.41945808730E+01  0.41945808730E+01  0.00000000000E+00 0.  1.
          2   -1    0    0  501    0  0.00000000000E+00 -0.00000000000E+00 -0.37982663813E+04  0.37982663813E+04  0.00000000000E+00 0.  1.
         25    1    1    2    0    0 -0.37668589777E+02  0.46293357214E+01 -0.17527324257E+04  0.17572453755E+04  0.12000000000E+03 0.  0.
         25    1    1    2    0    0  0.37668589777E+02 -0.46293357214E+01 -0.20413393746E+04  0.20452155867E+04  0.12000000000E+03 0.  0.
<mgrwt>
<rscale>  0 0.25244513E+03</rscale>
<asrwt>0</asrwt>
<pdfrwt beam="1">  1        2 0.58434977E+00 0.25244513E+03</pdfrwt>
<pdfrwt beam="2">  1       -2 0.64531892E-03 0.25244513E+03</pdfrwt>
<totfact> 0.25486475E+03</totfact>
</mgrwt>
</event>
<event>
 4    1  0.1807309E-004  0.2654241E+03  0.7818608E-02  0.1103927E+00
          2   -1    0    0  501    0  0.00000000000E+00  0.00000000000E+00  0.23451661803E+03  0.23451661803E+03  0.00000000000E+00 0.  1.
         -2   -1    0    0    0  501 -0.00000000000E+00 -0.00000000000E+00 -0.75101213641E+02  0.75101213641E+02  0.00000000000E+00 0.  1.
         25    1    1    2    0    0  0.51093008506E+02  0.23434454955E+02  0.88185008804E+02  0.15917369436E+03  0.12000000000E+03 0.  0.
         25    1    1    2    0    0 -0.51093008506E+02 -0.23434454955E+02  0.71230395586E+02  0.15044413732E+03  0.12000000000E+03 0.  0.
<mgrwt>
<rscale>  0 0.26542406E+03</rscale>
<asrwt>0</asrwt>
<pdfrwt beam="1">  1        2 0.36079479E-01 0.26542406E+03</pdfrwt>
<pdfrwt beam="2">  1       -2 0.11554033E-01 0.26542406E+03</pdfrwt>
<totfact> 0.74463606E+03</totfact>
</mgrwt>
</event>
<event>
 4    1  0.1807309E-004  0.2967350E+03  0.7818608E-02  0.1086884E+00
         -2   -1    0    0    0  501 -0.00000000000E+00  0.00000000000E+00  0.33600612164E+03  0.33600612164E+03  0.00000000000E+00 0. -1.
          2   -1    0    0  501    0  0.00000000000E+00 -0.00000000000E+00 -0.65513418444E+02  0.65513418444E+02  0.00000000000E+00 0. -1.
         25    1    1    2    0    0 -0.13794251063E+02  0.83984310245E+02  0.10924437279E+03  0.18324294998E+03  0.12000000000E+03 0.  0.
         25    1    1    2    0    0  0.13794251063E+02 -0.83984310245E+02  0.16124833040E+03  0.21827659010E+03  0.12000000000E+03 0.  0.
<mgrwt>
<rscale>  0 0.29673496E+03</rscale>
<asrwt>0</asrwt>
<pdfrwt beam="1">  1        2 0.10078988E-01 0.29673496E+03</pdfrwt>
<pdfrwt beam="2">  1       -2 0.51693249E-01 0.29673496E+03</pdfrwt>
<totfact> 0.22788697E+03</totfact>
</mgrwt>
</event>
<event>
 4    1  0.1807309E-004  0.3005016E+03  0.7818608E-02  0.1084990E+00
         -2   -1    0    0    0  501 -0.00000000000E+00  0.00000000000E+00  0.74401218032E+02  0.74401218032E+02  0.00000000000E+00 0. -1.
          2   -1    0    0  501    0  0.00000000000E+00 -0.00000000000E+00 -0.30342650615E+03  0.30342650615E+03  0.00000000000E+00 0. -1.
         25    1    1    2    0    0  0.96325546522E+01 -0.62079512184E+02 -0.19627396523E+03  0.23847457175E+03  0.12000000000E+03 0.  0.
         25    1    1    2    0    0 -0.96325546522E+01  0.62079512184E+02 -0.32751322883E+02  0.13935315243E+03  0.12000000000E+03 0.  0.
<mgrwt>
<rscale>  0 0.30050159E+03</rscale>
<asrwt>0</asrwt>
<pdfrwt beam="1">  1        2 0.46681001E-01 0.30050159E+03</pdfrwt>
<pdfrwt beam="2">  1       -2 0.11446341E-01 0.30050159E+03</pdfrwt>
<totfact> 0.57495397E+03</totfact>
</mgrwt>
</event>
<event>
 4    1  0.1807309E-004  0.2495834E+03  0.7818608E-02  0.1113568E+00
         -1   -1    0    0    0  501 -0.00000000000E+00  0.00000000000E+00  0.32410689970E+02  0.32410689970E+02  0.00000000000E+00 0.  1.
          1   -1    0    0  501    0  0.00000000000E+00 -0.00000000000E+00 -0.48048880767E+03  0.48048880767E+03  0.00000000000E+00 0.  1.
         25    1    1    2    0    0  0.37668797241E+01 -0.34038036909E+02 -0.22312824106E+03  0.25565404221E+03  0.12000000000E+03 0.  0.
         25    1    1    2    0    0 -0.37668797241E+01  0.34038036909E+02 -0.22494987664E+03  0.25724545543E+03  0.12000000000E+03 0.  0.
<mgrwt>
<rscale>  0 0.24958344E+03</rscale>
<asrwt>0</asrwt>
<pdfrwt beam="1">  1        1 0.73921357E-01 0.24958344E+03</pdfrwt>
<pdfrwt beam="2">  1       -1 0.49862598E-02 0.24958344E+03</pdfrwt>
<totfact> 0.83310469E+03</totfact>
</mgrwt>
</event>
<event>
 4    1  0.1807309E-004  0.2787025E+03  0.7818608E-02  0.1096400E+00
         -2   -1    0    0    0  501 -0.00000000000E+00  0.00000000000E+00  0.39453678672E+03  0.39453678672E+03  0.00000000000E+00 0.  1.
          2   -1    0    0  501    0  0.00000000000E+00 -0.00000000000E+00 -0.49219149823E+02  0.49219149823E+02  0.00000000000E+00 0.  1.
         25    1    1    2    0    0 -0.20186016114E+02 -0.66296020561E+02  0.19606650635E+03  0.24009313297E+03  0.12000000000E+03 0.  0.
         25    1    1    2    0    0  0.20186016114E+02  0.66296020561E+02  0.14925113055E+03  0.20366280357E+03  0.12000000000E+03 0.  0.
<mgrwt>
<rscale>  0 0.27870246E+03</rscale>
<asrwt>0</asrwt>
<pdfrwt beam="1">  1        2 0.75721772E-02 0.27870246E+03</pdfrwt>
<pdfrwt beam="2">  1       -2 0.60697965E-01 0.27870246E+03</pdfrwt>
<totfact> 0.23506758E+03</totfact>
</mgrwt>
</event>
<event>
 4    1  0.1807309E-004  0.2575317E+03  0.7818608E-02  0.1108635E+00
         -1   -1    0    0    0  501 -0.00000000000E+00  0.00000000000E+00  0.58175387519E+01  0.58175387519E+01  0.00000000000E+00 0. -1.
          1   -1    0    0  501    0  0.00000000000E+00 -0.00000000000E+00 -0.28501133400E+04  0.28501133400E+04  0.00000000000E+00 0. -1.
         25    1    1    2    0    0 -0.21936204953E+02  0.11245604297E+02 -0.98232366683E+03  0.98993305183E+03  0.12000000000E+03 0.  0.
         25    1    1    2    0    0  0.21936204953E+02 -0.11245604297E+02 -0.18619721344E+04  0.18659978269E+04  0.12000000000E+03 0.  0.
<mgrwt>
<rscale>  0 0.25753171E+03</rscale>
<asrwt>0</asrwt>
<pdfrwt beam="1">  1        1 0.43847814E+00 0.25753171E+03</pdfrwt>
<pdfrwt beam="2">  1       -1 0.89500767E-03 0.25753171E+03</pdfrwt>
<totfact> 0.20336863E+03</totfact>
</mgrwt>
</event>
<event>
 4    1  0.1807309E-004  0.2621184E+03  0.7818608E-02  0.1105877E+00
         -2   -1    0    0    0  501 -0.00000000000E+00  0.00000000000E+00  0.18110697744E+03  0.18110697744E+03  0.00000000000E+00 0.  1.
          2   -1    0    0  501    0  0.00000000000E+00 -0.00000000000E+00 -0.94841837607E+02  0.94841837607E+02  0.00000000000E+00 0.  1.
         25    1    1    2    0    0 -0.38874976520E+02  0.17139446500E+02  0.10319183398E+02  0.12771652192E+03  0.12000000000E+03 0.  0.
         25    1    1    2    0    0  0.38874976520E+02 -0.17139446500E+02  0.75945956433E+02  0.14823229312E+03  0.12000000000E+03 0.  0.
<mgrwt>
<rscale>  0 0.26211844E+03</rscale>
<asrwt>0</asrwt>
<pdfrwt beam="1">  1        2 0.14591052E-01 0.26211844E+03</pdfrwt>
<pdfrwt beam="2">  1       -2 0.27862612E-01 0.26211844E+03</pdfrwt>
<totfact> 0.46723631E+03</totfact>
</mgrwt>
</event>
<event>
 4    1  0.1807309E-004  0.2720702E+03  0.7818608E-02  0.1100101E+00
          1   -1    0    0  501    0  0.00000000000E+00  0.00000000000E+00  0.15011535703E+04  0.15011535703E+04  0.00000000000E+00 0.  1.
         -1   -1    0    0    0  501 -0.00000000000E+00 -0.00000000000E+00 -0.12327553923E+02  0.12327553923E+02  0.00000000000E+00 0.  1.
         25    1    1    2    0    0 -0.60055243945E+02 -0.21425392559E+01  0.86809428103E+03  0.87840702613E+03  0.12000000000E+03 0.  0.
         25    1    1    2    0    0  0.60055243945E+02  0.21425392559E+01  0.62073173534E+03  0.63507409808E+03  0.12000000000E+03 0.  0.
<mgrwt>
<rscale>  0 0.27207022E+03</rscale>
<asrwt>0</asrwt>
<pdfrwt beam="1">  1        1 0.23094656E+00 0.27207022E+03</pdfrwt>
<pdfrwt beam="2">  1       -1 0.18965479E-02 0.27207022E+03</pdfrwt>
<totfact> 0.52936775E+03</totfact>
</mgrwt>
</event>
<event>
 4    1  0.1807309E-004  0.2662917E+03  0.7818608E-02  0.1103421E+00
          1   -1    0    0  501    0  0.00000000000E+00  0.00000000000E+00  0.41798510530E+03  0.41798510530E+03  0.00000000000E+00 0. -1.
         -1   -1    0    0    0  501 -0.00000000000E+00 -0.00000000000E+00 -0.42412564539E+02  0.42412564539E+02  0.00000000000E+00 0. -1.
         25    1    1    2    0    0  0.70447684772E+01 -0.29038190343E+01  0.88923370534E+02  0.14955074976E+03  0.12000000000E+03 0.  0.
         25    1    1    2    0    0 -0.70447684772E+01  0.29038190343E+01  0.28664917022E+03  0.31084692007E+03  0.12000000000E+03 0.  0.
<mgrwt>
<rscale>  0 0.26629172E+03</rscale>
<asrwt>0</asrwt>
<pdfrwt beam="1">  1        1 0.64305398E-01 0.26629172E+03</pdfrwt>
<pdfrwt beam="2">  1       -1 0.65250102E-02 0.26629172E+03</pdfrwt>
<totfact> 0.66810882E+03</totfact>
</mgrwt>
</event>
<event>
 4    1  0.1807309E-004  0.2450702E+03  0.7818608E-02  0.1116461E+00
          3   -1    0    0  501    0  0.00000000000E+00  0.00000000000E+00  0.51775503883E+03  0.51775503883E+03  0.00000000000E+00 0.  1.
         -3   -1    0    0    0  501 -0.00000000000E+00 -0.00000000000E+00 -0.28999903632E+02  0.28999903632E+02  0.00000000000E+00 0.  1.
         25    1    1    2    0    0  0.24194767676E+02 -0.34126569046E+01  0.25379372064E+03  0.28179475802E+03  0.12000000000E+03 0.  0.
         25    1    1    2    0    0 -0.24194767676E+02  0.34126569046E+01  0.23496141456E+03  0.26496018445E+03  0.12000000000E+03 0.  0.
<mgrwt>
<rscale>  0 0.24507016E+03</rscale>
<asrwt>0</asrwt>
<pdfrwt beam="1">  1        3 0.79654614E-01 0.24507016E+03</pdfrwt>
<pdfrwt beam="2">  1       -3 0.44615240E-02 0.24507016E+03</pdfrwt>
<totfact> 0.10335267E+03</totfact>
</mgrwt>
</event>
<event>
 4    1  0.1807309E-004  0.3214015E+03  0.7818608E-02  0.1075006E+00
          2   -1    0    0  501    0  0.00000000000E+00  0.00000000000E+00  0.35506980133E+03  0.35506980133E+03  0.00000000000E+00 0. -1.
         -2   -1    0    0    0  501 -0.00000000000E+00 -0.00000000000E+00 -0.72731414123E+02  0.72731414123E+02  0.00000000000E+00 0. -1.
         25    1    1    2    0    0 -0.21693043415E+02 -0.60180578559E+02  0.27191897115E+02  0.13867836687E+03  0.12000000000E+03 0.  0.
         25    1    1    2    0    0  0.21693043415E+02  0.60180578559E+02  0.25514649009E+03  0.28912284858E+03  0.12000000000E+03 0.  0.
<mgrwt>
<rscale>  0 0.32140149E+03</rscale>
<asrwt>0</asrwt>
<pdfrwt beam="1">  1        2 0.54626122E-01 0.32140149E+03</pdfrwt>
<pdfrwt beam="2">  1       -2 0.11189449E-01 0.32140149E+03</pdfrwt>
<totfact> 0.50408558E+03</totfact>
</mgrwt>
</event>
<event>
 4    1  0.1807309E-004  0.2464861E+03  0.7818608E-02  0.1115546E+00
         -1   -1    0    0    0  501 -0.00000000000E+00  0.00000000000E+00  0.23185166318E+02  0.23185166318E+02  0.00000000000E+00 0. -1.
          1   -1    0    0  501    0  0.00000000000E+00 -0.00000000000E+00 -0.65511075944E+03  0.65511075944E+03  0.00000000000E+00 0. -1.
         25    1    1    2    0    0  0.72450465753E+01  0.21512891831E+02 -0.27044822947E+03  0.29674490735E+03  0.12000000000E+03 0.  0.
         25    1    1    2    0    0 -0.72450465753E+01 -0.21512891831E+02 -0.36147736365E+03  0.38155101840E+03  0.12000000000E+03 0.  0.
<mgrwt>
<rscale>  0 0.24648612E+03</rscale>
<asrwt>0</asrwt>
<pdfrwt beam="1">  1        1 0.10078628E+00 0.24648612E+03</pdfrwt>
<pdfrwt beam="2">  1       -1 0.35669482E-02 0.24648612E+03</pdfrwt>
<totfact> 0.89803027E+03</totfact>
</mgrwt>
</event>
<event>
 4    1  0.1807309E-004  0.2597596E+03  0.7818608E-02  0.1107288E+00
          3   -1    0    0  501    0  0.00000000000E+00  0.00000000000E+00  0.34276063265E+02  0.34276063265E+02  0.00000000000E+00 0.  1.
         -3   -1    0    0    0  501 -0.00000000000E+00 -0.00000000000E+00 -0.49214402590E+03  0.49214402590E+03  0.00000000000E+00 0.  1.
         25    1    1    2    0    0  0.17443674915E+02 -0.34128564260E+01 -0.32296384124E+03  0.34499503204E+03  0.12000000000E+03 0.  0.
         25    1    1    2    0    0 -0.17443674915E+02  0.34128564260E+01 -0.13490412139E+03  0.18142505712E+03  0.12000000000E+03 0.  0.
<mgrwt>
<rscale>  0 0.25975958E+03</rscale>
<asrwt>0</asrwt>
<pdfrwt beam="1">  1        3 0.52732407E-02 0.25975958E+03</pdfrwt>
<pdfrwt beam="2">  1       -3 0.75714463E-01 0.25975958E+03</pdfrwt>
<totfact> 0.88897064E+02</totfact>
</mgrwt>
</event>
<event>
 4    1  0.1807309E-004  0.2755672E+03  0.7818608E-02  0.1098135E+00
          1   -1    0    0  501    0  0.00000000000E+00  0.00000000000E+00  0.23985831177E+03  0.23985831177E+03  0.00000000000E+00 0.  1.
         -1   -1    0    0    0  501 -0.00000000000E+00 -0.00000000000E+00 -0.79148051574E+02  0.79148051574E+02  0.00000000000E+00 0.  1.
         25    1    1    2    0    0 -0.54063299796E+02  0.27420328336E+01  0.12743488651E+03  0.18322120354E+03  0.12000000000E+03 0.  0.
         25    1    1    2    0    0  0.54063299796E+02 -0.27420328336E+01  0.33275373693E+02  0.13578515981E+03  0.12000000000E+03 0.  0.
<mgrwt>
<rscale>  0 0.27556718E+03</rscale>
<asrwt>0</asrwt>
<pdfrwt beam="1">  1        1 0.36901278E-01 0.27556718E+03</pdfrwt>
<pdfrwt beam="2">  1       -1 0.12176623E-01 0.27556718E+03</pdfrwt>
<totfact> 0.51757162E+03</totfact>
</mgrwt>
</event>
<event>
 4    1  0.1807309E-004  0.3268996E+03  0.7818608E-02  0.1072517E+00
          1   -1    0    0  501    0  0.00000000000E+00  0.00000000000E+00  0.73735356199E+03  0.73735356199E+03  0.00000000000E+00 0.  1.
         -1   -1    0    0    0  501 -0.00000000000E+00 -0.00000000000E+00 -0.36232047890E+02  0.36232047890E+02  0.00000000000E+00 0.  1.
         25    1    1    2    0    0  0.78254262467E+02 -0.72467070749E+02  0.42313825593E+03  0.45257175074E+03  0.12000000000E+03 0.  0.
         25    1    1    2    0    0 -0.78254262467E+02  0.72467070749E+02  0.27798325818E+03  0.32101385915E+03  0.12000000000E+03 0.  0.
<mgrwt>
<rscale>  0 0.32689955E+03</rscale>
<asrwt>0</asrwt>
<pdfrwt beam="1">  1        1 0.11343900E+00 0.32689955E+03</pdfrwt>
<pdfrwt beam="2">  1       -1 0.55741617E-02 0.32689955E+03</pdfrwt>
<totfact> 0.39061338E+03</totfact>
</mgrwt>
</event>
<event>
 4    1  0.1807309E-004  0.3423527E+03  0.7818608E-02  0.1065798E+00
         -2   -1    0    0    0  501 -0.00000000000E+00  0.00000000000E+00  0.73039747451E+02  0.73039747451E+02  0.00000000000E+00 0. -1.
          2   -1    0    0  501    0  0.00000000000E+00 -0.00000000000E+00 -0.40116973799E+03  0.40116973799E+03  0.00000000000E+00 0. -1.
         25    1    1    2    0    0 -0.67407765618E+02  0.57502788240E+02 -0.28037594892E+03  0.31758628789E+03  0.12000000000E+03 0.  0.
         25    1    1    2    0    0  0.67407765618E+02 -0.57502788240E+02 -0.47754041618E+02  0.15662319755E+03  0.12000000000E+03 0.  0.
<mgrwt>
<rscale>  0 0.34235266E+03</rscale>
<asrwt>0</asrwt>
<pdfrwt beam="1">  1        2 0.61718420E-01 0.34235266E+03</pdfrwt>
<pdfrwt beam="2">  1       -2 0.11236884E-01 0.34235266E+03</pdfrwt>
<totfact> 0.43894742E+03</totfact>
</mgrwt>
</event>
<event>
 4    1  0.1807309E-004  0.3775994E+03  0.7818608E-02  0.1051825E+00
         -1   -1    0    0    0  501 -0.00000000000E+00  0.00000000000E+00  0.30846031984E+02  0.30846031984E+02  0.00000000000E+00 0.  1.
          1   -1    0    0  501    0  0.00000000000E+00 -0.00000000000E+00 -0.11555889022E+04  0.11555889022E+04  0.00000000000E+00 0.  1.
         25    1    1    2    0    0 -0.93672078449E+02 -0.56765031715E+02 -0.86454099743E+03  0.87967486229E+03  0.12000000000E+03 0.  0.
         25    1    1    2    0    0  0.93672078449E+02  0.56765031715E+02 -0.26020187277E+03  0.30676007188E+03  0.12000000000E+03 0.  0.
<mgrwt>
<rscale>  0 0.37759943E+03</rscale>
<asrwt>0</asrwt>
<pdfrwt beam="1">  1        1 0.17778291E+00 0.37759943E+03</pdfrwt>
<pdfrwt beam="2">  1       -1 0.47455433E-02 0.37759943E+03</pdfrwt>
<totfact> 0.23460034E+03</totfact>
</mgrwt>
</event>
<event>
 4    1  0.1807309E-004  0.3820793E+03  0.7818608E-02  0.1050168E+00
          2   -1    0    0  501    0  0.00000000000E+00  0.00000000000E+00  0.14837582576E+04  0.14837582576E+04  0.00000000000E+00 0.  1.
         -2   -1    0    0    0  501 -0.00000000000E+00 -0.00000000000E+00 -0.24597104243E+02  0.24597104243E+02  0.00000000000E+00 0.  1.
         25    1    1    2    0    0 -0.23850397713E+02 -0.13060469578E+03  0.99351174644E+03  0.10095008758E+04  0.12000000000E+03 0.  0.
         25    1    1    2    0    0  0.23850397713E+02  0.13060469578E+03  0.46564940694E+03  0.49885448602E+03  0.12000000000E+03 0.  0.
<mgrwt>
<rscale>  0 0.38207935E+03</rscale>
<asrwt>0</asrwt>
<pdfrwt beam="1">  1        2 0.22827043E+00 0.38207935E+03</pdfrwt>
<pdfrwt beam="2">  1       -2 0.37841710E-02 0.38207935E+03</pdfrwt>
<totfact> 0.41688566E+03</totfact>
</mgrwt>
</event>
<event>
 4    1  0.1807309E-004  0.2454290E+03  0.7818608E-02  0.1116228E+00
         -2   -1    0    0    0  501 -0.00000000000E+00  0.00000000000E+00  0.35402309357E+02  0.35402309357E+02  0.00000000000E+00 0.  1.
          2   -1    0    0  501    0  0.00000000000E+00 -0.00000000000E+00 -0.42536332594E+03  0.42536332594E+03  0.00000000000E+00 0.  1.
         25    1    1    2    0    0 -0.16298436611E+02 -0.18158403512E+01 -0.23205158471E+03  0.26175728123E+03  0.12000000000E+03 0.  0.
         25    1    1    2    0    0  0.16298436611E+02  0.18158403512E+01 -0.15790943187E+03  0.19900835406E+03  0.12000000000E+03 0.  0.
<mgrwt>
<rscale>  0 0.24542896E+03</rscale>
<asrwt>0</asrwt>
<pdfrwt beam="1">  1        2 0.65440511E-01 0.24542896E+03</pdfrwt>
<pdfrwt beam="2">  1       -2 0.54465092E-02 0.24542896E+03</pdfrwt>
<totfact> 0.12636827E+04</totfact>
</mgrwt>
</event>
<event>
 4    1  0.1807309E-004  0.2827990E+03  0.7818608E-02  0.1094170E+00
         -1   -1    0    0    0  501 -0.00000000000E+00  0.00000000000E+00  0.39891289621E+02  0.39891289621E+02  0.00000000000E+00 0. -1.
          1   -1    0    0  501    0  0.00000000000E+00 -0.00000000000E+00 -0.50120779506E+03  0.50120779506E+03  0.00000000000E+00 0. -1.
         25    1    1    2    0    0 -0.18744030512E+02 -0.57855287613E+02 -0.31395583121E+03  0.34156527478E+03  0.12000000000E+03 0.  0.
         25    1    1    2    0    0  0.18744030512E+02  0.57855287613E+02 -0.14736067423E+03  0.19953380990E+03  0.12000000000E+03 0.  0.
<mgrwt>
<rscale>  0 0.28279905E+03</rscale>
<asrwt>0</asrwt>
<pdfrwt beam="1">  1        1 0.77108894E-01 0.28279905E+03</pdfrwt>
<pdfrwt beam="2">  1       -1 0.61371213E-02 0.28279905E+03</pdfrwt>
<totfact> 0.57910008E+03</totfact>
</mgrwt>
</event>
<event>
 4    1  0.1807309E-004  0.2498330E+03  0.7818608E-02  0.1113410E+00
         -2   -1    0    0    0  501 -0.00000000000E+00  0.00000000000E+00  0.10034298207E+02  0.10034298207E+02  0.00000000000E+00 0.  1.
          2   -1    0    0  501    0  0.00000000000E+00 -0.00000000000E+00 -0.15550798328E+04  0.15550798328E+04  0.00000000000E+00 0.  1.
         25    1    1    2    0    0  0.30722226733E+02  0.16114035485E+02 -0.77744528849E+03  0.78741646792E+03  0.12000000000E+03 0.  0.
         25    1    1    2    0    0 -0.30722226733E+02 -0.16114035485E+02 -0.76760024613E+03  0.77769766311E+03  0.12000000000E+03 0.  0.
<mgrwt>
<rscale>  0 0.24983302E+03</rscale>
<asrwt>0</asrwt>
<pdfrwt beam="1">  1        2 0.23924287E+00 0.24983302E+03</pdfrwt>
<pdfrwt beam="2">  1       -2 0.15437394E-02 0.24983302E+03</pdfrwt>
<totfact> 0.14375595E+04</totfact>
</mgrwt>
</event>
<event>
 4    1  0.1807309E-004  0.4571085E+03  0.7818608E-02  0.1025623E+00
         -2   -1    0    0    0  501 -0.00000000000E+00  0.00000000000E+00  0.19735860884E+02  0.19735860884E+02  0.00000000000E+00 0. -1.
          2   -1    0    0  501    0  0.00000000000E+00 -0.00000000000E+00 -0.26468080449E+04  0.26468080449E+04  0.00000000000E+00 0. -1.
         25    1    1    2    0    0  0.10100833895E+03 -0.92727500470E+02 -0.50868249128E+03  0.54033225964E+03  0.12000000000E+03 0.  0.
         25    1    1    2    0    0 -0.10100833895E+03  0.92727500470E+02 -0.21183896928E+04  0.21262116462E+04  0.12000000000E+03 0.  0.
<mgrwt>
<rscale>  0 0.45710846E+03</rscale>
<asrwt>0</asrwt>
<pdfrwt beam="1">  1        2 0.40720116E+00 0.45710846E+03</pdfrwt>
<pdfrwt beam="2">  1       -2 0.30362868E-02 0.45710846E+03</pdfrwt>
<totfact> 0.13549557E+03</totfact>
</mgrwt>
</event>
<event>
 4    1  0.1807309E-004  0.3135791E+03  0.7818608E-02  0.1078643E+00
          3   -1    0    0  501    0  0.00000000000E+00  0.00000000000E+00  0.25722440998E+03  0.25722440998E+03  0.00000000000E+00 0.  1.
         -3   -1    0    0    0  501 -0.00000000000E+00 -0.00000000000E+00 -0.95570122950E+02  0.95570122950E+02  0.00000000000E+00 0.  1.
         25    1    1    2    0    0 -0.42240600500E+01  0.31172012299E+02 -0.27046043500E+02  0.12696860046E+03  0.12000000000E+03 0.  0.
         25    1    1    2    0    0  0.42240600500E+01 -0.31172012299E+02  0.18870033053E+03  0.22582593247E+03  0.12000000000E+03 0.  0.
<mgrwt>
<rscale>  0 0.31357914E+03</rscale>
<asrwt>0</asrwt>
<pdfrwt beam="1">  1        3 0.39572986E-01 0.31357914E+03</pdfrwt>
<pdfrwt beam="2">  1       -3 0.14703096E-01 0.31357914E+03</pdfrwt>
<totfact> 0.62673366E+02</totfact>
</mgrwt>
</event>
<event>
 4    1  0.1807309E-004  0.3024043E+03  0.7818608E-02  0.1084045E+00
         -2   -1    0    0    0  501 -0.00000000000E+00  0.00000000000E+00  0.63177124481E+01  0.63177124481E+01  0.00000000000E+00 0. -1.
          2   -1    0    0  501    0  0.00000000000E+00 -0.00000000000E+00 -0.36187295498E+04  0.36187295498E+04  0.00000000000E+00 0. -1.
         25    1    1    2    0    0  0.47301349784E+02 -0.77371378083E+02 -0.19912727566E+04  0.19969454021E+04  0.12000000000E+03 0.  0.
         25    1    1    2    0    0 -0.47301349784E+02  0.77371378083E+02 -0.16211390807E+04  0.16281018601E+04  0.12000000000E+03 0.  0.
<mgrwt>
<rscale>  0 0.30240432E+03</rscale>
<asrwt>0</asrwt>
<pdfrwt beam="1">  1        2 0.55672765E+00 0.30240432E+03</pdfrwt>
<pdfrwt beam="2">  1       -2 0.97195571E-03 0.30240432E+03</pdfrwt>
<totfact> 0.18666279E+03</totfact>
</mgrwt>
</event>
<event>
 4    1  0.1807309E-004  0.2825085E+03  0.7818608E-02  0.1094327E+00
         -2   -1    0    0    0  501 -0.00000000000E+00  0.00000000000E+00  0.51477766415E+02  0.51477766415E+02  0.00000000000E+00 0. -1.
          2   -1    0    0  501    0  0.00000000000E+00 -0.00000000000E+00 -0.38759972361E+03  0.38759972361E+03  0.00000000000E+00 0. -1.
         25    1    1    2    0    0  0.97269644333E+01  0.73860271108E+02 -0.17066841689E+03  0.22153478735E+03  0.12000000000E+03 0.  0.
         25    1    1    2    0    0 -0.97269644333E+01 -0.73860271108E+02 -0.16545354031E+03  0.21754270267E+03  0.12000000000E+03 0.  0.
<mgrwt>
<rscale>  0 0.28250853E+03</rscale>
<asrwt>0</asrwt>
<pdfrwt beam="1">  1        2 0.59630725E-01 0.28250853E+03</pdfrwt>
<pdfrwt beam="2">  1       -2 0.79196565E-02 0.28250853E+03</pdfrwt>
<totfact> 0.78973737E+03</totfact>
</mgrwt>
</event>
<event>
 4    1  0.1807309E-004  0.2853923E+03  0.7818608E-02  0.1092780E+00
         -2   -1    0    0    0  501 -0.00000000000E+00  0.00000000000E+00  0.12995966195E+02  0.12995966195E+02  0.00000000000E+00 0. -1.
          2   -1    0    0  501    0  0.00000000000E+00 -0.00000000000E+00 -0.15668084091E+04  0.15668084091E+04  0.00000000000E+00 0. -1.
         25    1    1    2    0    0  0.68928624216E+02  0.34536218192E+02 -0.75323662088E+03  0.76662201419E+03  0.12000000000E+03 0.  0.
         25    1    1    2    0    0 -0.68928624216E+02 -0.34536218192E+02 -0.80057582199E+03  0.81318236107E+03  0.12000000000E+03 0.  0.
<mgrwt>
<rscale>  0 0.28539229E+03</rscale>
<asrwt>0</asrwt>
<pdfrwt beam="1">  1        2 0.24104752E+00 0.28539229E+03</pdfrwt>
<pdfrwt beam="2">  1       -2 0.19993788E-02 0.28539229E+03</pdfrwt>
<totfact> 0.97278824E+03</totfact>
</mgrwt>
</event>
<event>
 4    1  0.1807309E-004  0.2937849E+03  0.7818608E-02  0.1088389E+00
          2   -1    0    0  501    0  0.00000000000E+00  0.00000000000E+00  0.27397195689E+04  0.27397195689E+04  0.00000000000E+00 0.  1.
         -2   -1    0    0    0  501 -0.00000000000E+00 -0.00000000000E+00 -0.78757682157E+01  0.78757682157E+01  0.00000000000E+00 0.  1.
         25    1    1    2    0    0  0.33525062773E+02 -0.10201922006E+02  0.20872940566E+04  0.20910343105E+04  0.12000000000E+03 0.  0.
         25    1    1    2    0    0 -0.33525062773E+02  0.10201922006E+02  0.64454974404E+03  0.65656102655E+03  0.12000000000E+03 0.  0.
<mgrwt>
<rscale>  0 0.29378493E+03</rscale>
<asrwt>0</asrwt>
<pdfrwt beam="1">  1        2 0.42149456E+00 0.29378493E+03</pdfrwt>
<pdfrwt beam="2">  1       -2 0.12116588E-02 0.29378493E+03</pdfrwt>
<totfact> 0.47493167E+03</totfact>
</mgrwt>
</event>
<event>
 4    1  0.1807309E-004  0.2562045E+03  0.7818608E-02  0.1109445E+00
          1   -1    0    0  501    0  0.00000000000E+00  0.00000000000E+00  0.42049015812E+03  0.42049015812E+03  0.00000000000E+00 0.  1.
         -1   -1    0    0    0  501 -0.00000000000E+00 -0.00000000000E+00 -0.39026335864E+02  0.39026335864E+02  0.00000000000E+00 0.  1.
         25    1    1    2    0    0  0.37783873654E+02 -0.27373751079E+01  0.14772117739E+03  0.19405324161E+03  0.12000000000E+03 0.  0.
         25    1    1    2    0    0 -0.37783873654E+02  0.27373751079E+01  0.23374264487E+03  0.26546325237E+03  0.12000000000E+03 0.  0.
<mgrwt>
<rscale>  0 0.25620453E+03</rscale>
<asrwt>0</asrwt>
<pdfrwt beam="1">  1        1 0.64690791E-01 0.25620453E+03</pdfrwt>
<pdfrwt beam="2">  1       -1 0.60040520E-02 0.25620453E+03</pdfrwt>
<totfact> 0.75066684E+03</totfact>
</mgrwt>
</event>
<event>
 4    1  0.1807309E-004  0.2707733E+03  0.7818608E-02  0.1100838E+00
          4   -1    0    0  501    0  0.00000000000E+00  0.00000000000E+00  0.94463745924E+03  0.94463745924E+03  0.00000000000E+00 0.  1.
         -4   -1    0    0    0  501 -0.00000000000E+00 -0.00000000000E+00 -0.19403783001E+02  0.19403783001E+02  0.00000000000E+00 0.  1.
         25    1    1    2    0    0  0.62285639191E+02  0.62630627595E+01  0.45090911727E+03  0.47078419562E+03  0.12000000000E+03 0.  0.
         25    1    1    2    0    0 -0.62285639191E+02 -0.62630627595E+01  0.47432455897E+03  0.49325704663E+03  0.12000000000E+03 0.  0.
<mgrwt>
<rscale>  0 0.27077327E+03</rscale>
<asrwt>0</asrwt>
<pdfrwt beam="1">  1        4 0.14532880E+00 0.27077327E+03</pdfrwt>
<pdfrwt beam="2">  1       -4 0.29851981E-02 0.27077327E+03</pdfrwt>
<totfact> 0.34852421E+02</totfact>
</mgrwt>
</event>
<event>
 4    1  0.1807309E-004  0.3971072E+03  0.7818608E-02  0.1044786E+00
         -1   -1    0    0    0  501 -0.00000000000E+00  0.00000000000E+00  0.13732029859E+03  0.13732029859E+03  0.00000000000E+00 0. -1.
          1   -1    0    0  501    0  0.00000000000E+00 -0.00000000000E+00 -0.28709181399E+03  0.28709181399E+03  0.00000000000E+00 0. -1.
         25    1    1    2    0    0  0.44236040630E+02 -0.34468487763E+02  0.83199022178E+02  0.15641924827E+03  0.12000000000E+03 0.  0.
         25    1    1    2    0    0 -0.44236040630E+02  0.34468487763E+02 -0.23297053758E+03  0.26799286431E+03  0.12000000000E+03 0.  0.
<mgrwt>
<rscale>  0 0.39710721E+03</rscale>
<asrwt>0</asrwt>
<pdfrwt beam="1">  1        1 0.44167971E-01 0.39710721E+03</pdfrwt>
<pdfrwt beam="2">  1       -1 0.21126200E-01 0.39710721E+03</pdfrwt>
<totfact> 0.17156313E+03</totfact>
</mgrwt>
</event>
<event>
 4    1  0.1807309E-004  0.3218106E+03  0.7818608E-02  0.1074819E+00
          3   -1    0    0  501    0  0.00000000000E+00  0.00000000000E+00  0.15943821387E+03  0.15943821387E+03  0.00000000000E+00 0.  1.
         -3   -1    0    0    0  501 -0.00000000000E+00 -0.00000000000E+00 -0.16238593273E+03  0.16238593273E+03  0.00000000000E+00 0.  1.
         25    1    1    2    0    0  0.10285403529E+02  0.22752343171E+02  0.10277572663E+03  0.15995720875E+03  0.12000000000E+03 0.  0.
         25    1    1    2    0    0 -0.10285403529E+02 -0.22752343171E+02 -0.10572344548E+03  0.16186693785E+03  0.12000000000E+03 0.  0.
<mgrwt>
<rscale>  0 0.32181065E+03</rscale>
<asrwt>0</asrwt>
<pdfrwt beam="1">  1        3 0.24528956E-01 0.32181065E+03</pdfrwt>
<pdfrwt beam="2">  1       -3 0.24982451E-01 0.32181065E+03</pdfrwt>
<totfact> 0.60302364E+02</totfact>
</mgrwt>
</event>
<event>
 4    1  0.1807309E-004  0.3011094E+03  0.7818608E-02  0.1084687E+00
          4   -1    0    0  501    0  0.00000000000E+00  0.00000000000E+00  0.60573481603E+02  0.60573481603E+02  0.00000000000E+00 0.  1.
         -4   -1    0    0    0  501 -0.00000000000E+00 -0.00000000000E+00 -0.37420191556E+03  0.37420191556E+03  0.00000000000E+00 0.  1.
         25    1    1    2    0    0  0.20214843678E+02 -0.47951236757E+01 -0.29004932482E+02  0.12519153016E+03  0.12000000000E+03 0.  0.
         25    1    1    2    0    0 -0.20214843678E+02  0.47951236757E+01 -0.28462350148E+03  0.30958386700E+03  0.12000000000E+03 0.  0.
<mgrwt>
<rscale>  0 0.30110937E+03</rscale>
<asrwt>0</asrwt>
<pdfrwt beam="1">  1        4 0.93189973E-02 0.30110937E+03</pdfrwt>
<pdfrwt beam="2">  1       -4 0.57569525E-01 0.30110937E+03</pdfrwt>
<totfact> 0.46871755E+02</totfact>
</mgrwt>
</event>
<event>
 4    1  0.1807309E-004  0.3308768E+03  0.7818608E-02  0.1070750E+00
          1   -1    0    0  501    0  0.00000000000E+00  0.00000000000E+00  0.14557386518E+03  0.14557386518E+03  0.00000000000E+00 0.  1.
         -1   -1    0    0    0  501 -0.00000000000E+00 -0.00000000000E+00 -0.18801355964E+03  0.18801355964E+03  0.00000000000E+00 0.  1.
         25    1    1    2    0    0 -0.69079438568E+01  0.71663234400E+02 -0.11018401747E+03  0.17811192144E+03  0.12000000000E+03 0.  0.
         25    1    1    2    0    0  0.69079438568E+01 -0.71663234400E+02  0.67744323005E+02  0.15547550338E+03  0.12000000000E+03 0.  0.
<mgrwt>
<rscale>  0 0.33087678E+03</rscale>
<asrwt>0</asrwt>
<pdfrwt beam="1">  1        1 0.22395979E-01 0.33087678E+03</pdfrwt>
<pdfrwt beam="2">  1       -1 0.28925163E-01 0.33087678E+03</pdfrwt>
<totfact> 0.24031360E+03</totfact>
</mgrwt>
</event>
<event>
 4    1  0.1807309E-004  0.2792196E+03  0.7818608E-02  0.1096116E+00
          1   -1    0    0  501    0  0.00000000000E+00  0.00000000000E+00  0.45061436514E+02  0.45061436514E+02  0.00000000000E+00 0. -1.
         -1   -1    0    0    0  501 -0.00000000000E+00 -0.00000000000E+00 -0.43254046572E+03  0.43254046572E+03  0.00000000000E+00 0. -1.
         25    1    1    2    0    0 -0.16387876648E+02 -0.66839309711E+02 -0.16151875432E+03  0.21266020742E+03  0.12000000000E+03 0.  0.
         25    1    1    2    0    0  0.16387876648E+02  0.66839309711E+02 -0.22596027489E+03  0.26494169482E+03  0.12000000000E+03 0.  0.
<mgrwt>
<rscale>  0 0.27921959E+03</rscale>
<asrwt>0</asrwt>
<pdfrwt beam="1">  1        1 0.69325288E-02 0.27921959E+03</pdfrwt>
<pdfrwt beam="2">  1       -1 0.66544686E-01 0.27921959E+03</pdfrwt>
<totfact> 0.25059197E+03</totfact>
</mgrwt>
</event>
<event>
 4    1  0.1807309E-004  0.2477565E+03  0.7818608E-02  0.1114731E+00
          4   -1    0    0  501    0  0.00000000000E+00  0.00000000000E+00  0.25761356408E+03  0.25761356408E+03  0.00000000000E+00 0.  1.
         -4   -1    0    0    0  501 -0.00000000000E+00 -0.00000000000E+00 -0.59569127869E+02  0.59569127869E+02  0.00000000000E+00 0.  1.
         25    1    1    2    0    0 -0.79403912437E+01 -0.24905218493E+02  0.78280461666E+02  0.14564048338E+03  0.12000000000E+03 0.  0.
         25    1    1    2    0    0  0.79403912437E+01  0.24905218493E+02  0.11976397455E+03  0.17154220857E+03  0.12000000000E+03 0.  0.
<mgrwt>
<rscale>  0 0.24775646E+03</rscale>
<asrwt>0</asrwt>
<pdfrwt beam="1">  1        4 0.39632855E-01 0.24775646E+03</pdfrwt>
<pdfrwt beam="2">  1       -4 0.91644814E-02 0.24775646E+03</pdfrwt>
<totfact> 0.10066650E+03</totfact>
</mgrwt>
</event>
<event>
 4    1  0.1807309E-004  0.2904501E+03  0.7818608E-02  0.1090114E+00
          1   -1    0    0  501    0  0.00000000000E+00  0.00000000000E+00  0.15598038959E+03  0.15598038959E+03  0.00000000000E+00 0. -1.
         -1   -1    0    0    0  501 -0.00000000000E+00 -0.00000000000E+00 -0.13521134967E+03  0.13521134967E+03  0.00000000000E+00 0. -1.
         25    1    1    2    0    0  0.30267264156E+02 -0.75943145036E+02  0.13008537548E+02  0.14578302578E+03  0.12000000000E+03 0.  0.
         25    1    1    2    0    0 -0.30267264156E+02  0.75943145036E+02  0.77605023778E+01  0.14540871348E+03  0.12000000000E+03 0.  0.
<mgrwt>
<rscale>  0 0.29045013E+03</rscale>
<asrwt>0</asrwt>
<pdfrwt beam="1">  1        1 0.23996983E-01 0.29045013E+03</pdfrwt>
<pdfrwt beam="2">  1       -1 0.20801746E-01 0.29045013E+03</pdfrwt>
<totfact> 0.37989959E+03</totfact>
</mgrwt>
</event>
<event>
 4    1  0.1807309E-004  0.4314139E+03  0.7818608E-02  0.1033414E+00
         -2   -1    0    0    0  501 -0.00000000000E+00  0.00000000000E+00  0.35166355313E+02  0.35166355313E+02  0.00000000000E+00 0. -1.
          2   -1    0    0  501    0  0.00000000000E+00 -0.00000000000E+00 -0.13231253874E+04  0.13231253874E+04  0.00000000000E+00 0. -1.
         25    1    1    2    0    0  0.78726062617E+02  0.15239191911E+03 -0.48012595218E+03  0.52377668897E+03  0.12000000000E+03 0.  0.
         25    1    1    2    0    0 -0.78726062617E+02 -0.15239191911E+03 -0.80783307991E+03  0.83451505375E+03  0.12000000000E+03 0.  0.
<mgrwt>
<rscale>  0 0.43141394E+03</rscale>
<asrwt>0</asrwt>
<pdfrwt beam="1">  1        2 0.20355775E+00 0.43141394E+03</pdfrwt>
<pdfrwt beam="2">  1       -2 0.54102085E-02 0.43141394E+03</pdfrwt>
<totfact> 0.29587779E+03</totfact>
</mgrwt>
</event>
<event>
 4    1  0.1807309E-004  0.2471570E+03  0.7818608E-02  0.1115115E+00
          1   -1    0    0  501    0  0.00000000000E+00  0.00000000000E+00  0.56535157621E+03  0.56535157621E+03  0.00000000000E+00 0.  1.
         -1   -1    0    0    0  501 -0.00000000000E+00 -0.00000000000E+00 -0.27012651709E+02  0.27012651709E+02  0.00000000000E+00 0.  1.
         25    1    1    2    0    0  0.94868688949E+01  0.43350966019E+01  0.20297282758E+03  0.23602280076E+03  0.12000000000E+03 0.  0.
         25    1    1    2    0    0 -0.94868688949E+01 -0.43350966019E+01  0.33536609692E+03  0.35634142716E+03  0.12000000000E+03 0.  0.
<mgrwt>
<rscale>  0 0.24715700E+03</rscale>
<asrwt>0</asrwt>
<pdfrwt beam="1">  1        1 0.86977156E-01 0.24715700E+03</pdfrwt>
<pdfrwt beam="2">  1       -1 0.41557930E-02 0.24715700E+03</pdfrwt>
<totfact> 0.87900495E+03</totfact>
</mgrwt>
</event>
<event>
 4    1  0.1807309E-004  0.3306748E+03  0.7818608E-02  0.1070839E+00
          2   -1    0    0  501    0  0.00000000000E+00  0.00000000000E+00  0.81970826676E+03  0.81970826676E+03  0.00000000000E+00 0.  1.
         -2   -1    0    0    0  501 -0.00000000000E+00 -0.00000000000E+00 -0.33349002989E+02  0.33349002989E+02  0.00000000000E+00 0.  1.
         25    1    1    2    0    0  0.34022121595E+02  0.96705264103E+02  0.26608838917E+03  0.30937427772E+03  0.12000000000E+03 0.  0.
         25    1    1    2    0    0 -0.34022121595E+02 -0.96705264103E+02  0.52027087460E+03  0.54368299203E+03  0.12000000000E+03 0.  0.
<mgrwt>
<rscale>  0 0.33067479E+03</rscale>
<asrwt>0</asrwt>
<pdfrwt beam="1">  1        2 0.12610895E+00 0.33067479E+03</pdfrwt>
<pdfrwt beam="2">  1       -2 0.51306165E-02 0.33067479E+03</pdfrwt>
<totfact> 0.64917073E+03</totfact>
</mgrwt>
</event>
<event>
 4    1  0.1807309E-004  0.2925554E+03  0.7818608E-02  0.1089022E+00
         -2   -1    0    0    0  501 -0.00000000000E+00  0.00000000000E+00  0.13316103290E+03  0.13316103290E+03  0.00000000000E+00 0. -1.
          2   -1    0    0  501    0  0.00000000000E+00 -0.00000000000E+00 -0.16068637393E+03  0.16068637393E+03  0.00000000000E+00 0. -1.
         25    1    1    2    0    0 -0.41303810438E+02  0.36984992205E+02  0.49149955583E+02  0.14103053761E+03  0.12000000000E+03 0.  0.
         25    1    1    2    0    0  0.41303810438E+02 -0.36984992205E+02 -0.76675296611E+02  0.15281686921E+03  0.12000000000E+03 0.  0.
<mgrwt>
<rscale>  0 0.29255539E+03</rscale>
<asrwt>0</asrwt>
<pdfrwt beam="1">  1        2 0.24720981E-01 0.29255539E+03</pdfrwt>
<pdfrwt beam="2">  1       -2 0.20486313E-01 0.29255539E+03</pdfrwt>
<totfact> 0.43780799E+03</totfact>
</mgrwt>
</event>
<event>
 4    1  0.1807309E-004  0.3438432E+03  0.7818608E-02  0.1065171E+00
         -3   -1    0    0    0  501 -0.00000000000E+00  0.00000000000E+00  0.18074581319E+02  0.18074581319E+02  0.00000000000E+00 0.  1.
          3   -1    0    0  501    0  0.00000000000E+00 -0.00000000000E+00 -0.16352820796E+04  0.16352820796E+04  0.00000000000E+00 0.  1.
         25    1    1    2    0    0  0.50816354352E+02  0.10635040168E+03 -0.63762735160E+03  0.65944017872E+03  0.12000000000E+03 0.  0.
         25    1    1    2    0    0 -0.50816354352E+02 -0.10635040168E+03 -0.97958014670E+03  0.99391648222E+03  0.12000000000E+03 0.  0.
<mgrwt>
<rscale>  0 0.34384321E+03</rscale>
<asrwt>0</asrwt>
<pdfrwt beam="1">  1        3 0.25158191E+00 0.34384321E+03</pdfrwt>
<pdfrwt beam="2">  1       -3 0.27807042E-02 0.34384321E+03</pdfrwt>
<totfact> 0.11865707E+02</totfact>
</mgrwt>
</event>
<event>
 4    1  0.1807309E-004  0.3227849E+03  0.7818608E-02  0.1074375E+00
          1   -1    0    0  501    0  0.00000000000E+00  0.00000000000E+00  0.26752956660E+04  0.26752956660E+04  0.00000000000E+00 0.  1.
         -1   -1    0    0    0  501 -0.00000000000E+00 -0.00000000000E+00 -0.97363163100E+01  0.97363163100E+01  0.00000000000E+00 0.  1.
         25    1    1    2    0    0  0.18598561978E+02  0.43983375769E+02  0.52770090488E+03  0.54327588651E+03  0.12000000000E+03 0.  0.
         25    1    1    2    0    0 -0.18598561978E+02 -0.43983375769E+02  0.21378584448E+04  0.21417560958E+04  0.12000000000E+03 0.  0.
<mgrwt>
<rscale>  0 0.32278491E+03</rscale>
<asrwt>0</asrwt>
<pdfrwt beam="1">  1        1 0.41158336E+00 0.32278491E+03</pdfrwt>
<pdfrwt beam="2">  1       -1 0.14978969E-02 0.32278491E+03</pdfrwt>
<totfact> 0.12593657E+03</totfact>
</mgrwt>
</event>
<event>
 4    1  0.1807309E-004  0.2772714E+03  0.7818608E-02  0.1097189E+00
         -1   -1    0    0    0  501 -0.00000000000E+00  0.00000000000E+00  0.73941720928E+02  0.73941720928E+02  0.00000000000E+00 0. -1.
          1   -1    0    0  501    0  0.00000000000E+00 -0.00000000000E+00 -0.25993245376E+03  0.25993245376E+03  0.00000000000E+00 0. -1.
         25    1    1    2    0    0  0.50947347430E+02  0.11098532258E+02 -0.37800929677E+02  0.13619001400E+03  0.12000000000E+03 0.  0.
         25    1    1    2    0    0 -0.50947347430E+02 -0.11098532258E+02 -0.14818980316E+03  0.19768416069E+03  0.12000000000E+03 0.  0.
<mgrwt>
<rscale>  0 0.27727137E+03</rscale>
<asrwt>0</asrwt>
<pdfrwt beam="1">  1        1 0.39989610E-01 0.27727137E+03</pdfrwt>
<pdfrwt beam="2">  1       -1 0.11375649E-01 0.27727137E+03</pdfrwt>
<totfact> 0.52040534E+03</totfact>
</mgrwt>
</event>
<event>
 4    1  0.1807309E-004  0.3177251E+03  0.7818608E-02  0.1076701E+00
          2   -1    0    0  501    0  0.00000000000E+00  0.00000000000E+00  0.17139911629E+04  0.17139911629E+04  0.00000000000E+00 0.  1.
         -2   -1    0    0    0  501 -0.00000000000E+00 -0.00000000000E+00 -0.14724291440E+02  0.14724291440E+02  0.00000000000E+00 0.  1.
         25    1    1    2    0    0 -0.48950079023E+02 -0.14683321599E+02  0.13430976856E+04  0.13494158378E+04  0.12000000000E+03 0.  0.
         25    1    1    2    0    0  0.48950079023E+02  0.14683321599E+02  0.35616918583E+03  0.37929961654E+03  0.12000000000E+03 0.  0.
<mgrwt>
<rscale>  0 0.31772507E+03</rscale>
<asrwt>0</asrwt>
<pdfrwt beam="1">  1        2 0.26369079E+00 0.31772507E+03</pdfrwt>
<pdfrwt beam="2">  1       -2 0.22652770E-02 0.31772507E+03</pdfrwt>
<totfact> 0.67658450E+03</totfact>
</mgrwt>
</event>
<event>
 4    1  0.1807309E-004  0.2525615E+03  0.7818608E-02  0.1111697E+00
          2   -1    0    0  501    0  0.00000000000E+00  0.00000000000E+00  0.92763990613E+03  0.92763990613E+03  0.00000000000E+00 0. -1.
         -2   -1    0    0    0  501 -0.00000000000E+00 -0.00000000000E+00 -0.17190748312E+02  0.17190748312E+02  0.00000000000E+00 0. -1.
         25    1    1    2    0    0 -0.17764636579E+02 -0.25827641796E+02  0.36636715826E+03  0.38679134433E+03  0.12000000000E+03 0.  0.
         25    1    1    2    0    0  0.17764636579E+02  0.25827641796E+02  0.54408199956E+03  0.55803931012E+03  0.12000000000E+03 0.  0.
<mgrwt>
<rscale>  0 0.25256147E+03</rscale>
<asrwt>0</asrwt>
<pdfrwt beam="1">  1        2 0.14271379E+00 0.25256147E+03</pdfrwt>
<pdfrwt beam="2">  1       -2 0.26447312E-02 0.25256147E+03</pdfrwt>
<totfact> 0.14795615E+04</totfact>
</mgrwt>
</event>
<event>
 4    1  0.1807309E-004  0.2770341E+03  0.7818608E-02  0.1097320E+00
         -2   -1    0    0    0  501 -0.00000000000E+00  0.00000000000E+00  0.33189697898E+02  0.33189697898E+02  0.00000000000E+00 0. -1.
          2   -1    0    0  501    0  0.00000000000E+00 -0.00000000000E+00 -0.57810037430E+03  0.57810037430E+03  0.00000000000E+00 0. -1.
         25    1    1    2    0    0  0.27811875526E+02 -0.61235245581E+02 -0.30828861094E+03  0.33758720852E+03  0.12000000000E+03 0.  0.
         25    1    1    2    0    0 -0.27811875526E+02  0.61235245581E+02 -0.23662206546E+03  0.27370286368E+03  0.12000000000E+03 0.  0.
<mgrwt>
<rscale>  0 0.27703413E+03</rscale>
<asrwt>0</asrwt>
<pdfrwt beam="1">  1        2 0.88938520E-01 0.27703413E+03</pdfrwt>
<pdfrwt beam="2">  1       -2 0.51061073E-02 0.27703413E+03</pdfrwt>
<totfact> 0.99470641E+03</totfact>
</mgrwt>
</event>
<event>
 4    1  0.1807309E-004  0.3171035E+03  0.7818608E-02  0.1076990E+00
         -1   -1    0    0    0  501 -0.00000000000E+00  0.00000000000E+00  0.83991319314E+01  0.83991319314E+01  0.00000000000E+00 0.  1.
          1   -1    0    0  501    0  0.00000000000E+00 -0.00000000000E+00 -0.29930074975E+04  0.29930074975E+04  0.00000000000E+00 0.  1.
         25    1    1    2    0    0  0.43860878293E+02  0.17940670111E+02 -0.62002637095E+03  0.63330746480E+03  0.12000000000E+03 0.  0.
         25    1    1    2    0    0 -0.43860878293E+02 -0.17940670111E+02 -0.23645819946E+04  0.23680991647E+04  0.12000000000E+03 0.  0.
<mgrwt>
<rscale>  0 0.31710355E+03</rscale>
<asrwt>0</asrwt>
<pdfrwt beam="1">  1        1 0.46046280E+00 0.31710355E+03</pdfrwt>
<pdfrwt beam="2">  1       -1 0.12921738E-02 0.31710355E+03</pdfrwt>
<totfact> 0.94416113E+02</totfact>
</mgrwt>
</event>
<event>
 4    1  0.1807309E-004  0.3192528E+03  0.7818608E-02  0.1075994E+00
         -2   -1    0    0    0  501 -0.00000000000E+00  0.00000000000E+00  0.10985975154E+03  0.10985975154E+03  0.00000000000E+00 0.  1.
          2   -1    0    0  501    0  0.00000000000E+00 -0.00000000000E+00 -0.23193745971E+03  0.23193745971E+03  0.00000000000E+00 0.  1.
         25    1    1    2    0    0  0.55137987681E+00 -0.11415166883E+02  0.50992725797E+02  0.13088494237E+03  0.12000000000E+03 0.  0.
         25    1    1    2    0    0 -0.55137987681E+00  0.11415166883E+02 -0.17307043397E+03  0.21091226889E+03  0.12000000000E+03 0.  0.
<mgrwt>
<rscale>  0 0.31925283E+03</rscale>
<asrwt>0</asrwt>
<pdfrwt beam="1">  1        2 0.35682686E-01 0.31925283E+03</pdfrwt>
<pdfrwt beam="2">  1       -2 0.16901500E-01 0.31925283E+03</pdfrwt>
<totfact> 0.40585518E+03</totfact>
</mgrwt>
</event>
<event>
 4    1  0.1807309E-004  0.2430946E+03  0.7818608E-02  0.1117748E+00
         -2   -1    0    0    0  501 -0.00000000000E+00  0.00000000000E+00  0.35742837961E+02  0.35742837961E+02  0.00000000000E+00 0.  1.
          2   -1    0    0  501    0  0.00000000000E+00 -0.00000000000E+00 -0.41333455795E+03  0.41333455795E+03  0.00000000000E+00 0.  1.
         25    1    1    2    0    0 -0.10805899444E+02  0.15924185538E+02 -0.19220367155E+03  0.22740404241E+03  0.12000000000E+03 0.  0.
         25    1    1    2    0    0  0.10805899444E+02 -0.15924185538E+02 -0.18538804845E+03  0.22167335351E+03  0.12000000000E+03 0.  0.
<mgrwt>
<rscale>  0 0.24309463E+03</rscale>
<asrwt>0</asrwt>
<pdfrwt beam="1">  1        2 0.63589931E-01 0.24309463E+03</pdfrwt>
<pdfrwt beam="2">  1       -2 0.54988982E-02 0.24309463E+03</pdfrwt>
<totfact> 0.12842948E+04</totfact>
</mgrwt>
</event>
<event>
 4    1  0.1807309E-004  0.2732949E+03  0.7818608E-02  0.1099409E+00
          2   -1    0    0  501    0  0.00000000000E+00  0.00000000000E+00  0.62761403816E+02  0.62761403816E+02  0.00000000000E+00 0.  1.
         -2   -1    0    0    0  501 -0.00000000000E+00 -0.00000000000E+00 -0.29751606377E+03  0.29751606377E+03  0.00000000000E+00 0.  1.
         25    1    1    2    0    0  0.47400570573E+02  0.33896279525E+02 -0.78343205708E+02  0.15470433005E+03  0.12000000000E+03 0.  0.
         25    1    1    2    0    0 -0.47400570573E+02 -0.33896279525E+02 -0.15641145425E+03  0.20557313754E+03  0.12000000000E+03 0.  0.
<mgrwt>
<rscale>  0 0.27329490E+03</rscale>
<asrwt>0</asrwt>
<pdfrwt beam="1">  1        2 0.96556006E-02 0.27329490E+03</pdfrwt>
<pdfrwt beam="2">  1       -2 0.45771702E-01 0.27329490E+03</pdfrwt>
<totfact> 0.30542545E+03</totfact>
</mgrwt>
</event>
<event>
 4    1  0.1807309E-004  0.2757571E+03  0.7818608E-02  0.1098029E+00
         -1   -1    0    0    0  501 -0.00000000000E+00  0.00000000000E+00  0.27545401096E+02  0.27545401096E+02  0.00000000000E+00 0. -1.
          1   -1    0    0  501    0  0.00000000000E+00 -0.00000000000E+00 -0.69015108731E+03  0.69015108731E+03  0.00000000000E+00 0. -1.
         25    1    1    2    0    0  0.97735679546E+01  0.46831388374E+02 -0.45671088008E+03  0.47462988692E+03  0.12000000000E+03 0.  0.
         25    1    1    2    0    0 -0.97735679546E+01 -0.46831388374E+02 -0.20589480613E+03  0.24306660149E+03  0.12000000000E+03 0.  0.
<mgrwt>
<rscale>  0 0.27575706E+03</rscale>
<asrwt>0</asrwt>
<pdfrwt beam="1">  1        1 0.10617708E+00 0.27575706E+03</pdfrwt>
<pdfrwt beam="2">  1       -1 0.42377542E-02 0.27575706E+03</pdfrwt>
<totfact> 0.64753784E+03</totfact>
</mgrwt>
</event>
<event>
 4    1  0.1807309E-004  0.2813922E+03  0.7818608E-02  0.1094931E+00
         -2   -1    0    0    0  501 -0.00000000000E+00  0.00000000000E+00  0.11329498536E+02  0.11329498536E+02  0.00000000000E+00 0. -1.
          2   -1    0    0  501    0  0.00000000000E+00 -0.00000000000E+00 -0.17472432229E+04  0.17472432229E+04  0.00000000000E+00 0. -1.
         25    1    1    2    0    0  0.58641960893E+02 -0.39077127106E+02 -0.73844072731E+03  0.75143902560E+03  0.12000000000E+03 0.  0.
         25    1    1    2    0    0 -0.58641960893E+02  0.39077127106E+02 -0.99747299704E+03  0.10071336958E+04  0.12000000000E+03 0.  0.
<mgrwt>
<rscale>  0 0.28139218E+03</rscale>
<asrwt>0</asrwt>
<pdfrwt beam="1">  1        2 0.26880650E+00 0.28139218E+03</pdfrwt>
<pdfrwt beam="2">  1       -2 0.17430008E-02 0.28139218E+03</pdfrwt>
<totfact> 0.95532313E+03</totfact>
</mgrwt>
</event>
<event>
 4    1  0.1807309E-004  0.2409135E+03  0.7818608E-02  0.1119186E+00
         -2   -1    0    0    0  501 -0.00000000000E+00  0.00000000000E+00  0.17896034610E+02  0.17896034610E+02  0.00000000000E+00 0.  1.
          2   -1    0    0  501    0  0.00000000000E+00 -0.00000000000E+00 -0.81078464200E+03  0.81078464200E+03  0.00000000000E+00 0.  1.
         25    1    1    2    0    0 -0.61995666325E+01  0.23399396536E+01 -0.36851662206E+03  0.38761889876E+03  0.12000000000E+03 0.  0.
         25    1    1    2    0    0  0.61995666325E+01 -0.23399396536E+01 -0.42437198534E+03  0.44106177785E+03  0.12000000000E+03 0.  0.
<mgrwt>
<rscale>  0 0.24091351E+03</rscale>
<asrwt>0</asrwt>
<pdfrwt beam="1">  1        2 0.12473612E+00 0.24091351E+03</pdfrwt>
<pdfrwt beam="2">  1       -2 0.27532356E-02 0.24091351E+03</pdfrwt>
<totfact> 0.16601236E+04</totfact>
</mgrwt>
</event>
<event>
 4    1  0.1807309E-004  0.3113544E+03  0.7818608E-02  0.1079698E+00
          1   -1    0    0  501    0  0.00000000000E+00  0.00000000000E+00  0.12148952041E+03  0.12148952041E+03  0.00000000000E+00 0.  1.
         -1   -1    0    0    0  501 -0.00000000000E+00 -0.00000000000E+00 -0.19948542798E+03  0.19948542798E+03  0.00000000000E+00 0.  1.
         25    1    1    2    0    0 -0.63873139892E+02  0.48140258418E+02  0.21449368942E+02  0.14579896402E+03  0.12000000000E+03 0.  0.
         25    1    1    2    0    0  0.63873139892E+02 -0.48140258418E+02 -0.99445276508E+02  0.17517598437E+03  0.12000000000E+03 0.  0.
<mgrwt>
<rscale>  0 0.31135439E+03</rscale>
<asrwt>0</asrwt>
<pdfrwt beam="1">  1        1 0.18690696E-01 0.31135439E+03</pdfrwt>
<pdfrwt beam="2">  1       -1 0.30690065E-01 0.31135439E+03</pdfrwt>
<totfact> 0.27413295E+03</totfact>
</mgrwt>
</event>
<event>
 4    1  0.1807309E-004  0.2966000E+03  0.7818608E-02  0.1086953E+00
         -1   -1    0    0    0  501 -0.00000000000E+00  0.00000000000E+00  0.12101598331E+02  0.12101598331E+02  0.00000000000E+00 0.  1.
          1   -1    0    0  501    0  0.00000000000E+00 -0.00000000000E+00 -0.18173537991E+04  0.18173537991E+04  0.00000000000E+00 0.  1.
         25    1    1    2    0    0  0.51178650613E+01  0.18735388051E+02 -0.37867675074E+03  0.39771005627E+03  0.12000000000E+03 0.  0.
         25    1    1    2    0    0 -0.51178650613E+01 -0.18735388051E+02 -0.14265754500E+04  0.14317453412E+04  0.12000000000E+03 0.  0.
<mgrwt>
<rscale>  0 0.29659997E+03</rscale>
<asrwt>0</asrwt>
<pdfrwt beam="1">  1        1 0.27959276E+00 0.29659997E+03</pdfrwt>
<pdfrwt beam="2">  1       -1 0.18617852E-02 0.29659997E+03</pdfrwt>
<totfact> 0.33754842E+03</totfact>
</mgrwt>
</event>
<event>
 4    1  0.1807309E-004  0.2741562E+03  0.7818608E-02  0.1098924E+00
          2   -1    0    0  501    0  0.00000000000E+00  0.00000000000E+00  0.39861818818E+02  0.39861818818E+02  0.00000000000E+00 0.  1.
         -2   -1    0    0    0  501 -0.00000000000E+00 -0.00000000000E+00 -0.47138851774E+03  0.47138851774E+03  0.00000000000E+00 0.  1.
         25    1    1    2    0    0  0.58810350406E+02 -0.19400730161E+02 -0.17181707250E+03  0.21853181015E+03  0.12000000000E+03 0.  0.
         25    1    1    2    0    0 -0.58810350406E+02  0.19400730161E+02 -0.25970962642E+03  0.29271852640E+03  0.12000000000E+03 0.  0.
<mgrwt>
<rscale>  0 0.27415619E+03</rscale>
<asrwt>0</asrwt>
<pdfrwt beam="1">  1        2 0.61325872E-02 0.27415619E+03</pdfrwt>
<pdfrwt beam="2">  1       -2 0.72521314E-01 0.27415619E+03</pdfrwt>
<totfact> 0.21160671E+03</totfact>
</mgrwt>
</event>
<event>
 4    1  0.1807309E-004  0.2642274E+03  0.7818608E-02  0.1104630E+00
         -2   -1    0    0    0  501 -0.00000000000E+00  0.00000000000E+00  0.13209252749E+02  0.13209252749E+02  0.00000000000E+00 0. -1.
          2   -1    0    0  501    0  0.00000000000E+00 -0.00000000000E+00 -0.13213492180E+04  0.13213492180E+04  0.00000000000E+00 0. -1.
         25    1    1    2    0    0 -0.13753903483E+02  0.52987312716E+02 -0.69227302975E+03  0.70472602682E+03  0.12000000000E+03 0.  0.
         25    1    1    2    0    0  0.13753903483E+02 -0.52987312716E+02 -0.61586693546E+03  0.62983244388E+03  0.12000000000E+03 0.  0.
<mgrwt>
<rscale>  0 0.26422745E+03</rscale>
<asrwt>0</asrwt>
<pdfrwt beam="1">  1        2 0.20328443E+00 0.26422745E+03</pdfrwt>
<pdfrwt beam="2">  1       -2 0.20321934E-02 0.26422745E+03</pdfrwt>
<totfact> 0.12864974E+04</totfact>
</mgrwt>
</event>
<event>
 4    1  0.1807309E-004  0.2700633E+03  0.7818608E-02  0.1101243E+00
          4   -1    0    0  501    0  0.00000000000E+00  0.00000000000E+00  0.80232267616E+03  0.80232267616E+03  0.00000000000E+00 0. -1.
         -4   -1    0    0    0  501 -0.00000000000E+00 -0.00000000000E+00 -0.22725959712E+02  0.22725959712E+02  0.00000000000E+00 0. -1.
         25    1    1    2    0    0  0.11783050667E+02  0.35788542559E+02  0.53989566188E+03  0.55435276294E+03  0.12000000000E+03 0.  0.
         25    1    1    2    0    0 -0.11783050667E+02 -0.35788542559E+02  0.23970105457E+03  0.27069587293E+03  0.12000000000E+03 0.  0.
<mgrwt>
<rscale>  0 0.27006335E+03</rscale>
<asrwt>0</asrwt>
<pdfrwt beam="1">  1        4 0.12343424E+00 0.27006335E+03</pdfrwt>
<pdfrwt beam="2">  1       -4 0.34963021E-02 0.27006335E+03</pdfrwt>
<totfact> 0.40847797E+02</totfact>
</mgrwt>
</event>
<event>
 4    1  0.1807309E-004  0.3586957E+03  0.7818608E-02  0.1059102E+00
         -1   -1    0    0    0  501 -0.00000000000E+00  0.00000000000E+00  0.42613793374E+03  0.42613793374E+03  0.00000000000E+00 0. -1.
          1   -1    0    0  501    0  0.00000000000E+00 -0.00000000000E+00 -0.75481770189E+02  0.75481770189E+02  0.00000000000E+00 0. -1.
         25    1    1    2    0    0 -0.71593677766E+02  0.94167013257E+02  0.26122286591E+03  0.31085441408E+03  0.12000000000E+03 0.  0.
         25    1    1    2    0    0  0.71593677766E+02 -0.94167013257E+02  0.89433297641E+02  0.19076528984E+03  0.12000000000E+03 0.  0.
<mgrwt>
<rscale>  0 0.35869567E+03</rscale>
<asrwt>0</asrwt>
<pdfrwt beam="1">  1        1 0.11612580E-01 0.35869567E+03</pdfrwt>
<pdfrwt beam="2">  1       -1 0.65559681E-01 0.35869567E+03</pdfrwt>
<totfact> 0.12858058E+03</totfact>
</mgrwt>
</event>
<event>
 4    1  0.1807309E-004  0.2722191E+03  0.7818608E-02  0.1100016E+00
          2   -1    0    0  501    0  0.00000000000E+00  0.00000000000E+00  0.33101541466E+03  0.33101541466E+03  0.00000000000E+00 0.  1.
         -2   -1    0    0    0  501 -0.00000000000E+00 -0.00000000000E+00 -0.55966619082E+02  0.55966619082E+02  0.00000000000E+00 0.  1.
         25    1    1    2    0    0 -0.44767061197E+02 -0.41766342592E+02  0.16513739436E+03  0.21311704802E+03  0.12000000000E+03 0.  0.
         25    1    1    2    0    0  0.44767061197E+02  0.41766342592E+02  0.10991140122E+03  0.17386498572E+03  0.12000000000E+03 0.  0.
<mgrwt>
<rscale>  0 0.27221913E+03</rscale>
<asrwt>0</asrwt>
<pdfrwt beam="1">  1        2 0.50925447E-01 0.27221913E+03</pdfrwt>
<pdfrwt beam="2">  1       -2 0.86102493E-02 0.27221913E+03</pdfrwt>
<totfact> 0.82050467E+03</totfact>
</mgrwt>
</event>
<event>
 4    1  0.1807309E-004  0.2860469E+03  0.7818608E-02  0.1092431E+00
          1   -1    0    0  501    0  0.00000000000E+00  0.00000000000E+00  0.28315641057E+03  0.28315641057E+03  0.00000000000E+00 0. -1.
         -1   -1    0    0    0  501 -0.00000000000E+00 -0.00000000000E+00 -0.72241730589E+02  0.72241730589E+02  0.00000000000E+00 0. -1.
         25    1    1    2    0    0 -0.64783354318E+02  0.37944297165E+02  0.13089130957E+03  0.19279312126E+03  0.12000000000E+03 0.  0.
         25    1    1    2    0    0  0.64783354318E+02 -0.37944297165E+02  0.80023370405E+02  0.16260501990E+03  0.12000000000E+03 0.  0.
<mgrwt>
<rscale>  0 0.28604691E+03</rscale>
<asrwt>0</asrwt>
<pdfrwt beam="1">  1        1 0.43562524E-01 0.28604691E+03</pdfrwt>
<pdfrwt beam="2">  1       -1 0.11114113E-01 0.28604691E+03</pdfrwt>
<totfact> 0.48506467E+03</totfact>
</mgrwt>
</event>
<event>
 4    1  0.1807309E-004  0.2694148E+03  0.7818608E-02  0.1101615E+00
          2   -1    0    0  501    0  0.00000000000E+00  0.00000000000E+00  0.80275167464E+03  0.80275167464E+03  0.00000000000E+00 0.  1.
         -2   -1    0    0    0  501 -0.00000000000E+00 -0.00000000000E+00 -0.22604860164E+02  0.22604860164E+02  0.00000000000E+00 0.  1.
         25    1    1    2    0    0  0.45772000219E+02 -0.19762349235E+02  0.28130942264E+03  0.30987193761E+03  0.12000000000E+03 0.  0.
         25    1    1    2    0    0 -0.45772000219E+02  0.19762349235E+02  0.49883739183E+03  0.51548459719E+03  0.12000000000E+03 0.  0.
<mgrwt>
<rscale>  0 0.26941484E+03</rscale>
<asrwt>0</asrwt>
<pdfrwt beam="1">  1        2 0.12350024E+00 0.26941484E+03</pdfrwt>
<pdfrwt beam="2">  1       -2 0.34776714E-02 0.26941484E+03</pdfrwt>
<totfact> 0.11933545E+04</totfact>
</mgrwt>
</event>
<event>
 4    1  0.1807309E-004  0.2638755E+03  0.7818608E-02  0.1104837E+00
         -3   -1    0    0    0  501 -0.00000000000E+00  0.00000000000E+00  0.72760059128E+03  0.72760059128E+03  0.00000000000E+00 0.  1.
          3   -1    0    0  501    0  0.00000000000E+00 -0.00000000000E+00 -0.23924619112E+02  0.23924619112E+02  0.00000000000E+00 0.  1.
         25    1    1    2    0    0  0.10043095003E+02 -0.99290363119E+01  0.50275984916E+03  0.51707534794E+03  0.12000000000E+03 0.  0.
         25    1    1    2    0    0 -0.10043095003E+02  0.99290363119E+01  0.20091612300E+03  0.23444986245E+03  0.12000000000E+03 0.  0.
<mgrwt>
<rscale>  0 0.26387548E+03</rscale>
<asrwt>0</asrwt>
<pdfrwt beam="1">  1        3 0.36807112E-02 0.26387548E+03</pdfrwt>
<pdfrwt beam="2">  1       -3 0.11193854E+00 0.26387548E+03</pdfrwt>
<totfact> 0.65147187E+02</totfact>
</mgrwt>
</event>
<event>
 4    1  0.1807309E-004  0.2938061E+03  0.7818608E-02  0.1088379E+00
         -2   -1    0    0    0  501 -0.00000000000E+00  0.00000000000E+00  0.24891958693E+03  0.24891958693E+03  0.00000000000E+00 0.  1.
          2   -1    0    0  501    0  0.00000000000E+00 -0.00000000000E+00 -0.86696708894E+02  0.86696708894E+02  0.00000000000E+00 0.  1.
         25    1    1    2    0    0 -0.15807527093E+02 -0.82209860960E+02  0.66122851504E+02  0.16056329170E+03  0.12000000000E+03 0.  0.
         25    1    1    2    0    0  0.15807527093E+02  0.82209860960E+02  0.96100026532E+02  0.17505300412E+03  0.12000000000E+03 0.  0.
<mgrwt>
<rscale>  0 0.29380612E+03</rscale>
<asrwt>0</asrwt>
<pdfrwt beam="1">  1        2 0.13337955E-01 0.29380612E+03</pdfrwt>
<pdfrwt beam="2">  1       -2 0.38295321E-01 0.29380612E+03</pdfrwt>
<totfact> 0.29045029E+03</totfact>
</mgrwt>
</event>
<event>
 4    1  0.1807309E-004  0.2893166E+03  0.7818608E-02  0.1090707E+00
          1   -1    0    0  501    0  0.00000000000E+00  0.00000000000E+00  0.98111457946E+02  0.98111457946E+02  0.00000000000E+00 0. -1.
         -1   -1    0    0    0  501 -0.00000000000E+00 -0.00000000000E+00 -0.21328821324E+03  0.21328821324E+03  0.00000000000E+00 0. -1.
         25    1    1    2    0    0  0.21194607894E+02  0.45401758834E+02 -0.12579302124E+03  0.18092654670E+03  0.12000000000E+03 0.  0.
         25    1    1    2    0    0 -0.21194607894E+02 -0.45401758834E+02  0.10616265950E+02  0.13047312448E+03  0.12000000000E+03 0.  0.
<mgrwt>
<rscale>  0 0.28931656E+03</rscale>
<asrwt>0</asrwt>
<pdfrwt beam="1">  1        1 0.15094071E-01 0.28931656E+03</pdfrwt>
<pdfrwt beam="2">  1       -1 0.32813571E-01 0.28931656E+03</pdfrwt>
<totfact> 0.32257337E+03</totfact>
</mgrwt>
</event>
<event>
 4    1  0.1807309E-004  0.2790806E+03  0.7818608E-02  0.1096192E+00
         -1   -1    0    0    0  501 -0.00000000000E+00  0.00000000000E+00  0.23485431685E+02  0.23485431685E+02  0.00000000000E+00 0.  1.
          1   -1    0    0  501    0  0.00000000000E+00 -0.00000000000E+00 -0.82908800227E+03  0.82908800227E+03  0.00000000000E+00 0.  1.
         25    1    1    2    0    0 -0.64691446670E+02 -0.17456532767E+02 -0.47648644827E+03  0.49591234023E+03  0.12000000000E+03 0.  0.
         25    1    1    2    0    0  0.64691446670E+02  0.17456532767E+02 -0.32911612232E+03  0.35666109372E+03  0.12000000000E+03 0.  0.
<mgrwt>
<rscale>  0 0.27908056E+03</rscale>
<asrwt>0</asrwt>
<pdfrwt beam="1">  1        1 0.12755201E+00 0.27908056E+03</pdfrwt>
<pdfrwt beam="2">  1       -1 0.36131430E-02 0.27908056E+03</pdfrwt>
<totfact> 0.62288592E+03</totfact>
</mgrwt>
</event>
<event>
 4    1  0.1807309E-004  0.2946608E+03  0.7818608E-02  0.1087940E+00
          1   -1    0    0  501    0  0.00000000000E+00  0.00000000000E+00  0.10437948578E+04  0.10437948578E+04  0.00000000000E+00 0.  1.
         -1   -1    0    0    0  501 -0.00000000000E+00 -0.00000000000E+00 -0.20795510345E+02  0.20795510345E+02  0.00000000000E+00 0.  1.
         25    1    1    2    0    0 -0.65185636716E+01 -0.13429966546E+02  0.81557471853E+03  0.82449073808E+03  0.12000000000E+03 0.  0.
         25    1    1    2    0    0  0.65185636716E+01  0.13429966546E+02  0.20742462894E+03  0.24009963008E+03  0.12000000000E+03 0.  0.
<mgrwt>
<rscale>  0 0.29466080E+03</rscale>
<asrwt>0</asrwt>
<pdfrwt beam="1">  1        1 0.16058378E+00 0.29466080E+03</pdfrwt>
<pdfrwt beam="2">  1       -1 0.31993101E-02 0.29466080E+03</pdfrwt>
<totfact> 0.50921102E+03</totfact>
</mgrwt>
</event>
<event>
 4    1  0.1807309E-004  0.2686685E+03  0.7818608E-02  0.1102044E+00
          2   -1    0    0  501    0  0.00000000000E+00  0.00000000000E+00  0.24415355825E+03  0.24415355825E+03  0.00000000000E+00 0. -1.
         -2   -1    0    0    0  501 -0.00000000000E+00 -0.00000000000E+00 -0.73911228076E+02  0.73911228076E+02  0.00000000000E+00 0. -1.
         25    1    1    2    0    0 -0.86442077751E+01 -0.46292961288E+02  0.40385682880E+02  0.13508798605E+03  0.12000000000E+03 0.  0.
         25    1    1    2    0    0  0.86442077751E+01  0.46292961288E+02  0.12985664729E+03  0.18297680027E+03  0.12000000000E+03 0.  0.
<mgrwt>
<rscale>  0 0.26866849E+03</rscale>
<asrwt>0</asrwt>
<pdfrwt beam="1">  1        2 0.37562085E-01 0.26866849E+03</pdfrwt>
<pdfrwt beam="2">  1       -2 0.11370958E-01 0.26866849E+03</pdfrwt>
<totfact> 0.73176804E+03</totfact>
</mgrwt>
</event>
<event>
 4    1  0.1807309E-004  0.2419018E+03  0.7818608E-02  0.1118532E+00
          2   -1    0    0  501    0  0.00000000000E+00  0.00000000000E+00  0.11880264851E+04  0.11880264851E+04  0.00000000000E+00 0. -1.
         -2   -1    0    0    0  501 -0.00000000000E+00 -0.00000000000E+00 -0.12313798808E+02  0.12313798808E+02  0.00000000000E+00 0. -1.
         25    1    1    2    0    0 -0.26575068709E+01 -0.72724729853E+01  0.65239564887E+03  0.66338528312E+03  0.12000000000E+03 0.  0.
         25    1    1    2    0    0  0.26575068709E+01  0.72724729853E+01  0.52331703744E+03  0.53695500079E+03  0.12000000000E+03 0.  0.
<mgrwt>
<rscale>  0 0.24190179E+03</rscale>
<asrwt>0</asrwt>
<pdfrwt beam="1">  1        2 0.18277321E+00 0.24190179E+03</pdfrwt>
<pdfrwt beam="2">  1       -2 0.18944315E-02 0.24190179E+03</pdfrwt>
<totfact> 0.16876960E+04</totfact>
</mgrwt>
</event>
<event>
 4    1  0.1807309E-004  0.3873325E+03  0.7818608E-02  0.1048256E+00
         -1   -1    0    0    0  501 -0.00000000000E+00  0.00000000000E+00  0.12577792240E+03  0.12577792240E+03  0.00000000000E+00 0. -1.
          1   -1    0    0  501    0  0.00000000000E+00 -0.00000000000E+00 -0.29819718862E+03  0.29819718862E+03  0.00000000000E+00 0. -1.
         25    1    1    2    0    0  0.22887914757E+02  0.14716566391E+03 -0.52917997402E+02  0.19844874332E+03  0.12000000000E+03 0.  0.
         25    1    1    2    0    0 -0.22887914757E+02 -0.14716566391E+03 -0.11950126882E+03  0.22552636770E+03  0.12000000000E+03 0.  0.
<mgrwt>
<rscale>  0 0.38733253E+03</rscale>
<asrwt>0</asrwt>
<pdfrwt beam="1">  1        1 0.45876490E-01 0.38733253E+03</pdfrwt>
<pdfrwt beam="2">  1       -1 0.19350450E-01 0.38733253E+03</pdfrwt>
<totfact> 0.18881250E+03</totfact>
</mgrwt>
</event>
<event>
 4    1  0.1807309E-004  0.3987817E+03  0.7818608E-02  0.1044202E+00
          1   -1    0    0  501    0  0.00000000000E+00  0.00000000000E+00  0.45617834019E+02  0.45617834019E+02  0.00000000000E+00 0.  1.
         -1   -1    0    0    0  501 -0.00000000000E+00 -0.00000000000E+00 -0.87151667575E+03  0.87151667575E+03  0.00000000000E+00 0.  1.
         25    1    1    2    0    0 -0.12816236367E+03  0.69119266508E+02 -0.56117126477E+03  0.59204413085E+03  0.12000000000E+03 0.  0.
         25    1    1    2    0    0  0.12816236367E+03 -0.69119266508E+02 -0.26472757696E+03  0.32509037892E+03  0.12000000000E+03 0.  0.
<mgrwt>
<rscale>  0 0.39878166E+03</rscale>
<asrwt>0</asrwt>
<pdfrwt beam="1">  1        1 0.70181285E-02 0.39878166E+03</pdfrwt>
<pdfrwt beam="2">  1       -1 0.13407949E+00 0.39878166E+03</pdfrwt>
<totfact> 0.52476594E+02</totfact>
</mgrwt>
</event>
<event>
 4    1  0.1807309E-004  0.2534240E+03  0.7818608E-02  0.1111160E+00
         -1   -1    0    0    0  501 -0.00000000000E+00  0.00000000000E+00  0.12158319338E+02  0.12158319338E+02  0.00000000000E+00 0. -1.
          1   -1    0    0  501    0  0.00000000000E+00 -0.00000000000E+00 -0.13205720627E+04  0.13205720627E+04  0.00000000000E+00 0. -1.
         25    1    1    2    0    0  0.19785430194E+02  0.34722830460E+02 -0.61388152294E+03  0.62677560771E+03  0.12000000000E+03 0.  0.
         25    1    1    2    0    0 -0.19785430194E+02 -0.34722830460E+02 -0.69453222040E+03  0.70595477431E+03  0.12000000000E+03 0.  0.
<mgrwt>
<rscale>  0 0.25342405E+03</rscale>
<asrwt>0</asrwt>
<pdfrwt beam="1">  1        1 0.20316494E+00 0.25342405E+03</pdfrwt>
<pdfrwt beam="2">  1       -1 0.18705106E-02 0.25342405E+03</pdfrwt>
<totfact> 0.71296234E+03</totfact>
</mgrwt>
</event>
<event>
 4    1  0.1807309E-004  0.2917551E+03  0.7818608E-02  0.1089436E+00
         -1   -1    0    0    0  501 -0.00000000000E+00  0.00000000000E+00  0.29299028045E+02  0.29299028045E+02  0.00000000000E+00 0. -1.
          1   -1    0    0  501    0  0.00000000000E+00 -0.00000000000E+00 -0.72631301937E+03  0.72631301937E+03  0.00000000000E+00 0. -1.
         25    1    1    2    0    0  0.56343603390E+02  0.56932556726E+02 -0.29269827287E+03  0.32632529261E+03  0.12000000000E+03 0.  0.
         25    1    1    2    0    0 -0.56343603390E+02 -0.56932556726E+02 -0.40431571846E+03  0.42928675480E+03  0.12000000000E+03 0.  0.
<mgrwt>
<rscale>  0 0.29175514E+03</rscale>
<asrwt>0</asrwt>
<pdfrwt beam="1">  1        1 0.11174047E+00 0.29175514E+03</pdfrwt>
<pdfrwt beam="2">  1       -1 0.45075427E-02 0.29175514E+03</pdfrwt>
<totfact> 0.54864818E+03</totfact>
</mgrwt>
</event>
<event>
 4    1  0.1807309E-004  0.2406304E+03  0.7818608E-02  0.1119374E+00
         -1   -1    0    0    0  501 -0.00000000000E+00  0.00000000000E+00  0.14195547283E+04  0.14195547283E+04  0.00000000000E+00 0. -1.
          1   -1    0    0  501    0  0.00000000000E+00 -0.00000000000E+00 -0.10197384478E+02  0.10197384478E+02  0.00000000000E+00 0. -1.
         25    1    1    2    0    0 -0.58655554675E+01 -0.54497442251E+01  0.72495099664E+03  0.73485920556E+03  0.12000000000E+03 0.  0.
         25    1    1    2    0    0  0.58655554675E+01  0.54497442251E+01  0.68440634720E+03  0.69489290725E+03  0.12000000000E+03 0.  0.
<mgrwt>
<rscale>  0 0.24063038E+03</rscale>
<asrwt>0</asrwt>
<pdfrwt beam="1">  1        1 0.15688295E-02 0.24063038E+03</pdfrwt>
<pdfrwt beam="2">  1       -1 0.21839288E+00 0.24063038E+03</pdfrwt>
<totfact> 0.10757224E+03</totfact>
</mgrwt>
</event>
<event>
 4    1  0.1807309E-004  0.2701032E+03  0.7818608E-02  0.1101221E+00
          2   -1    0    0  501    0  0.00000000000E+00  0.00000000000E+00  0.52846447507E+03  0.52846447507E+03  0.00000000000E+00 0.  1.
         -2   -1    0    0    0  501 -0.00000000000E+00 -0.00000000000E+00 -0.34513082889E+02  0.34513082889E+02  0.00000000000E+00 0.  1.
         25    1    1    2    0    0  0.32190470955E+02 -0.27533080836E+02  0.15272818885E+03  0.19879687278E+03  0.12000000000E+03 0.  0.
         25    1    1    2    0    0 -0.32190470955E+02  0.27533080836E+02  0.34122320334E+03  0.36418068518E+03  0.12000000000E+03 0.  0.
<mgrwt>
<rscale>  0 0.27010323E+03</rscale>
<asrwt>0</asrwt>
<pdfrwt beam="1">  1        2 0.81302221E-01 0.27010323E+03</pdfrwt>
<pdfrwt beam="2">  1       -2 0.53097054E-02 0.27010323E+03</pdfrwt>
<totfact> 0.10371889E+04</totfact>
</mgrwt>
</event>
<event>
 4    1  0.1807309E-004  0.2631069E+03  0.7818608E-02  0.1105291E+00
          1   -1    0    0  501    0  0.00000000000E+00  0.00000000000E+00  0.78104124645E+02  0.78104124645E+02  0.00000000000E+00 0.  1.
         -1   -1    0    0    0  501 -0.00000000000E+00 -0.00000000000E+00 -0.22157999167E+03  0.22157999167E+03  0.00000000000E+00 0.  1.
         25    1    1    2    0    0 -0.17528227283E+02  0.23580612830E+02 -0.20254375626E+02  0.12519394468E+03  0.12000000000E+03 0.  0.
         25    1    1    2    0    0  0.17528227283E+02 -0.23580612830E+02 -0.12322149140E+03  0.17449017163E+03  0.12000000000E+03 0.  0.
<mgrwt>
<rscale>  0 0.26310691E+03</rscale>
<asrwt>0</asrwt>
<pdfrwt beam="1">  1        1 0.12016019E-01 0.26310691E+03</pdfrwt>
<pdfrwt beam="2">  1       -1 0.34089229E-01 0.26310691E+03</pdfrwt>
<totfact> 0.40712583E+03</totfact>
</mgrwt>
</event>
<event>
 4    1  0.1807309E-004  0.3084778E+03  0.7818608E-02  0.1081078E+00
          1   -1    0    0  501    0  0.00000000000E+00  0.00000000000E+00  0.67174998419E+02  0.67174998419E+02  0.00000000000E+00 0. -1.
         -1   -1    0    0    0  501 -0.00000000000E+00 -0.00000000000E+00 -0.35414416565E+03  0.35414416565E+03  0.00000000000E+00 0. -1.
         25    1    1    2    0    0  0.43157650085E+01 -0.17700819015E+02 -0.27347042246E+03  0.29919561625E+03  0.12000000000E+03 0.  0.
         25    1    1    2    0    0 -0.43157650085E+01  0.17700819015E+02 -0.13498744768E+02  0.12212354782E+03  0.12000000000E+03 0.  0.
<mgrwt>
<rscale>  0 0.30847777E+03</rscale>
<asrwt>0</asrwt>
<pdfrwt beam="1">  1        1 0.10334615E-01 0.30847777E+03</pdfrwt>
<pdfrwt beam="2">  1       -1 0.54483719E-01 0.30847777E+03</pdfrwt>
<totfact> 0.21469704E+03</totfact>
</mgrwt>
</event>
<event>
 4    1  0.1807309E-004  0.3187432E+03  0.7818608E-02  0.1076229E+00
          2   -1    0    0  501    0  0.00000000000E+00  0.00000000000E+00  0.20540047685E+04  0.20540047685E+04  0.00000000000E+00 0. -1.
         -2   -1    0    0    0  501 -0.00000000000E+00 -0.00000000000E+00 -0.12365746870E+02  0.12365746870E+02  0.00000000000E+00 0. -1.
         25    1    1    2    0    0  0.44447088444E+02  0.93874123715E+02  0.11150796943E+04  0.11263172819E+04  0.12000000000E+03 0.  0.
         25    1    1    2    0    0 -0.44447088444E+02 -0.93874123715E+02  0.92655932734E+03  0.94005323352E+03  0.12000000000E+03 0.  0.
<mgrwt>
<rscale>  0 0.31874318E+03</rscale>
<asrwt>0</asrwt>
<pdfrwt beam="1">  1        2 0.31600046E+00 0.31874318E+03</pdfrwt>
<pdfrwt beam="2">  1       -2 0.19024242E-02 0.31874318E+03</pdfrwt>
<totfact> 0.57912770E+03</totfact>
</mgrwt>
</event>
<event>
 4    1  0.1807309E-004  0.2617522E+03  0.7818608E-02  0.1106095E+00
         -2   -1    0    0    0  501 -0.00000000000E+00  0.00000000000E+00  0.79873737209E+01  0.79873737209E+01  0.00000000000E+00 0.  1.
          2   -1    0    0  501    0  0.00000000000E+00 -0.00000000000E+00 -0.21444531884E+04  0.21444531884E+04  0.00000000000E+00 0.  1.
         25    1    1    2    0    0  0.14721111036E+02 -0.50118184512E+02 -0.10676223070E+04  0.10756142124E+04  0.12000000000E+03 0.  0.
         25    1    1    2    0    0 -0.14721111036E+02  0.50118184512E+02 -0.10688435077E+04  0.10768263497E+04  0.12000000000E+03 0.  0.
<mgrwt>
<rscale>  0 0.26175217E+03</rscale>
<asrwt>0</asrwt>
<pdfrwt beam="1">  1        2 0.32991629E+00 0.26175217E+03</pdfrwt>
<pdfrwt beam="2">  1       -2 0.12288252E-02 0.26175217E+03</pdfrwt>
<totfact> 0.98352061E+03</totfact>
</mgrwt>
</event>
<event>
 4    1  0.1807309E-004  0.4729318E+03  0.7818608E-02  0.1021096E+00
         -2   -1    0    0    0  501 -0.00000000000E+00  0.00000000000E+00  0.24917524732E+02  0.24917524732E+02  0.00000000000E+00 0.  1.
          2   -1    0    0  501    0  0.00000000000E+00 -0.00000000000E+00 -0.22440479079E+04  0.22440479079E+04  0.00000000000E+00 0.  1.
         25    1    1    2    0    0  0.10432723002E+03 -0.15961720441E+03 -0.14540055768E+04  0.14713578900E+04  0.12000000000E+03 0.  0.
         25    1    1    2    0    0 -0.10432723002E+03  0.15961720441E+03 -0.76512480630E+03  0.79760754265E+03  0.12000000000E+03 0.  0.
<mgrwt>
<rscale>  0 0.47293179E+03</rscale>
<asrwt>0</asrwt>
<pdfrwt beam="1">  1        2 0.34523810E+00 0.47293179E+03</pdfrwt>
<pdfrwt beam="2">  1       -2 0.38334657E-02 0.47293179E+03</pdfrwt>
<totfact> 0.15900218E+03</totfact>
</mgrwt>
</event>
<event>
 4    1  0.1807309E-004  0.4241148E+03  0.7818608E-02  0.1035735E+00
          1   -1    0    0  501    0  0.00000000000E+00  0.00000000000E+00  0.20022784243E+03  0.20022784243E+03  0.00000000000E+00 0.  1.
         -1   -1    0    0    0  501 -0.00000000000E+00 -0.00000000000E+00 -0.22458585524E+03  0.22458585524E+03  0.00000000000E+00 0.  1.
         25    1    1    2    0    0  0.12523249949E+03 -0.87715310253E+02 -0.97119613906E+02  0.21727718239E+03  0.12000000000E+03 0.  0.
         25    1    1    2    0    0 -0.12523249949E+03  0.87715310253E+02  0.72761601099E+02  0.20753651529E+03  0.12000000000E+03 0.  0.
<mgrwt>
<rscale>  0 0.42411480E+03</rscale>
<asrwt>0</asrwt>
<pdfrwt beam="1">  1        1 0.30804283E-01 0.42411480E+03</pdfrwt>
<pdfrwt beam="2">  1       -1 0.34551670E-01 0.42411480E+03</pdfrwt>
<totfact> 0.11771765E+03</totfact>
</mgrwt>
</event>
<event>
 4    1  0.1807309E-004  0.2464327E+03  0.7818608E-02  0.1115580E+00
          1   -1    0    0  501    0  0.00000000000E+00  0.00000000000E+00  0.25271541867E+04  0.25271541867E+04  0.00000000000E+00 0.  1.
         -1   -1    0    0    0  501 -0.00000000000E+00 -0.00000000000E+00 -0.60076556004E+01  0.60076556004E+01  0.00000000000E+00 0.  1.
         25    1    1    2    0    0  0.11187764601E+02  0.17415901926E+02  0.14539208443E+04  0.14590114123E+04  0.12000000000E+03 0.  0.
         25    1    1    2    0    0 -0.11187764601E+02 -0.17415901926E+02  0.10672256868E+04  0.10741504300E+04  0.12000000000E+03 0.  0.
<mgrwt>
<rscale>  0 0.24643273E+03</rscale>
<asrwt>0</asrwt>
<pdfrwt beam="1">  1        1 0.38879210E+00 0.24643273E+03</pdfrwt>
<pdfrwt beam="2">  1       -1 0.92425672E-03 0.24643273E+03</pdfrwt>
<totfact> 0.32090689E+03</totfact>
</mgrwt>
</event>
<event>
 4    1  0.1807309E-004  0.4861000E+03  0.7818608E-02  0.1017472E+00
         -1   -1    0    0    0  501 -0.00000000000E+00  0.00000000000E+00  0.17066004735E+03  0.17066004735E+03  0.00000000000E+00 0.  1.
          1   -1    0    0  501    0  0.00000000000E+00 -0.00000000000E+00 -0.34614599999E+03  0.34614599999E+03  0.00000000000E+00 0.  1.
         25    1    1    2    0    0  0.57265054751E+02 -0.20251491879E+03 -0.66971326097E+02  0.25134983061E+03  0.12000000000E+03 0.  0.
         25    1    1    2    0    0 -0.57265054751E+02  0.20251491879E+03 -0.10851462654E+03  0.26545621673E+03  0.12000000000E+03 0.  0.
<mgrwt>
<rscale>  0 0.48609996E+03</rscale>
<asrwt>0</asrwt>
<pdfrwt beam="1">  1        1 0.53253230E-01 0.48609996E+03</pdfrwt>
<pdfrwt beam="2">  1       -1 0.26255392E-01 0.48609996E+03</pdfrwt>
<totfact> 0.93850396E+02</totfact>
</mgrwt>
</event>
<event>
 4    1  0.1807309E-004  0.2821280E+03  0.7818608E-02  0.1094532E+00
         -2   -1    0    0    0  501 -0.00000000000E+00  0.00000000000E+00  0.84590092180E+01  0.84590092180E+01  0.00000000000E+00 0. -1.
          2   -1    0    0  501    0  0.00000000000E+00 -0.00000000000E+00 -0.23524097593E+04  0.23524097593E+04  0.00000000000E+00 0. -1.
         25    1    1    2    0    0  0.41107805735E+02 -0.21923934901E+02 -0.16547593510E+04  0.16597587236E+04  0.12000000000E+03 0.  0.
         25    1    1    2    0    0 -0.41107805735E+02  0.21923934901E+02 -0.68919139908E+03  0.70111004499E+03  0.12000000000E+03 0.  0.
<mgrwt>
<rscale>  0 0.28212803E+03</rscale>
<asrwt>0</asrwt>
<pdfrwt beam="1">  1        2 0.36190903E+00 0.28212803E+03</pdfrwt>
<pdfrwt beam="2">  1       -2 0.13013866E-02 0.28212803E+03</pdfrwt>
<totfact> 0.70072210E+03</totfact>
</mgrwt>
</event>
<event>
 4    1  0.1807309E-004  0.2813530E+03  0.7818608E-02  0.1094952E+00
         -3   -1    0    0    0  501 -0.00000000000E+00  0.00000000000E+00  0.51748401689E+03  0.51748401689E+03  0.00000000000E+00 0. -1.
          3   -1    0    0  501    0  0.00000000000E+00 -0.00000000000E+00 -0.38242477887E+02  0.38242477887E+02  0.00000000000E+00 0. -1.
         25    1    1    2    0    0 -0.60402522904E+02 -0.41511363616E+02  0.23119129977E+03  0.27059393040E+03  0.12000000000E+03 0.  0.
         25    1    1    2    0    0  0.60402522904E+02  0.41511363616E+02  0.24805023924E+03  0.28513256438E+03  0.12000000000E+03 0.  0.
<mgrwt>
<rscale>  0 0.28135295E+03</rscale>
<asrwt>0</asrwt>
<pdfrwt beam="1">  1        3 0.58834585E-02 0.28135295E+03</pdfrwt>
<pdfrwt beam="2">  1       -3 0.79612921E-01 0.28135295E+03</pdfrwt>
<totfact> 0.67376505E+02</totfact>
</mgrwt>
</event>
<event>
 4    1  0.1807309E-004  0.4597182E+03  0.7818608E-02  0.1024863E+00
          2   -1    0    0  501    0  0.00000000000E+00  0.00000000000E+00  0.34366910494E+03  0.34366910494E+03  0.00000000000E+00 0.  1.
         -2   -1    0    0    0  501 -0.00000000000E+00 -0.00000000000E+00 -0.15373858123E+03  0.15373858123E+03  0.00000000000E+00 0.  1.
         25    1    1    2    0    0 -0.55556186626E+02 -0.18616002763E+03  0.12345155555E+03  0.25958107082E+03  0.12000000000E+03 0.  0.
         25    1    1    2    0    0  0.55556186626E+02  0.18616002763E+03  0.66478968159E+02  0.23782661535E+03  0.12000000000E+03 0.  0.
<mgrwt>
<rscale>  0 0.45971818E+03</rscale>
<asrwt>0</asrwt>
<pdfrwt beam="1">  1        2 0.52872170E-01 0.45971818E+03</pdfrwt>
<pdfrwt beam="2">  1       -2 0.23652090E-01 0.45971818E+03</pdfrwt>
<totfact> 0.14886020E+03</totfact>
</mgrwt>
</event>
<event>
 4    1  0.1807309E-004  0.2636173E+03  0.7818608E-02  0.1104989E+00
         -2   -1    0    0    0  501 -0.00000000000E+00  0.00000000000E+00  0.16523083537E+02  0.16523083537E+02  0.00000000000E+00 0. -1.
          2   -1    0    0  501    0  0.00000000000E+00 -0.00000000000E+00 -0.10514698364E+04  0.10514698364E+04  0.00000000000E+00 0. -1.
         25    1    1    2    0    0  0.41789705067E+02  0.34906629891E+02 -0.52940353200E+03  0.54555746897E+03  0.12000000000E+03 0.  0.
         25    1    1    2    0    0 -0.41789705067E+02 -0.34906629891E+02 -0.50554322082E+03  0.52243545092E+03  0.12000000000E+03 0.  0.
<mgrwt>
<rscale>  0 0.26361733E+03</rscale>
<asrwt>0</asrwt>
<pdfrwt beam="1">  1        2 0.16176466E+00 0.26361733E+03</pdfrwt>
<pdfrwt beam="2">  1       -2 0.25420118E-02 0.26361733E+03</pdfrwt>
<totfact> 0.13187208E+04</totfact>
</mgrwt>
</event>
<event>
 4    1  0.1807309E-004  0.2581990E+03  0.7818608E-02  0.1108230E+00
         -1   -1    0    0    0  501 -0.00000000000E+00  0.00000000000E+00  0.52319835817E+03  0.52319835817E+03  0.00000000000E+00 0. -1.
          1   -1    0    0  501    0  0.00000000000E+00 -0.00000000000E+00 -0.31855386182E+02  0.31855386182E+02  0.00000000000E+00 0. -1.
         25    1    1    2    0    0 -0.81202646166E+01 -0.43655701850E+02  0.20875354268E+03  0.24484648370E+03  0.12000000000E+03 0.  0.
         25    1    1    2    0    0  0.81202646166E+01  0.43655701850E+02  0.28258942931E+03  0.31020726065E+03  0.12000000000E+03 0.  0.
<mgrwt>
<rscale>  0 0.25819904E+03</rscale>
<asrwt>0</asrwt>
<pdfrwt beam="1">  1        1 0.49008290E-02 0.25819904E+03</pdfrwt>
<pdfrwt beam="2">  1       -1 0.80492049E-01 0.25819904E+03</pdfrwt>
<totfact> 0.27444148E+03</totfact>
</mgrwt>
</event>
<event>
 4    1  0.1807309E-004  0.3024913E+03  0.7818608E-02  0.1084002E+00
          1   -1    0    0  501    0  0.00000000000E+00  0.00000000000E+00  0.10074700810E+04  0.10074700810E+04  0.00000000000E+00 0. -1.
         -1   -1    0    0    0  501 -0.00000000000E+00 -0.00000000000E+00 -0.22705637915E+02  0.22705637915E+02  0.00000000000E+00 0. -1.
         25    1    1    2    0    0 -0.41116958741E+01 -0.50857329225E+02  0.75334997789E+03  0.76455187082E+03  0.12000000000E+03 0.  0.
         25    1    1    2    0    0  0.41116958741E+01  0.50857329225E+02  0.23141446520E+03  0.26562384810E+03  0.12000000000E+03 0.  0.
<mgrwt>
<rscale>  0 0.30249133E+03</rscale>
<asrwt>0</asrwt>
<pdfrwt beam="1">  1        1 0.15499536E+00 0.30249133E+03</pdfrwt>
<pdfrwt beam="2">  1       -1 0.34931758E-02 0.30249133E+03</pdfrwt>
<totfact> 0.47582042E+03</totfact>
</mgrwt>
</event>
<event>
 4    1  0.1807309E-004  0.3114422E+03  0.7818608E-02  0.1079657E+00
         -1   -1    0    0    0  501 -0.00000000000E+00  0.00000000000E+00  0.48287923542E+02  0.48287923542E+02  0.00000000000E+00 0. -1.
          1   -1    0    0  501    0  0.00000000000E+00 -0.00000000000E+00 -0.50217635716E+03  0.50217635716E+03  0.00000000000E+00 0. -1.
         25    1    1    2    0    0 -0.63299383196E+02 -0.75932968688E+02 -0.21149266828E+03  0.26249147868E+03  0.12000000000E+03 0.  0.
         25    1    1    2    0    0  0.63299383196E+02  0.75932968688E+02 -0.24239576535E+03  0.28797280202E+03  0.12000000000E+03 0.  0.
<mgrwt>
<rscale>  0 0.31144215E+03</rscale>
<asrwt>0</asrwt>
<pdfrwt beam="1">  1        1 0.77257896E-01 0.31144215E+03</pdfrwt>
<pdfrwt beam="2">  1       -1 0.74289118E-02 0.31144215E+03</pdfrwt>
<totfact> 0.43312134E+03</totfact>
</mgrwt>
</event>
<event>
 4    1  0.1807309E-004  0.2570296E+03  0.7818608E-02  0.1108941E+00
          1   -1    0    0  501    0  0.00000000000E+00  0.00000000000E+00  0.22179803771E+04  0.22179803771E+04  0.00000000000E+00 0. -1.
         -1   -1    0    0    0  501 -0.00000000000E+00 -0.00000000000E+00 -0.74464389862E+01  0.74464389862E+01  0.00000000000E+00 0. -1.
         25    1    1    2    0    0  0.42322152697E+02 -0.16732122928E+02  0.10472327850E+04  0.10550675971E+04  0.12000000000E+03 0.  0.
         25    1    1    2    0    0 -0.42322152697E+02  0.16732122928E+02  0.11633011531E+04  0.11703592190E+04  0.12000000000E+03 0.  0.
<mgrwt>
<rscale>  0 0.25702961E+03</rscale>
<asrwt>0</asrwt>
<pdfrwt beam="1">  1        1 0.34122722E+00 0.25702961E+03</pdfrwt>
<pdfrwt beam="2">  1       -1 0.11456078E-02 0.25702961E+03</pdfrwt>
<totfact> 0.37579898E+03</totfact>
</mgrwt>
</event>
<event>
 4    1  0.1807309E-004  0.2711491E+03  0.7818608E-02  0.1100624E+00
          2   -1    0    0  501    0  0.00000000000E+00  0.00000000000E+00  0.24688743760E+03  0.24688743760E+03  0.00000000000E+00 0. -1.
         -2   -1    0    0    0  501 -0.00000000000E+00 -0.00000000000E+00 -0.74448755134E+02  0.74448755134E+02  0.00000000000E+00 0. -1.
         25    1    1    2    0    0  0.10950510802E+01  0.49075073135E+02  0.13318990398E+03  0.18587391550E+03  0.12000000000E+03 0.  0.
         25    1    1    2    0    0 -0.10950510802E+01 -0.49075073135E+02  0.39248778478E+02  0.13546227723E+03  0.12000000000E+03 0.  0.
<mgrwt>
<rscale>  0 0.27114913E+03</rscale>
<asrwt>0</asrwt>
<pdfrwt beam="1">  1        2 0.37982682E-01 0.27114913E+03</pdfrwt>
<pdfrwt beam="2">  1       -2 0.11453655E-01 0.27114913E+03</pdfrwt>
<totfact> 0.71489710E+03</totfact>
</mgrwt>
</event>
<event>
 4    1  0.1807309E-004  0.1073359E+04  0.7818608E-02  0.9231554E-01
         -2   -1    0    0    0  501 -0.00000000000E+00  0.00000000000E+00  0.22969826979E+03  0.22969826979E+03  0.00000000000E+00 0.  1.
          2   -1    0    0  501    0  0.00000000000E+00 -0.00000000000E+00 -0.12539269997E+04  0.12539269997E+04  0.00000000000E+00 0.  1.
         25    1    1    2    0    0 -0.43842172915E+03 -0.17582616373E+03 -0.20150861709E+03  0.52738427660E+03  0.12000000000E+03 0.  0.
         25    1    1    2    0    0  0.43842172915E+03  0.17582616373E+03 -0.82272011281E+03  0.95624099288E+03  0.12000000000E+03 0.  0.
<mgrwt>
<rscale>  0 0.10733590E+04</rscale>
<asrwt>0</asrwt>
<pdfrwt beam="1">  1        2 0.19291185E+00 0.10733590E+04</pdfrwt>
<pdfrwt beam="2">  1       -2 0.35338195E-01 0.10733590E+04</pdfrwt>
<totfact> 0.13143958E+02</totfact>
</mgrwt>
</event>
<event>
 4    1  0.1807309E-004  0.2705824E+03  0.7818608E-02  0.1100947E+00
         -1   -1    0    0    0  501 -0.00000000000E+00  0.00000000000E+00  0.40917280026E+02  0.40917280026E+02  0.00000000000E+00 0.  1.
          1   -1    0    0  501    0  0.00000000000E+00 -0.00000000000E+00 -0.44733439440E+03  0.44733439440E+03  0.00000000000E+00 0.  1.
         25    1    1    2    0    0 -0.53932120993E+02 -0.21972200576E+02 -0.16236839125E+03  0.21013078249E+03  0.12000000000E+03 0.  0.
         25    1    1    2    0    0  0.53932120993E+02  0.21972200576E+02 -0.24404872312E+03  0.27812089193E+03  0.12000000000E+03 0.  0.
<mgrwt>
<rscale>  0 0.27058238E+03</rscale>
<asrwt>0</asrwt>
<pdfrwt beam="1">  1        1 0.68820676E-01 0.27058238E+03</pdfrwt>
<pdfrwt beam="2">  1       -1 0.62949662E-02 0.27058238E+03</pdfrwt>
<totfact> 0.64636437E+03</totfact>
</mgrwt>
</event>
<event>
 4    1  0.1807309E-004  0.2559375E+03  0.7818608E-02  0.1109609E+00
         -2   -1    0    0    0  501 -0.00000000000E+00  0.00000000000E+00  0.15162231884E+02  0.15162231884E+02  0.00000000000E+00 0. -1.
          2   -1    0    0  501    0  0.00000000000E+00 -0.00000000000E+00 -0.10800525439E+04  0.10800525439E+04  0.00000000000E+00 0. -1.
         25    1    1    2    0    0 -0.16145249325E+02 -0.10196129317E+02 -0.70422170293E+03  0.71462776115E+03  0.12000000000E+03 0.  0.
         25    1    1    2    0    0  0.16145249325E+02  0.10196129317E+02 -0.36066860910E+03  0.38058701464E+03  0.12000000000E+03 0.  0.
<mgrwt>
<rscale>  0 0.25593755E+03</rscale>
<asrwt>0</asrwt>
<pdfrwt beam="1">  1        2 0.16616198E+00 0.25593755E+03</pdfrwt>
<pdfrwt beam="2">  1       -2 0.23326503E-02 0.25593755E+03</pdfrwt>
<totfact> 0.14383040E+04</totfact>
</mgrwt>
</event>
<event>
 4    1  0.1807309E-004  0.2892780E+03  0.7818608E-02  0.1090727E+00
         -2   -1    0    0    0  501 -0.00000000000E+00  0.00000000000E+00  0.55215788267E+02  0.55215788267E+02  0.00000000000E+00 0. -1.
          2   -1    0    0  501    0  0.00000000000E+00 -0.00000000000E+00 -0.37888508611E+03  0.37888508611E+03  0.00000000000E+00 0. -1.
         25    1    1    2    0    0 -0.24132066941E+02 -0.35420103600E+02 -0.26453228682E+03  0.29362266800E+03  0.12000000000E+03 0.  0.
         25    1    1    2    0    0  0.24132066941E+02  0.35420103600E+02 -0.59137011023E+02  0.14047820638E+03  0.12000000000E+03 0.  0.
<mgrwt>
<rscale>  0 0.28927799E+03</rscale>
<asrwt>0</asrwt>
<pdfrwt beam="1">  1        2 0.58290013E-01 0.28927799E+03</pdfrwt>
<pdfrwt beam="2">  1       -2 0.84947367E-02 0.28927799E+03</pdfrwt>
<totfact> 0.72585347E+03</totfact>
</mgrwt>
</event>
<event>
 4    1  0.1807309E-004  0.2510898E+03  0.7818608E-02  0.1112618E+00
          2   -1    0    0  501    0  0.00000000000E+00  0.00000000000E+00  0.19825160352E+03  0.19825160352E+03  0.00000000000E+00 0.  1.
         -2   -1    0    0    0  501 -0.00000000000E+00 -0.00000000000E+00 -0.79502592326E+02  0.79502592326E+02  0.00000000000E+00 0.  1.
         25    1    1    2    0    0 -0.98918589496E+01  0.18766189134E+00  0.98697084855E+02  0.15568878781E+03  0.12000000000E+03 0.  0.
         25    1    1    2    0    0  0.98918589496E+01 -0.18766189134E+00  0.20051926343E+02  0.12206540804E+03  0.12000000000E+03 0.  0.
<mgrwt>
<rscale>  0 0.25108976E+03</rscale>
<asrwt>0</asrwt>
<pdfrwt beam="1">  1        2 0.30500247E-01 0.25108976E+03</pdfrwt>
<pdfrwt beam="2">  1       -2 0.12231168E-01 0.25108976E+03</pdfrwt>
<totfact> 0.81368255E+03</totfact>
</mgrwt>
</event>
<event>
 4    1  0.1807309E-004  0.2842283E+03  0.7818608E-02  0.1093402E+00
         -1   -1    0    0    0  501 -0.00000000000E+00  0.00000000000E+00  0.11922316399E+02  0.11922316399E+02  0.00000000000E+00 0. -1.
          1   -1    0    0  501    0  0.00000000000E+00 -0.00000000000E+00 -0.16940022157E+04  0.16940022157E+04  0.00000000000E+00 0. -1.
         25    1    1    2    0    0 -0.84864411375E+01 -0.21583902432E+02 -0.12762764842E+04  0.12821152634E+04  0.12000000000E+03 0.  0.
         25    1    1    2    0    0  0.84864411375E+01  0.21583902432E+02 -0.40580341514E+03  0.42380926874E+03  0.12000000000E+03 0.  0.
<mgrwt>
<rscale>  0 0.28422829E+03</rscale>
<asrwt>0</asrwt>
<pdfrwt beam="1">  1        1 0.26061558E+00 0.28422829E+03</pdfrwt>
<pdfrwt beam="2">  1       -1 0.18342035E-02 0.28422829E+03</pdfrwt>
<totfact> 0.41522746E+03</totfact>
</mgrwt>
</event>
<event>
 4    1  0.1807309E-004  0.2477066E+03  0.7818608E-02  0.1114763E+00
         -2   -1    0    0    0  501 -0.00000000000E+00  0.00000000000E+00  0.10039301095E+02  0.10039301095E+02  0.00000000000E+00 0.  1.
          2   -1    0    0  501    0  0.00000000000E+00 -0.00000000000E+00 -0.15279592947E+04  0.15279592947E+04  0.00000000000E+00 0.  1.
         25    1    1    2    0    0 -0.22170704364E+02  0.21164352249E+02 -0.76154609523E+03  0.77155163476E+03  0.12000000000E+03 0.  0.
         25    1    1    2    0    0  0.22170704364E+02 -0.21164352249E+02 -0.75637389838E+03  0.76644696104E+03  0.12000000000E+03 0.  0.
<mgrwt>
<rscale>  0 0.24770663E+03</rscale>
<asrwt>0</asrwt>
<pdfrwt beam="1">  1        2 0.23507046E+00 0.24770663E+03</pdfrwt>
<pdfrwt beam="2">  1       -2 0.15445092E-02 0.24770663E+03</pdfrwt>
<totfact> 0.14845544E+04</totfact>
</mgrwt>
</event>
<event>
 4    1  0.1807309E-004  0.4101705E+03  0.7818608E-02  0.1040314E+00
          2   -1    0    0  501    0  0.00000000000E+00  0.00000000000E+00  0.10554900017E+04  0.10554900017E+04  0.00000000000E+00 0. -1.
         -2   -1    0    0    0  501 -0.00000000000E+00 -0.00000000000E+00 -0.39848756628E+02  0.39848756628E+02  0.00000000000E+00 0. -1.
         25    1    1    2    0    0 -0.45454162727E+02 -0.70844729452E+02  0.89086840909E+03  0.90284637615E+03  0.12000000000E+03 0.  0.
         25    1    1    2    0    0  0.45454162727E+02  0.70844729452E+02  0.12477283599E+03  0.19249238219E+03  0.12000000000E+03 0.  0.
<mgrwt>
<rscale>  0 0.41017052E+03</rscale>
<asrwt>0</asrwt>
<pdfrwt beam="1">  1        2 0.16238306E+00 0.41017052E+03</pdfrwt>
<pdfrwt beam="2">  1       -2 0.61305787E-02 0.41017052E+03</pdfrwt>
<totfact> 0.34899441E+03</totfact>
</mgrwt>
</event>
<event>
 4    1  0.1807309E-004  0.2700249E+03  0.7818608E-02  0.1101265E+00
          1   -1    0    0  501    0  0.00000000000E+00  0.00000000000E+00  0.12334531905E+04  0.12334531905E+04  0.00000000000E+00 0.  1.
         -1   -1    0    0    0  501 -0.00000000000E+00 -0.00000000000E+00 -0.14778311586E+02  0.14778311586E+02  0.00000000000E+00 0.  1.
         25    1    1    2    0    0 -0.29450493464E+02  0.52439497930E+02  0.54216993068E+03  0.55853868823E+03  0.12000000000E+03 0.  0.
         25    1    1    2    0    0  0.29450493464E+02 -0.52439497930E+02  0.67650494819E+03  0.68969281381E+03  0.12000000000E+03 0.  0.
<mgrwt>
<rscale>  0 0.27002485E+03</rscale>
<asrwt>0</asrwt>
<pdfrwt beam="1">  1        1 0.18976195E+00 0.27002485E+03</pdfrwt>
<pdfrwt beam="2">  1       -1 0.22735874E-02 0.27002485E+03</pdfrwt>
<totfact> 0.61585099E+03</totfact>
</mgrwt>
</event>
<event>
 4    1  0.1807309E-004  0.2406071E+03  0.7818608E-02  0.1119389E+00
         -3   -1    0    0    0  501 -0.00000000000E+00  0.00000000000E+00  0.50166155538E+02  0.50166155538E+02  0.00000000000E+00 0. -1.
          3   -1    0    0  501    0  0.00000000000E+00 -0.00000000000E+00 -0.28850026471E+03  0.28850026471E+03  0.00000000000E+00 0. -1.
         25    1    1    2    0    0  0.14986033011E+01  0.76068971398E+01 -0.11412369398E+03  0.16578398060E+03  0.12000000000E+03 0.  0.
         25    1    1    2    0    0 -0.14986033011E+01 -0.76068971398E+01 -0.12421041519E+03  0.17288243964E+03  0.12000000000E+03 0.  0.
<mgrwt>
<rscale>  0 0.24060714E+03</rscale>
<asrwt>0</asrwt>
<pdfrwt beam="1">  1        3 0.44384655E-01 0.24060714E+03</pdfrwt>
<pdfrwt beam="2">  1       -3 0.77178703E-02 0.24060714E+03</pdfrwt>
<totfact> 0.14366414E+03</totfact>
</mgrwt>
</event>
<event>
 4    1  0.1807309E-004  0.2484876E+03  0.7818608E-02  0.1114264E+00
         -1   -1    0    0    0  501 -0.00000000000E+00  0.00000000000E+00  0.24832130742E+03  0.24832130742E+03  0.00000000000E+00 0.  1.
          1   -1    0    0  501    0  0.00000000000E+00 -0.00000000000E+00 -0.62163495372E+02  0.62163495372E+02  0.00000000000E+00 0.  1.
         25    1    1    2    0    0  0.32664720328E+01 -0.29428724567E+02  0.10887410449E+03  0.16471275086E+03  0.12000000000E+03 0.  0.
         25    1    1    2    0    0 -0.32664720328E+01  0.29428724567E+02  0.77283707562E+02  0.14577205193E+03  0.12000000000E+03 0.  0.
<mgrwt>
<rscale>  0 0.24848759E+03</rscale>
<asrwt>0</asrwt>
<pdfrwt beam="1">  1        1 0.95636148E-02 0.24848759E+03</pdfrwt>
<pdfrwt beam="2">  1       -1 0.38203278E-01 0.24848759E+03</pdfrwt>
<totfact> 0.45198972E+03</totfact>
</mgrwt>
</event>
<event>
 4    1  0.1807309E-004  0.2853911E+03  0.7818608E-02  0.1092780E+00
          2   -1    0    0  501    0  0.00000000000E+00  0.00000000000E+00  0.17865326984E+03  0.17865326984E+03  0.00000000000E+00 0.  1.
         -2   -1    0    0    0  501 -0.00000000000E+00 -0.00000000000E+00 -0.11397510539E+03  0.11397510539E+03  0.00000000000E+00 0.  1.
         25    1    1    2    0    0 -0.32062293787E+02 -0.10058915690E+02  0.10362073120E+03  0.16206920868E+03  0.12000000000E+03 0.  0.
         25    1    1    2    0    0  0.32062293787E+02  0.10058915690E+02 -0.38942566744E+02  0.13055916656E+03  0.12000000000E+03 0.  0.
<mgrwt>
<rscale>  0 0.28539114E+03</rscale>
<asrwt>0</asrwt>
<pdfrwt beam="1">  1        2 0.27485118E-01 0.28539114E+03</pdfrwt>
<pdfrwt beam="2">  1       -2 0.17534632E-01 0.28539114E+03</pdfrwt>
<totfact> 0.50648201E+03</totfact>
</mgrwt>
</event>
<event>
 4    1  0.1807309E-004  0.2403498E+03  0.7818608E-02  0.1119560E+00
         -2   -1    0    0    0  501 -0.00000000000E+00  0.00000000000E+00  0.17607033966E+02  0.17607033966E+02  0.00000000000E+00 0.  1.
          2   -1    0    0  501    0  0.00000000000E+00 -0.00000000000E+00 -0.82024095145E+03  0.82024095145E+03  0.00000000000E+00 0.  1.
         25    1    1    2    0    0 -0.34788461502E+01  0.21634754314E+01 -0.38380814354E+03  0.40215105874E+03  0.12000000000E+03 0.  0.
         25    1    1    2    0    0  0.34788461502E+01 -0.21634754314E+01 -0.41882577395E+03  0.43569692668E+03  0.12000000000E+03 0.  0.
<mgrwt>
<rscale>  0 0.24034983E+03</rscale>
<asrwt>0</asrwt>
<pdfrwt beam="1">  1        2 0.12619090E+00 0.24034983E+03</pdfrwt>
<pdfrwt beam="2">  1       -2 0.27087749E-02 0.24034983E+03</pdfrwt>
<totfact> 0.16754179E+04</totfact>
</mgrwt>
</event>
<event>
 4    1  0.1807309E-004  0.3345817E+03  0.7818608E-02  0.1069127E+00
         -2   -1    0    0    0  501 -0.00000000000E+00  0.00000000000E+00  0.78498989983E+02  0.78498989983E+02  0.00000000000E+00 0.  1.
          2   -1    0    0  501    0  0.00000000000E+00 -0.00000000000E+00 -0.35651712968E+03  0.35651712968E+03  0.00000000000E+00 0.  1.
         25    1    1    2    0    0  0.44062055661E+02  0.41628614531E+02 -0.26845249747E+03  0.30023515733E+03  0.12000000000E+03 0.  0.
         25    1    1    2    0    0 -0.44062055661E+02 -0.41628614531E+02 -0.95656422256E+01  0.13478096234E+03  0.12000000000E+03 0.  0.
<mgrwt>
<rscale>  0 0.33458174E+03</rscale>
<asrwt>0</asrwt>
<pdfrwt beam="1">  1        2 0.54848789E-01 0.33458174E+03</pdfrwt>
<pdfrwt beam="2">  1       -2 0.12076768E-01 0.33458174E+03</pdfrwt>
<totfact> 0.44405303E+03</totfact>
</mgrwt>
</event>
<event>
 4    1  0.1807309E-004  0.2600890E+03  0.7818608E-02  0.1107090E+00
         -1   -1    0    0    0  501 -0.00000000000E+00  0.00000000000E+00  0.50589283476E+02  0.50589283476E+02  0.00000000000E+00 0. -1.
          1   -1    0    0  501    0  0.00000000000E+00 -0.00000000000E+00 -0.33429155404E+03  0.33429155404E+03  0.00000000000E+00 0. -1.
         25    1    1    2    0    0 -0.31040793757E+02 -0.19347590630E+02 -0.19254842456E+03  0.22981026074E+03  0.12000000000E+03 0.  0.
         25    1    1    2    0    0  0.31040793757E+02  0.19347590630E+02 -0.91153846001E+02  0.15507057677E+03  0.12000000000E+03 0.  0.
<mgrwt>
<rscale>  0 0.26008899E+03</rscale>
<asrwt>0</asrwt>
<pdfrwt beam="1">  1        1 0.51429470E-01 0.26008899E+03</pdfrwt>
<pdfrwt beam="2">  1       -1 0.77829667E-02 0.26008899E+03</pdfrwt>
<totfact> 0.67897759E+03</totfact>
</mgrwt>
</event>
<event>
 4    1  0.1807309E-004  0.2957670E+03  0.7818608E-02  0.1087376E+00
         -2   -1    0    0    0  501 -0.00000000000E+00  0.00000000000E+00  0.26856529524E+03  0.26856529524E+03  0.00000000000E+00 0. -1.
          2   -1    0    0  501    0  0.00000000000E+00 -0.00000000000E+00 -0.81430979500E+02  0.81430979500E+02  0.00000000000E+00 0. -1.
         25    1    1    2    0    0  0.47581918452E+01 -0.76557365792E+02  0.46442666381E+02  0.14980184214E+03  0.12000000000E+03 0.  0.
         25    1    1    2    0    0 -0.47581918452E+01  0.76557365792E+02  0.14069164936E+03  0.20019443261E+03  0.12000000000E+03 0.  0.
<mgrwt>
<rscale>  0 0.29576704E+03</rscale>
<asrwt>0</asrwt>
<pdfrwt beam="1">  1        2 0.12527843E-01 0.29576704E+03</pdfrwt>
<pdfrwt beam="2">  1       -2 0.41317737E-01 0.29576704E+03</pdfrwt>
<totfact> 0.27102165E+03</totfact>
</mgrwt>
</event>
<event>
 4    1  0.1807309E-004  0.3563564E+03  0.7818608E-02  0.1060036E+00
         -1   -1    0    0    0  501 -0.00000000000E+00  0.00000000000E+00  0.30900098914E+02  0.30900098914E+02  0.00000000000E+00 0. -1.
          1   -1    0    0  501    0  0.00000000000E+00 -0.00000000000E+00 -0.10274228631E+04  0.10274228631E+04  0.00000000000E+00 0. -1.
         25    1    1    2    0    0  0.15242927199E+02  0.12459403150E+03 -0.37978549169E+03  0.41760392624E+03  0.12000000000E+03 0.  0.
         25    1    1    2    0    0 -0.15242927199E+02 -0.12459403150E+03 -0.61673727255E+03  0.64071903582E+03  0.12000000000E+03 0.  0.
<mgrwt>
<rscale>  0 0.35635638E+03</rscale>
<asrwt>0</asrwt>
<pdfrwt beam="1">  1        1 0.15806502E+00 0.35635638E+03</pdfrwt>
<pdfrwt beam="2">  1       -1 0.47538624E-02 0.35635638E+03</pdfrwt>
<totfact> 0.29033742E+03</totfact>
</mgrwt>
</event>
<event>
 4    1  0.1807309E-004  0.3147011E+03  0.7818608E-02  0.1078114E+00
          2   -1    0    0  501    0  0.00000000000E+00  0.00000000000E+00  0.82233189555E+03  0.82233189555E+03  0.00000000000E+00 0. -1.
         -2   -1    0    0    0  501 -0.00000000000E+00 -0.00000000000E+00 -0.30108528426E+02  0.30108528426E+02  0.00000000000E+00 0. -1.
         25    1    1    2    0    0  0.68627433465E+02  0.64203921120E+02  0.29025144207E+03  0.32783802057E+03  0.12000000000E+03 0.  0.
         25    1    1    2    0    0 -0.68627433465E+02 -0.64203921120E+02  0.50197192506E+03  0.52460240341E+03  0.12000000000E+03 0.  0.
<mgrwt>
<rscale>  0 0.31470115E+03</rscale>
<asrwt>0</asrwt>
<pdfrwt beam="1">  1        2 0.12651258E+00 0.31470115E+03</pdfrwt>
<pdfrwt beam="2">  1       -2 0.46320819E-02 0.31470115E+03</pdfrwt>
<totfact> 0.75464274E+03</totfact>
</mgrwt>
</event>
<event>
 4    1  0.1807309E-004  0.6027051E+03  0.7818608E-02  0.9899810E-01
          1   -1    0    0  501    0  0.00000000000E+00  0.00000000000E+00  0.10159145978E+04  0.10159145978E+04  0.00000000000E+00 0. -1.
         -1   -1    0    0    0  501 -0.00000000000E+00 -0.00000000000E+00 -0.89390756286E+02  0.89390756286E+02  0.00000000000E+00 0. -1.
         25    1    1    2    0    0  0.14365017980E+03  0.21909038468E+03  0.30153039459E+03  0.41708098695E+03  0.12000000000E+03 0.  0.
         25    1    1    2    0    0 -0.14365017980E+03 -0.21909038468E+03  0.62499344689E+03  0.68822436710E+03  0.12000000000E+03 0.  0.
<mgrwt>
<rscale>  0 0.60270515E+03</rscale>
<asrwt>0</asrwt>
<pdfrwt beam="1">  1        1 0.15629455E+00 0.60270515E+03</pdfrwt>
<pdfrwt beam="2">  1       -1 0.13752425E-01 0.60270515E+03</pdfrwt>
<totfact> 0.56528465E+02</totfact>
</mgrwt>
</event>
<event>
 4    1  0.1807309E-004  0.2598814E+03  0.7818608E-02  0.1107214E+00
         -2   -1    0    0    0  501 -0.00000000000E+00  0.00000000000E+00  0.10744817730E+02  0.10744817730E+02  0.00000000000E+00 0.  1.
          2   -1    0    0  501    0  0.00000000000E+00 -0.00000000000E+00 -0.15714168642E+04  0.15714168642E+04  0.00000000000E+00 0.  1.
         25    1    1    2    0    0  0.31884580608E+01  0.13737588350E+02 -0.48927418549E+03  0.50397233673E+03  0.12000000000E+03 0.  0.
         25    1    1    2    0    0 -0.31884580608E+01 -0.13737588350E+02 -0.10713978610E+04  0.10781893452E+04  0.12000000000E+03 0.  0.
<mgrwt>
<rscale>  0 0.25988142E+03</rscale>
<asrwt>0</asrwt>
<pdfrwt beam="1">  1        2 0.24175625E+00 0.25988142E+03</pdfrwt>
<pdfrwt beam="2">  1       -2 0.16530502E-02 0.25988142E+03</pdfrwt>
<totfact> 0.12764328E+04</totfact>
</mgrwt>
</event>
<event>
 4    1  0.1807309E-004  0.2567335E+03  0.7818608E-02  0.1109122E+00
         -1   -1    0    0    0  501 -0.00000000000E+00  0.00000000000E+00  0.18537267126E+02  0.18537267126E+02  0.00000000000E+00 0.  1.
          1   -1    0    0  501    0  0.00000000000E+00 -0.00000000000E+00 -0.88891332858E+03  0.88891332858E+03  0.00000000000E+00 0.  1.
         25    1    1    2    0    0 -0.12199477382E+02 -0.22358923738E+02 -0.30155976077E+03  0.32555650513E+03  0.12000000000E+03 0.  0.
         25    1    1    2    0    0  0.12199477382E+02  0.22358923738E+02 -0.56881630069E+03  0.58189409057E+03  0.12000000000E+03 0.  0.
<mgrwt>
<rscale>  0 0.25673351E+03</rscale>
<asrwt>0</asrwt>
<pdfrwt beam="1">  1        1 0.13675591E+00 0.25673351E+03</pdfrwt>
<pdfrwt beam="2">  1       -1 0.28518871E-02 0.25673351E+03</pdfrwt>
<totfact> 0.78914692E+03</totfact>
</mgrwt>
</event>
<event>
 4    1  0.1807309E-004  0.3003784E+03  0.7818608E-02  0.1085052E+00
         -2   -1    0    0    0  501 -0.00000000000E+00  0.00000000000E+00  0.83401622273E+02  0.83401622273E+02  0.00000000000E+00 0.  1.
          2   -1    0    0  501    0  0.00000000000E+00 -0.00000000000E+00 -0.27045994957E+03  0.27045994957E+03  0.00000000000E+00 0.  1.
         25    1    1    2    0    0  0.40594930653E+02  0.40867319211E+02 -0.11582820118E+02  0.13361230443E+03  0.12000000000E+03 0.  0.
         25    1    1    2    0    0 -0.40594930653E+02 -0.40867319211E+02 -0.17547550718E+03  0.22024926741E+03  0.12000000000E+03 0.  0.
<mgrwt>
<rscale>  0 0.30037842E+03</rscale>
<asrwt>0</asrwt>
<pdfrwt beam="1">  1        2 0.41609223E-01 0.30037842E+03</pdfrwt>
<pdfrwt beam="2">  1       -2 0.12831019E-01 0.30037842E+03</pdfrwt>
<totfact> 0.54097856E+03</totfact>
</mgrwt>
</event>
<event>
 4    1  0.1807309E-004  0.2781821E+03  0.7818608E-02  0.1096686E+00
          2   -1    0    0  501    0  0.00000000000E+00  0.00000000000E+00  0.74667807261E+03  0.74667807261E+03  0.00000000000E+00 0. -1.
         -2   -1    0    0    0  501 -0.00000000000E+00 -0.00000000000E+00 -0.25909846507E+02  0.25909846507E+02  0.00000000000E+00 0. -1.
         25    1    1    2    0    0  0.26689629377E+02  0.62984586909E+02  0.40575833075E+03  0.42862479802E+03  0.12000000000E+03 0.  0.
         25    1    1    2    0    0 -0.26689629377E+02 -0.62984586909E+02  0.31500989535E+03  0.34396312109E+03  0.12000000000E+03 0.  0.
<mgrwt>
<rscale>  0 0.27818206E+03</rscale>
<asrwt>0</asrwt>
<pdfrwt beam="1">  1        2 0.11487353E+00 0.27818206E+03</pdfrwt>
<pdfrwt beam="2">  1       -2 0.39861308E-02 0.27818206E+03</pdfrwt>
<totfact> 0.10663834E+04</totfact>
</mgrwt>
</event>
<event>
 4    1  0.1807309E-004  0.2492613E+03  0.7818608E-02  0.1113773E+00
         -1   -1    0    0    0  501 -0.00000000000E+00  0.00000000000E+00  0.68043204960E+02  0.68043204960E+02  0.00000000000E+00 0.  1.
          1   -1    0    0  501    0  0.00000000000E+00 -0.00000000000E+00 -0.22827840141E+03  0.22827840141E+03  0.00000000000E+00 0.  1.
         25    1    1    2    0    0  0.10396309235E+02 -0.50897941866E+01 -0.42546936612E+02  0.12784455822E+03  0.12000000000E+03 0.  0.
         25    1    1    2    0    0 -0.10396309235E+02  0.50897941866E+01 -0.11768825983E+03  0.16847704815E+03  0.12000000000E+03 0.  0.
<mgrwt>
<rscale>  0 0.24926126E+03</rscale>
<asrwt>0</asrwt>
<pdfrwt beam="1">  1        1 0.35119754E-01 0.24926126E+03</pdfrwt>
<pdfrwt beam="2">  1       -1 0.10468185E-01 0.24926126E+03</pdfrwt>
<totfact> 0.69411992E+03</totfact>
</mgrwt>
</event>
<event>
 4    1  0.1807309E-004  0.2894693E+03  0.7818608E-02  0.1090627E+00
          2   -1    0    0  501    0  0.00000000000E+00  0.00000000000E+00  0.61995555993E+03  0.61995555993E+03  0.00000000000E+00 0. -1.
         -2   -1    0    0    0  501 -0.00000000000E+00 -0.00000000000E+00 -0.33789705414E+02  0.33789705414E+02  0.00000000000E+00 0. -1.
         25    1    1    2    0    0 -0.73498456023E+02 -0.25450554035E+02  0.24266574859E+03  0.28166721371E+03  0.12000000000E+03 0.  0.
         25    1    1    2    0    0  0.73498456023E+02  0.25450554035E+02  0.34350010592E+03  0.37207805163E+03  0.12000000000E+03 0.  0.
<mgrwt>
<rscale>  0 0.28946928E+03</rscale>
<asrwt>0</asrwt>
<pdfrwt beam="1">  1        2 0.95377770E-01 0.28946928E+03</pdfrwt>
<pdfrwt beam="2">  1       -2 0.51984167E-02 0.28946928E+03</pdfrwt>
<totfact> 0.89374370E+03</totfact>
</mgrwt>
</event>
<event>
 4    1  0.1807309E-004  0.2715356E+03  0.7818608E-02  0.1100404E+00
         -2   -1    0    0    0  501 -0.00000000000E+00  0.00000000000E+00  0.19170564277E+02  0.19170564277E+02  0.00000000000E+00 0. -1.
          2   -1    0    0  501    0  0.00000000000E+00 -0.00000000000E+00 -0.96152049167E+03  0.96152049167E+03  0.00000000000E+00 0. -1.
         25    1    1    2    0    0 -0.42455339951E+02  0.71606785500E+01 -0.30257791180E+03  0.32833995175E+03  0.12000000000E+03 0.  0.
         25    1    1    2    0    0  0.42455339951E+02 -0.71606785500E+01 -0.63977201559E+03  0.65235110419E+03  0.12000000000E+03 0.  0.
<mgrwt>
<rscale>  0 0.27153556E+03</rscale>
<asrwt>0</asrwt>
<pdfrwt beam="1">  1        2 0.14792624E+00 0.27153556E+03</pdfrwt>
<pdfrwt beam="2">  1       -2 0.29493174E-02 0.27153556E+03</pdfrwt>
<totfact> 0.12016386E+04</totfact>
</mgrwt>
</event>
<event>
 4    1  0.1807309E-004  0.2477025E+03  0.7818608E-02  0.1114765E+00
         -1   -1    0    0    0  501 -0.00000000000E+00  0.00000000000E+00  0.18513198030E+02  0.18513198030E+02  0.00000000000E+00 0. -1.
          1   -1    0    0  501    0  0.00000000000E+00 -0.00000000000E+00 -0.82855121333E+03  0.82855121333E+03  0.00000000000E+00 0. -1.
         25    1    1    2    0    0  0.13129168919E+02 -0.25648434644E+02 -0.44070770619E+03  0.45766090020E+03  0.12000000000E+03 0.  0.
         25    1    1    2    0    0 -0.13129168919E+02  0.25648434644E+02 -0.36933030910E+03  0.38940351115E+03  0.12000000000E+03 0.  0.
<mgrwt>
<rscale>  0 0.24770250E+03</rscale>
<asrwt>0</asrwt>
<pdfrwt beam="1">  1        1 0.12746944E+00 0.24770250E+03</pdfrwt>
<pdfrwt beam="2">  1       -1 0.28481839E-02 0.24770250E+03</pdfrwt>
<totfact> 0.88294390E+03</totfact>
</mgrwt>
</event>
<event>
 4    1  0.1807309E-004  0.2530270E+03  0.7818608E-02  0.1111407E+00
         -1   -1    0    0    0  501 -0.00000000000E+00  0.00000000000E+00  0.19593997141E+03  0.19593997141E+03  0.00000000000E+00 0.  1.
          1   -1    0    0  501    0  0.00000000000E+00 -0.00000000000E+00 -0.81686563588E+02  0.81686563588E+02  0.00000000000E+00 0.  1.
         25    1    1    2    0    0  0.21154751132E+02 -0.31675780269E+02  0.43475916157E+02  0.13319547228E+03  0.12000000000E+03 0.  0.
         25    1    1    2    0    0 -0.21154751132E+02  0.31675780269E+02  0.70777491671E+02  0.14443106272E+03  0.12000000000E+03 0.  0.
<mgrwt>
<rscale>  0 0.25302698E+03</rscale>
<asrwt>0</asrwt>
<pdfrwt beam="1">  1        1 0.12567164E-01 0.25302698E+03</pdfrwt>
<pdfrwt beam="2">  1       -1 0.30144611E-01 0.25302698E+03</pdfrwt>
<totfact> 0.47301176E+03</totfact>
</mgrwt>
</event>
<event>
 4    1  0.1807309E-004  0.3240899E+03  0.7818608E-02  0.1073782E+00
         -4   -1    0    0    0  501 -0.00000000000E+00  0.00000000000E+00  0.94786569520E+03  0.94786569520E+03  0.00000000000E+00 0. -1.
          4   -1    0    0  501    0  0.00000000000E+00 -0.00000000000E+00 -0.27702834331E+02  0.27702834331E+02  0.00000000000E+00 0. -1.
         25    1    1    2    0    0  0.78229080673E+02 -0.50720052516E+02  0.62946259903E+03  0.64754573303E+03  0.12000000000E+03 0.  0.
         25    1    1    2    0    0 -0.78229080673E+02  0.50720052516E+02  0.29070026184E+03  0.32802279650E+03  0.12000000000E+03 0.  0.
<mgrwt>
<rscale>  0 0.32408990E+03</rscale>
<asrwt>0</asrwt>
<pdfrwt beam="1">  1        4 0.42619753E-02 0.32408990E+03</pdfrwt>
<pdfrwt beam="2">  1       -4 0.14582547E+00 0.32408990E+03</pdfrwt>
<totfact> 0.19957270E+02</totfact>
</mgrwt>
</event>
<event>
 4    1  0.1807309E-004  0.2440749E+03  0.7818608E-02  0.1117108E+00
         -2   -1    0    0    0  501 -0.00000000000E+00  0.00000000000E+00  0.75183761276E+01  0.75183761276E+01  0.00000000000E+00 0.  1.
          2   -1    0    0  501    0  0.00000000000E+00 -0.00000000000E+00 -0.19808986698E+04  0.19808986698E+04  0.00000000000E+00 0.  1.
         25    1    1    2    0    0 -0.51574086633E+01  0.22662452007E+01 -0.81169492137E+03  0.82053664154E+03  0.12000000000E+03 0.  0.
         25    1    1    2    0    0  0.51574086633E+01 -0.22662452007E+01 -0.11616853723E+04  0.11678804044E+04  0.12000000000E+03 0.  0.
<mgrwt>
<rscale>  0 0.24407492E+03</rscale>
<asrwt>0</asrwt>
<pdfrwt beam="1">  1        2 0.30475391E+00 0.24407492E+03</pdfrwt>
<pdfrwt beam="2">  1       -2 0.11566722E-02 0.24407492E+03</pdfrwt>
<totfact> 0.13077826E+04</totfact>
</mgrwt>
</event>
<event>
 4    1  0.1807309E-004  0.3237244E+03  0.7818608E-02  0.1073948E+00
          2   -1    0    0  501    0  0.00000000000E+00  0.00000000000E+00  0.23492229133E+04  0.23492229133E+04  0.00000000000E+00 0.  1.
         -2   -1    0    0    0  501 -0.00000000000E+00 -0.00000000000E+00 -0.11152354078E+02  0.11152354078E+02  0.00000000000E+00 0.  1.
         25    1    1    2    0    0  0.81209472544E+02 -0.35104716157E+02  0.16285641664E+04  0.16353741357E+04  0.12000000000E+03 0.  0.
         25    1    1    2    0    0 -0.81209472544E+02  0.35104716157E+02  0.70950639287E+03  0.72500113176E+03  0.12000000000E+03 0.  0.
<mgrwt>
<rscale>  0 0.32372436E+03</rscale>
<asrwt>0</asrwt>
<pdfrwt beam="1">  1        2 0.36141852E+00 0.32372436E+03</pdfrwt>
<pdfrwt beam="2">  1       -2 0.17157486E-02 0.32372436E+03</pdfrwt>
<totfact> 0.46859765E+03</totfact>
</mgrwt>
</event>
<event>
 4    1  0.1807309E-004  0.2492200E+03  0.7818608E-02  0.1113799E+00
         -2   -1    0    0    0  501 -0.00000000000E+00  0.00000000000E+00  0.22451489982E+02  0.22451489982E+02  0.00000000000E+00 0.  1.
          2   -1    0    0  501    0  0.00000000000E+00 -0.00000000000E+00 -0.69160916575E+03  0.69160916575E+03  0.00000000000E+00 0.  1.
         25    1    1    2    0    0  0.33549641323E+02  0.12615008554E+01 -0.33258051167E+03  0.35515766437E+03  0.12000000000E+03 0.  0.
         25    1    1    2    0    0 -0.33549641323E+02 -0.12615008554E+01 -0.33657716409E+03  0.35890299136E+03  0.12000000000E+03 0.  0.
<mgrwt>
<rscale>  0 0.24922003E+03</rscale>
<asrwt>0</asrwt>
<pdfrwt beam="1">  1        2 0.10640143E+00 0.24922003E+03</pdfrwt>
<pdfrwt beam="2">  1       -2 0.34540747E-02 0.24922003E+03</pdfrwt>
<totfact> 0.14451249E+04</totfact>
</mgrwt>
</event>
<event>
 4    1  0.1807309E-004  0.3081458E+03  0.7818608E-02  0.1081238E+00
         -2   -1    0    0    0  501 -0.00000000000E+00  0.00000000000E+00  0.18473447675E+02  0.18473447675E+02  0.00000000000E+00 0. -1.
          2   -1    0    0  501    0  0.00000000000E+00 -0.00000000000E+00 -0.12850039062E+04  0.12850039062E+04  0.00000000000E+00 0. -1.
         25    1    1    2    0    0  0.18377942393E+02  0.49815390110E+02 -0.29172478981E+03  0.31987915663E+03  0.12000000000E+03 0.  0.
         25    1    1    2    0    0 -0.18377942393E+02 -0.49815390110E+02 -0.97480566869E+03  0.98359819721E+03  0.12000000000E+03 0.  0.
<mgrwt>
<rscale>  0 0.30814576E+03</rscale>
<asrwt>0</asrwt>
<pdfrwt beam="1">  1        2 0.19769299E+00 0.30814576E+03</pdfrwt>
<pdfrwt beam="2">  1       -2 0.28420677E-02 0.30814576E+03</pdfrwt>
<totfact> 0.82310259E+03</totfact>
</mgrwt>
</event>
<event>
 4    1  0.1807309E-004  0.2805210E+03  0.7818608E-02  0.1095405E+00
         -1   -1    0    0    0  501 -0.00000000000E+00  0.00000000000E+00  0.26903903043E+03  0.26903903043E+03  0.00000000000E+00 0. -1.
          1   -1    0    0  501    0  0.00000000000E+00 -0.00000000000E+00 -0.73123245956E+02  0.73123245956E+02  0.00000000000E+00 0. -1.
         25    1    1    2    0    0  0.22576578636E+02  0.64795476266E+02  0.12694693778E+03  0.18767972895E+03  0.12000000000E+03 0.  0.
         25    1    1    2    0    0 -0.22576578636E+02 -0.64795476266E+02  0.68968846694E+02  0.15448254743E+03  0.12000000000E+03 0.  0.
<mgrwt>
<rscale>  0 0.28052100E+03</rscale>
<asrwt>0</asrwt>
<pdfrwt beam="1">  1        1 0.11249730E-01 0.28052100E+03</pdfrwt>
<pdfrwt beam="2">  1       -1 0.41390620E-01 0.28052100E+03</pdfrwt>
<totfact> 0.31665432E+03</totfact>
</mgrwt>
</event>
<event>
 4    1  0.1807309E-004  0.2463068E+03  0.7818608E-02  0.1115661E+00
          1   -1    0    0  501    0  0.00000000000E+00  0.00000000000E+00  0.57311499984E+02  0.57311499984E+02  0.00000000000E+00 0. -1.
         -1   -1    0    0    0  501 -0.00000000000E+00 -0.00000000000E+00 -0.26463728204E+03  0.26463728204E+03  0.00000000000E+00 0. -1.
         25    1    1    2    0    0 -0.16839302456E+02  0.24680398102E+01 -0.75112113110E+02  0.14258850888E+03  0.12000000000E+03 0.  0.
         25    1    1    2    0    0  0.16839302456E+02 -0.24680398102E+01 -0.13221366894E+03  0.17936027315E+03  0.12000000000E+03 0.  0.
<mgrwt>
<rscale>  0 0.24630680E+03</rscale>
<asrwt>0</asrwt>
<pdfrwt beam="1">  1        1 0.88171537E-02 0.24630680E+03</pdfrwt>
<pdfrwt beam="2">  1       -1 0.40713429E-01 0.24630680E+03</pdfrwt>
<totfact> 0.45049425E+03</totfact>
</mgrwt>
</event>
<event>
 4    1  0.1807309E-004  0.2741754E+03  0.7818608E-02  0.1098913E+00
         -1   -1    0    0    0  501 -0.00000000000E+00  0.00000000000E+00  0.22008192281E+02  0.22008192281E+02  0.00000000000E+00 0.  1.
          1   -1    0    0  501    0  0.00000000000E+00 -0.00000000000E+00 -0.85391080985E+03  0.85391080985E+03  0.00000000000E+00 0.  1.
         25    1    1    2    0    0  0.35971328565E+02  0.25187793102E+02 -0.25734696879E+03  0.28732529256E+03  0.12000000000E+03 0.  0.
         25    1    1    2    0    0 -0.35971328565E+02 -0.25187793102E+02 -0.57455564878E+03  0.58859370957E+03  0.12000000000E+03 0.  0.
<mgrwt>
<rscale>  0 0.27417537E+03</rscale>
<asrwt>0</asrwt>
<pdfrwt beam="1">  1        1 0.13137090E+00 0.27417537E+03</pdfrwt>
<pdfrwt beam="2">  1       -1 0.33858757E-02 0.27417537E+03</pdfrwt>
<totfact> 0.65439592E+03</totfact>
</mgrwt>
</event>
<event>
 4    1  0.1807309E-004  0.2860808E+03  0.7818608E-02  0.1092413E+00
         -2   -1    0    0    0  501 -0.00000000000E+00  0.00000000000E+00  0.75126885967E+02  0.75126885967E+02  0.00000000000E+00 0. -1.
          2   -1    0    0  501    0  0.00000000000E+00 -0.00000000000E+00 -0.27234669042E+03  0.27234669042E+03  0.00000000000E+00 0. -1.
         25    1    1    2    0    0 -0.40564108105E+02 -0.66342617462E+02 -0.10311686726E+03  0.17629486116E+03  0.12000000000E+03 0.  0.
         25    1    1    2    0    0  0.40564108105E+02  0.66342617462E+02 -0.94102937195E+02  0.17117871523E+03  0.12000000000E+03 0.  0.
<mgrwt>
<rscale>  0 0.28608082E+03</rscale>
<asrwt>0</asrwt>
<pdfrwt beam="1">  1        2 0.41899491E-01 0.28608082E+03</pdfrwt>
<pdfrwt beam="2">  1       -2 0.11557982E-01 0.28608082E+03</pdfrwt>
<totfact> 0.63497763E+03</totfact>
</mgrwt>
</event>
<event>
 4    1  0.1807309E-004  0.3342103E+03  0.7818608E-02  0.1069289E+00
          2   -1    0    0  501    0  0.00000000000E+00  0.00000000000E+00  0.13630170996E+04  0.13630170996E+04  0.00000000000E+00 0.  1.
         -2   -1    0    0    0  501 -0.00000000000E+00 -0.00000000000E+00 -0.20487005919E+02  0.20487005919E+02  0.00000000000E+00 0.  1.
         25    1    1    2    0    0  0.60411043333E+02 -0.77776114356E+02  0.41522619662E+03  0.44329607767E+03  0.12000000000E+03 0.  0.
         25    1    1    2    0    0 -0.60411043333E+02  0.77776114356E+02  0.92730389710E+03  0.94020802789E+03  0.12000000000E+03 0.  0.
<mgrwt>
<rscale>  0 0.33421035E+03</rscale>
<asrwt>0</asrwt>
<pdfrwt beam="1">  1        2 0.20969487E+00 0.33421035E+03</pdfrwt>
<pdfrwt beam="2">  1       -2 0.31518481E-02 0.33421035E+03</pdfrwt>
<totfact> 0.63899909E+03</totfact>
</mgrwt>
</event>
<event>
 4    1  0.1807309E-004  0.2739742E+03  0.7818608E-02  0.1099026E+00
         -2   -1    0    0    0  501 -0.00000000000E+00  0.00000000000E+00  0.75389929354E+01  0.75389929354E+01  0.00000000000E+00 0.  1.
          2   -1    0    0  501    0  0.00000000000E+00 -0.00000000000E+00 -0.24891203750E+04  0.24891203750E+04  0.00000000000E+00 0.  1.
         25    1    1    2    0    0 -0.43316999311E+02 -0.46481687471E+02 -0.10756130636E+04  0.10841496079E+04  0.12000000000E+03 0.  0.
         25    1    1    2    0    0  0.43316999311E+02  0.46481687471E+02 -0.14059683185E+04  0.14125097601E+04  0.12000000000E+03 0.  0.
<mgrwt>
<rscale>  0 0.27397417E+03</rscale>
<asrwt>0</asrwt>
<pdfrwt beam="1">  1        2 0.38294153E+00 0.27397417E+03</pdfrwt>
<pdfrwt beam="2">  1       -2 0.11598453E-02 0.27397417E+03</pdfrwt>
<totfact> 0.69859244E+03</totfact>
</mgrwt>
</event>
<event>
 4    1  0.1807309E-004  0.3178650E+03  0.7818608E-02  0.1076636E+00
          1   -1    0    0  501    0  0.00000000000E+00  0.00000000000E+00  0.82040794257E+02  0.82040794257E+02  0.00000000000E+00 0. -1.
         -1   -1    0    0    0  501 -0.00000000000E+00 -0.00000000000E+00 -0.30789000917E+03  0.30789000917E+03  0.00000000000E+00 0. -1.
         25    1    1    2    0    0  0.57901668844E+02 -0.21994473392E+02 -0.10120197143E+02  0.13542074621E+03  0.12000000000E+03 0.  0.
         25    1    1    2    0    0 -0.57901668844E+02  0.21994473392E+02 -0.21572901777E+03  0.25451005721E+03  0.12000000000E+03 0.  0.
<mgrwt>
<rscale>  0 0.31786501E+03</rscale>
<asrwt>0</asrwt>
<pdfrwt beam="1">  1        1 0.12621661E-01 0.31786501E+03</pdfrwt>
<pdfrwt beam="2">  1       -1 0.47367693E-01 0.31786501E+03</pdfrwt>
<totfact> 0.21325400E+03</totfact>
</mgrwt>
</event>
<event>
 4    1  0.1807309E-004  0.3059002E+03  0.7818608E-02  0.1082328E+00
         -2   -1    0    0    0  501 -0.00000000000E+00  0.00000000000E+00  0.21473351048E+03  0.21473351048E+03  0.00000000000E+00 0. -1.
          2   -1    0    0  501    0  0.00000000000E+00 -0.00000000000E+00 -0.10894306378E+03  0.10894306378E+03  0.00000000000E+00 0. -1.
         25    1    1    2    0    0 -0.34137242937E+02 -0.80745918601E+02  0.14620350825E+02  0.14932852837E+03  0.12000000000E+03 0.  0.
         25    1    1    2    0    0  0.34137242937E+02  0.80745918601E+02  0.91170095876E+02  0.17434804590E+03  0.12000000000E+03 0.  0.
<mgrwt>
<rscale>  0 0.30590016E+03</rscale>
<asrwt>0</asrwt>
<pdfrwt beam="1">  1        2 0.16760471E-01 0.30590016E+03</pdfrwt>
<pdfrwt beam="2">  1       -2 0.33035925E-01 0.30590016E+03</pdfrwt>
<totfact> 0.29224361E+03</totfact>
</mgrwt>
</event>
<event>
 4    1  0.1807309E-004  0.2635806E+03  0.7818608E-02  0.1105011E+00
          3   -1    0    0  501    0  0.00000000000E+00  0.00000000000E+00  0.26427069187E+02  0.26427069187E+02  0.00000000000E+00 0.  1.
         -3   -1    0    0    0  501 -0.00000000000E+00 -0.00000000000E+00 -0.65723067090E+03  0.65723067090E+03  0.00000000000E+00 0.  1.
         25    1    1    2    0    0  0.16150298348E+01 -0.48859890374E+02 -0.25300198807E+03  0.28425323775E+03  0.12000000000E+03 0.  0.
         25    1    1    2    0    0 -0.16150298348E+01  0.48859890374E+02 -0.37780161365E+03  0.39940450233E+03  0.12000000000E+03 0.  0.
<mgrwt>
<rscale>  0 0.26358058E+03</rscale>
<asrwt>0</asrwt>
<pdfrwt beam="1">  1        3 0.40657033E-02 0.26358058E+03</pdfrwt>
<pdfrwt beam="2">  1       -3 0.10111240E+00 0.26358058E+03</pdfrwt>
<totfact> 0.70570209E+02</totfact>
</mgrwt>
</event>
<event>
 4    1  0.1807309E-004  0.2585789E+03  0.7818608E-02  0.1108000E+00
         -3   -1    0    0    0  501 -0.00000000000E+00  0.00000000000E+00  0.15886721999E+03  0.15886721999E+03  0.00000000000E+00 0. -1.
          3   -1    0    0  501    0  0.00000000000E+00 -0.00000000000E+00 -0.10521847853E+03  0.10521847853E+03  0.00000000000E+00 0. -1.
         25    1    1    2    0    0  0.30473561439E+02  0.10229654586E+02 -0.97500625873E+01  0.12461279028E+03  0.12000000000E+03 0.  0.
         25    1    1    2    0    0 -0.30473561439E+02 -0.10229654586E+02  0.63398804046E+02  0.13947290824E+03  0.12000000000E+03 0.  0.
<mgrwt>
<rscale>  0 0.25857894E+03</rscale>
<asrwt>0</asrwt>
<pdfrwt beam="1">  1        3 0.16187458E-01 0.25857894E+03</pdfrwt>
<pdfrwt beam="2">  1       -3 0.24441111E-01 0.25857894E+03</pdfrwt>
<totfact> 0.12868411E+03</totfact>
</mgrwt>
</event>
<event>
 4    1  0.1807309E-004  0.2706263E+03  0.7818608E-02  0.1100922E+00
          2   -1    0    0  501    0  0.00000000000E+00  0.00000000000E+00  0.61950563936E+03  0.61950563936E+03  0.00000000000E+00 0. -1.
         -2   -1    0    0    0  501 -0.00000000000E+00 -0.00000000000E+00 -0.29555248942E+02  0.29555248942E+02  0.00000000000E+00 0. -1.
         25    1    1    2    0    0  0.54133826458E+02 -0.29235102376E+02  0.32173402151E+03  0.34885232259E+03  0.12000000000E+03 0.  0.
         25    1    1    2    0    0 -0.54133826458E+02  0.29235102376E+02  0.26821636891E+03  0.30020856571E+03  0.12000000000E+03 0.  0.
<mgrwt>
<rscale>  0 0.27062626E+03</rscale>
<asrwt>0</asrwt>
<pdfrwt beam="1">  1        2 0.95308550E-01 0.27062626E+03</pdfrwt>
<pdfrwt beam="2">  1       -2 0.45469618E-02 0.27062626E+03</pdfrwt>
<totfact> 0.10935477E+04</totfact>
</mgrwt>
</event>
<event>
 4    1  0.1807309E-004  0.2966476E+03  0.7818608E-02  0.1086929E+00
          1   -1    0    0  501    0  0.00000000000E+00  0.00000000000E+00  0.15256654025E+03  0.15256654025E+03  0.00000000000E+00 0. -1.
         -1   -1    0    0    0  501 -0.00000000000E+00 -0.00000000000E+00 -0.14419904012E+03  0.14419904012E+03  0.00000000000E+00 0. -1.
         25    1    1    2    0    0 -0.26174297496E+02  0.81954962759E+02  0.18269083301E+02  0.14877993539E+03  0.12000000000E+03 0.  0.
         25    1    1    2    0    0  0.26174297496E+02 -0.81954962759E+02 -0.99015831663E+01  0.14798564498E+03  0.12000000000E+03 0.  0.
<mgrwt>
<rscale>  0 0.29664759E+03</rscale>
<asrwt>0</asrwt>
<pdfrwt beam="1">  1        1 0.23471776E-01 0.29664759E+03</pdfrwt>
<pdfrwt beam="2">  1       -1 0.22184468E-01 0.29664759E+03</pdfrwt>
<totfact> 0.35184189E+03</totfact>
</mgrwt>
</event>
<event>
 4    1  0.1807309E-004  0.2680379E+03  0.7818608E-02  0.1102408E+00
          2   -1    0    0  501    0  0.00000000000E+00  0.00000000000E+00  0.21947326251E+03  0.21947326251E+03  0.00000000000E+00 0. -1.
         -2   -1    0    0    0  501 -0.00000000000E+00 -0.00000000000E+00 -0.81837184008E+02  0.81837184008E+02  0.00000000000E+00 0. -1.
         25    1    1    2    0    0  0.54161344105E+02 -0.23443688274E+02  0.78747142645E+02  0.15519075420E+03  0.12000000000E+03 0.  0.
         25    1    1    2    0    0 -0.54161344105E+02  0.23443688274E+02  0.58888935852E+02  0.14611969231E+03  0.12000000000E+03 0.  0.
<mgrwt>
<rscale>  0 0.26803786E+03</rscale>
<asrwt>0</asrwt>
<pdfrwt beam="1">  1        2 0.33765117E-01 0.26803786E+03</pdfrwt>
<pdfrwt beam="2">  1       -2 0.12590336E-01 0.26803786E+03</pdfrwt>
<totfact> 0.69683334E+03</totfact>
</mgrwt>
</event>
<event>
 4    1  0.1807309E-004  0.2981744E+03  0.7818608E-02  0.1086157E+00
         -1   -1    0    0    0  501 -0.00000000000E+00  0.00000000000E+00  0.23261660016E+02  0.23261660016E+02  0.00000000000E+00 0.  1.
          1   -1    0    0  501    0  0.00000000000E+00 -0.00000000000E+00 -0.95552033876E+03  0.95552033876E+03  0.00000000000E+00 0.  1.
         25    1    1    2    0    0  0.14093062455E+00 -0.56102456951E+02 -0.24157852813E+03  0.27551350383E+03  0.12000000000E+03 0.  0.
         25    1    1    2    0    0 -0.14093062455E+00  0.56102456951E+02 -0.69068015061E+03  0.70326849495E+03  0.12000000000E+03 0.  0.
<mgrwt>
<rscale>  0 0.29817437E+03</rscale>
<asrwt>0</asrwt>
<pdfrwt beam="1">  1        1 0.14700314E+00 0.29817437E+03</pdfrwt>
<pdfrwt beam="2">  1       -1 0.35787166E-02 0.29817437E+03</pdfrwt>
<totfact> 0.50243520E+03</totfact>
</mgrwt>
</event>
<event>
 4    1  0.1807309E-004  0.3531547E+03  0.7818608E-02  0.1061328E+00
          1   -1    0    0  501    0  0.00000000000E+00  0.00000000000E+00  0.46383180909E+03  0.46383180909E+03  0.00000000000E+00 0.  1.
         -1   -1    0    0    0  501 -0.00000000000E+00 -0.00000000000E+00 -0.67221709859E+02  0.67221709859E+02  0.00000000000E+00 0.  1.
         25    1    1    2    0    0 -0.10679434971E+03  0.30058471928E+02  0.97756299195E+02  0.19043329251E+03  0.12000000000E+03 0.  0.
         25    1    1    2    0    0  0.10679434971E+03 -0.30058471928E+02  0.29885380003E+03  0.34062022644E+03  0.12000000000E+03 0.  0.
<mgrwt>
<rscale>  0 0.35315474E+03</rscale>
<asrwt>0</asrwt>
<pdfrwt beam="1">  1        1 0.71358738E-01 0.35315474E+03</pdfrwt>
<pdfrwt beam="2">  1       -1 0.10341802E-01 0.35315474E+03</pdfrwt>
<totfact> 0.28957409E+03</totfact>
</mgrwt>
</event>
<event>
 4    1  0.1807309E-004  0.2618040E+03  0.7818608E-02  0.1106064E+00
         -1   -1    0    0    0  501 -0.00000000000E+00  0.00000000000E+00  0.33121082211E+02  0.33121082211E+02  0.00000000000E+00 0.  1.
          1   -1    0    0  501    0  0.00000000000E+00 -0.00000000000E+00 -0.51735425679E+03  0.51735425679E+03  0.00000000000E+00 0.  1.
         25    1    1    2    0    0 -0.39266783316E+02  0.64348432707E+00 -0.31474203682E+03  0.33912364129E+03  0.12000000000E+03 0.  0.
         25    1    1    2    0    0  0.39266783316E+02 -0.64348432707E+00 -0.16949113776E+03  0.21135169771E+03  0.12000000000E+03 0.  0.
<mgrwt>
<rscale>  0 0.26180399E+03</rscale>
<asrwt>0</asrwt>
<pdfrwt beam="1">  1        1 0.79592970E-01 0.26180399E+03</pdfrwt>
<pdfrwt beam="2">  1       -1 0.50955506E-02 0.26180399E+03</pdfrwt>
<totfact> 0.73253027E+03</totfact>
</mgrwt>
</event>
<event>
 4    1  0.1807309E-004  0.2404474E+03  0.7818608E-02  0.1119495E+00
          2   -1    0    0  501    0  0.00000000000E+00  0.00000000000E+00  0.41874281519E+02  0.41874281519E+02  0.00000000000E+00 0. -1.
         -2   -1    0    0    0  501 -0.00000000000E+00 -0.00000000000E+00 -0.34516977218E+03  0.34516977218E+03  0.00000000000E+00 0. -1.
         25    1    1    2    0    0 -0.49052197354E+00 -0.72832702184E+01 -0.15272704345E+03  0.19436778652E+03  0.12000000000E+03 0.  0.
         25    1    1    2    0    0  0.49052197354E+00  0.72832702184E+01 -0.15056844721E+03  0.19267626717E+03  0.12000000000E+03 0.  0.
<mgrwt>
<rscale>  0 0.24044738E+03</rscale>
<asrwt>0</asrwt>
<pdfrwt beam="1">  1        2 0.64421973E-02 0.24044738E+03</pdfrwt>
<pdfrwt beam="2">  1       -2 0.53103041E-01 0.24044738E+03</pdfrwt>
<totfact> 0.37846724E+03</totfact>
</mgrwt>
</event>
<event>
 4    1  0.1807309E-004  0.3943133E+03  0.7818608E-02  0.1045767E+00
          2   -1    0    0  501    0  0.00000000000E+00  0.00000000000E+00  0.96658353974E+03  0.96658353974E+03  0.00000000000E+00 0. -1.
         -2   -1    0    0    0  501 -0.00000000000E+00 -0.00000000000E+00 -0.40214572982E+02  0.40214572982E+02  0.00000000000E+00 0. -1.
         25    1    1    2    0    0  0.54153710292E+02  0.74668345446E+02  0.14059148608E+03  0.20657674629E+03  0.12000000000E+03 0.  0.
         25    1    1    2    0    0 -0.54153710292E+02 -0.74668345446E+02  0.78577748067E+03  0.80022136643E+03  0.12000000000E+03 0.  0.
<mgrwt>
<rscale>  0 0.39431330E+03</rscale>
<asrwt>0</asrwt>
<pdfrwt beam="1">  1        2 0.14870514E+00 0.39431330E+03</pdfrwt>
<pdfrwt beam="2">  1       -2 0.61868581E-02 0.39431330E+03</pdfrwt>
<totfact> 0.39052894E+03</totfact>
</mgrwt>
</event>
<event>
 4    1  0.1807309E-004  0.2608192E+03  0.7818608E-02  0.1106652E+00
          1   -1    0    0  501    0  0.00000000000E+00  0.00000000000E+00  0.24647943795E+02  0.24647943795E+02  0.00000000000E+00 0. -1.
         -1   -1    0    0    0  501 -0.00000000000E+00 -0.00000000000E+00 -0.68998291863E+03  0.68998291863E+03  0.00000000000E+00 0. -1.
         25    1    1    2    0    0  0.23351152210E+02  0.17626270505E+02 -0.44731059029E+03  0.46405034846E+03  0.12000000000E+03 0.  0.
         25    1    1    2    0    0 -0.23351152210E+02 -0.17626270505E+02 -0.21802438454E+03  0.25058051396E+03  0.12000000000E+03 0.  0.
<mgrwt>
<rscale>  0 0.26081917E+03</rscale>
<asrwt>0</asrwt>
<pdfrwt beam="1">  1        1 0.37919916E-02 0.26081917E+03</pdfrwt>
<pdfrwt beam="2">  1       -1 0.10615121E+00 0.26081917E+03</pdfrwt>
<totfact> 0.21518948E+03</totfact>
</mgrwt>
</event>
<event>
 4    1  0.1807309E-004  0.2478513E+03  0.7818608E-02  0.1114670E+00
          2   -1    0    0  501    0  0.00000000000E+00  0.00000000000E+00  0.45094650106E+02  0.45094650106E+02  0.00000000000E+00 0.  1.
         -2   -1    0    0    0  501 -0.00000000000E+00 -0.00000000000E+00 -0.34056289865E+03  0.34056289865E+03  0.00000000000E+00 0.  1.
         25    1    1    2    0    0 -0.28317301820E+02  0.62612529637E+00 -0.12834309867E+03  0.17797250515E+03  0.12000000000E+03 0.  0.
         25    1    1    2    0    0  0.28317301820E+02 -0.62612529637E+00 -0.16712514988E+03  0.20768504361E+03  0.12000000000E+03 0.  0.
<mgrwt>
<rscale>  0 0.24785128E+03</rscale>
<asrwt>0</asrwt>
<pdfrwt beam="1">  1        2 0.69376383E-02 0.24785128E+03</pdfrwt>
<pdfrwt beam="2">  1       -2 0.52394294E-01 0.24785128E+03</pdfrwt>
<totfact> 0.35384050E+03</totfact>
</mgrwt>
</event>
<event>
 4    1  0.1807309E-004  0.3416149E+03  0.7818608E-02  0.1066110E+00
         -2   -1    0    0    0  501 -0.00000000000E+00  0.00000000000E+00  0.16636390875E+02  0.16636390875E+02  0.00000000000E+00 0.  1.
          2   -1    0    0  501    0  0.00000000000E+00 -0.00000000000E+00 -0.17536965309E+04  0.17536965309E+04  0.00000000000E+00 0.  1.
         25    1    1    2    0    0 -0.61761894923E+02  0.14685025182E+02 -0.14057119654E+04  0.14122522124E+04  0.12000000000E+03 0.  0.
         25    1    1    2    0    0  0.61761894923E+02 -0.14685025182E+02 -0.33134817456E+03  0.35808070936E+03  0.12000000000E+03 0.  0.
<mgrwt>
<rscale>  0 0.34161488E+03</rscale>
<asrwt>0</asrwt>
<pdfrwt beam="1">  1        2 0.26979948E+00 0.34161488E+03</pdfrwt>
<pdfrwt beam="2">  1       -2 0.25594446E-02 0.34161488E+03</pdfrwt>
<totfact> 0.53771536E+03</totfact>
</mgrwt>
</event>
<event>
 4    1  0.1807309E-004  0.2855743E+03  0.7818608E-02  0.1092683E+00
         -2   -1    0    0    0  501 -0.00000000000E+00  0.00000000000E+00  0.59998851482E+01  0.59998851482E+01  0.00000000000E+00 0. -1.
          2   -1    0    0  501    0  0.00000000000E+00 -0.00000000000E+00 -0.33980938134E+04  0.33980938134E+04  0.00000000000E+00 0. -1.
         25    1    1    2    0    0  0.46960330639E+02 -0.45601340977E+02 -0.12040720816E+04  0.12118062274E+04  0.12000000000E+03 0.  0.
         25    1    1    2    0    0 -0.46960330639E+02  0.45601340977E+02 -0.21880218466E+04  0.21922874712E+04  0.12000000000E+03 0.  0.
<mgrwt>
<rscale>  0 0.28557432E+03</rscale>
<asrwt>0</asrwt>
<pdfrwt beam="1">  1        2 0.52278200E+00 0.28557432E+03</pdfrwt>
<pdfrwt beam="2">  1       -2 0.92306220E-03 0.28557432E+03</pdfrwt>
<totfact> 0.28282167E+03</totfact>
</mgrwt>
</event>
<event>
 4    1  0.1807309E-004  0.2685861E+03  0.7818608E-02  0.1102092E+00
          4   -1    0    0  501    0  0.00000000000E+00  0.00000000000E+00  0.74008083844E+02  0.74008083844E+02  0.00000000000E+00 0.  1.
         -4   -1    0    0    0  501 -0.00000000000E+00 -0.00000000000E+00 -0.24368450630E+03  0.24368450630E+03  0.00000000000E+00 0.  1.
         25    1    1    2    0    0 -0.82061970790E+01  0.40438007770E+02 -0.32846675540E+02  0.13107813791E+03  0.12000000000E+03 0.  0.
         25    1    1    2    0    0  0.82061970790E+01 -0.40438007770E+02 -0.13682974692E+03  0.18661445224E+03  0.12000000000E+03 0.  0.
<mgrwt>
<rscale>  0 0.26858610E+03</rscale>
<asrwt>0</asrwt>
<pdfrwt beam="1">  1        4 0.11385859E-01 0.26858610E+03</pdfrwt>
<pdfrwt beam="2">  1       -4 0.37489924E-01 0.26858610E+03</pdfrwt>
<totfact> 0.78570585E+02</totfact>
</mgrwt>
</event>
<event>
 4    1  0.1807309E-004  0.3185756E+03  0.7818608E-02  0.1076307E+00
         -2   -1    0    0    0  501 -0.00000000000E+00  0.00000000000E+00  0.10291491864E+02  0.10291491864E+02  0.00000000000E+00 0. -1.
          2   -1    0    0  501    0  0.00000000000E+00 -0.00000000000E+00 -0.24653958610E+04  0.24653958610E+04  0.00000000000E+00 0. -1.
         25    1    1    2    0    0 -0.78116088521E+02  0.69521379070E+02 -0.12749852820E+04  0.12848824128E+04  0.12000000000E+03 0.  0.
         25    1    1    2    0    0  0.78116088521E+02 -0.69521379070E+02 -0.11801190871E+04  0.11908049401E+04  0.12000000000E+03 0.  0.
<mgrwt>
<rscale>  0 0.31857559E+03</rscale>
<asrwt>0</asrwt>
<pdfrwt beam="1">  1        2 0.37929201E+00 0.31857559E+03</pdfrwt>
<pdfrwt beam="2">  1       -2 0.15833050E-02 0.31857559E+03</pdfrwt>
<totfact> 0.45593166E+03</totfact>
</mgrwt>
</event>
<event>
 4    1  0.1807309E-004  0.3117464E+03  0.7818608E-02  0.1079512E+00
          2   -1    0    0  501    0  0.00000000000E+00  0.00000000000E+00  0.91443541778E+03  0.91443541778E+03  0.00000000000E+00 0.  1.
         -2   -1    0    0    0  501 -0.00000000000E+00 -0.00000000000E+00 -0.26569903852E+02  0.26569903852E+02  0.00000000000E+00 0.  1.
         25    1    1    2    0    0  0.59228046816E+01 -0.44930471443E+02  0.17661884974E+03  0.21828432138E+03  0.12000000000E+03 0.  0.
         25    1    1    2    0    0 -0.59228046816E+01  0.44930471443E+02  0.71124666419E+03  0.72272100025E+03  0.12000000000E+03 0.  0.
<mgrwt>
<rscale>  0 0.31174644E+03</rscale>
<asrwt>0</asrwt>
<pdfrwt beam="1">  1        2 0.14068235E+00 0.31174644E+03</pdfrwt>
<pdfrwt beam="2">  1       -2 0.40876782E-02 0.31174644E+03</pdfrwt>
<totfact> 0.79225788E+03</totfact>
</mgrwt>
</event>
<event>
 4    1  0.1807309E-004  0.4645997E+03  0.7818608E-02  0.1023456E+00
          2   -1    0    0  501    0  0.00000000000E+00  0.00000000000E+00  0.23581660583E+04  0.23581660583E+04  0.00000000000E+00 0.  1.
         -2   -1    0    0    0  501 -0.00000000000E+00 -0.00000000000E+00 -0.22883557318E+02  0.22883557318E+02  0.00000000000E+00 0.  1.
         25    1    1    2    0    0  0.67507208732E+02 -0.18053613419E+03  0.91590719228E+03  0.94362943142E+03  0.12000000000E+03 0.  0.
         25    1    1    2    0    0 -0.67507208732E+02  0.18053613419E+03  0.14193753087E+04  0.14374201842E+04  0.12000000000E+03 0.  0.
<mgrwt>
<rscale>  0 0.46459973E+03</rscale>
<asrwt>0</asrwt>
<pdfrwt beam="1">  1        2 0.36279459E+00 0.46459973E+03</pdfrwt>
<pdfrwt beam="2">  1       -2 0.35205491E-02 0.46459973E+03</pdfrwt>
<totfact> 0.15686597E+03</totfact>
</mgrwt>
</event>
<event>
 4    1  0.1807309E-004  0.4026765E+03  0.7818608E-02  0.1042857E+00
          2   -1    0    0  501    0  0.00000000000E+00  0.00000000000E+00  0.39936245450E+03  0.39936245450E+03  0.00000000000E+00 0. -1.
         -2   -1    0    0    0  501 -0.00000000000E+00 -0.00000000000E+00 -0.10150451453E+03  0.10150451453E+03  0.00000000000E+00 0. -1.
         25    1    1    2    0    0 -0.14759927631E+03 -0.64851594847E+02  0.16394894464E+03  0.25936563413E+03  0.12000000000E+03 0.  0.
         25    1    1    2    0    0  0.14759927631E+03  0.64851594847E+02  0.13390899534E+03  0.24150133489E+03  0.12000000000E+03 0.  0.
<mgrwt>
<rscale>  0 0.40267651E+03</rscale>
<asrwt>0</asrwt>
<pdfrwt beam="1">  1        2 0.61440377E-01 0.40267651E+03</pdfrwt>
<pdfrwt beam="2">  1       -2 0.15616079E-01 0.40267651E+03</pdfrwt>
<totfact> 0.25755354E+03</totfact>
</mgrwt>
</event>
<event>
 4    1  0.1807309E-004  0.2475721E+03  0.7818608E-02  0.1114849E+00
          1   -1    0    0  501    0  0.00000000000E+00  0.00000000000E+00  0.27145388265E+03  0.27145388265E+03  0.00000000000E+00 0. -1.
         -1   -1    0    0    0  501 -0.00000000000E+00 -0.00000000000E+00 -0.56447838719E+02  0.56447838719E+02  0.00000000000E+00 0. -1.
         25    1    1    2    0    0 -0.21646445042E+02 -0.81913509888E+01  0.13356911557E+03  0.18104246863E+03  0.12000000000E+03 0.  0.
         25    1    1    2    0    0  0.21646445042E+02  0.81913509888E+01  0.81436928364E+02  0.14685925274E+03  0.12000000000E+03 0.  0.
<mgrwt>
<rscale>  0 0.24757209E+03</rscale>
<asrwt>0</asrwt>
<pdfrwt beam="1">  1        1 0.41762135E-01 0.24757209E+03</pdfrwt>
<pdfrwt beam="2">  1       -1 0.86842830E-02 0.24757209E+03</pdfrwt>
<totfact> 0.74457879E+03</totfact>
</mgrwt>
</event>
<event>
 4    1  0.1807309E-004  0.3042367E+03  0.7818608E-02  0.1083142E+00
          2   -1    0    0  501    0  0.00000000000E+00  0.00000000000E+00  0.31441365513E+03  0.31441365513E+03  0.00000000000E+00 0. -1.
         -2   -1    0    0    0  501 -0.00000000000E+00 -0.00000000000E+00 -0.73597309858E+02  0.73597309858E+02  0.00000000000E+00 0. -1.
         25    1    1    2    0    0  0.81829334796E+02  0.14806564820E+01  0.17803641906E+03  0.22977205854E+03  0.12000000000E+03 0.  0.
         25    1    1    2    0    0 -0.81829334796E+02 -0.14806564820E+01  0.62779926213E+02  0.15823890644E+03  0.12000000000E+03 0.  0.
<mgrwt>
<rscale>  0 0.30423674E+03</rscale>
<asrwt>0</asrwt>
<pdfrwt beam="1">  1        2 0.48371331E-01 0.30423674E+03</pdfrwt>
<pdfrwt beam="2">  1       -2 0.11322663E-01 0.30423674E+03</pdfrwt>
<totfact> 0.56327894E+03</totfact>
</mgrwt>
</event>
<event>
 4    1  0.1807309E-004  0.2563277E+03  0.7818608E-02  0.1109370E+00
         -1   -1    0    0    0  501 -0.00000000000E+00  0.00000000000E+00  0.12529326161E+03  0.12529326161E+03  0.00000000000E+00 0. -1.
          1   -1    0    0  501    0  0.00000000000E+00 -0.00000000000E+00 -0.13110019620E+03  0.13110019620E+03  0.00000000000E+00 0. -1.
         25    1    1    2    0    0 -0.12208798614E+01  0.44825071096E+02 -0.68023684862E+01  0.12828503328E+03  0.12000000000E+03 0.  0.
         25    1    1    2    0    0  0.12208798614E+01 -0.44825071096E+02  0.99543389405E+00  0.12810842453E+03  0.12000000000E+03 0.  0.
<mgrwt>
<rscale>  0 0.25632769E+03</rscale>
<asrwt>0</asrwt>
<pdfrwt beam="1">  1        1 0.20169261E-01 0.25632769E+03</pdfrwt>
<pdfrwt beam="2">  1       -1 0.19275886E-01 0.25632769E+03</pdfrwt>
<totfact> 0.53516130E+03</totfact>
</mgrwt>
</event>
<event>
 4    1  0.1807309E-004  0.3348376E+03  0.7818608E-02  0.1069016E+00
          3   -1    0    0  501    0  0.00000000000E+00  0.00000000000E+00  0.87761741692E+03  0.87761741692E+03  0.00000000000E+00 0. -1.
         -3   -1    0    0    0  501 -0.00000000000E+00 -0.00000000000E+00 -0.31937674817E+02  0.31937674817E+02  0.00000000000E+00 0. -1.
         25    1    1    2    0    0 -0.17823134002E+01 -0.10979932421E+03  0.31520738003E+03  0.35470376466E+03  0.12000000000E+03 0.  0.
         25    1    1    2    0    0  0.17823134002E+01  0.10979932421E+03  0.53047236207E+03  0.55485132708E+03  0.12000000000E+03 0.  0.
<mgrwt>
<rscale>  0 0.33483763E+03</rscale>
<asrwt>0</asrwt>
<pdfrwt beam="1">  1        3 0.13501805E+00 0.33483763E+03</pdfrwt>
<pdfrwt beam="2">  1       -3 0.49134891E-02 0.33483763E+03</pdfrwt>
<totfact> 0.26855063E+02</totfact>
</mgrwt>
</event>
<event>
 4    1  0.1807309E-004  0.2787616E+03  0.7818608E-02  0.1096367E+00
         -3   -1    0    0    0  501 -0.00000000000E+00  0.00000000000E+00  0.12512989128E+02  0.12512989128E+02  0.00000000000E+00 0. -1.
          3   -1    0    0  501    0  0.00000000000E+00 -0.00000000000E+00 -0.15525474586E+04  0.15525474586E+04  0.00000000000E+00 0. -1.
         25    1    1    2    0    0  0.34035984542E+02  0.53688152300E+02 -0.94632368802E+03  0.95601746242E+03  0.12000000000E+03 0.  0.
         25    1    1    2    0    0 -0.34035984542E+02 -0.53688152300E+02 -0.59371078141E+03  0.60904298526E+03  0.12000000000E+03 0.  0.
<mgrwt>
<rscale>  0 0.27876161E+03</rscale>
<asrwt>0</asrwt>
<pdfrwt beam="1">  1        3 0.23885366E+00 0.27876161E+03</pdfrwt>
<pdfrwt beam="2">  1       -3 0.19250736E-02 0.27876161E+03</pdfrwt>
<totfact> 0.24431567E+02</totfact>
</mgrwt>
</event>
<event>
 4    1  0.1807309E-004  0.2794534E+03  0.7818608E-02  0.1095988E+00
          2   -1    0    0  501    0  0.00000000000E+00  0.00000000000E+00  0.17732929436E+04  0.17732929436E+04  0.00000000000E+00 0.  1.
         -2   -1    0    0    0  501 -0.00000000000E+00 -0.00000000000E+00 -0.11009770993E+02  0.11009770993E+02  0.00000000000E+00 0.  1.
         25    1    1    2    0    0 -0.64690891134E+02 -0.30393847564E+02  0.85653511108E+03  0.86784854316E+03  0.12000000000E+03 0.  0.
         25    1    1    2    0    0  0.64690891134E+02  0.30393847564E+02  0.90574806157E+03  0.91645417147E+03  0.12000000000E+03 0.  0.
<mgrwt>
<rscale>  0 0.27945339E+03</rscale>
<asrwt>0</asrwt>
<pdfrwt beam="1">  1        2 0.27281407E+00 0.27945339E+03</pdfrwt>
<pdfrwt beam="2">  1       -2 0.16938123E-02 0.27945339E+03</pdfrwt>
<totfact> 0.96527955E+03</totfact>
</mgrwt>
</event>
<event>
 4    1  0.1807309E-004  0.2628140E+03  0.7818608E-02  0.1105464E+00
          2   -1    0    0  501    0  0.00000000000E+00  0.00000000000E+00  0.23684461435E+03  0.23684461435E+03  0.00000000000E+00 0.  1.
         -2   -1    0    0    0  501 -0.00000000000E+00 -0.00000000000E+00 -0.72907721935E+02  0.72907721935E+02  0.00000000000E+00 0.  1.
         25    1    1    2    0    0  0.44218469501E+01  0.39093035771E+02  0.12478880095E+03  0.17753890565E+03  0.12000000000E+03 0.  0.
         25    1    1    2    0    0 -0.44218469501E+01 -0.39093035771E+02  0.39148091472E+02  0.13221343064E+03  0.12000000000E+03 0.  0.
<mgrwt>
<rscale>  0 0.26281401E+03</rscale>
<asrwt>0</asrwt>
<pdfrwt beam="1">  1        2 0.36437633E-01 0.26281401E+03</pdfrwt>
<pdfrwt beam="2">  1       -2 0.11216573E-01 0.26281401E+03</pdfrwt>
<totfact> 0.77232010E+03</totfact>
</mgrwt>
</event>
<event>
 4    1  0.1807309E-004  0.2692585E+03  0.7818608E-02  0.1101705E+00
         -2   -1    0    0    0  501 -0.00000000000E+00  0.00000000000E+00  0.10405310563E+02  0.10405310563E+02  0.00000000000E+00 0.  1.
          2   -1    0    0  501    0  0.00000000000E+00 -0.00000000000E+00 -0.17419022367E+04  0.17419022367E+04  0.00000000000E+00 0.  1.
         25    1    1    2    0    0  0.13757144611E+02 -0.59457506336E+02 -0.86079366326E+03  0.87125781764E+03  0.12000000000E+03 0.  0.
         25    1    1    2    0    0 -0.13757144611E+02  0.59457506336E+02 -0.87070326292E+03  0.88104972967E+03  0.12000000000E+03 0.  0.
<mgrwt>
<rscale>  0 0.26925849E+03</rscale>
<asrwt>0</asrwt>
<pdfrwt beam="1">  1        2 0.26798513E+00 0.26925849E+03</pdfrwt>
<pdfrwt beam="2">  1       -2 0.16008160E-02 0.26925849E+03</pdfrwt>
<totfact> 0.10885062E+04</totfact>
</mgrwt>
</event>
<event>
 4    1  0.1807309E-004  0.3402298E+03  0.7818608E-02  0.1066698E+00
          2   -1    0    0  501    0  0.00000000000E+00  0.00000000000E+00  0.12918548860E+04  0.12918548860E+04  0.00000000000E+00 0.  1.
         -2   -1    0    0    0  501 -0.00000000000E+00 -0.00000000000E+00 -0.22401189284E+02  0.22401189284E+02  0.00000000000E+00 0.  1.
         25    1    1    2    0    0 -0.50341669629E+02  0.13924516444E+02  0.21492023759E+03  0.25163243906E+03  0.12000000000E+03 0.  0.
         25    1    1    2    0    0  0.50341669629E+02 -0.13924516444E+02  0.10545334592E+04  0.10626236363E+04  0.12000000000E+03 0.  0.
<mgrwt>
<rscale>  0 0.34022984E+03</rscale>
<asrwt>0</asrwt>
<pdfrwt beam="1">  1        2 0.19874685E+00 0.34022984E+03</pdfrwt>
<pdfrwt beam="2">  1       -2 0.34463378E-02 0.34022984E+03</pdfrwt>
<totfact> 0.61212753E+03</totfact>
</mgrwt>
</event>
<event>
 4    1  0.1807309E-004  0.2653582E+03  0.7818608E-02  0.1103966E+00
          4   -1    0    0  501    0  0.00000000000E+00  0.00000000000E+00  0.12195477978E+03  0.12195477978E+03  0.00000000000E+00 0. -1.
         -4   -1    0    0    0  501 -0.00000000000E+00 -0.00000000000E+00 -0.14434652554E+03  0.14434652554E+03  0.00000000000E+00 0. -1.
         25    1    1    2    0    0  0.21704644579E+02  0.38838919168E+02  0.23916979253E+02  0.13019821479E+03  0.12000000000E+03 0.  0.
         25    1    1    2    0    0 -0.21704644579E+02 -0.38838919168E+02 -0.46308725016E+02  0.13610309053E+03  0.12000000000E+03 0.  0.
<mgrwt>
<rscale>  0 0.26535824E+03</rscale>
<asrwt>0</asrwt>
<pdfrwt beam="1">  1        4 0.18762274E-01 0.26535824E+03</pdfrwt>
<pdfrwt beam="2">  1       -4 0.22207158E-01 0.26535824E+03</pdfrwt>
<totfact> 0.88106029E+02</totfact>
</mgrwt>
</event>
<event>
 4    1  0.1807309E-004  0.2476406E+03  0.7818608E-02  0.1114805E+00
         -1   -1    0    0    0  501 -0.00000000000E+00  0.00000000000E+00  0.21180948470E+02  0.21180948470E+02  0.00000000000E+00 0. -1.
          1   -1    0    0  501    0  0.00000000000E+00 -0.00000000000E+00 -0.72383309154E+03  0.72383309154E+03  0.00000000000E+00 0. -1.
         25    1    1    2    0    0 -0.17066703797E+02  0.17211987884E+02 -0.40712013531E+03  0.42512860346E+03  0.12000000000E+03 0.  0.
         25    1    1    2    0    0  0.17066703797E+02 -0.17211987884E+02 -0.29553200776E+03  0.31988543655E+03  0.12000000000E+03 0.  0.
<mgrwt>
<rscale>  0 0.24764064E+03</rscale>
<asrwt>0</asrwt>
<pdfrwt beam="1">  1        1 0.11135892E+00 0.24764064E+03</pdfrwt>
<pdfrwt beam="2">  1       -1 0.32586078E-02 0.24764064E+03</pdfrwt>
<totfact> 0.88854494E+03</totfact>
</mgrwt>
</event>
<event>
 4    1  0.1807309E-004  0.2702287E+03  0.7818608E-02  0.1101149E+00
         -1   -1    0    0    0  501 -0.00000000000E+00  0.00000000000E+00  0.10416246321E+04  0.10416246321E+04  0.00000000000E+00 0. -1.
          1   -1    0    0  501    0  0.00000000000E+00 -0.00000000000E+00 -0.17526364105E+02  0.17526364105E+02  0.00000000000E+00 0. -1.
         25    1    1    2    0    0 -0.46968420526E+02  0.34764550560E+02  0.59438450615E+03  0.60918597132E+03  0.12000000000E+03 0.  0.
         25    1    1    2    0    0  0.46968420526E+02 -0.34764550560E+02  0.42971376188E+03  0.44996502492E+03  0.12000000000E+03 0.  0.
<mgrwt>
<rscale>  0 0.27022874E+03</rscale>
<asrwt>0</asrwt>
<pdfrwt beam="1">  1        1 0.26963645E-02 0.27022874E+03</pdfrwt>
<pdfrwt beam="2">  1       -1 0.16024989E+00 0.27022874E+03</pdfrwt>
<totfact> 0.12545749E+03</totfact>
</mgrwt>
</event>
<event>
 4    1  0.1807309E-004  0.3569529E+03  0.7818608E-02  0.1059797E+00
         -1   -1    0    0    0  501 -0.00000000000E+00  0.00000000000E+00  0.11151270395E+03  0.11151270395E+03  0.00000000000E+00 0.  1.
          1   -1    0    0  501    0  0.00000000000E+00 -0.00000000000E+00 -0.28565209973E+03  0.28565209973E+03  0.00000000000E+00 0.  1.
         25    1    1    2    0    0 -0.33644472294E+02 -0.79710466485E+02 -0.19815758365E+03  0.24728958114E+03  0.12000000000E+03 0.  0.
         25    1    1    2    0    0  0.33644472294E+02  0.79710466485E+02  0.24018187864E+02  0.14987522254E+03  0.12000000000E+03 0.  0.
<mgrwt>
<rscale>  0 0.35695287E+03</rscale>
<asrwt>0</asrwt>
<pdfrwt beam="1">  1        1 0.43946477E-01 0.35695287E+03</pdfrwt>
<pdfrwt beam="2">  1       -1 0.17155801E-01 0.35695287E+03</pdfrwt>
<totfact> 0.24227059E+03</totfact>
</mgrwt>
</event>
<event>
 4    1  0.1807309E-004  0.5108379E+03  0.7818608E-02  0.1010988E+00
          2   -1    0    0  501    0  0.00000000000E+00  0.00000000000E+00  0.16864214750E+04  0.16864214750E+04  0.00000000000E+00 0.  1.
         -2   -1    0    0    0  501 -0.00000000000E+00 -0.00000000000E+00 -0.38684781992E+02  0.38684781992E+02  0.00000000000E+00 0.  1.
         25    1    1    2    0    0 -0.13734507683E+03  0.16666632014E+03  0.60507766100E+03  0.65357502113E+03  0.12000000000E+03 0.  0.
         25    1    1    2    0    0  0.13734507683E+03 -0.16666632014E+03  0.10426590320E+04  0.10715312358E+04  0.12000000000E+03 0.  0.
<mgrwt>
<rscale>  0 0.51083793E+03</rscale>
<asrwt>0</asrwt>
<pdfrwt beam="1">  1        2 0.25944940E+00 0.51083793E+03</pdfrwt>
<pdfrwt beam="2">  1       -2 0.59515062E-02 0.51083793E+03</pdfrwt>
<totfact> 0.16091993E+03</totfact>
</mgrwt>
</event>
<event>
 4    1  0.1807309E-004  0.2917911E+03  0.7818608E-02  0.1089418E+00
          1   -1    0    0  501    0  0.00000000000E+00  0.00000000000E+00  0.53097092342E+03  0.53097092342E+03  0.00000000000E+00 0.  1.
         -1   -1    0    0    0  501 -0.00000000000E+00 -0.00000000000E+00 -0.40087906626E+02  0.40087906626E+02  0.00000000000E+00 0.  1.
         25    1    1    2    0    0 -0.77651679650E+02  0.28902765247E+02  0.23661084157E+03  0.27793856073E+03  0.12000000000E+03 0.  0.
         25    1    1    2    0    0  0.77651679650E+02 -0.28902765247E+02  0.25427217522E+03  0.29312026931E+03  0.12000000000E+03 0.  0.
<mgrwt>
<rscale>  0 0.29179111E+03</rscale>
<asrwt>0</asrwt>
<pdfrwt beam="1">  1        1 0.81687829E-01 0.29179111E+03</pdfrwt>
<pdfrwt beam="2">  1       -1 0.61673706E-02 0.29179111E+03</pdfrwt>
<totfact> 0.53249161E+03</totfact>
</mgrwt>
</event>
<event>
 4    1  0.1807309E-004  0.2658699E+03  0.7818608E-02  0.1103667E+00
          2   -1    0    0  501    0  0.00000000000E+00  0.00000000000E+00  0.49778413672E+03  0.49778413672E+03  0.00000000000E+00 0. -1.
         -2   -1    0    0    0  501 -0.00000000000E+00 -0.00000000000E+00 -0.35500729334E+02  0.35500729334E+02  0.00000000000E+00 0. -1.
         25    1    1    2    0    0 -0.32460621590E+02  0.18789998434E+02  0.31776266252E+03  0.34173069175E+03  0.12000000000E+03 0.  0.
         25    1    1    2    0    0  0.32460621590E+02 -0.18789998434E+02  0.14452074487E+03  0.19155417430E+03  0.12000000000E+03 0.  0.
<mgrwt>
<rscale>  0 0.26586989E+03</rscale>
<asrwt>0</asrwt>
<pdfrwt beam="1">  1        2 0.76582170E-01 0.26586989E+03</pdfrwt>
<pdfrwt beam="2">  1       -2 0.54616510E-02 0.26586989E+03</pdfrwt>
<totfact> 0.10618647E+04</totfact>
</mgrwt>
</event>
<event>
 4    1  0.1807309E-004  0.2512520E+03  0.7818608E-02  0.1112516E+00
         -2   -1    0    0    0  501 -0.00000000000E+00  0.00000000000E+00  0.11387286518E+03  0.11387286518E+03  0.00000000000E+00 0.  1.
          2   -1    0    0  501    0  0.00000000000E+00 -0.00000000000E+00 -0.13859215463E+03  0.13859215463E+03  0.00000000000E+00 0.  1.
         25    1    1    2    0    0  0.66002367272E+01  0.27529772609E+02  0.11848877514E+02  0.12386221136E+03  0.12000000000E+03 0.  0.
         25    1    1    2    0    0 -0.66002367272E+01 -0.27529772609E+02 -0.36568166969E+02  0.12860280845E+03  0.12000000000E+03 0.  0.
<mgrwt>
<rscale>  0 0.25125195E+03</rscale>
<asrwt>0</asrwt>
<pdfrwt beam="1">  1        2 0.21321870E-01 0.25125195E+03</pdfrwt>
<pdfrwt beam="2">  1       -2 0.17518902E-01 0.25125195E+03</pdfrwt>
<totfact> 0.67104310E+03</totfact>
</mgrwt>
</event>
<event>
 4    1  0.1807309E-004  0.3001384E+03  0.7818608E-02  0.1085171E+00
          2   -1    0    0  501    0  0.00000000000E+00  0.00000000000E+00  0.81882888852E+03  0.81882888852E+03  0.00000000000E+00 0.  1.
         -2   -1    0    0    0  501 -0.00000000000E+00 -0.00000000000E+00 -0.27503635122E+02  0.27503635122E+02  0.00000000000E+00 0.  1.
         25    1    1    2    0    0 -0.27998529164E+02 -0.85438068371E+02  0.37846646907E+03  0.40708776618E+03  0.12000000000E+03 0.  0.
         25    1    1    2    0    0  0.27998529164E+02  0.85438068371E+02  0.41285878433E+03  0.43924475746E+03  0.12000000000E+03 0.  0.
<mgrwt>
<rscale>  0 0.30013844E+03</rscale>
<asrwt>0</asrwt>
<pdfrwt beam="1">  1        2 0.12597366E+00 0.30013844E+03</pdfrwt>
<pdfrwt beam="2">  1       -2 0.42313291E-02 0.30013844E+03</pdfrwt>
<totfact> 0.86929902E+03</totfact>
</mgrwt>
</event>
<event>
 4    1  0.1807309E-004  0.2676608E+03  0.7818608E-02  0.1102626E+00
         -1   -1    0    0    0  501 -0.00000000000E+00  0.00000000000E+00  0.27023579278E+02  0.27023579278E+02  0.00000000000E+00 0.  1.
          1   -1    0    0  501    0  0.00000000000E+00 -0.00000000000E+00 -0.66277563721E+03  0.66277563721E+03  0.00000000000E+00 0.  1.
         25    1    1    2    0    0  0.86647384809E+01 -0.58199772161E+02 -0.33578275733E+03  0.36140330836E+03  0.12000000000E+03 0.  0.
         25    1    1    2    0    0 -0.86647384809E+01  0.58199772161E+02 -0.29996930059E+03  0.32839590812E+03  0.12000000000E+03 0.  0.
<mgrwt>
<rscale>  0 0.26766076E+03</rscale>
<asrwt>0</asrwt>
<pdfrwt beam="1">  1        1 0.10196548E+00 0.26766076E+03</pdfrwt>
<pdfrwt beam="2">  1       -1 0.41574737E-02 0.26766076E+03</pdfrwt>
<totfact> 0.70567482E+03</totfact>
</mgrwt>
</event>
<event>
 4    1  0.1807309E-004  0.3274384E+03  0.7818608E-02  0.1072276E+00
         -1   -1    0    0    0  501 -0.00000000000E+00  0.00000000000E+00  0.52712430528E+02  0.52712430528E+02  0.00000000000E+00 0. -1.
          1   -1    0    0  501    0  0.00000000000E+00 -0.00000000000E+00 -0.50849449237E+03  0.50849449237E+03  0.00000000000E+00 0. -1.
         25    1    1    2    0    0 -0.76312038446E+02  0.73939933368E+00 -0.36691934095E+03  0.39351477315E+03  0.12000000000E+03 0.  0.
         25    1    1    2    0    0  0.76312038446E+02 -0.73939933368E+00 -0.88862720893E+02  0.16769214975E+03  0.12000000000E+03 0.  0.
<mgrwt>
<rscale>  0 0.32743843E+03</rscale>
<asrwt>0</asrwt>
<pdfrwt beam="1">  1        1 0.78229924E-01 0.32743843E+03</pdfrwt>
<pdfrwt beam="2">  1       -1 0.81096045E-02 0.32743843E+03</pdfrwt>
<totfact> 0.37278162E+03</totfact>
</mgrwt>
</event>
<event>
 4    1  0.1807309E-004  0.2670024E+03  0.7818608E-02  0.1103008E+00
         -2   -1    0    0    0  501 -0.00000000000E+00  0.00000000000E+00  0.66194401776E+02  0.66194401776E+02  0.00000000000E+00 0.  1.
          2   -1    0    0  501    0  0.00000000000E+00 -0.00000000000E+00 -0.26924598754E+03  0.26924598754E+03  0.00000000000E+00 0.  1.
         25    1    1    2    0    0 -0.11381843898E+02  0.88227364416E+01 -0.30289152388E+02  0.12459863483E+03  0.12000000000E+03 0.  0.
         25    1    1    2    0    0  0.11381843898E+02 -0.88227364416E+01 -0.17276243337E+03  0.21084175448E+03  0.12000000000E+03 0.  0.
<mgrwt>
<rscale>  0 0.26700245E+03</rscale>
<asrwt>0</asrwt>
<pdfrwt beam="1">  1        2 0.41422459E-01 0.26700245E+03</pdfrwt>
<pdfrwt beam="2">  1       -2 0.10183754E-01 0.26700245E+03</pdfrwt>
<totfact> 0.78522742E+03</totfact>
</mgrwt>
</event>
<event>
 4    1  0.1807309E-004  0.2573197E+03  0.7818608E-02  0.1108764E+00
         -2   -1    0    0    0  501 -0.00000000000E+00  0.00000000000E+00  0.21217641837E+02  0.21217641837E+02  0.00000000000E+00 0. -1.
          2   -1    0    0  501    0  0.00000000000E+00 -0.00000000000E+00 -0.78016973674E+03  0.78016973674E+03  0.00000000000E+00 0. -1.
         25    1    1    2    0    0 -0.16340282005E+02 -0.42304202053E+02 -0.34884873096E+03  0.37168815884E+03  0.12000000000E+03 0.  0.
         25    1    1    2    0    0  0.16340282005E+02  0.42304202053E+02 -0.41010336394E+03  0.42969921974E+03  0.12000000000E+03 0.  0.
<mgrwt>
<rscale>  0 0.25731974E+03</rscale>
<asrwt>0</asrwt>
<pdfrwt beam="1">  1        2 0.12002613E+00 0.25731974E+03</pdfrwt>
<pdfrwt beam="2">  1       -2 0.32642523E-02 0.25731974E+03</pdfrwt>
<totfact> 0.13575034E+04</totfact>
</mgrwt>
</event>
<event>
 4    1  0.1807309E-004  0.3268402E+03  0.7818608E-02  0.1072544E+00
          2   -1    0    0  501    0  0.00000000000E+00  0.00000000000E+00  0.48043259222E+03  0.48043259222E+03  0.00000000000E+00 0. -1.
         -2   -1    0    0    0  501 -0.00000000000E+00 -0.00000000000E+00 -0.55587674163E+02  0.55587674163E+02  0.00000000000E+00 0. -1.
         25    1    1    2    0    0 -0.45838501551E+02 -0.79129365041E+02  0.10943437668E+03  0.18638269081E+03  0.12000000000E+03 0.  0.
         25    1    1    2    0    0  0.45838501551E+02  0.79129365041E+02  0.31541054138E+03  0.34963757556E+03  0.12000000000E+03 0.  0.
<mgrwt>
<rscale>  0 0.32684021E+03</rscale>
<asrwt>0</asrwt>
<pdfrwt beam="1">  1        2 0.73912704E-01 0.32684021E+03</pdfrwt>
<pdfrwt beam="2">  1       -2 0.85519502E-02 0.32684021E+03</pdfrwt>
<totfact> 0.55516981E+03</totfact>
</mgrwt>
</event>
<event>
 4    1  0.1807309E-004  0.2655030E+03  0.7818608E-02  0.1103881E+00
         -2   -1    0    0    0  501 -0.00000000000E+00  0.00000000000E+00  0.19700828166E+02  0.19700828166E+02  0.00000000000E+00 0.  1.
          2   -1    0    0  501    0  0.00000000000E+00 -0.00000000000E+00 -0.89452904957E+03  0.89452904957E+03  0.00000000000E+00 0.  1.
         25    1    1    2    0    0  0.56202790456E+02 -0.73397995470E+01 -0.44848490141E+03  0.46770859849E+03  0.12000000000E+03 0.  0.
         25    1    1    2    0    0 -0.56202790456E+02  0.73397995470E+01 -0.42634332000E+03  0.44652127924E+03  0.12000000000E+03 0.  0.
<mgrwt>
<rscale>  0 0.26550302E+03</rscale>
<asrwt>0</asrwt>
<pdfrwt beam="1">  1        2 0.13761986E+00 0.26550302E+03</pdfrwt>
<pdfrwt beam="2">  1       -2 0.30308965E-02 0.26550302E+03</pdfrwt>
<totfact> 0.12716484E+04</totfact>
</mgrwt>
</event>
<event>
 4    1  0.1807309E-004  0.2691443E+03  0.7818608E-02  0.1101770E+00
          2   -1    0    0  501    0  0.00000000000E+00  0.00000000000E+00  0.19955982035E+04  0.19955982035E+04  0.00000000000E+00 0. -1.
         -2   -1    0    0    0  501 -0.00000000000E+00 -0.00000000000E+00 -0.90748053633E+01  0.90748053633E+01  0.00000000000E+00 0. -1.
         25    1    1    2    0    0  0.28844958443E+02 -0.38925629048E+02  0.71833603409E+03  0.72989992060E+03  0.12000000000E+03 0.  0.
         25    1    1    2    0    0 -0.28844958443E+02  0.38925629048E+02  0.12681873640E+04  0.12747730882E+04  0.12000000000E+03 0.  0.
<mgrwt>
<rscale>  0 0.26914431E+03</rscale>
<asrwt>0</asrwt>
<pdfrwt beam="1">  1        2 0.30701476E+00 0.26914431E+03</pdfrwt>
<pdfrwt beam="2">  1       -2 0.13961255E-02 0.26914431E+03</pdfrwt>
<totfact> 0.97850014E+03</totfact>
</mgrwt>
</event>
<event>
 4    1  0.1807309E-004  0.3210559E+03  0.7818608E-02  0.1075164E+00
         -2   -1    0    0    0  501 -0.00000000000E+00  0.00000000000E+00  0.22929605206E+02  0.22929605206E+02  0.00000000000E+00 0.  1.
          2   -1    0    0  501    0  0.00000000000E+00 -0.00000000000E+00 -0.11238403405E+04  0.11238403405E+04  0.00000000000E+00 0.  1.
         25    1    1    2    0    0 -0.33393966287E+02  0.94825366522E+02 -0.42355548845E+03  0.45155980658E+03  0.12000000000E+03 0.  0.
         25    1    1    2    0    0  0.33393966287E+02 -0.94825366522E+02 -0.67735524686E+03  0.69521013915E+03  0.12000000000E+03 0.  0.
<mgrwt>
<rscale>  0 0.32105585E+03</rscale>
<asrwt>0</asrwt>
<pdfrwt beam="1">  1        2 0.17289851E+00 0.32105585E+03</pdfrwt>
<pdfrwt beam="2">  1       -2 0.35276317E-02 0.32105585E+03</pdfrwt>
<totfact> 0.73681326E+03</totfact>
</mgrwt>
</event>
<event>
 4    1  0.1807309E-004  0.2731376E+03  0.7818608E-02  0.1099497E+00
         -1   -1    0    0    0  501 -0.00000000000E+00  0.00000000000E+00  0.38821799574E+03  0.38821799574E+03  0.00000000000E+00 0.  1.
          1   -1    0    0  501    0  0.00000000000E+00 -0.00000000000E+00 -0.48042686563E+02  0.48042686563E+02  0.00000000000E+00 0.  1.
         25    1    1    2    0    0  0.26297267873E+02  0.57053503228E+02  0.14222146256E+03  0.19640161135E+03  0.12000000000E+03 0.  0.
         25    1    1    2    0    0 -0.26297267873E+02 -0.57053503228E+02  0.19795384661E+03  0.23985907095E+03  0.12000000000E+03 0.  0.
<mgrwt>
<rscale>  0 0.27313759E+03</rscale>
<asrwt>0</asrwt>
<pdfrwt beam="1">  1        1 0.73911828E-02 0.27313759E+03</pdfrwt>
<pdfrwt beam="2">  1       -1 0.59725843E-01 0.27313759E+03</pdfrwt>
<totfact> 0.28323036E+03</totfact>
</mgrwt>
</event>
<event>
 4    1  0.1807309E-004  0.3341434E+03  0.7818608E-02  0.1069318E+00
         -2   -1    0    0    0  501 -0.00000000000E+00  0.00000000000E+00  0.11330391722E+02  0.11330391722E+02  0.00000000000E+00 0.  1.
          2   -1    0    0  501    0  0.00000000000E+00 -0.00000000000E+00 -0.24635473836E+04  0.24635473836E+04  0.00000000000E+00 0.  1.
         25    1    1    2    0    0  0.67689716835E+02  0.42993125457E+02 -0.60277748070E+03  0.61981529332E+03  0.12000000000E+03 0.  0.
         25    1    1    2    0    0 -0.67689716835E+02 -0.42993125457E+02 -0.18494395112E+04  0.18550624820E+04  0.12000000000E+03 0.  0.
<mgrwt>
<rscale>  0 0.33414342E+03</rscale>
<asrwt>0</asrwt>
<pdfrwt beam="1">  1        2 0.37900758E+00 0.33414342E+03</pdfrwt>
<pdfrwt beam="2">  1       -2 0.17431358E-02 0.33414342E+03</pdfrwt>
<totfact> 0.39632993E+03</totfact>
</mgrwt>
</event>
<event>
 4    1  0.1807309E-004  0.3242536E+03  0.7818608E-02  0.1073708E+00
          1   -1    0    0  501    0  0.00000000000E+00  0.00000000000E+00  0.37590513377E+02  0.37590513377E+02  0.00000000000E+00 0. -1.
         -1   -1    0    0    0  501 -0.00000000000E+00 -0.00000000000E+00 -0.69924815863E+03  0.69924815863E+03  0.00000000000E+00 0. -1.
         25    1    1    2    0    0 -0.87103022039E+02  0.23405034632E+02 -0.46999202033E+03  0.49338345256E+03  0.12000000000E+03 0.  0.
         25    1    1    2    0    0  0.87103022039E+02 -0.23405034632E+02 -0.19166562492E+03  0.24345521944E+03  0.12000000000E+03 0.  0.
<mgrwt>
<rscale>  0 0.32425359E+03</rscale>
<asrwt>0</asrwt>
<pdfrwt beam="1">  1        1 0.57831559E-02 0.32425359E+03</pdfrwt>
<pdfrwt beam="2">  1       -1 0.10757664E+00 0.32425359E+03</pdfrwt>
<totfact> 0.11641214E+03</totfact>
</mgrwt>
</event>
<event>
 4    1  0.1807309E-004  0.3018750E+03  0.7818608E-02  0.1084307E+00
         -2   -1    0    0    0  501 -0.00000000000E+00  0.00000000000E+00  0.77526968115E+01  0.77526968115E+01  0.00000000000E+00 0. -1.
          2   -1    0    0  501    0  0.00000000000E+00 -0.00000000000E+00 -0.29386071505E+04  0.29386071505E+04  0.00000000000E+00 0. -1.
         25    1    1    2    0    0 -0.11886177138E+01 -0.48421611359E+02 -0.22237176674E+04  0.22274798158E+04  0.12000000000E+03 0.  0.
         25    1    1    2    0    0  0.11886177138E+01  0.48421611359E+02 -0.70713678631E+03  0.71888003158E+03  0.12000000000E+03 0.  0.
<mgrwt>
<rscale>  0 0.30187501E+03</rscale>
<asrwt>0</asrwt>
<pdfrwt beam="1">  1        2 0.45209370E+00 0.30187501E+03</pdfrwt>
<pdfrwt beam="2">  1       -2 0.11927218E-02 0.30187501E+03</pdfrwt>
<totfact> 0.37281150E+03</totfact>
</mgrwt>
</event>
<event>
 4    1  0.1807309E-004  0.3593208E+03  0.7818608E-02  0.1058853E+00
          2   -1    0    0  501    0  0.00000000000E+00  0.00000000000E+00  0.97018025233E+02  0.97018025233E+02  0.00000000000E+00 0.  1.
         -2   -1    0    0    0  501 -0.00000000000E+00 -0.00000000000E+00 -0.33269954792E+03  0.33269954792E+03  0.00000000000E+00 0.  1.
         25    1    1    2    0    0  0.14756055395E+02 -0.64529886780E+01 -0.27658022363E+03  0.30192052321E+03  0.12000000000E+03 0.  0.
         25    1    1    2    0    0 -0.14756055395E+02  0.64529886780E+01  0.40898700945E+02  0.12779704994E+03  0.12000000000E+03 0.  0.
<mgrwt>
<rscale>  0 0.35932077E+03</rscale>
<asrwt>0</asrwt>
<pdfrwt beam="1">  1        2 0.14925850E-01 0.35932077E+03</pdfrwt>
<pdfrwt beam="2">  1       -2 0.51184545E-01 0.35932077E+03</pdfrwt>
<totfact> 0.14446780E+03</totfact>
</mgrwt>
</event>
<event>
 4    1  0.1807309E-004  0.2496520E+03  0.7818608E-02  0.1113525E+00
          1   -1    0    0  501    0  0.00000000000E+00  0.00000000000E+00  0.35914574520E+02  0.35914574520E+02  0.00000000000E+00 0.  1.
         -1   -1    0    0    0  501 -0.00000000000E+00 -0.00000000000E+00 -0.43384979340E+03  0.43384979340E+03  0.00000000000E+00 0.  1.
         25    1    1    2    0    0  0.16356199422E+02  0.12707678123E+02 -0.14734925532E+03  0.19115651542E+03  0.12000000000E+03 0.  0.
         25    1    1    2    0    0 -0.16356199422E+02 -0.12707678123E+02 -0.25058596356E+03  0.27860785250E+03  0.12000000000E+03 0.  0.
<mgrwt>
<rscale>  0 0.24965200E+03</rscale>
<asrwt>0</asrwt>
<pdfrwt beam="1">  1        1 0.55253189E-02 0.24965200E+03</pdfrwt>
<pdfrwt beam="2">  1       -1 0.66746125E-01 0.24965200E+03</pdfrwt>
<totfact> 0.33915470E+03</totfact>
</mgrwt>
</event>
<event>
 4    1  0.1807309E-004  0.4088453E+03  0.7818608E-02  0.1040759E+00
          1   -1    0    0  501    0  0.00000000000E+00  0.00000000000E+00  0.16797775009E+03  0.16797775009E+03  0.00000000000E+00 0.  1.
         -1   -1    0    0    0  501 -0.00000000000E+00 -0.00000000000E+00 -0.24877478102E+03  0.24877478102E+03  0.00000000000E+00 0.  1.
         25    1    1    2    0    0 -0.20111434886E+02 -0.12909774848E+03  0.63143227792E+02  0.18830232525E+03  0.12000000000E+03 0.  0.
         25    1    1    2    0    0  0.20111434886E+02  0.12909774848E+03 -0.14394025872E+03  0.22845020586E+03  0.12000000000E+03 0.  0.
<mgrwt>
<rscale>  0 0.40884534E+03</rscale>
<asrwt>0</asrwt>
<pdfrwt beam="1">  1        1 0.25842731E-01 0.40884534E+03</pdfrwt>
<pdfrwt beam="2">  1       -1 0.38273043E-01 0.40884534E+03</pdfrwt>
<totfact> 0.12305539E+03</totfact>
</mgrwt>
</event>
<event>
 4    1  0.1807309E-004  0.3537078E+03  0.7818608E-02  0.1061103E+00
         -2   -1    0    0    0  501 -0.00000000000E+00  0.00000000000E+00  0.64346685342E+02  0.64346685342E+02  0.00000000000E+00 0.  1.
          2   -1    0    0  501    0  0.00000000000E+00 -0.00000000000E+00 -0.48607486490E+03  0.48607486490E+03  0.00000000000E+00 0.  1.
         25    1    1    2    0    0 -0.19310646700E+02  0.12646356772E+03 -0.24605406469E+03  0.30217302624E+03  0.12000000000E+03 0.  0.
         25    1    1    2    0    0  0.19310646700E+02 -0.12646356772E+03 -0.17567411486E+03  0.24824852400E+03  0.12000000000E+03 0.  0.
<mgrwt>
<rscale>  0 0.35370783E+03</rscale>
<asrwt>0</asrwt>
<pdfrwt beam="1">  1        2 0.74780748E-01 0.35370783E+03</pdfrwt>
<pdfrwt beam="2">  1       -2 0.98994901E-02 0.35370783E+03</pdfrwt>
<totfact> 0.43514024E+03</totfact>
</mgrwt>
</event>
<event>
 4    1  0.1807309E-004  0.3067102E+03  0.7818608E-02  0.1081934E+00
         -2   -1    0    0    0  501 -0.00000000000E+00  0.00000000000E+00  0.14471734569E+02  0.14471734569E+02  0.00000000000E+00 0. -1.
          2   -1    0    0  501    0  0.00000000000E+00 -0.00000000000E+00 -0.16250837770E+04  0.16250837770E+04  0.00000000000E+00 0. -1.
         25    1    1    2    0    0 -0.33522731219E+02  0.86637111860E+02 -0.68721522186E+03  0.70377164181E+03  0.12000000000E+03 0.  0.
         25    1    1    2    0    0  0.33522731219E+02 -0.86637111860E+02 -0.92339682055E+03  0.93578386974E+03  0.12000000000E+03 0.  0.
<mgrwt>
<rscale>  0 0.30671016E+03</rscale>
<asrwt>0</asrwt>
<pdfrwt beam="1">  1        2 0.25001289E+00 0.30671016E+03</pdfrwt>
<pdfrwt beam="2">  1       -2 0.22264207E-02 0.30671016E+03</pdfrwt>
<totfact> 0.77352367E+03</totfact>
</mgrwt>
</event>
<event>
 4    1  0.1807309E-004  0.3049027E+03  0.7818608E-02  0.1082815E+00
          1   -1    0    0  501    0  0.00000000000E+00  0.00000000000E+00  0.43252035987E+03  0.43252035987E+03  0.00000000000E+00 0.  1.
         -1   -1    0    0    0  501 -0.00000000000E+00 -0.00000000000E+00 -0.53734831890E+02  0.53734831890E+02  0.00000000000E+00 0.  1.
         25    1    1    2    0    0 -0.34172010021E+02  0.87627674147E+01  0.32839479131E+03  0.35140809797E+03  0.12000000000E+03 0.  0.
         25    1    1    2    0    0  0.34172010021E+02 -0.87627674147E+01  0.50390736677E+02  0.13484709379E+03  0.12000000000E+03 0.  0.
<mgrwt>
<rscale>  0 0.30490267E+03</rscale>
<asrwt>0</asrwt>
<pdfrwt beam="1">  1        1 0.66541592E-01 0.30490267E+03</pdfrwt>
<pdfrwt beam="2">  1       -1 0.82668975E-02 0.30490267E+03</pdfrwt>
<totfact> 0.44748013E+03</totfact>
</mgrwt>
</event>
<event>
 4    1  0.1807309E-004  0.3131690E+03  0.7818608E-02  0.1078837E+00
         -2   -1    0    0    0  501 -0.00000000000E+00  0.00000000000E+00  0.95144498430E+02  0.95144498430E+02  0.00000000000E+00 0.  1.
          2   -1    0    0  501    0  0.00000000000E+00 -0.00000000000E+00 -0.25769971539E+03  0.25769971539E+03  0.00000000000E+00 0.  1.
         25    1    1    2    0    0 -0.77428289747E+02 -0.63666028519E+02 -0.71837126378E+02  0.17207287981E+03  0.12000000000E+03 0.  0.
         25    1    1    2    0    0  0.77428289747E+02  0.63666028519E+02 -0.90718090581E+02  0.18077133401E+03  0.12000000000E+03 0.  0.
<mgrwt>
<rscale>  0 0.31316903E+03</rscale>
<asrwt>0</asrwt>
<pdfrwt beam="1">  1        2 0.39646110E-01 0.31316903E+03</pdfrwt>
<pdfrwt beam="2">  1       -2 0.14637615E-01 0.31316903E+03</pdfrwt>
<totfact> 0.45973696E+03</totfact>
</mgrwt>
</event>
<event>
 4    1  0.1807309E-004  0.2790238E+03  0.7818608E-02  0.1096223E+00
          2   -1    0    0  501    0  0.00000000000E+00  0.00000000000E+00  0.17006312038E+03  0.17006312038E+03  0.00000000000E+00 0. -1.
         -2   -1    0    0    0  501 -0.00000000000E+00 -0.00000000000E+00 -0.11444909749E+03  0.11444909749E+03  0.00000000000E+00 0. -1.
         25    1    1    2    0    0 -0.67551706648E+02 -0.24895201716E+01  0.51405037502E+01  0.13782545324E+03  0.12000000000E+03 0.  0.
         25    1    1    2    0    0  0.67551706648E+02  0.24895201716E+01  0.50473519141E+02  0.14668676462E+03  0.12000000000E+03 0.  0.
<mgrwt>
<rscale>  0 0.27902380E+03</rscale>
<asrwt>0</asrwt>
<pdfrwt beam="1">  1        2 0.26163557E-01 0.27902380E+03</pdfrwt>
<pdfrwt beam="2">  1       -2 0.17607553E-01 0.27902380E+03</pdfrwt>
<totfact> 0.53085681E+03</totfact>
</mgrwt>
</event>
<event>
 4    1  0.1807309E-004  0.3104570E+03  0.7818608E-02  0.1080127E+00
         -2   -1    0    0    0  501 -0.00000000000E+00  0.00000000000E+00  0.12701789989E+02  0.12701789989E+02  0.00000000000E+00 0.  1.
          2   -1    0    0  501    0  0.00000000000E+00 -0.00000000000E+00 -0.18970468155E+04  0.18970468155E+04  0.00000000000E+00 0.  1.
         25    1    1    2    0    0 -0.98156588354E+01 -0.96371786642E+02 -0.10508318891E+04  0.10620882861E+04  0.12000000000E+03 0.  0.
         25    1    1    2    0    0  0.98156588354E+01  0.96371786642E+02 -0.83351313638E+03  0.84766031931E+03  0.12000000000E+03 0.  0.
<mgrwt>
<rscale>  0 0.31045702E+03</rscale>
<asrwt>0</asrwt>
<pdfrwt beam="1">  1        2 0.29185318E+00 0.31045702E+03</pdfrwt>
<pdfrwt beam="2">  1       -2 0.19541227E-02 0.31045702E+03</pdfrwt>
<totfact> 0.67382975E+03</totfact>
</mgrwt>
</event>
<event>
 4    1  0.1807309E-004  0.2485829E+03  0.7818608E-02  0.1114204E+00
         -2   -1    0    0    0  501 -0.00000000000E+00  0.00000000000E+00  0.14712433843E+02  0.14712433843E+02  0.00000000000E+00 0.  1.
          2   -1    0    0  501    0  0.00000000000E+00 -0.00000000000E+00 -0.10500214115E+04  0.10500214115E+04  0.00000000000E+00 0.  1.
         25    1    1    2    0    0 -0.17300559894E+01  0.18918053867E+02 -0.40534893292E+03  0.42316503078E+03  0.12000000000E+03 0.  0.
         25    1    1    2    0    0  0.17300559894E+01 -0.18918053867E+02 -0.62996004477E+03  0.64156881460E+03  0.12000000000E+03 0.  0.
<mgrwt>
<rscale>  0 0.24858295E+03</rscale>
<asrwt>0</asrwt>
<pdfrwt beam="1">  1        2 0.16154174E+00 0.24858295E+03</pdfrwt>
<pdfrwt beam="2">  1       -2 0.22634516E-02 0.24858295E+03</pdfrwt>
<totfact> 0.15648278E+04</totfact>
</mgrwt>
</event>
<event>
 4    1  0.1807309E-004  0.2463442E+03  0.7818608E-02  0.1115637E+00
         -1   -1    0    0    0  501 -0.00000000000E+00  0.00000000000E+00  0.84930764190E+02  0.84930764190E+02  0.00000000000E+00 0. -1.
          1   -1    0    0  501    0  0.00000000000E+00 -0.00000000000E+00 -0.17863215444E+03  0.17863215444E+03  0.00000000000E+00 0. -1.
         25    1    1    2    0    0 -0.21660465450E+02  0.13061871681E+02 -0.34578219343E+02  0.12741837194E+03  0.12000000000E+03 0.  0.
         25    1    1    2    0    0  0.21660465450E+02 -0.13061871681E+02 -0.59123170910E+02  0.13614454669E+03  0.12000000000E+03 0.  0.
<mgrwt>
<rscale>  0 0.24634419E+03</rscale>
<asrwt>0</asrwt>
<pdfrwt beam="1">  1        1 0.27481869E-01 0.24634419E+03</pdfrwt>
<pdfrwt beam="2">  1       -1 0.13066272E-01 0.24634419E+03</pdfrwt>
<totfact> 0.66881744E+03</totfact>
</mgrwt>
</event>
<event>
 4    1  0.1807309E-004  0.3215044E+03  0.7818608E-02  0.1074959E+00
          2   -1    0    0  501    0  0.00000000000E+00  0.00000000000E+00  0.93303004492E+03  0.93303004492E+03  0.00000000000E+00 0. -1.
         -2   -1    0    0    0  501 -0.00000000000E+00 -0.00000000000E+00 -0.27696077322E+02  0.27696077322E+02  0.00000000000E+00 0. -1.
         25    1    1    2    0    0 -0.42334562665E+02  0.42517963587E+02  0.71727691174E+03  0.72971649327E+03  0.12000000000E+03 0.  0.
         25    1    1    2    0    0  0.42334562665E+02 -0.42517963587E+02  0.18805705586E+03  0.23100962898E+03  0.12000000000E+03 0.  0.
<mgrwt>
<rscale>  0 0.32150442E+03</rscale>
<asrwt>0</asrwt>
<pdfrwt beam="1">  1        2 0.14354306E+00 0.32150442E+03</pdfrwt>
<pdfrwt beam="2">  1       -2 0.42609357E-02 0.32150442E+03</pdfrwt>
<totfact> 0.72439248E+03</totfact>
</mgrwt>
</event>
<event>
 4    1  0.1807309E-004  0.3406873E+03  0.7818608E-02  0.1066504E+00
         -2   -1    0    0    0  501 -0.00000000000E+00  0.00000000000E+00  0.54805902349E+03  0.54805902349E+03  0.00000000000E+00 0.  1.
          2   -1    0    0  501    0  0.00000000000E+00 -0.00000000000E+00 -0.52944963795E+02  0.52944963795E+02  0.00000000000E+00 0.  1.
         25    1    1    2    0    0  0.31965689980E+02  0.11352615988E+03  0.29446235111E+03  0.33914314166E+03  0.12000000000E+03 0.  0.
         25    1    1    2    0    0 -0.31965689980E+02 -0.11352615988E+03  0.20065170858E+03  0.26186084563E+03  0.12000000000E+03 0.  0.
<mgrwt>
<rscale>  0 0.34068734E+03</rscale>
<asrwt>0</asrwt>
<pdfrwt beam="1">  1        2 0.81453794E-02 0.34068734E+03</pdfrwt>
<pdfrwt beam="2">  1       -2 0.84316769E-01 0.34068734E+03</pdfrwt>
<totfact> 0.10579714E+03</totfact>
</mgrwt>
</event>
<event>
 4    1  0.1807309E-004  0.2895743E+03  0.7818608E-02  0.1090572E+00
          1   -1    0    0  501    0  0.00000000000E+00  0.00000000000E+00  0.11338567499E+03  0.11338567499E+03  0.00000000000E+00 0. -1.
         -1   -1    0    0    0  501 -0.00000000000E+00 -0.00000000000E+00 -0.18488511985E+03  0.18488511985E+03  0.00000000000E+00 0. -1.
         25    1    1    2    0    0 -0.51903124153E+02  0.56651780970E+02 -0.92884157423E+01  0.14279227308E+03  0.12000000000E+03 0.  0.
         25    1    1    2    0    0  0.51903124153E+02 -0.56651780970E+02 -0.62211029125E+02  0.15547852176E+03  0.12000000000E+03 0.  0.
<mgrwt>
<rscale>  0 0.28957434E+03</rscale>
<asrwt>0</asrwt>
<pdfrwt beam="1">  1        1 0.17443950E-01 0.28957434E+03</pdfrwt>
<pdfrwt beam="2">  1       -1 0.28443865E-01 0.28957434E+03</pdfrwt>
<totfact> 0.34075686E+03</totfact>
</mgrwt>
</event>
<event>
 4    1  0.1807309E-004  0.2529479E+03  0.7818608E-02  0.1111456E+00
          2   -1    0    0  501    0  0.00000000000E+00  0.00000000000E+00  0.16257649925E+04  0.16257649925E+04  0.00000000000E+00 0.  1.
         -2   -1    0    0    0  501 -0.00000000000E+00 -0.00000000000E+00 -0.98388504521E+01  0.98388504521E+01  0.00000000000E+00 0.  1.
         25    1    1    2    0    0 -0.18723557784E+02 -0.25057219114E+02  0.96860837623E+03  0.97651452746E+03  0.12000000000E+03 0.  0.
         25    1    1    2    0    0  0.18723557784E+02  0.25057219114E+02  0.64731776577E+03  0.65908931544E+03  0.12000000000E+03 0.  0.
<mgrwt>
<rscale>  0 0.25294789E+03</rscale>
<asrwt>0</asrwt>
<pdfrwt beam="1">  1        2 0.25011748E+00 0.25294789E+03</pdfrwt>
<pdfrwt beam="2">  1       -2 0.15136706E-02 0.25294789E+03</pdfrwt>
<totfact> 0.13579307E+04</totfact>
</mgrwt>
</event>
<event>
 4    1  0.1807309E-004  0.2600401E+03  0.7818608E-02  0.1107119E+00
         -1   -1    0    0    0  501 -0.00000000000E+00  0.00000000000E+00  0.14024602318E+03  0.14024602318E+03  0.00000000000E+00 0. -1.
          1   -1    0    0  501    0  0.00000000000E+00 -0.00000000000E+00 -0.12053968054E+03  0.12053968054E+03  0.00000000000E+00 0. -1.
         25    1    1    2    0    0  0.28372869147E+02  0.32618426031E+02 -0.15442741678E+02  0.12848135931E+03  0.12000000000E+03 0.  0.
         25    1    1    2    0    0 -0.28372869147E+02 -0.32618426031E+02  0.35149084312E+02  0.13230434440E+03  0.12000000000E+03 0.  0.
<mgrwt>
<rscale>  0 0.26004008E+03</rscale>
<asrwt>0</asrwt>
<pdfrwt beam="1">  1        1 0.18544566E-01 0.26004008E+03</pdfrwt>
<pdfrwt beam="2">  1       -1 0.21576311E-01 0.26004008E+03</pdfrwt>
<totfact> 0.49668988E+03</totfact>
</mgrwt>
</event>
<event>
 4    1  0.1807309E-004  0.4091504E+03  0.7818608E-02  0.1040656E+00
          1   -1    0    0  501    0  0.00000000000E+00  0.00000000000E+00  0.50018972986E+03  0.50018972986E+03  0.00000000000E+00 0.  1.
         -1   -1    0    0    0  501 -0.00000000000E+00 -0.00000000000E+00 -0.83670261093E+02  0.83670261093E+02  0.00000000000E+00 0.  1.
         25    1    1    2    0    0  0.54769278587E+02  0.15407088866E+03  0.17014257437E+03  0.26473762147E+03  0.12000000000E+03 0.  0.
         25    1    1    2    0    0 -0.54769278587E+02 -0.15407088866E+03  0.24637689440E+03  0.31912236948E+03  0.12000000000E+03 0.  0.
<mgrwt>
<rscale>  0 0.40915036E+03</rscale>
<asrwt>0</asrwt>
<pdfrwt beam="1">  1        1 0.76952264E-01 0.40915036E+03</pdfrwt>
<pdfrwt beam="2">  1       -1 0.12872348E-01 0.40915036E+03</pdfrwt>
<totfact> 0.18582579E+03</totfact>
</mgrwt>
</event>
<event>
 4    1  0.1807309E-004  0.2990639E+03  0.7818608E-02  0.1085709E+00
          2   -1    0    0  501    0  0.00000000000E+00  0.00000000000E+00  0.16992651453E+03  0.16992651453E+03  0.00000000000E+00 0.  1.
         -2   -1    0    0    0  501 -0.00000000000E+00 -0.00000000000E+00 -0.13158515973E+03  0.13158515973E+03  0.00000000000E+00 0.  1.
         25    1    1    2    0    0 -0.33500571865E+02 -0.82293179036E+02  0.27320896803E+02  0.15179224958E+03  0.12000000000E+03 0.  0.
         25    1    1    2    0    0  0.33500571865E+02  0.82293179036E+02  0.11020458001E+02  0.14971942468E+03  0.12000000000E+03 0.  0.
<mgrwt>
<rscale>  0 0.29906392E+03</rscale>
<asrwt>0</asrwt>
<pdfrwt beam="1">  1        2 0.26142541E-01 0.29906392E+03</pdfrwt>
<pdfrwt beam="2">  1       -2 0.20243871E-01 0.29906392E+03</pdfrwt>
<totfact> 0.42003309E+03</totfact>
</mgrwt>
</event>
<event>
 4    1  0.1807309E-004  0.2983629E+03  0.7818608E-02  0.1086062E+00
         -2   -1    0    0    0  501 -0.00000000000E+00  0.00000000000E+00  0.12293612853E+02  0.12293612853E+02  0.00000000000E+00 0.  1.
          2   -1    0    0  501    0  0.00000000000E+00 -0.00000000000E+00 -0.18102979420E+04  0.18102979420E+04  0.00000000000E+00 0.  1.
         25    1    1    2    0    0 -0.37160354600E+02 -0.54343554340E+02 -0.12614761537E+04  0.12688798998E+04  0.12000000000E+03 0.  0.
         25    1    1    2    0    0  0.37160354600E+02  0.54343554340E+02 -0.53652817542E+03  0.55371165499E+03  0.12000000000E+03 0.  0.
<mgrwt>
<rscale>  0 0.29836288E+03</rscale>
<asrwt>0</asrwt>
<pdfrwt beam="1">  1        2 0.27850739E+00 0.29836288E+03</pdfrwt>
<pdfrwt beam="2">  1       -2 0.18913250E-02 0.29836288E+03</pdfrwt>
<totfact> 0.78538606E+03</totfact>
</mgrwt>
</event>
<event>
 4    1  0.1807309E-004  0.2752956E+03  0.7818608E-02  0.1098286E+00
          1   -1    0    0  501    0  0.00000000000E+00  0.00000000000E+00  0.10529401884E+04  0.10529401884E+04  0.00000000000E+00 0. -1.
         -1   -1    0    0    0  501 -0.00000000000E+00 -0.00000000000E+00 -0.17994299045E+02  0.17994299045E+02  0.00000000000E+00 0. -1.
         25    1    1    2    0    0 -0.52624912003E+02 -0.42103627993E+02  0.50892902667E+03  0.52721044284E+03  0.12000000000E+03 0.  0.
         25    1    1    2    0    0  0.52624912003E+02  0.42103627993E+02  0.52601686272E+03  0.54372404464E+03  0.12000000000E+03 0.  0.
<mgrwt>
<rscale>  0 0.27529563E+03</rscale>
<asrwt>0</asrwt>
<pdfrwt beam="1">  1        1 0.16199075E+00 0.27529563E+03</pdfrwt>
<pdfrwt beam="2">  1       -1 0.27683545E-02 0.27529563E+03</pdfrwt>
<totfact> 0.62010865E+03</totfact>
</mgrwt>
</event>
<event>
 4    1  0.1807309E-004  0.3550918E+03  0.7818608E-02  0.1060544E+00
         -2   -1    0    0    0  501 -0.00000000000E+00  0.00000000000E+00  0.48702420119E+02  0.48702420119E+02  0.00000000000E+00 0. -1.
          2   -1    0    0  501    0  0.00000000000E+00 -0.00000000000E+00 -0.64724793650E+03  0.64724793650E+03  0.00000000000E+00 0. -1.
         25    1    1    2    0    0  0.11638872556E+02 -0.76442943478E+02 -0.92377985711E+02  0.17003728769E+03  0.12000000000E+03 0.  0.
         25    1    1    2    0    0 -0.11638872556E+02  0.76442943478E+02 -0.50616753067E+03  0.52591306892E+03  0.12000000000E+03 0.  0.
<mgrwt>
<rscale>  0 0.35509177E+03</rscale>
<asrwt>0</asrwt>
<pdfrwt beam="1">  1        2 0.99576599E-01 0.35509177E+03</pdfrwt>
<pdfrwt beam="2">  1       -2 0.74926805E-02 0.35509177E+03</pdfrwt>
<totfact> 0.48537447E+03</totfact>
</mgrwt>
</event>
<event>
 4    1  0.1807309E-004  0.2999534E+03  0.7818608E-02  0.1085264E+00
          1   -1    0    0  501    0  0.00000000000E+00  0.00000000000E+00  0.27540247729E+03  0.27540247729E+03  0.00000000000E+00 0.  1.
         -1   -1    0    0    0  501 -0.00000000000E+00 -0.00000000000E+00 -0.81673243749E+02  0.81673243749E+02  0.00000000000E+00 0.  1.
         25    1    1    2    0    0  0.88805245514E+02 -0.11254810636E+02  0.86218934967E+02  0.17276211141E+03  0.12000000000E+03 0.  0.
         25    1    1    2    0    0 -0.88805245514E+02  0.11254810636E+02  0.10751029857E+03  0.18431360962E+03  0.12000000000E+03 0.  0.
<mgrwt>
<rscale>  0 0.29995342E+03</rscale>
<asrwt>0</asrwt>
<pdfrwt beam="1">  1        1 0.42369612E-01 0.29995342E+03</pdfrwt>
<pdfrwt beam="2">  1       -1 0.12565115E-01 0.29995342E+03</pdfrwt>
<totfact> 0.41513760E+03</totfact>
</mgrwt>
</event>
<event>
 4    1  0.1807309E-004  0.3162774E+03  0.7818608E-02  0.1077375E+00
          1   -1    0    0  501    0  0.00000000000E+00  0.00000000000E+00  0.11060224601E+03  0.11060224601E+03  0.00000000000E+00 0. -1.
         -1   -1    0    0    0  501 -0.00000000000E+00 -0.00000000000E+00 -0.22610620358E+03  0.22610620358E+03  0.00000000000E+00 0. -1.
         25    1    1    2    0    0 -0.57173980920E+02 -0.50128497978E+02  0.16205998520E+02  0.14298379206E+03  0.12000000000E+03 0.  0.
         25    1    1    2    0    0  0.57173980920E+02  0.50128497978E+02 -0.13170995609E+03  0.19372465753E+03  0.12000000000E+03 0.  0.
<mgrwt>
<rscale>  0 0.31627743E+03</rscale>
<asrwt>0</asrwt>
<pdfrwt beam="1">  1        1 0.17015730E-01 0.31627743E+03</pdfrwt>
<pdfrwt beam="2">  1       -1 0.34785570E-01 0.31627743E+03</pdfrwt>
<totfact> 0.24962645E+03</totfact>
</mgrwt>
</event>
<event>
 4    1  0.1807309E-004  0.2550380E+03  0.7818608E-02  0.1110162E+00
         -2   -1    0    0    0  501 -0.00000000000E+00  0.00000000000E+00  0.87388992949E+01  0.87388992949E+01  0.00000000000E+00 0. -1.
          2   -1    0    0  501    0  0.00000000000E+00 -0.00000000000E+00 -0.18607716833E+04  0.18607716833E+04  0.00000000000E+00 0. -1.
         25    1    1    2    0    0 -0.28720320213E+02  0.10841839835E+02 -0.70383459427E+03  0.71465064079E+03  0.12000000000E+03 0.  0.
         25    1    1    2    0    0  0.28720320213E+02 -0.10841839835E+02 -0.11481981897E+04  0.11548599418E+04  0.12000000000E+03 0.  0.
<mgrwt>
<rscale>  0 0.25503801E+03</rscale>
<asrwt>0</asrwt>
<pdfrwt beam="1">  1        2 0.28627294E+00 0.25503801E+03</pdfrwt>
<pdfrwt beam="2">  1       -2 0.13444443E-02 0.25503801E+03</pdfrwt>
<totfact> 0.12155491E+04</totfact>
</mgrwt>
</event>
<event>
 4    1  0.1807309E-004  0.3642090E+03  0.7818608E-02  0.1056930E+00
         -1   -1    0    0    0  501 -0.00000000000E+00  0.00000000000E+00  0.40997320304E+02  0.40997320304E+02  0.00000000000E+00 0. -1.
          1   -1    0    0  501    0  0.00000000000E+00 -0.00000000000E+00 -0.80888341466E+03  0.80888341466E+03  0.00000000000E+00 0. -1.
         25    1    1    2    0    0  0.48813186013E+01  0.13287264545E+03 -0.30714704522E+03  0.35555347638E+03  0.12000000000E+03 0.  0.
         25    1    1    2    0    0 -0.48813186013E+01 -0.13287264545E+03 -0.46073904913E+03  0.49432725858E+03  0.12000000000E+03 0.  0.
<mgrwt>
<rscale>  0 0.36420902E+03</rscale>
<asrwt>0</asrwt>
<pdfrwt beam="1">  1        1 0.12444360E+00 0.36420902E+03</pdfrwt>
<pdfrwt beam="2">  1       -1 0.63072803E-02 0.36420902E+03</pdfrwt>
<totfact> 0.28135762E+03</totfact>
</mgrwt>
</event>
<event>
 4    1  0.1807309E-004  0.3767222E+03  0.7818608E-02  0.1052152E+00
          2   -1    0    0  501    0  0.00000000000E+00  0.00000000000E+00  0.11169764691E+04  0.11169764691E+04  0.00000000000E+00 0. -1.
         -2   -1    0    0    0  501 -0.00000000000E+00 -0.00000000000E+00 -0.31764233957E+02  0.31764233957E+02  0.00000000000E+00 0. -1.
         25    1    1    2    0    0  0.25471767538E+02  0.44808394648E+02  0.12871652527E+03  0.18336997314E+03  0.12000000000E+03 0.  0.
         25    1    1    2    0    0 -0.25471767538E+02 -0.44808394648E+02  0.95649570991E+03  0.96537072995E+03  0.12000000000E+03 0.  0.
<mgrwt>
<rscale>  0 0.37672219E+03</rscale>
<asrwt>0</asrwt>
<pdfrwt beam="1">  1        2 0.17184250E+00 0.37672219E+03</pdfrwt>
<pdfrwt beam="2">  1       -2 0.48868061E-02 0.37672219E+03</pdfrwt>
<totfact> 0.45453084E+03</totfact>
</mgrwt>
</event>
<event>
 4    1  0.1807309E-004  0.3262023E+03  0.7818608E-02  0.1072830E+00
          1   -1    0    0  501    0  0.00000000000E+00  0.00000000000E+00  0.77851593268E+03  0.77851593268E+03  0.00000000000E+00 0. -1.
         -1   -1    0    0    0  501 -0.00000000000E+00 -0.00000000000E+00 -0.34170113997E+02  0.34170113997E+02  0.00000000000E+00 0. -1.
         25    1    1    2    0    0  0.15950337096E+02 -0.39353519263E+02  0.11811728117E+03  0.17365138883E+03  0.12000000000E+03 0.  0.
         25    1    1    2    0    0 -0.15950337096E+02  0.39353519263E+02  0.62622853752E+03  0.63903465785E+03  0.12000000000E+03 0.  0.
<mgrwt>
<rscale>  0 0.32620226E+03</rscale>
<asrwt>0</asrwt>
<pdfrwt beam="1">  1        1 0.11977167E+00 0.32620226E+03</pdfrwt>
<pdfrwt beam="2">  1       -1 0.52569412E-02 0.32620226E+03</pdfrwt>
<totfact> 0.39303416E+03</totfact>
</mgrwt>
</event>
<event>
 4    1  0.1807309E-004  0.5211094E+03  0.7818608E-02  0.1008411E+00
         -2   -1    0    0    0  501 -0.00000000000E+00  0.00000000000E+00  0.55728098552E+03  0.55728098552E+03  0.00000000000E+00 0.  1.
          2   -1    0    0  501    0  0.00000000000E+00 -0.00000000000E+00 -0.12182140893E+03  0.12182140893E+03  0.00000000000E+00 0.  1.
         25    1    1    2    0    0 -0.15056257854E+03 -0.17438125131E+03  0.24414443442E+03  0.35648901207E+03  0.12000000000E+03 0.  0.
         25    1    1    2    0    0  0.15056257854E+03  0.17438125131E+03  0.19131514217E+03  0.32261338238E+03  0.12000000000E+03 0.  0.
<mgrwt>
<rscale>  0 0.52110941E+03</rscale>
<asrwt>0</asrwt>
<pdfrwt beam="1">  1        2 0.18741756E-01 0.52110941E+03</pdfrwt>
<pdfrwt beam="2">  1       -2 0.85735535E-01 0.52110941E+03</pdfrwt>
<totfact> 0.36637485E+02</totfact>
</mgrwt>
</event>
<event>
 4    1  0.1807309E-004  0.3199092E+03  0.7818608E-02  0.1075691E+00
         -2   -1    0    0    0  501 -0.00000000000E+00  0.00000000000E+00  0.10704372928E+02  0.10704372928E+02  0.00000000000E+00 0.  1.
          2   -1    0    0  501    0  0.00000000000E+00 -0.00000000000E+00 -0.23901884476E+04  0.23901884476E+04  0.00000000000E+00 0.  1.
         25    1    1    2    0    0 -0.93511514657E+02 -0.37057185707E+02 -0.94449872402E+03  0.95738992999E+03  0.12000000000E+03 0.  0.
         25    1    1    2    0    0  0.93511514657E+02  0.37057185707E+02 -0.14349853507E+04  0.14435028906E+04  0.12000000000E+03 0.  0.
<mgrwt>
<rscale>  0 0.31990917E+03</rscale>
<asrwt>0</asrwt>
<pdfrwt beam="1">  1        2 0.36772130E+00 0.31990917E+03</pdfrwt>
<pdfrwt beam="2">  1       -2 0.16468266E-02 0.31990917E+03</pdfrwt>
<totfact> 0.47297243E+03</totfact>
</mgrwt>
</event>
<event>
 4    1  0.1807309E-004  0.2404981E+03  0.7818608E-02  0.1119461E+00
         -2   -1    0    0    0  501 -0.00000000000E+00  0.00000000000E+00  0.22323477181E+02  0.22323477181E+02  0.00000000000E+00 0. -1.
          2   -1    0    0  501    0  0.00000000000E+00 -0.00000000000E+00 -0.64774096633E+03  0.64774096633E+03  0.00000000000E+00 0. -1.
         25    1    1    2    0    0  0.76719432309E+01  0.27219426517E+00 -0.31006868503E+03  0.33256807159E+03  0.12000000000E+03 0.  0.
         25    1    1    2    0    0 -0.76719432309E+01 -0.27219426517E+00 -0.31534880412E+03  0.33749637192E+03  0.12000000000E+03 0.  0.
<mgrwt>
<rscale>  0 0.24049807E+03</rscale>
<asrwt>0</asrwt>
<pdfrwt beam="1">  1        2 0.99652434E-01 0.24049807E+03</pdfrwt>
<pdfrwt beam="2">  1       -2 0.34343819E-02 0.24049807E+03</pdfrwt>
<totfact> 0.15733331E+04</totfact>
</mgrwt>
</event>
<event>
 4    1  0.1807309E-004  0.2835085E+03  0.7818608E-02  0.1093788E+00
         -2   -1    0    0    0  501 -0.00000000000E+00  0.00000000000E+00  0.21532996343E+02  0.21532996343E+02  0.00000000000E+00 0. -1.
          2   -1    0    0  501    0  0.00000000000E+00 -0.00000000000E+00 -0.93318472206E+03  0.93318472206E+03  0.00000000000E+00 0. -1.
         25    1    1    2    0    0 -0.25464503250E+02 -0.26840107380E+02 -0.23435141189E+03  0.26587481367E+03  0.12000000000E+03 0.  0.
         25    1    1    2    0    0  0.25464503250E+02  0.26840107380E+02 -0.67730031383E+03  0.68884290473E+03  0.12000000000E+03 0.  0.
<mgrwt>
<rscale>  0 0.28350847E+03</rscale>
<asrwt>0</asrwt>
<pdfrwt beam="1">  1        2 0.14356692E+00 0.28350847E+03</pdfrwt>
<pdfrwt beam="2">  1       -2 0.33127678E-02 0.28350847E+03</pdfrwt>
<totfact> 0.10542819E+04</totfact>
</mgrwt>
</event>
<event>
 4    1  0.1807309E-004  0.2735592E+03  0.7818608E-02  0.1099260E+00
         -2   -1    0    0    0  501 -0.00000000000E+00  0.00000000000E+00  0.23757886802E+02  0.23757886802E+02  0.00000000000E+00 0.  1.
          2   -1    0    0  501    0  0.00000000000E+00 -0.00000000000E+00 -0.78747151404E+03  0.78747151404E+03  0.00000000000E+00 0.  1.
         25    1    1    2    0    0 -0.24563894983E+02  0.54920710488E+02 -0.30401754894E+03  0.33233467986E+03  0.12000000000E+03 0.  0.
         25    1    1    2    0    0  0.24563894983E+02 -0.54920710488E+02 -0.45969607830E+03  0.47889472098E+03  0.12000000000E+03 0.  0.
<mgrwt>
<rscale>  0 0.27355920E+03</rscale>
<asrwt>0</asrwt>
<pdfrwt beam="1">  1        2 0.12114945E+00 0.27355920E+03</pdfrwt>
<pdfrwt beam="2">  1       -2 0.36550599E-02 0.27355920E+03</pdfrwt>
<totfact> 0.11356898E+04</totfact>
</mgrwt>
</event>
<event>
 4    1  0.1807309E-004  0.3623892E+03  0.7818608E-02  0.1057642E+00
         -2   -1    0    0    0  501 -0.00000000000E+00  0.00000000000E+00  0.96200158170E+02  0.96200158170E+02  0.00000000000E+00 0.  1.
          2   -1    0    0  501    0  0.00000000000E+00 -0.00000000000E+00 -0.34128305577E+03  0.34128305577E+03  0.00000000000E+00 0.  1.
         25    1    1    2    0    0 -0.52751284771E+01  0.10383054916E+03 -0.22794263858E+03  0.27778851021E+03  0.12000000000E+03 0.  0.
         25    1    1    2    0    0  0.52751284771E+01 -0.10383054916E+03 -0.17140259014E+02  0.15969470373E+03  0.12000000000E+03 0.  0.
<mgrwt>
<rscale>  0 0.36238920E+03</rscale>
<asrwt>0</asrwt>
<pdfrwt beam="1">  1        2 0.52505086E-01 0.36238920E+03</pdfrwt>
<pdfrwt beam="2">  1       -2 0.14800024E-01 0.36238920E+03</pdfrwt>
<totfact> 0.33402402E+03</totfact>
</mgrwt>
</event>
<event>
 4    1  0.1807309E-004  0.3369996E+03  0.7818608E-02  0.1068081E+00
          2   -1    0    0  501    0  0.00000000000E+00  0.00000000000E+00  0.81942475907E+03  0.81942475907E+03  0.00000000000E+00 0.  1.
         -2   -1    0    0    0  501 -0.00000000000E+00 -0.00000000000E+00 -0.34648918105E+02  0.34648918105E+02  0.00000000000E+00 0.  1.
         25    1    1    2    0    0  0.75139855998E+02 -0.70106185648E+02  0.54084321639E+03  0.56344676762E+03  0.12000000000E+03 0.  0.
         25    1    1    2    0    0 -0.75139855998E+02  0.70106185648E+02  0.24393262457E+03  0.29062690955E+03  0.12000000000E+03 0.  0.
<mgrwt>
<rscale>  0 0.33699959E+03</rscale>
<asrwt>0</asrwt>
<pdfrwt beam="1">  1        2 0.12606533E+00 0.33699959E+03</pdfrwt>
<pdfrwt beam="2">  1       -2 0.53306034E-02 0.33699959E+03</pdfrwt>
<totfact> 0.61277465E+03</totfact>
</mgrwt>
</event>
<event>
 4    1  0.1807309E-004  0.2965789E+03  0.7818608E-02  0.1086963E+00
          1   -1    0    0  501    0  0.00000000000E+00  0.00000000000E+00  0.83629009974E+02  0.83629009974E+02  0.00000000000E+00 0. -1.
         -1   -1    0    0    0  501 -0.00000000000E+00 -0.00000000000E+00 -0.26294421014E+03  0.26294421014E+03  0.00000000000E+00 0. -1.
         25    1    1    2    0    0 -0.52600467668E+02  0.65908127670E+02 -0.11523496428E+03  0.18652020664E+03  0.12000000000E+03 0.  0.
         25    1    1    2    0    0  0.52600467668E+02 -0.65908127670E+02 -0.64080235890E+02  0.16005301348E+03  0.12000000000E+03 0.  0.
<mgrwt>
<rscale>  0 0.29657892E+03</rscale>
<asrwt>0</asrwt>
<pdfrwt beam="1">  1        1 0.12866002E-01 0.29657892E+03</pdfrwt>
<pdfrwt beam="2">  1       -1 0.40452955E-01 0.29657892E+03</pdfrwt>
<totfact> 0.27620502E+03</totfact>
</mgrwt>
</event>
<event>
 4    1  0.1807309E-004  0.4413490E+03  0.7818608E-02  0.1030334E+00
          2   -1    0    0  501    0  0.00000000000E+00  0.00000000000E+00  0.14875744028E+04  0.14875744028E+04  0.00000000000E+00 0.  1.
         -2   -1    0    0    0  501 -0.00000000000E+00 -0.00000000000E+00 -0.32735994605E+02  0.32735994605E+02  0.00000000000E+00 0.  1.
         25    1    1    2    0    0 -0.12726070473E+03  0.12348043881E+03  0.54337724829E+03  0.58403898817E+03  0.12000000000E+03 0.  0.
         25    1    1    2    0    0  0.12726070473E+03 -0.12348043881E+03  0.91146115986E+03  0.93627140919E+03  0.12000000000E+03 0.  0.
<mgrwt>
<rscale>  0 0.44134897E+03</rscale>
<asrwt>0</asrwt>
<pdfrwt beam="1">  1        2 0.22885755E+00 0.44134897E+03</pdfrwt>
<pdfrwt beam="2">  1       -2 0.50363080E-02 0.44134897E+03</pdfrwt>
<totfact> 0.26790497E+03</totfact>
</mgrwt>
</event>
<event>
 4    1  0.1807309E-004  0.2869286E+03  0.7818608E-02  0.1091964E+00
          1   -1    0    0  501    0  0.00000000000E+00  0.00000000000E+00  0.88113834763E+02  0.88113834763E+02  0.00000000000E+00 0.  1.
         -1   -1    0    0    0  501 -0.00000000000E+00 -0.00000000000E+00 -0.23358420859E+03  0.23358420859E+03  0.00000000000E+00 0.  1.
         25    1    1    2    0    0  0.63195281123E+02 -0.34918143753E+02 -0.10763751987E+03  0.17663169592E+03  0.12000000000E+03 0.  0.
         25    1    1    2    0    0 -0.63195281123E+02  0.34918143753E+02 -0.37832853956E+02  0.14506634743E+03  0.12000000000E+03 0.  0.
<mgrwt>
<rscale>  0 0.28692857E+03</rscale>
<asrwt>0</asrwt>
<pdfrwt beam="1">  1        1 0.13555974E-01 0.28692857E+03</pdfrwt>
<pdfrwt beam="2">  1       -1 0.35936032E-01 0.28692857E+03</pdfrwt>
<totfact> 0.31736367E+03</totfact>
</mgrwt>
</event>
<event>
 4    1  0.1807309E-004  0.2557662E+03  0.7818608E-02  0.1109714E+00
          2   -1    0    0  501    0  0.00000000000E+00  0.00000000000E+00  0.78450485107E+03  0.78450485107E+03  0.00000000000E+00 0.  1.
         -2   -1    0    0    0  501 -0.00000000000E+00 -0.00000000000E+00 -0.20846373465E+02  0.20846373465E+02  0.00000000000E+00 0.  1.
         25    1    1    2    0    0  0.35076559054E+02  0.24618967414E+02  0.41597899176E+03  0.43505744464E+03  0.12000000000E+03 0.  0.
         25    1    1    2    0    0 -0.35076559054E+02 -0.24618967414E+02  0.34767948584E+03  0.37029377989E+03  0.12000000000E+03 0.  0.
<mgrwt>
<rscale>  0 0.25576615E+03</rscale>
<asrwt>0</asrwt>
<pdfrwt beam="1">  1        2 0.12069303E+00 0.25576615E+03</pdfrwt>
<pdfrwt beam="2">  1       -2 0.32071350E-02 0.25576615E+03</pdfrwt>
<totfact> 0.13836477E+04</totfact>
</mgrwt>
</event>
<event>
 4    1  0.1807309E-004  0.2825829E+03  0.7818608E-02  0.1094287E+00
          4   -1    0    0  501    0  0.00000000000E+00  0.00000000000E+00  0.61935133706E+03  0.61935133706E+03  0.00000000000E+00 0. -1.
         -4   -1    0    0    0  501 -0.00000000000E+00 -0.00000000000E+00 -0.32232542565E+02  0.32232542565E+02  0.00000000000E+00 0. -1.
         25    1    1    2    0    0  0.15285599546E+02  0.58804342774E+02  0.19380342011E+03  0.23590541734E+03  0.12000000000E+03 0.  0.
         25    1    1    2    0    0 -0.15285599546E+02 -0.58804342774E+02  0.39331537439E+03  0.41567846229E+03  0.12000000000E+03 0.  0.
<mgrwt>
<rscale>  0 0.28258286E+03</rscale>
<asrwt>0</asrwt>
<pdfrwt beam="1">  1        4 0.95284812E-01 0.28258286E+03</pdfrwt>
<pdfrwt beam="2">  1       -4 0.49588532E-02 0.28258286E+03</pdfrwt>
<totfact> 0.43441478E+02</totfact>
</mgrwt>
</event>
<event>
 4    1  0.1807309E-004  0.3160133E+03  0.7818608E-02  0.1077499E+00
          2   -1    0    0  501    0  0.00000000000E+00  0.00000000000E+00  0.11033901994E+03  0.11033901994E+03  0.00000000000E+00 0. -1.
         -2   -1    0    0    0  501 -0.00000000000E+00 -0.00000000000E+00 -0.22626718073E+03  0.22626718073E+03  0.00000000000E+00 0. -1.
         25    1    1    2    0    0 -0.67387866112E+02 -0.74879467704E+02 -0.36185699996E+02  0.16080256238E+03  0.12000000000E+03 0.  0.
         25    1    1    2    0    0  0.67387866112E+02  0.74879467704E+02 -0.79742460797E+02  0.17580363829E+03  0.12000000000E+03 0.  0.
<mgrwt>
<rscale>  0 0.31601328E+03</rscale>
<asrwt>0</asrwt>
<pdfrwt beam="1">  1        2 0.16975234E-01 0.31601328E+03</pdfrwt>
<pdfrwt beam="2">  1       -2 0.34810335E-01 0.31601328E+03</pdfrwt>
<totfact> 0.26142113E+03</totfact>
</mgrwt>
</event>
<event>
 4    1  0.1807309E-004  0.2480729E+03  0.7818608E-02  0.1114529E+00
         -1   -1    0    0    0  501 -0.00000000000E+00  0.00000000000E+00  0.45646611390E+02  0.45646611390E+02  0.00000000000E+00 0. -1.
          1   -1    0    0  501    0  0.00000000000E+00 -0.00000000000E+00 -0.33704684534E+03  0.33704684534E+03  0.00000000000E+00 0. -1.
         25    1    1    2    0    0  0.52835379440E+01 -0.16461246562E+01 -0.98041481922E+02  0.15505727225E+03  0.12000000000E+03 0.  0.
         25    1    1    2    0    0 -0.52835379440E+01  0.16461246562E+01 -0.19335875203E+03  0.22763618448E+03  0.12000000000E+03 0.  0.
<mgrwt>
<rscale>  0 0.24807294E+03</rscale>
<asrwt>0</asrwt>
<pdfrwt beam="1">  1        1 0.51853360E-01 0.24807294E+03</pdfrwt>
<pdfrwt beam="2">  1       -1 0.70225557E-02 0.24807294E+03</pdfrwt>
<totfact> 0.78415330E+03</totfact>
</mgrwt>
</event>
<event>
 4    1  0.1807309E-004  0.2656149E+03  0.7818608E-02  0.1103816E+00
         -1   -1    0    0    0  501 -0.00000000000E+00  0.00000000000E+00  0.10707620969E+02  0.10707620969E+02  0.00000000000E+00 0.  1.
          1   -1    0    0  501    0  0.00000000000E+00 -0.00000000000E+00 -0.16472215663E+04  0.16472215663E+04  0.00000000000E+00 0.  1.
         25    1    1    2    0    0 -0.30056771541E+02 -0.46168684684E+02 -0.90716058749E+03  0.91671985276E+03  0.12000000000E+03 0.  0.
         25    1    1    2    0    0  0.30056771541E+02  0.46168684684E+02 -0.72935335787E+03  0.74120933454E+03  0.12000000000E+03 0.  0.
<mgrwt>
<rscale>  0 0.26561494E+03</rscale>
<asrwt>0</asrwt>
<pdfrwt beam="1">  1        1 0.25341880E+00 0.26561494E+03</pdfrwt>
<pdfrwt beam="2">  1       -1 0.16473257E-02 0.26561494E+03</pdfrwt>
<totfact> 0.52096061E+03</totfact>
</mgrwt>
</event>
<event>
 4    1  0.1807309E-004  0.2546122E+03  0.7818608E-02  0.1110424E+00
         -2   -1    0    0    0  501 -0.00000000000E+00  0.00000000000E+00  0.20212452340E+03  0.20212452340E+03  0.00000000000E+00 0.  1.
          2   -1    0    0  501    0  0.00000000000E+00 -0.00000000000E+00 -0.80182475768E+02  0.80182475768E+02  0.00000000000E+00 0.  1.
         25    1    1    2    0    0 -0.31885694782E+02  0.17923249328E+02  0.36961446026E+02  0.13078260164E+03  0.12000000000E+03 0.  0.
         25    1    1    2    0    0  0.31885694782E+02 -0.17923249328E+02  0.84980601605E+02  0.15152439753E+03  0.12000000000E+03 0.  0.
<mgrwt>
<rscale>  0 0.25461221E+03</rscale>
<asrwt>0</asrwt>
<pdfrwt beam="1">  1        2 0.12335766E-01 0.25461221E+03</pdfrwt>
<pdfrwt beam="2">  1       -2 0.31096080E-01 0.25461221E+03</pdfrwt>
<totfact> 0.46806969E+03</totfact>
</mgrwt>
</event>
<event>
 4    1  0.1807309E-004  0.3713430E+03  0.7818608E-02  0.1054181E+00
         -2   -1    0    0    0  501 -0.00000000000E+00  0.00000000000E+00  0.25518443475E+03  0.25518443475E+03  0.00000000000E+00 0. -1.
          2   -1    0    0  501    0  0.00000000000E+00 -0.00000000000E+00 -0.13509409116E+03  0.13509409116E+03  0.00000000000E+00 0. -1.
         25    1    1    2    0    0  0.98332868008E+02 -0.48177386340E+00  0.16724802206E+03  0.22812603078E+03  0.12000000000E+03 0.  0.
         25    1    1    2    0    0 -0.98332868008E+02  0.48177386340E+00 -0.47157678477E+02  0.16215249513E+03  0.12000000000E+03 0.  0.
<mgrwt>
<rscale>  0 0.37134302E+03</rscale>
<asrwt>0</asrwt>
<pdfrwt beam="1">  1        2 0.20783706E-01 0.37134302E+03</pdfrwt>
<pdfrwt beam="2">  1       -2 0.39259144E-01 0.37134302E+03</pdfrwt>
<totfact> 0.16504868E+03</totfact>
</mgrwt>
</event>
<event>
 4    1  0.1807309E-004  0.3323569E+03  0.7818608E-02  0.1070099E+00
          3   -1    0    0  501    0  0.00000000000E+00  0.00000000000E+00  0.62183233064E+02  0.62183233064E+02  0.00000000000E+00 0.  1.
         -3   -1    0    0    0  501 -0.00000000000E+00 -0.00000000000E+00 -0.44409519269E+03  0.44409519269E+03  0.00000000000E+00 0.  1.
         25    1    1    2    0    0 -0.17790806826E+02  0.60322855113E+02 -0.33754054572E+03  0.36371552024E+03  0.12000000000E+03 0.  0.
         25    1    1    2    0    0  0.17790806826E+02 -0.60322855113E+02 -0.44371413901E+02  0.14256290551E+03  0.12000000000E+03 0.  0.
<mgrwt>
<rscale>  0 0.33235689E+03</rscale>
<asrwt>0</asrwt>
<pdfrwt beam="1">  1        3 0.95666513E-02 0.33235689E+03</pdfrwt>
<pdfrwt beam="2">  1       -3 0.68322337E-01 0.33235689E+03</pdfrwt>
<totfact> 0.42913345E+02</totfact>
</mgrwt>
</event>
<event>
 4    1  0.1807309E-004  0.3695838E+03  0.7818608E-02  0.1054852E+00
          1   -1    0    0  501    0  0.00000000000E+00  0.00000000000E+00  0.21156721894E+04  0.21156721894E+04  0.00000000000E+00 0. -1.
         -1   -1    0    0    0  501 -0.00000000000E+00 -0.00000000000E+00 -0.16140516115E+02  0.16140516115E+02  0.00000000000E+00 0. -1.
         25    1    1    2    0    0  0.47179538715E+02  0.11093498583E+02  0.28891569315E+03  0.31657740338E+03  0.12000000000E+03 0.  0.
         25    1    1    2    0    0 -0.47179538715E+02 -0.11093498583E+02  0.18106159801E+04  0.18152353021E+04  0.12000000000E+03 0.  0.
<mgrwt>
<rscale>  0 0.36958377E+03</rscale>
<asrwt>0</asrwt>
<pdfrwt beam="1">  1        1 0.32548781E+00 0.36958377E+03</pdfrwt>
<pdfrwt beam="2">  1       -1 0.24831580E-02 0.36958377E+03</pdfrwt>
<totfact> 0.14054478E+03</totfact>
</mgrwt>
</event>
<event>
 4    1  0.1807309E-004  0.2807398E+03  0.7818608E-02  0.1095286E+00
          2   -1    0    0  501    0  0.00000000000E+00  0.00000000000E+00  0.39374573481E+02  0.39374573481E+02  0.00000000000E+00 0. -1.
         -2   -1    0    0    0  501 -0.00000000000E+00 -0.00000000000E+00 -0.50041691499E+03  0.50041691499E+03  0.00000000000E+00 0. -1.
         25    1    1    2    0    0 -0.67284905347E+01  0.12311256139E+02 -0.93117220823E+02  0.15253739354E+03  0.12000000000E+03 0.  0.
         25    1    1    2    0    0  0.67284905347E+01 -0.12311256139E+02 -0.36792512068E+03  0.38725409493E+03  0.12000000000E+03 0.  0.
<mgrwt>
<rscale>  0 0.28073976E+03</rscale>
<asrwt>0</asrwt>
<pdfrwt beam="1">  1        2 0.60576273E-02 0.28073976E+03</pdfrwt>
<pdfrwt beam="2">  1       -2 0.76987210E-01 0.28073976E+03</pdfrwt>
<totfact> 0.18896092E+03</totfact>
</mgrwt>
</event>
<event>
 4    1  0.1807309E-004  0.2724769E+03  0.7818608E-02  0.1099870E+00
         -1   -1    0    0    0  501 -0.00000000000E+00  0.00000000000E+00  0.10575362954E+03  0.10575362954E+03  0.00000000000E+00 0. -1.
          1   -1    0    0  501    0  0.00000000000E+00 -0.00000000000E+00 -0.17551086873E+03  0.17551086873E+03  0.00000000000E+00 0. -1.
         25    1    1    2    0    0 -0.52736292463E+02  0.26335440714E+02 -0.61919641627E+02  0.14733877290E+03  0.12000000000E+03 0.  0.
         25    1    1    2    0    0  0.52736292463E+02 -0.26335440714E+02 -0.78375975688E+01  0.13392572537E+03  0.12000000000E+03 0.  0.
<mgrwt>
<rscale>  0 0.27247687E+03</rscale>
<asrwt>0</asrwt>
<pdfrwt beam="1">  1        1 0.27001672E-01 0.27247687E+03</pdfrwt>
<pdfrwt beam="2">  1       -1 0.16269789E-01 0.27247687E+03</pdfrwt>
<totfact> 0.48526496E+03</totfact>
</mgrwt>
</event>
<event>
 4    1  0.1807309E-004  0.2466450E+03  0.7818608E-02  0.1115444E+00
         -2   -1    0    0    0  501 -0.00000000000E+00  0.00000000000E+00  0.38738841789E+02  0.38738841789E+02  0.00000000000E+00 0.  1.
          2   -1    0    0  501    0  0.00000000000E+00 -0.00000000000E+00 -0.39258902097E+03  0.39258902097E+03  0.00000000000E+00 0.  1.
         25    1    1    2    0    0 -0.12447544012E+02  0.20826956989E+02 -0.15100179691E+03  0.19439713516E+03  0.12000000000E+03 0.  0.
         25    1    1    2    0    0  0.12447544012E+02 -0.20826956989E+02 -0.20284838227E+03  0.23693072759E+03  0.12000000000E+03 0.  0.
<mgrwt>
<rscale>  0 0.24664504E+03</rscale>
<asrwt>0</asrwt>
<pdfrwt beam="1">  1        2 0.60398314E-01 0.24664504E+03</pdfrwt>
<pdfrwt beam="2">  1       -2 0.59598215E-02 0.24664504E+03</pdfrwt>
<totfact> 0.12018486E+04</totfact>
</mgrwt>
</event>
<event>
 4    1  0.1807309E-004  0.2705844E+03  0.7818608E-02  0.1100946E+00
          1   -1    0    0  501    0  0.00000000000E+00  0.00000000000E+00  0.58279831157E+02  0.58279831157E+02  0.00000000000E+00 0.  1.
         -1   -1    0    0    0  501 -0.00000000000E+00 -0.00000000000E+00 -0.31407056411E+03  0.31407056411E+03  0.00000000000E+00 0.  1.
         25    1    1    2    0    0  0.56448721419E+02  0.86298567580E+01 -0.92999789927E+02  0.16220324751E+03  0.12000000000E+03 0.  0.
         25    1    1    2    0    0 -0.56448721419E+02 -0.86298567580E+01 -0.16279094302E+03  0.21014714775E+03  0.12000000000E+03 0.  0.
<mgrwt>
<rscale>  0 0.27058440E+03</rscale>
<asrwt>0</asrwt>
<pdfrwt beam="1">  1        1 0.89661279E-02 0.27058440E+03</pdfrwt>
<pdfrwt beam="2">  1       -1 0.48318548E-01 0.27058440E+03</pdfrwt>
<totfact> 0.32424346E+03</totfact>
</mgrwt>
</event>
<event>
 4    1  0.1807309E-004  0.2515715E+03  0.7818608E-02  0.1112316E+00
         -2   -1    0    0    0  501 -0.00000000000E+00  0.00000000000E+00  0.15189996851E+04  0.15189996851E+04  0.00000000000E+00 0.  1.
          2   -1    0    0  501    0  0.00000000000E+00 -0.00000000000E+00 -0.10416101505E+02  0.10416101505E+02  0.00000000000E+00 0.  1.
         25    1    1    2    0    0  0.40390715913E+01 -0.23819483754E+02  0.57826337976E+03  0.59107716779E+03  0.12000000000E+03 0.  0.
         25    1    1    2    0    0 -0.40390715913E+01  0.23819483754E+02  0.93032020378E+03  0.93833861877E+03  0.12000000000E+03 0.  0.
<mgrwt>
<rscale>  0 0.25157150E+03</rscale>
<asrwt>0</asrwt>
<pdfrwt beam="1">  1        2 0.16024784E-02 0.25157150E+03</pdfrwt>
<pdfrwt beam="2">  1       -2 0.23369208E+00 0.25157150E+03</pdfrwt>
<totfact> 0.66661891E+02</totfact>
</mgrwt>
</event>
<event>
 4    1  0.1807309E-004  0.3242089E+03  0.7818608E-02  0.1073728E+00
          1   -1    0    0  501    0  0.00000000000E+00  0.00000000000E+00  0.99247874189E+03  0.99247874189E+03  0.00000000000E+00 0. -1.
         -1   -1    0    0    0  501 -0.00000000000E+00 -0.00000000000E+00 -0.26476987025E+02  0.26476987025E+02  0.00000000000E+00 0. -1.
         25    1    1    2    0    0  0.10747544659E+03  0.53195714060E-01  0.42617848618E+03  0.45560846846E+03  0.12000000000E+03 0.  0.
         25    1    1    2    0    0 -0.10747544659E+03 -0.53195714060E-01  0.53982326868E+03  0.56334726046E+03  0.12000000000E+03 0.  0.
<mgrwt>
<rscale>  0 0.32420886E+03</rscale>
<asrwt>0</asrwt>
<pdfrwt beam="1">  1        1 0.15268901E+00 0.32420886E+03</pdfrwt>
<pdfrwt beam="2">  1       -1 0.40733834E-02 0.32420886E+03</pdfrwt>
<totfact> 0.38870285E+03</totfact>
</mgrwt>
</event>
<event>
 4    1  0.1807309E-004  0.2544337E+03  0.7818608E-02  0.1110534E+00
          2   -1    0    0  501    0  0.00000000000E+00  0.00000000000E+00  0.18897161969E+03  0.18897161969E+03  0.00000000000E+00 0. -1.
         -2   -1    0    0    0  501 -0.00000000000E+00 -0.00000000000E+00 -0.85643143122E+02  0.85643143122E+02  0.00000000000E+00 0. -1.
         25    1    1    2    0    0 -0.17004168669E+02 -0.37816297451E+02  0.60359906790E+02  0.14057927462E+03  0.12000000000E+03 0.  0.
         25    1    1    2    0    0  0.17004168669E+02  0.37816297451E+02  0.42968569773E+02  0.13403548819E+03  0.12000000000E+03 0.  0.
<mgrwt>
<rscale>  0 0.25443367E+03</rscale>
<asrwt>0</asrwt>
<pdfrwt beam="1">  1        2 0.29072557E-01 0.25443367E+03</pdfrwt>
<pdfrwt beam="2">  1       -2 0.13175868E-01 0.25443367E+03</pdfrwt>
<totfact> 0.76057979E+03</totfact>
</mgrwt>
</event>
<event>
 4    1  0.1807309E-004  0.3160848E+03  0.7818608E-02  0.1077465E+00
         -2   -1    0    0    0  501 -0.00000000000E+00  0.00000000000E+00  0.32385679038E+03  0.32385679038E+03  0.00000000000E+00 0.  1.
          2   -1    0    0  501    0  0.00000000000E+00 -0.00000000000E+00 -0.77124828113E+02  0.77124828113E+02  0.00000000000E+00 0.  1.
         25    1    1    2    0    0 -0.16659682898E+02 -0.65593480389E+02  0.22160873841E+03  0.26094153108E+03  0.12000000000E+03 0.  0.
         25    1    1    2    0    0  0.16659682898E+02  0.65593480389E+02  0.25123223850E+02  0.14004008740E+03  0.12000000000E+03 0.  0.
<mgrwt>
<rscale>  0 0.31608479E+03</rscale>
<asrwt>0</asrwt>
<pdfrwt beam="1">  1        2 0.11865358E-01 0.31608479E+03</pdfrwt>
<pdfrwt beam="2">  1       -2 0.49824121E-01 0.31608479E+03</pdfrwt>
<totfact> 0.20087788E+03</totfact>
</mgrwt>
</event>
<event>
 4    1  0.1807309E-004  0.2940007E+03  0.7818608E-02  0.1088279E+00
          1   -1    0    0  501    0  0.00000000000E+00  0.00000000000E+00  0.16143002559E+03  0.16143002559E+03  0.00000000000E+00 0. -1.
         -1   -1    0    0    0  501 -0.00000000000E+00 -0.00000000000E+00 -0.13386045262E+03  0.13386045262E+03  0.00000000000E+00 0. -1.
         25    1    1    2    0    0 -0.42168835624E+02  0.72756960036E+02  0.25554145211E+02  0.14874407642E+03  0.12000000000E+03 0.  0.
         25    1    1    2    0    0  0.42168835624E+02 -0.72756960036E+02  0.20154277567E+01  0.14654640180E+03  0.12000000000E+03 0.  0.
<mgrwt>
<rscale>  0 0.29400066E+03</rscale>
<asrwt>0</asrwt>
<pdfrwt beam="1">  1        1 0.24835389E-01 0.29400066E+03</pdfrwt>
<pdfrwt beam="2">  1       -1 0.20593916E-01 0.29400066E+03</pdfrwt>
<totfact> 0.36972769E+03</totfact>
</mgrwt>
</event>
<event>
 4    1  0.1807309E-004  0.2490325E+03  0.7818608E-02  0.1113918E+00
         -1   -1    0    0    0  501 -0.00000000000E+00  0.00000000000E+00  0.33817456949E+02  0.33817456949E+02  0.00000000000E+00 0. -1.
          1   -1    0    0  501    0  0.00000000000E+00 -0.00000000000E+00 -0.45847037246E+03  0.45847037246E+03  0.00000000000E+00 0. -1.
         25    1    1    2    0    0 -0.15552110809E+02  0.28631380085E+02 -0.19941233062E+03  0.23500404609E+03  0.12000000000E+03 0.  0.
         25    1    1    2    0    0  0.15552110809E+02 -0.28631380085E+02 -0.22524058489E+03  0.25728378332E+03  0.12000000000E+03 0.  0.
<mgrwt>
<rscale>  0 0.24903254E+03</rscale>
<asrwt>0</asrwt>
<pdfrwt beam="1">  1        1 0.70533900E-01 0.24903254E+03</pdfrwt>
<pdfrwt beam="2">  1       -1 0.52026860E-02 0.24903254E+03</pdfrwt>
<totfact> 0.83124507E+03</totfact>
</mgrwt>
</event>
<event>
 4    1  0.1807309E-004  0.2595266E+03  0.7818608E-02  0.1107428E+00
          2   -1    0    0  501    0  0.00000000000E+00  0.00000000000E+00  0.30502572626E+04  0.30502572626E+04  0.00000000000E+00 0.  1.
         -2   -1    0    0    0  501 -0.00000000000E+00 -0.00000000000E+00 -0.55203588272E+01  0.55203588272E+01  0.00000000000E+00 0.  1.
         25    1    1    2    0    0 -0.93093007178E+01  0.18516711972E+02  0.99461876803E+03  0.10020459198E+04  0.12000000000E+03 0.  0.
         25    1    1    2    0    0  0.93093007178E+01 -0.18516711972E+02  0.20501181358E+04  0.20537317016E+04  0.12000000000E+03 0.  0.
<mgrwt>
<rscale>  0 0.25952660E+03</rscale>
<asrwt>0</asrwt>
<pdfrwt beam="1">  1        2 0.46926900E+00 0.25952660E+03</pdfrwt>
<pdfrwt beam="2">  1       -2 0.84928841E-03 0.25952660E+03</pdfrwt>
<totfact> 0.52612083E+03</totfact>
</mgrwt>
</event>
<event>
 4    1  0.1807309E-004  0.2562029E+03  0.7818608E-02  0.1109446E+00
          1   -1    0    0  501    0  0.00000000000E+00  0.00000000000E+00  0.12671027309E+03  0.12671027309E+03  0.00000000000E+00 0. -1.
         -1   -1    0    0    0  501 -0.00000000000E+00 -0.00000000000E+00 -0.12950795062E+03  0.12950795062E+03  0.00000000000E+00 0. -1.
         25    1    1    2    0    0  0.39532171790E+02 -0.15793110544E+01 -0.22488030013E+02  0.12833938727E+03  0.12000000000E+03 0.  0.
         25    1    1    2    0    0 -0.39532171790E+02  0.15793110544E+01  0.19690352486E+02  0.12787883645E+03  0.12000000000E+03 0.  0.
<mgrwt>
<rscale>  0 0.25620295E+03</rscale>
<asrwt>0</asrwt>
<pdfrwt beam="1">  1        1 0.19493888E-01 0.25620295E+03</pdfrwt>
<pdfrwt beam="2">  1       -1 0.19924300E-01 0.25620295E+03</pdfrwt>
<totfact> 0.52994820E+03</totfact>
</mgrwt>
</event>
<event>
 4    1  0.1807309E-004  0.2538949E+03  0.7818608E-02  0.1110868E+00
         -1   -1    0    0    0  501 -0.00000000000E+00  0.00000000000E+00  0.10212378202E+02  0.10212378202E+02  0.00000000000E+00 0.  1.
          1   -1    0    0  501    0  0.00000000000E+00 -0.00000000000E+00 -0.15780513660E+04  0.15780513660E+04  0.00000000000E+00 0.  1.
         25    1    1    2    0    0  0.66042904730E+01  0.38403240663E+02 -0.69606638965E+03  0.70740854133E+03  0.12000000000E+03 0.  0.
         25    1    1    2    0    0 -0.66042904730E+01 -0.38403240663E+02 -0.87177259816E+03  0.88085520288E+03  0.12000000000E+03 0.  0.
<mgrwt>
<rscale>  0 0.25389492E+03</rscale>
<asrwt>0</asrwt>
<pdfrwt beam="1">  1        1 0.24277716E+00 0.25389492E+03</pdfrwt>
<pdfrwt beam="2">  1       -1 0.15711350E-02 0.25389492E+03</pdfrwt>
<totfact> 0.61917570E+03</totfact>
</mgrwt>
</event>
<event>
 4    1  0.1807309E-004  0.2526587E+03  0.7818608E-02  0.1111636E+00
         -2   -1    0    0    0  501 -0.00000000000E+00  0.00000000000E+00  0.49317962954E+02  0.49317962954E+02  0.00000000000E+00 0. -1.
          2   -1    0    0  501    0  0.00000000000E+00 -0.00000000000E+00 -0.32359622594E+03  0.32359622594E+03  0.00000000000E+00 0. -1.
         25    1    1    2    0    0  0.75761313720E+01  0.38146072230E+02 -0.12706511277E+03  0.17904765700E+03  0.12000000000E+03 0.  0.
         25    1    1    2    0    0 -0.75761313720E+01 -0.38146072230E+02 -0.14721315022E+03  0.19386653190E+03  0.12000000000E+03 0.  0.
<mgrwt>
<rscale>  0 0.25265872E+03</rscale>
<asrwt>0</asrwt>
<pdfrwt beam="1">  1        2 0.49784034E-01 0.25265872E+03</pdfrwt>
<pdfrwt beam="2">  1       -2 0.75873791E-02 0.25265872E+03</pdfrwt>
<totfact> 0.10211549E+04</totfact>
</mgrwt>
</event>
<event>
 4    1  0.1807309E-004  0.2466765E+03  0.7818608E-02  0.1115423E+00
          2   -1    0    0  501    0  0.00000000000E+00  0.00000000000E+00  0.31263572507E+03  0.31263572507E+03  0.00000000000E+00 0. -1.
         -2   -1    0    0    0  501 -0.00000000000E+00 -0.00000000000E+00 -0.48658314924E+02  0.48658314924E+02  0.00000000000E+00 0. -1.
         25    1    1    2    0    0 -0.10986482291E+02  0.25029298177E+02  0.14381150104E+03  0.18928527780E+03  0.12000000000E+03 0.  0.
         25    1    1    2    0    0  0.10986482291E+02 -0.25029298177E+02  0.12016590911E+03  0.17200876220E+03  0.12000000000E+03 0.  0.
<mgrwt>
<rscale>  0 0.24667653E+03</rscale>
<asrwt>0</asrwt>
<pdfrwt beam="1">  1        2 0.48097803E-01 0.24667653E+03</pdfrwt>
<pdfrwt beam="2">  1       -2 0.74858948E-02 0.24667653E+03</pdfrwt>
<totfact> 0.10808270E+04</totfact>
</mgrwt>
</event>
<event>
 4    1  0.1807309E-004  0.2649684E+03  0.7818608E-02  0.1104194E+00
         -2   -1    0    0    0  501 -0.00000000000E+00  0.00000000000E+00  0.16300026380E+02  0.16300026380E+02  0.00000000000E+00 0. -1.
          2   -1    0    0  501    0  0.00000000000E+00 -0.00000000000E+00 -0.10768117252E+04  0.10768117252E+04  0.00000000000E+00 0. -1.
         25    1    1    2    0    0 -0.22769658835E+02  0.33987208532E+02 -0.37162887108E+03  0.39265965610E+03  0.12000000000E+03 0.  0.
         25    1    1    2    0    0  0.22769658835E+02 -0.33987208532E+02 -0.68888282771E+03  0.70045209545E+03  0.12000000000E+03 0.  0.
<mgrwt>
<rscale>  0 0.26496837E+03</rscale>
<asrwt>0</asrwt>
<pdfrwt beam="1">  1        2 0.16566333E+00 0.26496837E+03</pdfrwt>
<pdfrwt beam="2">  1       -2 0.25076966E-02 0.26496837E+03</pdfrwt>
<totfact> 0.12998275E+04</totfact>
</mgrwt>
</event>
<event>
 4    1  0.1807309E-004  0.2561614E+03  0.7818608E-02  0.1109472E+00
          2   -1    0    0  501    0  0.00000000000E+00  0.00000000000E+00  0.48334335251E+03  0.48334335251E+03  0.00000000000E+00 0.  1.
         -2   -1    0    0    0  501 -0.00000000000E+00 -0.00000000000E+00 -0.33939970942E+02  0.33939970942E+02  0.00000000000E+00 0.  1.
         25    1    1    2    0    0 -0.16048337916E+02 -0.35179901687E+02  0.27028233404E+03  0.29824103461E+03  0.12000000000E+03 0.  0.
         25    1    1    2    0    0  0.16048337916E+02  0.35179901687E+02  0.17912104753E+03  0.21904228884E+03  0.12000000000E+03 0.  0.
<mgrwt>
<rscale>  0 0.25616135E+03</rscale>
<asrwt>0</asrwt>
<pdfrwt beam="1">  1        2 0.74360511E-01 0.25616135E+03</pdfrwt>
<pdfrwt beam="2">  1       -2 0.52215343E-02 0.25616135E+03</pdfrwt>
<totfact> 0.11731418E+04</totfact>
</mgrwt>
</event>
<event>
 4    1  0.1807309E-004  0.2534243E+03  0.7818608E-02  0.1111160E+00
          2   -1    0    0  501    0  0.00000000000E+00  0.00000000000E+00  0.15570798375E+03  0.15570798375E+03  0.00000000000E+00 0. -1.
         -2   -1    0    0    0  501 -0.00000000000E+00 -0.00000000000E+00 -0.10311588563E+03  0.10311588563E+03  0.00000000000E+00 0. -1.
         25    1    1    2    0    0 -0.36132155350E+02 -0.18926928515E+01  0.45316815827E+02  0.13327688747E+03  0.12000000000E+03 0.  0.
         25    1    1    2    0    0  0.36132155350E+02  0.18926928515E+01  0.72752822938E+01  0.12554698192E+03  0.12000000000E+03 0.  0.
<mgrwt>
<rscale>  0 0.25342428E+03</rscale>
<asrwt>0</asrwt>
<pdfrwt beam="1">  1        2 0.23955074E-01 0.25342428E+03</pdfrwt>
<pdfrwt beam="2">  1       -2 0.15863983E-01 0.25342428E+03</pdfrwt>
<totfact> 0.69475269E+03</totfact>
</mgrwt>
</event>
<event>
 4    1  0.1807309E-004  0.2604844E+03  0.7818608E-02  0.1106853E+00
          2   -1    0    0  501    0  0.00000000000E+00  0.00000000000E+00  0.70266597620E+02  0.70266597620E+02  0.00000000000E+00 0.  1.
         -2   -1    0    0    0  501 -0.00000000000E+00 -0.00000000000E+00 -0.24140967754E+03  0.24140967754E+03  0.00000000000E+00 0.  1.
         25    1    1    2    0    0 -0.48538437003E+02 -0.86421173406E+01 -0.71805223739E+02  0.14827898103E+03  0.12000000000E+03 0.  0.
         25    1    1    2    0    0  0.48538437003E+02  0.86421173406E+01 -0.99337856185E+02  0.16339729413E+03  0.12000000000E+03 0.  0.
<mgrwt>
<rscale>  0 0.26048445E+03</rscale>
<asrwt>0</asrwt>
<pdfrwt beam="1">  1        2 0.10810246E-01 0.26048445E+03</pdfrwt>
<pdfrwt beam="2">  1       -2 0.37139951E-01 0.26048445E+03</pdfrwt>
<totfact> 0.39604424E+03</totfact>
</mgrwt>
</event>
<event>
 4    1  0.1807309E-004  0.4292265E+03  0.7818608E-02  0.1034105E+00
          3   -1    0    0  501    0  0.00000000000E+00  0.00000000000E+00  0.11413006617E+04  0.11413006617E+04  0.00000000000E+00 0. -1.
         -3   -1    0    0    0  501 -0.00000000000E+00 -0.00000000000E+00 -0.40356454517E+02  0.40356454517E+02  0.00000000000E+00 0. -1.
         25    1    1    2    0    0 -0.59800925673E+02  0.12894579305E+03  0.84512816456E+03  0.86535818179E+03  0.12000000000E+03 0.  0.
         25    1    1    2    0    0  0.59800925673E+02 -0.12894579305E+03  0.25581604261E+03  0.31629893441E+03  0.12000000000E+03 0.  0.
<mgrwt>
<rscale>  0 0.42922651E+03</rscale>
<asrwt>0</asrwt>
<pdfrwt beam="1">  1        3 0.17558469E+00 0.42922651E+03</pdfrwt>
<pdfrwt beam="2">  1       -3 0.62086862E-02 0.42922651E+03</pdfrwt>
<totfact> 0.94940526E+01</totfact>
</mgrwt>
</event>
<event>
 4    1  0.1807309E-004  0.3349494E+03  0.7818608E-02  0.1068968E+00
          1   -1    0    0  501    0  0.00000000000E+00  0.00000000000E+00  0.19674972397E+04  0.19674972397E+04  0.00000000000E+00 0.  1.
         -1   -1    0    0    0  501 -0.00000000000E+00 -0.00000000000E+00 -0.14255560919E+02  0.14255560919E+02  0.00000000000E+00 0.  1.
         25    1    1    2    0    0  0.99945968115E+02 -0.16816523623E+02  0.63285902151E+03  0.65206022200E+03  0.12000000000E+03 0.  0.
         25    1    1    2    0    0 -0.99945968115E+02  0.16816523623E+02  0.13203826573E+04  0.13296925786E+04  0.12000000000E+03 0.  0.
<mgrwt>
<rscale>  0 0.33494941E+03</rscale>
<asrwt>0</asrwt>
<pdfrwt beam="1">  1        1 0.30269167E+00 0.33494941E+03</pdfrwt>
<pdfrwt beam="2">  1       -1 0.21931648E-02 0.33494941E+03</pdfrwt>
<totfact> 0.21154711E+03</totfact>
</mgrwt>
</event>
<event>
 4    1  0.1807309E-004  0.2998293E+03  0.7818608E-02  0.1085326E+00
         -2   -1    0    0    0  501 -0.00000000000E+00  0.00000000000E+00  0.85584686522E+02  0.85584686522E+02  0.00000000000E+00 0. -1.
          2   -1    0    0  501    0  0.00000000000E+00 -0.00000000000E+00 -0.26259833862E+03  0.26259833862E+03  0.00000000000E+00 0. -1.
         25    1    1    2    0    0 -0.41640097660E+02 -0.76225779709E+02 -0.11524455214E+03  0.18768477302E+03  0.12000000000E+03 0.  0.
         25    1    1    2    0    0  0.41640097660E+02  0.76225779709E+02 -0.61769099964E+02  0.16049825213E+03  0.12000000000E+03 0.  0.
<mgrwt>
<rscale>  0 0.29982926E+03</rscale>
<asrwt>0</asrwt>
<pdfrwt beam="1">  1        2 0.40399744E-01 0.29982926E+03</pdfrwt>
<pdfrwt beam="2">  1       -2 0.13166875E-01 0.29982926E+03</pdfrwt>
<totfact> 0.53541149E+03</totfact>
</mgrwt>
</event>
<event>
 4    1  0.1807309E-004  0.3095408E+03  0.7818608E-02  0.1080566E+00
          2   -1    0    0  501    0  0.00000000000E+00  0.00000000000E+00  0.16217482780E+02  0.16217482780E+02  0.00000000000E+00 0.  1.
         -2   -1    0    0    0  501 -0.00000000000E+00 -0.00000000000E+00 -0.14770399931E+04  0.14770399931E+04  0.00000000000E+00 0.  1.
         25    1    1    2    0    0  0.24857762384E+02  0.20843334113E+02 -0.28561094202E+03  0.31148990856E+03  0.12000000000E+03 0.  0.
         25    1    1    2    0    0 -0.24857762384E+02 -0.20843334113E+02 -0.11752115683E+04  0.11817675674E+04  0.12000000000E+03 0.  0.
<mgrwt>
<rscale>  0 0.30954076E+03</rscale>
<asrwt>0</asrwt>
<pdfrwt beam="1">  1        2 0.24949969E-02 0.30954076E+03</pdfrwt>
<pdfrwt beam="2">  1       -2 0.22723696E+00 0.30954076E+03</pdfrwt>
<totfact> 0.39557650E+02</totfact>
</mgrwt>
</event>
<event>
 4    1  0.1807309E-004  0.2698953E+03  0.7818608E-02  0.1101340E+00
         -4   -1    0    0    0  501 -0.00000000000E+00  0.00000000000E+00  0.10613992868E+03  0.10613992868E+03  0.00000000000E+00 0.  1.
          4   -1    0    0  501    0  0.00000000000E+00 -0.00000000000E+00 -0.17157414029E+03  0.17157414029E+03  0.00000000000E+00 0.  1.
         25    1    1    2    0    0 -0.52144224786E+02 -0.96615070060E+00  0.12687108681E+01  0.13084939149E+03  0.12000000000E+03 0.  0.
         25    1    1    2    0    0  0.52144224786E+02  0.96615070060E+00 -0.66702922481E+02  0.14686467749E+03  0.12000000000E+03 0.  0.
<mgrwt>
<rscale>  0 0.26989529E+03</rscale>
<asrwt>0</asrwt>
<pdfrwt beam="1">  1        4 0.26396021E-01 0.26989529E+03</pdfrwt>
<pdfrwt beam="2">  1       -4 0.16329220E-01 0.26989529E+03</pdfrwt>
<totfact> 0.82168493E+02</totfact>
</mgrwt>
</event>
<event>
 4    1  0.1807309E-004  0.2600905E+03  0.7818608E-02  0.1107089E+00
         -2   -1    0    0    0  501 -0.00000000000E+00  0.00000000000E+00  0.23996562042E+02  0.23996562042E+02  0.00000000000E+00 0.  1.
          2   -1    0    0  501    0  0.00000000000E+00 -0.00000000000E+00 -0.70475811169E+03  0.70475811169E+03  0.00000000000E+00 0.  1.
         25    1    1    2    0    0 -0.80309428838E+01 -0.33037849553E+02 -0.44355015155E+03  0.46075235484E+03  0.12000000000E+03 0.  0.
         25    1    1    2    0    0  0.80309428838E+01  0.33037849553E+02 -0.23721139810E+03  0.26800231890E+03  0.12000000000E+03 0.  0.
<mgrwt>
<rscale>  0 0.26009054E+03</rscale>
<asrwt>0</asrwt>
<pdfrwt beam="1">  1        2 0.10842431E+00 0.26009054E+03</pdfrwt>
<pdfrwt beam="2">  1       -2 0.36917792E-02 0.26009054E+03</pdfrwt>
<totfact> 0.12811463E+04</totfact>
</mgrwt>
</event>
<event>
 4    1  0.1807309E-004  0.2579586E+03  0.7818608E-02  0.1108376E+00
          2   -1    0    0  501    0  0.00000000000E+00  0.00000000000E+00  0.15058108664E+04  0.15058108664E+04  0.00000000000E+00 0.  1.
         -2   -1    0    0    0  501 -0.00000000000E+00 -0.00000000000E+00 -0.11047643904E+02  0.11047643904E+02  0.00000000000E+00 0.  1.
         25    1    1    2    0    0  0.20420242725E+02  0.94448802480E+01  0.50284067714E+03  0.51745042145E+03  0.12000000000E+03 0.  0.
         25    1    1    2    0    0 -0.20420242725E+02 -0.94448802480E+01  0.99192254535E+03  0.99940808885E+03  0.12000000000E+03 0.  0.
<mgrwt>
<rscale>  0 0.25795862E+03</rscale>
<asrwt>0</asrwt>
<pdfrwt beam="1">  1        2 0.23166305E+00 0.25795862E+03</pdfrwt>
<pdfrwt beam="2">  1       -2 0.16996387E-02 0.25795862E+03</pdfrwt>
<totfact> 0.13278191E+04</totfact>
</mgrwt>
</event>
<event>
 4    1  0.1807309E-004  0.2593771E+03  0.7818608E-02  0.1107518E+00
          2   -1    0    0  501    0  0.00000000000E+00  0.00000000000E+00  0.17039397123E+03  0.17039397123E+03  0.00000000000E+00 0. -1.
         -2   -1    0    0    0  501 -0.00000000000E+00 -0.00000000000E+00 -0.98707281210E+02  0.98707281210E+02  0.00000000000E+00 0. -1.
         25    1    1    2    0    0  0.11700062365E+01  0.10889698442E+02  0.85590662827E+02  0.14780296347E+03  0.12000000000E+03 0.  0.
         25    1    1    2    0    0 -0.11700062365E+01 -0.10889698442E+02 -0.13903972811E+02  0.12129828897E+03  0.12000000000E+03 0.  0.
<mgrwt>
<rscale>  0 0.25937714E+03</rscale>
<asrwt>0</asrwt>
<pdfrwt beam="1">  1        2 0.26214457E-01 0.25937714E+03</pdfrwt>
<pdfrwt beam="2">  1       -2 0.15185736E-01 0.25937714E+03</pdfrwt>
<totfact> 0.67609705E+03</totfact>
</mgrwt>
</event>
<event>
 4    1  0.1807309E-004  0.3284295E+03  0.7818608E-02  0.1071834E+00
         -2   -1    0    0    0  501 -0.00000000000E+00  0.00000000000E+00  0.11043144186E+03  0.11043144186E+03  0.00000000000E+00 0. -1.
          2   -1    0    0  501    0  0.00000000000E+00 -0.00000000000E+00 -0.24419201680E+03  0.24419201680E+03  0.00000000000E+00 0. -1.
         25    1    1    2    0    0 -0.82741389138E+02  0.43396873940E+02 -0.13376457621E+03  0.20253984297E+03  0.12000000000E+03 0.  0.
         25    1    1    2    0    0  0.82741389138E+02 -0.43396873940E+02  0.40012594497E-02  0.15208361569E+03  0.12000000000E+03 0.  0.
<mgrwt>
<rscale>  0 0.32842945E+03</rscale>
<asrwt>0</asrwt>
<pdfrwt beam="1">  1        2 0.37568002E-01 0.32842945E+03</pdfrwt>
<pdfrwt beam="2">  1       -2 0.16989453E-01 0.32842945E+03</pdfrwt>
<totfact> 0.38065820E+03</totfact>
</mgrwt>
</event>
<event>
 4    1  0.1807309E-004  0.2714743E+03  0.7818608E-02  0.1100439E+00
          1   -1    0    0  501    0  0.00000000000E+00  0.00000000000E+00  0.29871695421E+03  0.29871695421E+03  0.00000000000E+00 0. -1.
         -1   -1    0    0    0  501 -0.00000000000E+00 -0.00000000000E+00 -0.61679028623E+02  0.61679028623E+02  0.00000000000E+00 0. -1.
         25    1    1    2    0    0 -0.24186088655E+02  0.57099314694E+02  0.13629392247E+03  0.19188885305E+03  0.12000000000E+03 0.  0.
         25    1    1    2    0    0  0.24186088655E+02 -0.57099314694E+02  0.10074400312E+03  0.16850712978E+03  0.12000000000E+03 0.  0.
<mgrwt>
<rscale>  0 0.27147428E+03</rscale>
<asrwt>0</asrwt>
<pdfrwt beam="1">  1        1 0.45956454E-01 0.27147428E+03</pdfrwt>
<pdfrwt beam="2">  1       -1 0.94890815E-02 0.27147428E+03</pdfrwt>
<totfact> 0.57834502E+03</totfact>
</mgrwt>
</event>
<event>
 4    1  0.1807309E-004  0.2543608E+03  0.7818608E-02  0.1110579E+00
         -3   -1    0    0    0  501 -0.00000000000E+00  0.00000000000E+00  0.60525575344E+02  0.60525575344E+02  0.00000000000E+00 0.  1.
          3   -1    0    0  501    0  0.00000000000E+00 -0.00000000000E+00 -0.26723999870E+03  0.26723999870E+03  0.00000000000E+00 0.  1.
         25    1    1    2    0    0  0.12752539084E+02 -0.37075345286E+02 -0.83492668598E+02  0.15135466359E+03  0.12000000000E+03 0.  0.
         25    1    1    2    0    0 -0.12752539084E+02  0.37075345286E+02 -0.12322175476E+03  0.17641091045E+03  0.12000000000E+03 0.  0.
<mgrwt>
<rscale>  0 0.25436080E+03</rscale>
<asrwt>0</asrwt>
<pdfrwt beam="1">  1        3 0.41113847E-01 0.25436080E+03</pdfrwt>
<pdfrwt beam="2">  1       -3 0.93116268E-02 0.25436080E+03</pdfrwt>
<totfact> 0.12335105E+03</totfact>
</mgrwt>
</event>
<event>
 4    1  0.1807309E-004  0.2482841E+03  0.7818608E-02  0.1114394E+00
         -2   -1    0    0    0  501 -0.00000000000E+00  0.00000000000E+00  0.95965018887E+03  0.95965018887E+03  0.00000000000E+00 0.  1.
          2   -1    0    0  501    0  0.00000000000E+00 -0.00000000000E+00 -0.16059241523E+02  0.16059241523E+02  0.00000000000E+00 0.  1.
         25    1    1    2    0    0  0.13242807733E+02  0.17467338598E+02  0.56233254732E+03  0.57541148203E+03  0.12000000000E+03 0.  0.
         25    1    1    2    0    0 -0.13242807733E+02 -0.17467338598E+02  0.38125840003E+03  0.40029794836E+03  0.12000000000E+03 0.  0.
<mgrwt>
<rscale>  0 0.24828414E+03</rscale>
<asrwt>0</asrwt>
<pdfrwt beam="1">  1        2 0.24706533E-02 0.24828414E+03</pdfrwt>
<pdfrwt beam="2">  1       -2 0.14763845E+00 0.24828414E+03</pdfrwt>
<totfact> 0.13456716E+03</totfact>
</mgrwt>
</event>
<event>
 4    1  0.1807309E-004  0.3083627E+03  0.7818608E-02  0.1081133E+00
         -2   -1    0    0    0  501 -0.00000000000E+00  0.00000000000E+00  0.17448860915E+02  0.17448860915E+02  0.00000000000E+00 0. -1.
          2   -1    0    0  501    0  0.00000000000E+00 -0.00000000000E+00 -0.13623750632E+04  0.13623750632E+04  0.00000000000E+00 0. -1.
         25    1    1    2    0    0 -0.94329334581E+02  0.99382561765E+01 -0.58579970081E+03  0.60544040315E+03  0.12000000000E+03 0.  0.
         25    1    1    2    0    0  0.94329334581E+02 -0.99382561765E+01 -0.75912650146E+03  0.77438352095E+03  0.12000000000E+03 0.  0.
<mgrwt>
<rscale>  0 0.30836273E+03</rscale>
<asrwt>0</asrwt>
<pdfrwt beam="1">  1        2 0.20959617E+00 0.30836273E+03</pdfrwt>
<pdfrwt beam="2">  1       -2 0.26844401E-02 0.30836273E+03</pdfrwt>
<totfact> 0.81192858E+03</totfact>
</mgrwt>
</event>
<event>
 4    1  0.1807309E-004  0.2843905E+03  0.7818608E-02  0.1093315E+00
         -2   -1    0    0    0  501 -0.00000000000E+00  0.00000000000E+00  0.45109741281E+02  0.45109741281E+02  0.00000000000E+00 0.  1.
          2   -1    0    0  501    0  0.00000000000E+00 -0.00000000000E+00 -0.44822884659E+03  0.44822884659E+03  0.00000000000E+00 0.  1.
         25    1    1    2    0    0 -0.75264090382E+02  0.10729395578E+02 -0.21248748867E+03  0.25559877948E+03  0.12000000000E+03 0.  0.
         25    1    1    2    0    0  0.75264090382E+02 -0.10729395578E+02 -0.19063161664E+03  0.23773980839E+03  0.12000000000E+03 0.  0.
<mgrwt>
<rscale>  0 0.28439049E+03</rscale>
<asrwt>0</asrwt>
<pdfrwt beam="1">  1        2 0.68958282E-01 0.28439049E+03</pdfrwt>
<pdfrwt beam="2">  1       -2 0.69399605E-02 0.28439049E+03</pdfrwt>
<totfact> 0.82758904E+03</totfact>
</mgrwt>
</event>
<event>
 4    1  0.1807309E-004  0.2676561E+03  0.7818608E-02  0.1102629E+00
         -1   -1    0    0    0  501 -0.00000000000E+00  0.00000000000E+00  0.60105584156E+03  0.60105584156E+03  0.00000000000E+00 0. -1.
          1   -1    0    0  501    0  0.00000000000E+00 -0.00000000000E+00 -0.29797478686E+02  0.29797478686E+02  0.00000000000E+00 0. -1.
         25    1    1    2    0    0  0.40422224026E+02 -0.39966432380E+02  0.24628309252E+03  0.27979748672E+03  0.12000000000E+03 0.  0.
         25    1    1    2    0    0 -0.40422224026E+02  0.39966432380E+02  0.32497527036E+03  0.35105583353E+03  0.12000000000E+03 0.  0.
<mgrwt>
<rscale>  0 0.26765611E+03</rscale>
<asrwt>0</asrwt>
<pdfrwt beam="1">  1        1 0.45842279E-02 0.26765611E+03</pdfrwt>
<pdfrwt beam="2">  1       -1 0.92470121E-01 0.26765611E+03</pdfrwt>
<totfact> 0.22457848E+03</totfact>
</mgrwt>
</event>
<event>
 4    1  0.1807309E-004  0.3666414E+03  0.7818608E-02  0.1055985E+00
         -2   -1    0    0    0  501 -0.00000000000E+00  0.00000000000E+00  0.55714115317E+02  0.55714115317E+02  0.00000000000E+00 0.  1.
          2   -1    0    0  501    0  0.00000000000E+00 -0.00000000000E+00 -0.60319511409E+03  0.60319511409E+03  0.00000000000E+00 0.  1.
         25    1    1    2    0    0 -0.66455361968E+02  0.33933293434E+02 -0.63860751244E+02  0.15506765971E+03  0.12000000000E+03 0.  0.
         25    1    1    2    0    0  0.66455361968E+02 -0.33933293434E+02 -0.48362024753E+03  0.50384156970E+03  0.12000000000E+03 0.  0.
<mgrwt>
<rscale>  0 0.36664142E+03</rscale>
<asrwt>0</asrwt>
<pdfrwt beam="1">  1        2 0.92799243E-01 0.36664142E+03</pdfrwt>
<pdfrwt beam="2">  1       -2 0.85714029E-02 0.36664142E+03</pdfrwt>
<totfact> 0.42728844E+03</totfact>
</mgrwt>
</event>
<event>
 4    1  0.1807309E-004  0.2506721E+03  0.7818608E-02  0.1112881E+00
         -1   -1    0    0    0  501 -0.00000000000E+00  0.00000000000E+00  0.19088027523E+02  0.19088027523E+02  0.00000000000E+00 0.  1.
          1   -1    0    0  501    0  0.00000000000E+00 -0.00000000000E+00 -0.82298347788E+03  0.82298347788E+03  0.00000000000E+00 0.  1.
         25    1    1    2    0    0  0.13969103247E+02 -0.44581218642E+01 -0.51306344016E+03  0.52711393865E+03  0.12000000000E+03 0.  0.
         25    1    1    2    0    0 -0.13969103247E+02  0.44581218642E+01 -0.29083201020E+03  0.31495756675E+03  0.12000000000E+03 0.  0.
<mgrwt>
<rscale>  0 0.25067215E+03</rscale>
<asrwt>0</asrwt>
<pdfrwt beam="1">  1        1 0.12661286E+00 0.25067215E+03</pdfrwt>
<pdfrwt beam="2">  1       -1 0.29366192E-02 0.25067215E+03</pdfrwt>
<totfact> 0.85336093E+03</totfact>
</mgrwt>
</event>
<event>
 4    1  0.1807309E-004  0.2455752E+03  0.7818608E-02  0.1116134E+00
          2   -1    0    0  501    0  0.00000000000E+00  0.00000000000E+00  0.17691346299E+04  0.17691346299E+04  0.00000000000E+00 0.  1.
         -2   -1    0    0    0  501 -0.00000000000E+00 -0.00000000000E+00 -0.85221318257E+01  0.85221318257E+01  0.00000000000E+00 0.  1.
         25    1    1    2    0    0 -0.17108450413E+02  0.85620229797E+01  0.75269242621E+03  0.76243812587E+03  0.12000000000E+03 0.  0.
         25    1    1    2    0    0  0.17108450413E+02 -0.85620229797E+01  0.10079200719E+04  0.10152186359E+04  0.12000000000E+03 0.  0.
<mgrwt>
<rscale>  0 0.24557523E+03</rscale>
<asrwt>0</asrwt>
<pdfrwt beam="1">  1        2 0.27217427E+00 0.24557523E+03</pdfrwt>
<pdfrwt beam="2">  1       -2 0.13110986E-02 0.24557523E+03</pdfrwt>
<totfact> 0.14067572E+04</totfact>
</mgrwt>
</event>
<event>
 4    1  0.1807309E-004  0.2817242E+03  0.7818608E-02  0.1094751E+00
         -2   -1    0    0    0  501 -0.00000000000E+00  0.00000000000E+00  0.78074953975E+02  0.78074953975E+02  0.00000000000E+00 0.  1.
          2   -1    0    0  501    0  0.00000000000E+00 -0.00000000000E+00 -0.25414214052E+03  0.25414214052E+03  0.00000000000E+00 0.  1.
         25    1    1    2    0    0 -0.62589943989E+02 -0.25243280317E+02 -0.52905034769E+02  0.14749124379E+03  0.12000000000E+03 0.  0.
         25    1    1    2    0    0  0.62589943989E+02  0.25243280317E+02 -0.12316215177E+03  0.18472585071E+03  0.12000000000E+03 0.  0.
<mgrwt>
<rscale>  0 0.28172423E+03</rscale>
<asrwt>0</asrwt>
<pdfrwt beam="1">  1        2 0.39098791E-01 0.28172423E+03</pdfrwt>
<pdfrwt beam="2">  1       -2 0.12011531E-01 0.28172423E+03</pdfrwt>
<totfact> 0.64265485E+03</totfact>
</mgrwt>
</event>
<event>
 4    1  0.1807309E-004  0.6058392E+03  0.7818608E-02  0.9893365E-01
          4   -1    0    0  501    0  0.00000000000E+00  0.00000000000E+00  0.37201573740E+03  0.37201573740E+03  0.00000000000E+00 0.  1.
         -4   -1    0    0    0  501 -0.00000000000E+00 -0.00000000000E+00 -0.24665699403E+03  0.24665699403E+03  0.00000000000E+00 0.  1.
         25    1    1    2    0    0 -0.23452931186E+03 -0.91677346352E+02  0.18329812313E+03  0.33377677555E+03  0.12000000000E+03 0.  0.
         25    1    1    2    0    0  0.23452931186E+03  0.91677346352E+02 -0.57939379759E+02  0.28489595589E+03  0.12000000000E+03 0.  0.
<mgrwt>
<rscale>  0 0.60583920E+03</rscale>
<asrwt>0</asrwt>
<pdfrwt beam="1">  1        4 0.57233191E-01 0.60583920E+03</pdfrwt>
<pdfrwt beam="2">  1       -4 0.37947230E-01 0.60583920E+03</pdfrwt>
<totfact> 0.38770541E+01</totfact>
</mgrwt>
</event>
<event>
 4    1  0.1807309E-004  0.2480805E+03  0.7818608E-02  0.1114524E+00
          1   -1    0    0  501    0  0.00000000000E+00  0.00000000000E+00  0.14653029754E+03  0.14653029754E+03  0.00000000000E+00 0. -1.
         -1   -1    0    0    0  501 -0.00000000000E+00 -0.00000000000E+00 -0.10500209301E+03  0.10500209301E+03  0.00000000000E+00 0. -1.
         25    1    1    2    0    0  0.25464948617E+02  0.28241972982E+01  0.23580469494E+01  0.12272734041E+03  0.12000000000E+03 0.  0.
         25    1    1    2    0    0 -0.25464948617E+02 -0.28241972982E+01  0.39170157582E+02  0.12880505015E+03  0.12000000000E+03 0.  0.
<mgrwt>
<rscale>  0 0.24808053E+03</rscale>
<asrwt>0</asrwt>
<pdfrwt beam="1">  1        1 0.22543123E-01 0.24808053E+03</pdfrwt>
<pdfrwt beam="2">  1       -1 0.16154168E-01 0.24808053E+03</pdfrwt>
<totfact> 0.61539717E+03</totfact>
</mgrwt>
</event>
<event>
 4    1  0.1807309E-004  0.3974301E+03  0.7818608E-02  0.1044673E+00
         -2   -1    0    0    0  501 -0.00000000000E+00  0.00000000000E+00  0.39097270207E+02  0.39097270207E+02  0.00000000000E+00 0.  1.
          2   -1    0    0  501    0  0.00000000000E+00 -0.00000000000E+00 -0.10099851473E+04  0.10099851473E+04  0.00000000000E+00 0.  1.
         25    1    1    2    0    0  0.11928396030E+03  0.94733678477E+02 -0.60003489261E+03  0.63059099690E+03  0.12000000000E+03 0.  0.
         25    1    1    2    0    0 -0.11928396030E+03 -0.94733678477E+02 -0.37085298450E+03  0.41849142062E+03  0.12000000000E+03 0.  0.
<mgrwt>
<rscale>  0 0.39743006E+03</rscale>
<asrwt>0</asrwt>
<pdfrwt beam="1">  1        2 0.15538234E+00 0.39743006E+03</pdfrwt>
<pdfrwt beam="2">  1       -2 0.60149643E-02 0.39743006E+03</pdfrwt>
<totfact> 0.38326310E+03</totfact>
</mgrwt>
</event>
<event>
 4    1  0.1807309E-004  0.2603603E+03  0.7818608E-02  0.1106927E+00
         -1   -1    0    0    0  501 -0.00000000000E+00  0.00000000000E+00  0.28266780492E+03  0.28266780492E+03  0.00000000000E+00 0.  1.
          1   -1    0    0  501    0  0.00000000000E+00 -0.00000000000E+00 -0.59953323810E+02  0.59953323810E+02  0.00000000000E+00 0.  1.
         25    1    1    2    0    0  0.76251104793E+01  0.26456035066E+02  0.16701445772E+03  0.20748950140E+03  0.12000000000E+03 0.  0.
         25    1    1    2    0    0 -0.76251104793E+01 -0.26456035066E+02  0.55700023391E+02  0.13513162734E+03  0.12000000000E+03 0.  0.
<mgrwt>
<rscale>  0 0.26036032E+03</rscale>
<asrwt>0</asrwt>
<pdfrwt beam="1">  1        1 0.92235885E-02 0.26036032E+03</pdfrwt>
<pdfrwt beam="2">  1       -1 0.43487354E-01 0.26036032E+03</pdfrwt>
<totfact> 0.37750598E+03</totfact>
</mgrwt>
</event>
<event>
 4    1  0.1807309E-004  0.2414886E+03  0.7818608E-02  0.1118805E+00
          2   -1    0    0  501    0  0.00000000000E+00  0.00000000000E+00  0.11975587398E+04  0.11975587398E+04  0.00000000000E+00 0.  1.
         -2   -1    0    0    0  501 -0.00000000000E+00 -0.00000000000E+00 -0.12174089124E+02  0.12174089124E+02  0.00000000000E+00 0.  1.
         25    1    1    2    0    0  0.17343410335E+01 -0.82173426855E+01  0.64490981859E+03  0.65603293117E+03  0.12000000000E+03 0.  0.
         25    1    1    2    0    0 -0.17343410335E+01  0.82173426855E+01  0.54047483208E+03  0.55369989775E+03  0.12000000000E+03 0.  0.
<mgrwt>
<rscale>  0 0.24148861E+03</rscale>
<asrwt>0</asrwt>
<pdfrwt beam="1">  1        2 0.18423971E+00 0.24148861E+03</pdfrwt>
<pdfrwt beam="2">  1       -2 0.18729377E-02 0.24148861E+03</pdfrwt>
<totfact> 0.16948098E+04</totfact>
</mgrwt>
</event>
<event>
 4    1  0.1807309E-004  0.2907562E+03  0.7818608E-02  0.1089955E+00
         -2   -1    0    0    0  501 -0.00000000000E+00  0.00000000000E+00  0.10625779031E+02  0.10625779031E+02  0.00000000000E+00 0. -1.
          2   -1    0    0  501    0  0.00000000000E+00 -0.00000000000E+00 -0.19890117050E+04  0.19890117050E+04  0.00000000000E+00 0. -1.
         25    1    1    2    0    0  0.97300936662E+01  0.82906473964E+01 -0.15467005890E+04  0.15514013413E+04  0.12000000000E+03 0.  0.
         25    1    1    2    0    0 -0.97300936662E+01 -0.82906473964E+01 -0.43168533690E+03  0.44823614273E+03  0.12000000000E+03 0.  0.
<mgrwt>
<rscale>  0 0.29075625E+03</rscale>
<asrwt>0</asrwt>
<pdfrwt beam="1">  1        2 0.30600203E+00 0.29075625E+03</pdfrwt>
<pdfrwt beam="2">  1       -2 0.16347340E-02 0.29075625E+03</pdfrwt>
<totfact> 0.78344330E+03</totfact>
</mgrwt>
</event>
<event>
 4    1  0.1807309E-004  0.2505837E+03  0.7818608E-02  0.1112936E+00
         -1   -1    0    0    0  501 -0.00000000000E+00  0.00000000000E+00  0.23393339111E+02  0.23393339111E+02  0.00000000000E+00 0.  1.
          1   -1    0    0  501    0  0.00000000000E+00 -0.00000000000E+00 -0.67104781650E+03  0.67104781650E+03  0.00000000000E+00 0.  1.
         25    1    1    2    0    0  0.10878550229E+02 -0.30547455525E+02 -0.36734266599E+03  0.38780423431E+03  0.12000000000E+03 0.  0.
         25    1    1    2    0    0 -0.10878550229E+02  0.30547455525E+02 -0.28031181140E+03  0.30663692130E+03  0.12000000000E+03 0.  0.
<mgrwt>
<rscale>  0 0.25058371E+03</rscale>
<asrwt>0</asrwt>
<pdfrwt beam="1">  1        1 0.10323813E+00 0.25058371E+03</pdfrwt>
<pdfrwt beam="2">  1       -1 0.35989751E-02 0.25058371E+03</pdfrwt>
<totfact> 0.85684147E+03</totfact>
</mgrwt>
</event>
<event>
 4    1  0.1807309E-004  0.2469711E+03  0.7818608E-02  0.1115234E+00
          2   -1    0    0  501    0  0.00000000000E+00  0.00000000000E+00  0.69681868123E+03  0.69681868123E+03  0.00000000000E+00 0. -1.
         -2   -1    0    0    0  501 -0.00000000000E+00 -0.00000000000E+00 -0.21883282366E+02  0.21883282366E+02  0.00000000000E+00 0. -1.
         25    1    1    2    0    0  0.27232613488E+02 -0.88861768815E+01  0.32204144915E+03  0.34486413897E+03  0.12000000000E+03 0.  0.
         25    1    1    2    0    0 -0.27232613488E+02  0.88861768815E+01  0.35289394971E+03  0.37383782462E+03  0.12000000000E+03 0.  0.
<mgrwt>
<rscale>  0 0.24697109E+03</rscale>
<asrwt>0</asrwt>
<pdfrwt beam="1">  1        2 0.10720286E+00 0.24697109E+03</pdfrwt>
<pdfrwt beam="2">  1       -2 0.33666594E-02 0.24697109E+03</pdfrwt>
<totfact> 0.14873135E+04</totfact>
</mgrwt>
</event>
<event>
 4    1  0.1807309E-004  0.2891887E+03  0.7818608E-02  0.1090773E+00
         -2   -1    0    0    0  501 -0.00000000000E+00  0.00000000000E+00  0.62372698915E+02  0.62372698915E+02  0.00000000000E+00 0.  1.
          2   -1    0    0  501    0  0.00000000000E+00 -0.00000000000E+00 -0.33520326757E+03  0.33520326757E+03  0.00000000000E+00 0.  1.
         25    1    1    2    0    0 -0.56058545053E+02 -0.57707920417E+02 -0.14452168684E+03  0.20435088089E+03  0.12000000000E+03 0.  0.
         25    1    1    2    0    0  0.56058545053E+02  0.57707920417E+02 -0.12830888182E+03  0.19322508560E+03  0.12000000000E+03 0.  0.
<mgrwt>
<rscale>  0 0.28918874E+03</rscale>
<asrwt>0</asrwt>
<pdfrwt beam="1">  1        2 0.51569734E-01 0.28918874E+03</pdfrwt>
<pdfrwt beam="2">  1       -2 0.95957997E-02 0.28918874E+03</pdfrwt>
<totfact> 0.68369924E+03</totfact>
</mgrwt>
</event>
<event>
 4    1  0.1807309E-004  0.2750924E+03  0.7818608E-02  0.1098400E+00
          2   -1    0    0  501    0  0.00000000000E+00  0.00000000000E+00  0.10376775246E+04  0.10376775246E+04  0.00000000000E+00 0.  1.
         -2   -1    0    0    0  501 -0.00000000000E+00 -0.00000000000E+00 -0.18232023959E+02  0.18232023959E+02  0.00000000000E+00 0.  1.
         25    1    1    2    0    0  0.28257829356E+02  0.60977601070E+02  0.50404410099E+03  0.52247222749E+03  0.12000000000E+03 0.  0.
         25    1    1    2    0    0 -0.28257829356E+02 -0.60977601070E+02  0.51540139967E+03  0.53343732109E+03  0.12000000000E+03 0.  0.
<mgrwt>
<rscale>  0 0.27509243E+03</rscale>
<asrwt>0</asrwt>
<pdfrwt beam="1">  1        2 0.15964265E+00 0.27509243E+03</pdfrwt>
<pdfrwt beam="2">  1       -2 0.28049276E-02 0.27509243E+03</pdfrwt>
<totfact> 0.11632793E+04</totfact>
</mgrwt>
</event>
<event>
 4    1  0.1807309E-004  0.3072592E+03  0.7818608E-02  0.1081667E+00
          2   -1    0    0  501    0  0.00000000000E+00  0.00000000000E+00  0.63613056654E+02  0.63613056654E+02  0.00000000000E+00 0. -1.
         -2   -1    0    0    0  501 -0.00000000000E+00 -0.00000000000E+00 -0.37102539481E+03  0.37102539481E+03  0.00000000000E+00 0. -1.
         25    1    1    2    0    0  0.17842313203E+02  0.58336611594E+02 -0.25842753866E+03  0.29138685819E+03  0.12000000000E+03 0.  0.
         25    1    1    2    0    0 -0.17842313203E+02 -0.58336611594E+02 -0.48984799504E+02  0.14325159327E+03  0.12000000000E+03 0.  0.
<mgrwt>
<rscale>  0 0.30725924E+03</rscale>
<asrwt>0</asrwt>
<pdfrwt beam="1">  1        2 0.97866243E-02 0.30725924E+03</pdfrwt>
<pdfrwt beam="2">  1       -2 0.57080829E-01 0.30725924E+03</pdfrwt>
<totfact> 0.19339416E+03</totfact>
</mgrwt>
</event>
<event>
 4    1  0.1807309E-004  0.2631812E+03  0.7818608E-02  0.1105247E+00
          3   -1    0    0  501    0  0.00000000000E+00  0.00000000000E+00  0.16248383371E+03  0.16248383371E+03  0.00000000000E+00 0.  1.
         -3   -1    0    0    0  501 -0.00000000000E+00 -0.00000000000E+00 -0.10657110636E+03  0.10657110636E+03  0.00000000000E+00 0.  1.
         25    1    1    2    0    0  0.44452603473E+02 -0.21385234384E+02  0.54951262348E+01  0.12985976520E+03  0.12000000000E+03 0.  0.
         25    1    1    2    0    0 -0.44452603473E+02  0.21385234384E+02  0.50417601120E+02  0.13919517487E+03  0.12000000000E+03 0.  0.
<mgrwt>
<rscale>  0 0.26318117E+03</rscale>
<asrwt>0</asrwt>
<pdfrwt beam="1">  1        3 0.24997513E-01 0.26318117E+03</pdfrwt>
<pdfrwt beam="2">  1       -3 0.16395555E-01 0.26318117E+03</pdfrwt>
<totfact> 0.12105075E+03</totfact>
</mgrwt>
</event>
<event>
 4    1  0.1807309E-004  0.2953330E+03  0.7818608E-02  0.1087597E+00
          2   -1    0    0  501    0  0.00000000000E+00  0.00000000000E+00  0.17864739306E+04  0.17864739306E+04  0.00000000000E+00 0. -1.
         -2   -1    0    0    0  501 -0.00000000000E+00 -0.00000000000E+00 -0.12205827170E+02  0.12205827170E+02  0.00000000000E+00 0. -1.
         25    1    1    2    0    0 -0.39507933440E+02  0.73882984399E+02  0.76750568118E+03  0.78133510278E+03  0.12000000000E+03 0.  0.
         25    1    1    2    0    0  0.39507933440E+02 -0.73882984399E+02  0.10067624223E+04  0.10173446550E+04  0.12000000000E+03 0.  0.
<mgrwt>
<rscale>  0 0.29533298E+03</rscale>
<asrwt>0</asrwt>
<pdfrwt beam="1">  1        2 0.27484194E+00 0.29533298E+03</pdfrwt>
<pdfrwt beam="2">  1       -2 0.18778210E-02 0.29533298E+03</pdfrwt>
<totfact> 0.81691260E+03</totfact>
</mgrwt>
</event>
<event>
 4    1  0.1807309E-004  0.2613065E+03  0.7818608E-02  0.1106361E+00
          1   -1    0    0  501    0  0.00000000000E+00  0.00000000000E+00  0.51992846242E+03  0.51992846242E+03  0.00000000000E+00 0.  1.
         -1   -1    0    0    0  501 -0.00000000000E+00 -0.00000000000E+00 -0.32831974944E+02  0.32831974944E+02  0.00000000000E+00 0.  1.
         25    1    1    2    0    0  0.30345941348E+02  0.19207126415E+02  0.16495177480E+03  0.20712044291E+03  0.12000000000E+03 0.  0.
         25    1    1    2    0    0 -0.30345941348E+02 -0.19207126415E+02  0.32214471268E+03  0.34563999445E+03  0.12000000000E+03 0.  0.
<mgrwt>
<rscale>  0 0.26130655E+03</rscale>
<asrwt>0</asrwt>
<pdfrwt beam="1">  1        1 0.79988988E-01 0.26130655E+03</pdfrwt>
<pdfrwt beam="2">  1       -1 0.50510735E-02 0.26130655E+03</pdfrwt>
<totfact> 0.73725268E+03</totfact>
</mgrwt>
</event>
<event>
 4    1  0.1807309E-004  0.4135299E+03  0.7818608E-02  0.1039193E+00
         -1   -1    0    0    0  501 -0.00000000000E+00  0.00000000000E+00  0.10031354449E+03  0.10031354449E+03  0.00000000000E+00 0. -1.
          1   -1    0    0  501    0  0.00000000000E+00 -0.00000000000E+00 -0.42618110249E+03  0.42618110249E+03  0.00000000000E+00 0. -1.
         25    1    1    2    0    0  0.91785574604E+02  0.11854262621E+03 -0.26051883021E+03  0.32364642254E+03  0.12000000000E+03 0.  0.
         25    1    1    2    0    0 -0.91785574604E+02 -0.11854262621E+03 -0.65348727793E+02  0.20284822444E+03  0.12000000000E+03 0.  0.
<mgrwt>
<rscale>  0 0.41352986E+03</rscale>
<asrwt>0</asrwt>
<pdfrwt beam="1">  1        1 0.65566323E-01 0.41352986E+03</pdfrwt>
<pdfrwt beam="2">  1       -1 0.15432853E-01 0.41352986E+03</pdfrwt>
<totfact> 0.17207484E+03</totfact>
</mgrwt>
</event>
<event>
 4    1  0.1807309E-004  0.2782484E+03  0.7818608E-02  0.1096649E+00
          2   -1    0    0  501    0  0.00000000000E+00  0.00000000000E+00  0.14555966313E+04  0.14555966313E+04  0.00000000000E+00 0. -1.
         -2   -1    0    0    0  501 -0.00000000000E+00 -0.00000000000E+00 -0.13297327758E+02  0.13297327758E+02  0.00000000000E+00 0. -1.
         25    1    1    2    0    0  0.45975561775E+02 -0.53164359819E+02  0.70047073384E+03  0.71414245806E+03  0.12000000000E+03 0.  0.
         25    1    1    2    0    0 -0.45975561775E+02  0.53164359819E+02  0.74182856966E+03  0.75475150096E+03  0.12000000000E+03 0.  0.
<mgrwt>
<rscale>  0 0.27824842E+03</rscale>
<asrwt>0</asrwt>
<pdfrwt beam="1">  1        2 0.22393782E+00 0.27824842E+03</pdfrwt>
<pdfrwt beam="2">  1       -2 0.20457439E-02 0.27824842E+03</pdfrwt>
<totfact> 0.10781394E+04</totfact>
</mgrwt>
</event>
<event>
 4    1  0.1807309E-004  0.2498155E+03  0.7818608E-02  0.1113421E+00
         -4   -1    0    0    0  501 -0.00000000000E+00  0.00000000000E+00  0.75947539432E+03  0.75947539432E+03  0.00000000000E+00 0. -1.
          4   -1    0    0  501    0  0.00000000000E+00 -0.00000000000E+00 -0.20543064273E+02  0.20543064273E+02  0.00000000000E+00 0. -1.
         25    1    1    2    0    0 -0.63916069724E+01  0.21333998595E+02  0.28650489842E+03  0.31141780449E+03  0.12000000000E+03 0.  0.
         25    1    1    2    0    0  0.63916069724E+01 -0.21333998595E+02  0.45242743163E+03  0.46860065410E+03  0.12000000000E+03 0.  0.
<mgrwt>
<rscale>  0 0.24981555E+03</rscale>
<asrwt>0</asrwt>
<pdfrwt beam="1">  1        4 0.31604720E-02 0.24981555E+03</pdfrwt>
<pdfrwt beam="2">  1       -4 0.11684235E+00 0.24981555E+03</pdfrwt>
<totfact> 0.54256635E+02</totfact>
</mgrwt>
</event>
<event>
 4    1  0.1807309E-004  0.2816138E+03  0.7818608E-02  0.1094811E+00
          2   -1    0    0  501    0  0.00000000000E+00  0.00000000000E+00  0.16148038193E+03  0.16148038193E+03  0.00000000000E+00 0. -1.
         -2   -1    0    0    0  501 -0.00000000000E+00 -0.00000000000E+00 -0.12278016045E+03  0.12278016045E+03  0.00000000000E+00 0. -1.
         25    1    1    2    0    0 -0.52779598204E+02  0.46077064473E+01 -0.32313638177E+02  0.13509658825E+03  0.12000000000E+03 0.  0.
         25    1    1    2    0    0  0.52779598204E+02 -0.46077064473E+01  0.71013859657E+02  0.14916395412E+03  0.12000000000E+03 0.  0.
<mgrwt>
<rscale>  0 0.28161383E+03</rscale>
<asrwt>0</asrwt>
<pdfrwt beam="1">  1        2 0.24843136E-01 0.28161383E+03</pdfrwt>
<pdfrwt beam="2">  1       -2 0.18889255E-01 0.28161383E+03</pdfrwt>
<totfact> 0.49959741E+03</totfact>
</mgrwt>
</event>
<event>
 4    1  0.1807309E-004  0.4320848E+03  0.7818608E-02  0.1033203E+00
         -1   -1    0    0    0  501 -0.00000000000E+00  0.00000000000E+00  0.17047923280E+02  0.17047923280E+02  0.00000000000E+00 0.  1.
          1   -1    0    0  501    0  0.00000000000E+00 -0.00000000000E+00 -0.27378302551E+04  0.27378302551E+04  0.00000000000E+00 0.  1.
         25    1    1    2    0    0  0.72747804744E+02  0.13189747600E+03 -0.19846036810E+04  0.19939260161E+04  0.12000000000E+03 0.  0.
         25    1    1    2    0    0 -0.72747804744E+02 -0.13189747600E+03 -0.73617865088E+03  0.76095216228E+03  0.12000000000E+03 0.  0.
<mgrwt>
<rscale>  0 0.43208481E+03</rscale>
<asrwt>0</asrwt>
<pdfrwt beam="1">  1        1 0.42120467E+00 0.43208481E+03</pdfrwt>
<pdfrwt beam="2">  1       -1 0.26227573E-02 0.43208481E+03</pdfrwt>
<totfact> 0.49346005E+02</totfact>
</mgrwt>
</event>
<event>
 4    1  0.1807309E-004  0.5606651E+03  0.7818608E-02  0.9990551E-01
         -2   -1    0    0    0  501 -0.00000000000E+00  0.00000000000E+00  0.51514689002E+02  0.51514689002E+02  0.00000000000E+00 0. -1.
          2   -1    0    0  501    0  0.00000000000E+00 -0.00000000000E+00 -0.15255134741E+04  0.15255134741E+04  0.00000000000E+00 0. -1.
         25    1    1    2    0    0  0.15114119342E+03  0.93286758256E+02 -0.22882499987E+03  0.31353940770E+03  0.12000000000E+03 0.  0.
         25    1    1    2    0    0 -0.15114119342E+03 -0.93286758256E+02 -0.12451737853E+04  0.12634887554E+04  0.12000000000E+03 0.  0.
<mgrwt>
<rscale>  0 0.56066515E+03</rscale>
<asrwt>0</asrwt>
<pdfrwt beam="1">  1        2 0.23469439E+00 0.56066515E+03</pdfrwt>
<pdfrwt beam="2">  1       -2 0.79253364E-02 0.56066515E+03</pdfrwt>
<totfact> 0.12512651E+03</totfact>
</mgrwt>
</event>
<event>
 4    1  0.1807309E-004  0.2634348E+03  0.7818608E-02  0.1105097E+00
          2   -1    0    0  501    0  0.00000000000E+00  0.00000000000E+00  0.94006532493E+03  0.94006532493E+03  0.00000000000E+00 0.  1.
         -2   -1    0    0    0  501 -0.00000000000E+00 -0.00000000000E+00 -0.18455608646E+02  0.18455608646E+02  0.00000000000E+00 0.  1.
         25    1    1    2    0    0  0.45593787056E+02  0.74544377360E+01  0.35692340243E+03  0.37937933162E+03  0.12000000000E+03 0.  0.
         25    1    1    2    0    0 -0.45593787056E+02 -0.74544377360E+01  0.56468631385E+03  0.57914160195E+03  0.12000000000E+03 0.  0.
<mgrwt>
<rscale>  0 0.26343483E+03</rscale>
<asrwt>0</asrwt>
<pdfrwt beam="1">  1        2 0.14462540E+00 0.26343483E+03</pdfrwt>
<pdfrwt beam="2">  1       -2 0.28393251E-02 0.26343483E+03</pdfrwt>
<totfact> 0.13100653E+04</totfact>
</mgrwt>
</event>
<event>
 4    1  0.1807309E-004  0.2732331E+03  0.7818608E-02  0.1099443E+00
          2   -1    0    0  501    0  0.00000000000E+00  0.00000000000E+00  0.59974864787E+03  0.59974864787E+03  0.00000000000E+00 0.  1.
         -2   -1    0    0    0  501 -0.00000000000E+00 -0.00000000000E+00 -0.31119848288E+02  0.31119848288E+02  0.00000000000E+00 0.  1.
         25    1    1    2    0    0  0.54836655849E+02  0.33628033943E+02  0.31025061815E+03  0.33881167269E+03  0.12000000000E+03 0.  0.
         25    1    1    2    0    0 -0.54836655849E+02 -0.33628033943E+02  0.25837818144E+03  0.29205682347E+03  0.12000000000E+03 0.  0.
<mgrwt>
<rscale>  0 0.27323314E+03</rscale>
<asrwt>0</asrwt>
<pdfrwt beam="1">  1        2 0.92269014E-01 0.27323314E+03</pdfrwt>
<pdfrwt beam="2">  1       -2 0.47876694E-02 0.27323314E+03</pdfrwt>
<totfact> 0.10507097E+04</totfact>
</mgrwt>
</event>
<event>
 4    1  0.1807309E-004  0.3003635E+03  0.7818608E-02  0.1085059E+00
         -1   -1    0    0    0  501 -0.00000000000E+00  0.00000000000E+00  0.14287257529E+04  0.14287257529E+04  0.00000000000E+00 0. -1.
          1   -1    0    0  501    0  0.00000000000E+00 -0.00000000000E+00 -0.15786481843E+02  0.15786481843E+02  0.00000000000E+00 0. -1.
         25    1    1    2    0    0 -0.80885779972E+02  0.24825629556E+02  0.55471382819E+03  0.57381726400E+03  0.12000000000E+03 0.  0.
         25    1    1    2    0    0  0.80885779972E+02 -0.24825629556E+02  0.85822544282E+03  0.87069497069E+03  0.12000000000E+03 0.  0.
<mgrwt>
<rscale>  0 0.30036347E+03</rscale>
<asrwt>0</asrwt>
<pdfrwt beam="1">  1        1 0.24286906E-02 0.30036347E+03</pdfrwt>
<pdfrwt beam="2">  1       -1 0.21980386E+00 0.30036347E+03</pdfrwt>
<totfact> 0.56837607E+02</totfact>
</mgrwt>
</event>
<event>
 4    1  0.1807309E-004  0.2419686E+03  0.7818608E-02  0.1118488E+00
          2   -1    0    0  501    0  0.00000000000E+00  0.00000000000E+00  0.55300017241E+03  0.55300017241E+03  0.00000000000E+00 0.  1.
         -2   -1    0    0    0  501 -0.00000000000E+00 -0.00000000000E+00 -0.26468713105E+02  0.26468713105E+02  0.00000000000E+00 0.  1.
         25    1    1    2    0    0 -0.56846322449E+01 -0.11928568394E+02  0.28221307040E+03  0.30695084768E+03  0.12000000000E+03 0.  0.
         25    1    1    2    0    0  0.56846322449E+01  0.11928568394E+02  0.24431838890E+03  0.27251803783E+03  0.12000000000E+03 0.  0.
<mgrwt>
<rscale>  0 0.24196862E+03</rscale>
<asrwt>0</asrwt>
<pdfrwt beam="1">  1        2 0.85076941E-01 0.24196862E+03</pdfrwt>
<pdfrwt beam="2">  1       -2 0.40721101E-02 0.24196862E+03</pdfrwt>
<totfact> 0.14645743E+04</totfact>
</mgrwt>
</event>
<event>
 4    1  0.1807309E-004  0.3331892E+03  0.7818608E-02  0.1069734E+00
         -1   -1    0    0    0  501 -0.00000000000E+00  0.00000000000E+00  0.24517826940E+02  0.24517826940E+02  0.00000000000E+00 0. -1.
          1   -1    0    0  501    0  0.00000000000E+00 -0.00000000000E+00 -0.11319830839E+04  0.11319830839E+04  0.00000000000E+00 0. -1.
         25    1    1    2    0    0 -0.71214180331E+02  0.63047440864E+02 -0.78153534692E+03  0.79639433559E+03  0.12000000000E+03 0.  0.
         25    1    1    2    0    0  0.71214180331E+02 -0.63047440864E+02 -0.32592991008E+03  0.36010657529E+03  0.12000000000E+03 0.  0.
<mgrwt>
<rscale>  0 0.33318923E+03</rscale>
<asrwt>0</asrwt>
<pdfrwt beam="1">  1        1 0.17415124E+00 0.33318923E+03</pdfrwt>
<pdfrwt beam="2">  1       -1 0.37719734E-02 0.33318923E+03</pdfrwt>
<totfact> 0.34428629E+03</totfact>
</mgrwt>
</event>
<event>
 4    1  0.1807309E-004  0.3552595E+03  0.7818608E-02  0.1060477E+00
         -2   -1    0    0    0  501 -0.00000000000E+00  0.00000000000E+00  0.21007770875E+03  0.21007770875E+03  0.00000000000E+00 0.  1.
          2   -1    0    0  501    0  0.00000000000E+00 -0.00000000000E+00 -0.15019357847E+03  0.15019357847E+03  0.00000000000E+00 0.  1.
         25    1    1    2    0    0  0.12530614536E+02  0.12976712967E+03  0.17284046025E+02  0.17803163340E+03  0.12000000000E+03 0.  0.
         25    1    1    2    0    0 -0.12530614536E+02 -0.12976712967E+03  0.42600084260E+02  0.18223965382E+03  0.12000000000E+03 0.  0.
<mgrwt>
<rscale>  0 0.35525947E+03</rscale>
<asrwt>0</asrwt>
<pdfrwt beam="1">  1        2 0.23106704E-01 0.35525947E+03</pdfrwt>
<pdfrwt beam="2">  1       -2 0.32319648E-01 0.35525947E+03</pdfrwt>
<totfact> 0.21072952E+03</totfact>
</mgrwt>
</event>
<event>
 4    1  0.1807309E-004  0.3306999E+03  0.7818608E-02  0.1070828E+00
          2   -1    0    0  501    0  0.00000000000E+00  0.00000000000E+00  0.73256108966E+03  0.73256108966E+03  0.00000000000E+00 0.  1.
         -2   -1    0    0    0  501 -0.00000000000E+00 -0.00000000000E+00 -0.37321942490E+02  0.37321942490E+02  0.00000000000E+00 0.  1.
         25    1    1    2    0    0 -0.20021156075E+02  0.10824861137E+03  0.28087359368E+03  0.32466688187E+03  0.12000000000E+03 0.  0.
         25    1    1    2    0    0  0.20021156075E+02 -0.10824861137E+03  0.41436555349E+03  0.44521615029E+03  0.12000000000E+03 0.  0.
<mgrwt>
<rscale>  0 0.33069988E+03</rscale>
<asrwt>0</asrwt>
<pdfrwt beam="1">  1        2 0.11270170E+00 0.33069988E+03</pdfrwt>
<pdfrwt beam="2">  1       -2 0.57418378E-02 0.33069988E+03</pdfrwt>
<totfact> 0.62990273E+03</totfact>
</mgrwt>
</event>
<event>
 4    1  0.1807309E-004  0.2805920E+03  0.7818608E-02  0.1095366E+00
          1   -1    0    0  501    0  0.00000000000E+00  0.00000000000E+00  0.97742836725E+03  0.97742836725E+03  0.00000000000E+00 0. -1.
         -1   -1    0    0    0  501 -0.00000000000E+00 -0.00000000000E+00 -0.20137504145E+02  0.20137504145E+02  0.00000000000E+00 0. -1.
         25    1    1    2    0    0 -0.69675602057E+02  0.10815558051E+02  0.41591803877E+03  0.43858805364E+03  0.12000000000E+03 0.  0.
         25    1    1    2    0    0  0.69675602057E+02 -0.10815558051E+02  0.54137282433E+03  0.55897781776E+03  0.12000000000E+03 0.  0.
<mgrwt>
<rscale>  0 0.28059200E+03</rscale>
<asrwt>0</asrwt>
<pdfrwt beam="1">  1        1 0.15037356E+00 0.28059200E+03</pdfrwt>
<pdfrwt beam="2">  1       -1 0.30980783E-02 0.28059200E+03</pdfrwt>
<totfact> 0.59807095E+03</totfact>
</mgrwt>
</event>
<event>
 4    1  0.1807309E-004  0.2569762E+03  0.7818608E-02  0.1108974E+00
         -1   -1    0    0    0  501 -0.00000000000E+00  0.00000000000E+00  0.13993944592E+02  0.13993944592E+02  0.00000000000E+00 0. -1.
          1   -1    0    0  501    0  0.00000000000E+00 -0.00000000000E+00 -0.11797378419E+04  0.11797378419E+04  0.00000000000E+00 0. -1.
         25    1    1    2    0    0  0.37063140120E+02 -0.16445676342E+02 -0.68304789669E+03  0.69469314507E+03  0.12000000000E+03 0.  0.
         25    1    1    2    0    0 -0.37063140120E+02  0.16445676342E+02 -0.48269600059E+03  0.49903864140E+03  0.12000000000E+03 0.  0.
<mgrwt>
<rscale>  0 0.25697615E+03</rscale>
<asrwt>0</asrwt>
<pdfrwt beam="1">  1        1 0.18149811E+00 0.25697615E+03</pdfrwt>
<pdfrwt beam="2">  1       -1 0.21529148E-02 0.25697615E+03</pdfrwt>
<totfact> 0.72643622E+03</totfact>
</mgrwt>
</event>
<event>
 4    1  0.1807309E-004  0.3128432E+03  0.7818608E-02  0.1078991E+00
          2   -1    0    0  501    0  0.00000000000E+00  0.00000000000E+00  0.23921994601E+04  0.23921994601E+04  0.00000000000E+00 0.  1.
         -2   -1    0    0    0  501 -0.00000000000E+00 -0.00000000000E+00 -0.10228127414E+02  0.10228127414E+02  0.00000000000E+00 0.  1.
         25    1    1    2    0    0 -0.61434919254E+02 -0.61198804481E+02  0.15786344492E+04  0.15855618144E+04  0.12000000000E+03 0.  0.
         25    1    1    2    0    0  0.61434919254E+02  0.61198804481E+02  0.80333688349E+03  0.81686577315E+03  0.12000000000E+03 0.  0.
<mgrwt>
<rscale>  0 0.31284323E+03</rscale>
<asrwt>0</asrwt>
<pdfrwt beam="1">  1        2 0.36803024E+00 0.31284323E+03</pdfrwt>
<pdfrwt beam="2">  1       -2 0.15735600E-02 0.31284323E+03</pdfrwt>
<totfact> 0.50457354E+03</totfact>
</mgrwt>
</event>
<event>
 4    1  0.1807309E-004  0.5199297E+03  0.7818608E-02  0.1008704E+00
         -2   -1    0    0    0  501 -0.00000000000E+00  0.00000000000E+00  0.25584935429E+03  0.25584935429E+03  0.00000000000E+00 0.  1.
          2   -1    0    0  501    0  0.00000000000E+00 -0.00000000000E+00 -0.26414659659E+03  0.26414659659E+03  0.00000000000E+00 0.  1.
         25    1    1    2    0    0 -0.12813869330E+03  0.19021565976E+03 -0.28239324730E+02  0.26038237536E+03  0.12000000000E+03 0.  0.
         25    1    1    2    0    0  0.12813869330E+03 -0.19021565976E+03  0.19942082436E+02  0.25961357551E+03  0.12000000000E+03 0.  0.
<mgrwt>
<rscale>  0 0.51992975E+03</rscale>
<asrwt>0</asrwt>
<pdfrwt beam="1">  1        2 0.40637938E-01 0.51992975E+03</pdfrwt>
<pdfrwt beam="2">  1       -2 0.39361439E-01 0.51992975E+03</pdfrwt>
<totfact> 0.77581441E+02</totfact>
</mgrwt>
</event>
<event>
 4    1  0.1807309E-004  0.2578339E+03  0.7818608E-02  0.1108452E+00
          1   -1    0    0  501    0  0.00000000000E+00  0.00000000000E+00  0.87710616415E+03  0.87710616415E+03  0.00000000000E+00 0.  1.
         -1   -1    0    0    0  501 -0.00000000000E+00 -0.00000000000E+00 -0.18948192080E+02  0.18948192080E+02  0.00000000000E+00 0.  1.
         25    1    1    2    0    0 -0.57645027281E+01 -0.35314336154E+02  0.32257063525E+03  0.34602333239E+03  0.12000000000E+03 0.  0.
         25    1    1    2    0    0  0.57645027281E+01  0.35314336154E+02  0.53558733682E+03  0.55003102384E+03  0.12000000000E+03 0.  0.
<mgrwt>
<rscale>  0 0.25783387E+03</rscale>
<asrwt>0</asrwt>
<pdfrwt beam="1">  1        1 0.13493938E+00 0.25783387E+03</pdfrwt>
<pdfrwt beam="2">  1       -1 0.29151072E-02 0.25783387E+03</pdfrwt>
<totfact> 0.78080326E+03</totfact>
</mgrwt>
</event>
<event>
 4    1  0.1807309E-004  0.3003950E+03  0.7818608E-02  0.1085043E+00
          2   -1    0    0  501    0  0.00000000000E+00  0.00000000000E+00  0.14954460432E+04  0.14954460432E+04  0.00000000000E+00 0. -1.
         -2   -1    0    0    0  501 -0.00000000000E+00 -0.00000000000E+00 -0.15085319766E+02  0.15085319766E+02  0.00000000000E+00 0. -1.
         25    1    1    2    0    0 -0.30355005607E+02  0.70242663174E+02  0.98153838150E+03  0.99180293025E+03  0.12000000000E+03 0.  0.
         25    1    1    2    0    0  0.30355005607E+02 -0.70242663174E+02  0.49882234191E+03  0.51872843270E+03  0.12000000000E+03 0.  0.
<mgrwt>
<rscale>  0 0.30039495E+03</rscale>
<asrwt>0</asrwt>
<pdfrwt beam="1">  1        2 0.23006850E+00 0.30039495E+03</pdfrwt>
<pdfrwt beam="2">  1       -2 0.23208196E-02 0.30039495E+03</pdfrwt>
<totfact> 0.85291928E+03</totfact>
</mgrwt>
</event>
<event>
 4    1  0.1807309E-004  0.4676117E+03  0.7818608E-02  0.1022596E+00
         -1   -1    0    0    0  501 -0.00000000000E+00  0.00000000000E+00  0.72156110055E+02  0.72156110055E+02  0.00000000000E+00 0. -1.
          1   -1    0    0  501    0  0.00000000000E+00 -0.00000000000E+00 -0.75759579215E+03  0.75759579215E+03  0.00000000000E+00 0. -1.
         25    1    1    2    0    0 -0.10245368056E+03 -0.17234357772E+03 -0.35714642049E+03  0.42679342909E+03  0.12000000000E+03 0.  0.
         25    1    1    2    0    0  0.10245368056E+03  0.17234357772E+03 -0.32829326161E+03  0.40295847312E+03  0.12000000000E+03 0.  0.
<mgrwt>
<rscale>  0 0.46761166E+03</rscale>
<asrwt>0</asrwt>
<pdfrwt beam="1">  1        1 0.11655320E+00 0.46761166E+03</pdfrwt>
<pdfrwt beam="2">  1       -1 0.11100940E-01 0.46761166E+03</pdfrwt>
<totfact> 0.12969470E+03</totfact>
</mgrwt>
</event>
<event>
 4    1  0.1807309E-004  0.2577417E+03  0.7818608E-02  0.1108508E+00
          2   -1    0    0  501    0  0.00000000000E+00  0.00000000000E+00  0.19697264494E+03  0.19697264494E+03  0.00000000000E+00 0.  1.
         -2   -1    0    0    0  501 -0.00000000000E+00 -0.00000000000E+00 -0.84314710360E+02  0.84314710360E+02  0.00000000000E+00 0.  1.
         25    1    1    2    0    0 -0.29058166736E+02 -0.60956730512E+01  0.16585743970E+02  0.12472618485E+03  0.12000000000E+03 0.  0.
         25    1    1    2    0    0  0.29058166736E+02  0.60956730512E+01  0.96072190607E+02  0.15656117045E+03  0.12000000000E+03 0.  0.
<mgrwt>
<rscale>  0 0.25774167E+03</rscale>
<asrwt>0</asrwt>
<pdfrwt beam="1">  1        2 0.30303484E-01 0.25774167E+03</pdfrwt>
<pdfrwt beam="2">  1       -2 0.12971494E-01 0.25774167E+03</pdfrwt>
<totfact> 0.74588783E+03</totfact>
</mgrwt>
</event>
<event>
 4    1  0.1807309E-004  0.4376752E+03  0.7818608E-02  0.1031462E+00
          2   -1    0    0  501    0  0.00000000000E+00  0.00000000000E+00  0.21348105333E+04  0.21348105333E+04  0.00000000000E+00 0.  1.
         -2   -1    0    0    0  501 -0.00000000000E+00 -0.00000000000E+00 -0.22432856806E+02  0.22432856806E+02  0.00000000000E+00 0.  1.
         25    1    1    2    0    0 -0.11116586704E+03  0.14531180255E+03  0.10361500670E+04  0.10589996843E+04  0.12000000000E+03 0.  0.
         25    1    1    2    0    0  0.11116586704E+03 -0.14531180255E+03  0.10762276095E+04  0.10982437059E+04  0.12000000000E+03 0.  0.
<mgrwt>
<rscale>  0 0.43767522E+03</rscale>
<asrwt>0</asrwt>
<pdfrwt beam="1">  1        2 0.32843223E+00 0.43767522E+03</pdfrwt>
<pdfrwt beam="2">  1       -2 0.34512104E-02 0.43767522E+03</pdfrwt>
<totfact> 0.21423983E+03</totfact>
</mgrwt>
</event>
<event>
 4    1  0.1807309E-004  0.2803548E+03  0.7818608E-02  0.1095495E+00
          2   -1    0    0  501    0  0.00000000000E+00  0.00000000000E+00  0.56793897741E+03  0.56793897741E+03  0.00000000000E+00 0.  1.
         -2   -1    0    0    0  501 -0.00000000000E+00 -0.00000000000E+00 -0.34598257221E+02  0.34598257221E+02  0.00000000000E+00 0.  1.
         25    1    1    2    0    0  0.71030668862E+02 -0.66251765581E+01  0.23944674922E+03  0.27717141735E+03  0.12000000000E+03 0.  0.
         25    1    1    2    0    0 -0.71030668862E+02  0.66251765581E+01  0.29389397097E+03  0.32536581728E+03  0.12000000000E+03 0.  0.
<mgrwt>
<rscale>  0 0.28035477E+03</rscale>
<asrwt>0</asrwt>
<pdfrwt beam="1">  1        2 0.87375220E-01 0.28035477E+03</pdfrwt>
<pdfrwt beam="2">  1       -2 0.53228092E-02 0.28035477E+03</pdfrwt>
<totfact> 0.95332876E+03</totfact>
</mgrwt>
</event>
<event>
 4    1  0.1807309E-004  0.2760915E+03  0.7818608E-02  0.1097843E+00
         -1   -1    0    0    0  501 -0.00000000000E+00  0.00000000000E+00  0.58255942991E+02  0.58255942991E+02  0.00000000000E+00 0.  1.
          1   -1    0    0  501    0  0.00000000000E+00 -0.00000000000E+00 -0.32711913000E+03  0.32711913000E+03  0.00000000000E+00 0.  1.
         25    1    1    2    0    0 -0.63728465401E+02  0.22470964462E+02 -0.12116232131E+03  0.18343001295E+03  0.12000000000E+03 0.  0.
         25    1    1    2    0    0  0.63728465401E+02 -0.22470964462E+02 -0.14770086571E+03  0.20194506005E+03  0.12000000000E+03 0.  0.
<mgrwt>
<rscale>  0 0.27609153E+03</rscale>
<asrwt>0</asrwt>
<pdfrwt beam="1">  1        1 0.50326021E-01 0.27609153E+03</pdfrwt>
<pdfrwt beam="2">  1       -1 0.89624526E-02 0.27609153E+03</pdfrwt>
<totfact> 0.56349594E+03</totfact>
</mgrwt>
</event>
<event>
 4    1  0.1807309E-004  0.3020707E+03  0.7818608E-02  0.1084210E+00
          1   -1    0    0  501    0  0.00000000000E+00  0.00000000000E+00  0.82934665543E+03  0.82934665543E+03  0.00000000000E+00 0.  1.
         -1   -1    0    0    0  501 -0.00000000000E+00 -0.00000000000E+00 -0.27505605050E+02  0.27505605050E+02  0.00000000000E+00 0.  1.
         25    1    1    2    0    0 -0.99274833086E+01  0.90624517922E+02  0.42933230107E+03  0.45501382717E+03  0.12000000000E+03 0.  0.
         25    1    1    2    0    0  0.99274833086E+01 -0.90624517922E+02  0.37250874931E+03  0.40183843331E+03  0.12000000000E+03 0.  0.
<mgrwt>
<rscale>  0 0.30207073E+03</rscale>
<asrwt>0</asrwt>
<pdfrwt beam="1">  1        1 0.12759177E+00 0.30207073E+03</pdfrwt>
<pdfrwt beam="2">  1       -1 0.42316322E-02 0.30207073E+03</pdfrwt>
<totfact> 0.49287420E+03</totfact>
</mgrwt>
</event>
<event>
 4    1  0.1807309E-004  0.2771744E+03  0.7818608E-02  0.1097242E+00
          2   -1    0    0  501    0  0.00000000000E+00  0.00000000000E+00  0.29328113061E+03  0.29328113061E+03  0.00000000000E+00 0.  1.
         -2   -1    0    0    0  501 -0.00000000000E+00 -0.00000000000E+00 -0.65488040532E+02  0.65488040532E+02  0.00000000000E+00 0.  1.
         25    1    1    2    0    0 -0.28589073929E+01  0.68704373889E+02  0.12532397225E+03  0.18664019493E+03  0.12000000000E+03 0.  0.
         25    1    1    2    0    0  0.28589073929E+01 -0.68704373889E+02  0.10246911782E+03  0.17212897621E+03  0.12000000000E+03 0.  0.
<mgrwt>
<rscale>  0 0.27717436E+03</rscale>
<asrwt>0</asrwt>
<pdfrwt beam="1">  1        2 0.45120173E-01 0.27717436E+03</pdfrwt>
<pdfrwt beam="2">  1       -2 0.10075083E-01 0.27717436E+03</pdfrwt>
<totfact> 0.72962814E+03</totfact>
</mgrwt>
</event>
<event>
 4    1  0.1807309E-004  0.2489880E+03  0.7818608E-02  0.1113946E+00
          2   -1    0    0  501    0  0.00000000000E+00  0.00000000000E+00  0.41564297114E+03  0.41564297114E+03  0.00000000000E+00 0.  1.
         -2   -1    0    0    0  501 -0.00000000000E+00 -0.00000000000E+00 -0.37288616508E+02  0.37288616508E+02  0.00000000000E+00 0.  1.
         25    1    1    2    0    0  0.28999524063E+02  0.13386607212E+02  0.20530233363E+03  0.23993587027E+03  0.12000000000E+03 0.  0.
         25    1    1    2    0    0 -0.28999524063E+02 -0.13386607212E+02  0.17305202100E+03  0.21299571738E+03  0.12000000000E+03 0.  0.
<mgrwt>
<rscale>  0 0.24898796E+03</rscale>
<asrwt>0</asrwt>
<pdfrwt beam="1">  1        2 0.63945069E-01 0.24898796E+03</pdfrwt>
<pdfrwt beam="2">  1       -2 0.57367105E-02 0.24898796E+03</pdfrwt>
<totfact> 0.11980902E+04</totfact>
</mgrwt>
</event>
<event>
 4    1  0.1807309E-004  0.2715412E+03  0.7818608E-02  0.1100401E+00
         -2   -1    0    0    0  501 -0.00000000000E+00  0.00000000000E+00  0.57696055478E+01  0.57696055478E+01  0.00000000000E+00 0.  1.
          2   -1    0    0  501    0  0.00000000000E+00 -0.00000000000E+00 -0.31949584934E+04  0.31949584934E+04  0.00000000000E+00 0.  1.
         25    1    1    2    0    0  0.41606850785E+02 -0.30126460885E+02 -0.11543567428E+04  0.11617134859E+04  0.12000000000E+03 0.  0.
         25    1    1    2    0    0 -0.41606850785E+02  0.30126460885E+02 -0.20348321451E+04  0.20390146131E+04  0.12000000000E+03 0.  0.
<mgrwt>
<rscale>  0 0.27154116E+03</rscale>
<asrwt>0</asrwt>
<pdfrwt beam="1">  1        2 0.49153315E+00 0.27154116E+03</pdfrwt>
<pdfrwt beam="2">  1       -2 0.88762968E-03 0.27154116E+03</pdfrwt>
<totfact> 0.40278157E+03</totfact>
</mgrwt>
</event>
<event>
 4    1  0.1807309E-004  0.2568228E+03  0.7818608E-02  0.1109067E+00
          3   -1    0    0  501    0  0.00000000000E+00  0.00000000000E+00  0.91529759310E+03  0.91529759310E+03  0.00000000000E+00 0. -1.
         -3   -1    0    0    0  501 -0.00000000000E+00 -0.00000000000E+00 -0.18015445612E+02  0.18015445612E+02  0.00000000000E+00 0. -1.
         25    1    1    2    0    0 -0.12805458018E+02 -0.20285157928E+02  0.30723748607E+03  0.33071186890E+03  0.12000000000E+03 0.  0.
         25    1    1    2    0    0  0.12805458018E+02  0.20285157928E+02  0.59004466143E+03  0.60260116982E+03  0.12000000000E+03 0.  0.
<mgrwt>
<rscale>  0 0.25682285E+03</rscale>
<asrwt>0</asrwt>
<pdfrwt beam="1">  1        3 0.14081498E+00 0.25682285E+03</pdfrwt>
<pdfrwt beam="2">  1       -3 0.27716077E-02 0.25682285E+03</pdfrwt>
<totfact> 0.58387071E+02</totfact>
</mgrwt>
</event>
<event>
 4    1  0.1807309E-004  0.2839080E+03  0.7818608E-02  0.1093573E+00
         -1   -1    0    0    0  501 -0.00000000000E+00  0.00000000000E+00  0.27565829497E+03  0.27565829497E+03  0.00000000000E+00 0. -1.
          1   -1    0    0  501    0  0.00000000000E+00 -0.00000000000E+00 -0.73101150325E+02  0.73101150325E+02  0.00000000000E+00 0. -1.
         25    1    1    2    0    0  0.65134256353E+02  0.26850496792E+02  0.13575153186E+03  0.19440138614E+03  0.12000000000E+03 0.  0.
         25    1    1    2    0    0 -0.65134256353E+02 -0.26850496792E+02  0.66805612786E+02  0.15435805916E+03  0.12000000000E+03 0.  0.
<mgrwt>
<rscale>  0 0.28390800E+03</rscale>
<asrwt>0</asrwt>
<pdfrwt beam="1">  1        1 0.11246331E-01 0.28390800E+03</pdfrwt>
<pdfrwt beam="2">  1       -1 0.42408968E-01 0.28390800E+03</pdfrwt>
<totfact> 0.30337579E+03</totfact>
</mgrwt>
</event>
<event>
 4    1  0.1807309E-004  0.3042389E+03  0.7818608E-02  0.1083141E+00
         -2   -1    0    0    0  501 -0.00000000000E+00  0.00000000000E+00  0.55051369059E+01  0.55051369059E+01  0.00000000000E+00 0.  1.
          2   -1    0    0  501    0  0.00000000000E+00 -0.00000000000E+00 -0.42034050083E+04  0.42034050083E+04  0.00000000000E+00 0.  1.
         25    1    1    2    0    0  0.79071152664E+02  0.10062763209E+02 -0.14230782781E+04  0.14303514576E+04  0.12000000000E+03 0.  0.
         25    1    1    2    0    0 -0.79071152664E+02 -0.10062763209E+02 -0.27748215933E+04  0.27785586877E+04  0.12000000000E+03 0.  0.
<mgrwt>
<rscale>  0 0.30423885E+03</rscale>
<asrwt>0</asrwt>
<pdfrwt beam="1">  1        2 0.64667973E+00 0.30423885E+03</pdfrwt>
<pdfrwt beam="2">  1       -2 0.84694147E-03 0.30423885E+03</pdfrwt>
<totfact> 0.83053364E+02</totfact>
</mgrwt>
</event>
<event>
 4    1  0.1807309E-004  0.2824121E+03  0.7818608E-02  0.1094379E+00
         -2   -1    0    0    0  501 -0.00000000000E+00  0.00000000000E+00  0.16061335434E+02  0.16061335434E+02  0.00000000000E+00 0.  1.
          2   -1    0    0  501    0  0.00000000000E+00 -0.00000000000E+00 -0.12414375353E+04  0.12414375353E+04  0.00000000000E+00 0.  1.
         25    1    1    2    0    0  0.65501212624E+02  0.13873685535E+02 -0.75740161004E+03  0.76976625472E+03  0.12000000000E+03 0.  0.
         25    1    1    2    0    0 -0.65501212624E+02 -0.13873685535E+02 -0.46797458978E+03  0.48773261598E+03  0.12000000000E+03 0.  0.
<mgrwt>
<rscale>  0 0.28241207E+03</rscale>
<asrwt>0</asrwt>
<pdfrwt beam="1">  1        2 0.19099043E+00 0.28241207E+03</pdfrwt>
<pdfrwt beam="2">  1       -2 0.24709742E-02 0.28241207E+03</pdfrwt>
<totfact> 0.10699214E+04</totfact>
</mgrwt>
</event>
<event>
 4    1  0.1807309E-004  0.2467363E+03  0.7818608E-02  0.1115385E+00
         -2   -1    0    0    0  501 -0.00000000000E+00  0.00000000000E+00  0.32114601347E+02  0.32114601347E+02  0.00000000000E+00 0. -1.
          2   -1    0    0  501    0  0.00000000000E+00 -0.00000000000E+00 -0.47391858457E+03  0.47391858457E+03  0.00000000000E+00 0. -1.
         25    1    1    2    0    0 -0.25266208972E+02 -0.12666374291E+02 -0.21152863961E+03  0.24483297108E+03  0.12000000000E+03 0.  0.
         25    1    1    2    0    0  0.25266208972E+02  0.12666374291E+02 -0.23027534361E+03  0.26120021483E+03  0.12000000000E+03 0.  0.
<mgrwt>
<rscale>  0 0.24673635E+03</rscale>
<asrwt>0</asrwt>
<pdfrwt beam="1">  1        2 0.72910548E-01 0.24673635E+03</pdfrwt>
<pdfrwt beam="2">  1       -2 0.49407081E-02 0.24673635E+03</pdfrwt>
<totfact> 0.13017342E+04</totfact>
</mgrwt>
</event>
<event>
 4    1  0.1807309E-004  0.2611186E+03  0.7818608E-02  0.1106473E+00
         -1   -1    0    0    0  501 -0.00000000000E+00  0.00000000000E+00  0.13793560433E+02  0.13793560433E+02  0.00000000000E+00 0.  1.
          1   -1    0    0  501    0  0.00000000000E+00 -0.00000000000E+00 -0.12357743672E+04  0.12357743672E+04  0.00000000000E+00 0.  1.
         25    1    1    2    0    0  0.18953168522E+02  0.41016258127E+02 -0.49336462016E+03  0.50975504358E+03  0.12000000000E+03 0.  0.
         25    1    1    2    0    0 -0.18953168522E+02 -0.41016258127E+02 -0.72861618658E+03  0.73981288403E+03  0.12000000000E+03 0.  0.
<mgrwt>
<rscale>  0 0.26111858E+03</rscale>
<asrwt>0</asrwt>
<pdfrwt beam="1">  1        1 0.19011918E+00 0.26111858E+03</pdfrwt>
<pdfrwt beam="2">  1       -1 0.21220856E-02 0.26111858E+03</pdfrwt>
<totfact> 0.67833582E+03</totfact>
</mgrwt>
</event>
<event>
 4    1  0.1807309E-004  0.6400547E+03  0.7818608E-02  0.9825622E-01
         -2   -1    0    0    0  501 -0.00000000000E+00  0.00000000000E+00  0.37739056666E+02  0.37739056666E+02  0.00000000000E+00 0. -1.
          2   -1    0    0  501    0  0.00000000000E+00 -0.00000000000E+00 -0.27138334505E+04  0.27138334505E+04  0.00000000000E+00 0. -1.
         25    1    1    2    0    0  0.74476416333E+02  0.96637169859E+01 -0.25719128214E+04  0.25758058321E+04  0.12000000000E+03 0.  0.
         25    1    1    2    0    0 -0.74476416333E+02 -0.96637169859E+01 -0.10418157245E+03  0.17576667504E+03  0.12000000000E+03 0.  0.
<mgrwt>
<rscale>  0 0.64005473E+03</rscale>
<asrwt>0</asrwt>
<pdfrwt beam="1">  1        2 0.41751276E+00 0.64005473E+03</pdfrwt>
<pdfrwt beam="2">  1       -2 0.58060099E-02 0.64005473E+03</pdfrwt>
<totfact> 0.44987140E+02</totfact>
</mgrwt>
</event>
<event>
 4    1  0.1807309E-004  0.3147813E+03  0.7818608E-02  0.1078076E+00
         -2   -1    0    0    0  501 -0.00000000000E+00  0.00000000000E+00  0.49341782997E+02  0.49341782997E+02  0.00000000000E+00 0.  1.
          2   -1    0    0  501    0  0.00000000000E+00 -0.00000000000E+00 -0.50204535241E+03  0.50204535241E+03  0.00000000000E+00 0.  1.
         25    1    1    2    0    0  0.83723717285E+02 -0.55129410948E+02 -0.25782794817E+03  0.30153633884E+03  0.12000000000E+03 0.  0.
         25    1    1    2    0    0 -0.83723717285E+02  0.55129410948E+02 -0.19487562125E+03  0.24985079656E+03  0.12000000000E+03 0.  0.
<mgrwt>
<rscale>  0 0.31478128E+03</rscale>
<asrwt>0</asrwt>
<pdfrwt beam="1">  1        2 0.77237749E-01 0.31478128E+03</pdfrwt>
<pdfrwt beam="2">  1       -2 0.75910433E-02 0.31478128E+03</pdfrwt>
<totfact> 0.63647339E+03</totfact>
</mgrwt>
</event>
<event>
 4    1  0.1807309E-004  0.2906331E+03  0.7818608E-02  0.1090019E+00
          1   -1    0    0  501    0  0.00000000000E+00  0.00000000000E+00  0.11264552766E+03  0.11264552766E+03  0.00000000000E+00 0.  1.
         -1   -1    0    0    0  501 -0.00000000000E+00 -0.00000000000E+00 -0.18746331771E+03  0.18746331771E+03  0.00000000000E+00 0.  1.
         25    1    1    2    0    0 -0.36917778529E+02 -0.62619071925E+02 -0.76495826997E+02  0.15979888012E+03  0.12000000000E+03 0.  0.
         25    1    1    2    0    0  0.36917778529E+02  0.62619071925E+02  0.16780369524E+01  0.14030996525E+03  0.12000000000E+03 0.  0.
<mgrwt>
<rscale>  0 0.29063313E+03</rscale>
<asrwt>0</asrwt>
<pdfrwt beam="1">  1        1 0.17330081E-01 0.29063313E+03</pdfrwt>
<pdfrwt beam="2">  1       -1 0.28840510E-01 0.29063313E+03</pdfrwt>
<totfact> 0.33573828E+03</totfact>
</mgrwt>
</event>
<event>
 4    1  0.1807309E-004  0.5682158E+03  0.7818608E-02  0.9973635E-01
          1   -1    0    0  501    0  0.00000000000E+00  0.00000000000E+00  0.38523752988E+03  0.38523752988E+03  0.00000000000E+00 0.  1.
         -1   -1    0    0    0  501 -0.00000000000E+00 -0.00000000000E+00 -0.20952605855E+03  0.20952605855E+03  0.00000000000E+00 0.  1.
         25    1    1    2    0    0  0.22092323638E+03 -0.59144352950E+02  0.21175929022E+03  0.33398671808E+03  0.12000000000E+03 0.  0.
         25    1    1    2    0    0 -0.22092323638E+03  0.59144352950E+02 -0.36047818888E+02  0.26077687035E+03  0.12000000000E+03 0.  0.
<mgrwt>
<rscale>  0 0.56821581E+03</rscale>
<asrwt>0</asrwt>
<pdfrwt beam="1">  1        1 0.59267312E-01 0.56821581E+03</pdfrwt>
<pdfrwt beam="2">  1       -1 0.32234778E-01 0.56821581E+03</pdfrwt>
<totfact> 0.57240410E+02</totfact>
</mgrwt>
</event>
<event>
 4    1  0.1807309E-004  0.3124323E+03  0.7818608E-02  0.1079186E+00
         -1   -1    0    0    0  501 -0.00000000000E+00  0.00000000000E+00  0.27244871650E+02  0.27244871650E+02  0.00000000000E+00 0. -1.
          1   -1    0    0  501    0  0.00000000000E+00 -0.00000000000E+00 -0.89570947681E+03  0.89570947681E+03  0.00000000000E+00 0. -1.
         25    1    1    2    0    0  0.41022109947E+02  0.21510108722E+02 -0.69609885638E+03  0.70788354701E+03  0.12000000000E+03 0.  0.
         25    1    1    2    0    0 -0.41022109947E+02 -0.21510108722E+02 -0.17236574879E+03  0.21507080145E+03  0.12000000000E+03 0.  0.
<mgrwt>
<rscale>  0 0.31243233E+03</rscale>
<asrwt>0</asrwt>
<pdfrwt beam="1">  1        1 0.13780143E+00 0.31243233E+03</pdfrwt>
<pdfrwt beam="2">  1       -1 0.41915195E-02 0.31243233E+03</pdfrwt>
<totfact> 0.44222220E+03</totfact>
</mgrwt>
</event>
<event>
 4    1  0.1807309E-004  0.3152797E+03  0.7818608E-02  0.1077842E+00
         -1   -1    0    0    0  501 -0.00000000000E+00  0.00000000000E+00  0.11326661316E+03  0.11326661316E+03  0.00000000000E+00 0.  1.
          1   -1    0    0  501    0  0.00000000000E+00 -0.00000000000E+00 -0.21939676835E+03  0.21939676835E+03  0.00000000000E+00 0.  1.
         25    1    1    2    0    0 -0.24344830502E+02 -0.50644995483E+02 -0.14317121493E+03  0.19507840251E+03  0.12000000000E+03 0.  0.
         25    1    1    2    0    0  0.24344830502E+02  0.50644995483E+02  0.37041059740E+02  0.13758497900E+03  0.12000000000E+03 0.  0.
<mgrwt>
<rscale>  0 0.31527974E+03</rscale>
<asrwt>0</asrwt>
<pdfrwt beam="1">  1        1 0.33753349E-01 0.31527974E+03</pdfrwt>
<pdfrwt beam="2">  1       -1 0.17425633E-01 0.31527974E+03</pdfrwt>
<totfact> 0.32905611E+03</totfact>
</mgrwt>
</event>
<event>
 4    1  0.1807309E-004  0.2533963E+03  0.7818608E-02  0.1111177E+00
          1   -1    0    0  501    0  0.00000000000E+00  0.00000000000E+00  0.25345659599E+04  0.25345659599E+04  0.00000000000E+00 0. -1.
         -1   -1    0    0    0  501 -0.00000000000E+00 -0.00000000000E+00 -0.63334017026E+01  0.63334017026E+01  0.00000000000E+00 0. -1.
         25    1    1    2    0    0 -0.20970340091E+02  0.20010368811E+02  0.97833539650E+03  0.98609346315E+03  0.12000000000E+03 0.  0.
         25    1    1    2    0    0  0.20970340091E+02 -0.20010368811E+02  0.15498971617E+04  0.15548058985E+04  0.12000000000E+03 0.  0.
<mgrwt>
<rscale>  0 0.25339632E+03</rscale>
<asrwt>0</asrwt>
<pdfrwt beam="1">  1        1 0.38993241E+00 0.25339632E+03</pdfrwt>
<pdfrwt beam="2">  1       -1 0.97437152E-03 0.25339632E+03</pdfrwt>
<totfact> 0.29393757E+03</totfact>
</mgrwt>
</event>
<event>
 4    1  0.1807309E-004  0.3510803E+03  0.7818608E-02  0.1062173E+00
          1   -1    0    0  501    0  0.00000000000E+00  0.00000000000E+00  0.79547275773E+03  0.79547275773E+03  0.00000000000E+00 0.  1.
         -1   -1    0    0    0  501 -0.00000000000E+00 -0.00000000000E+00 -0.38737147389E+02  0.38737147389E+02  0.00000000000E+00 0.  1.
         25    1    1    2    0    0  0.66830332577E+02  0.72927838526E+02  0.18489854902E+03  0.24160346938E+03  0.12000000000E+03 0.  0.
         25    1    1    2    0    0 -0.66830332577E+02 -0.72927838526E+02  0.57183706132E+03  0.59260643575E+03  0.12000000000E+03 0.  0.
<mgrwt>
<rscale>  0 0.35108031E+03</rscale>
<asrwt>0</asrwt>
<pdfrwt beam="1">  1        1 0.12238041E+00 0.35108031E+03</pdfrwt>
<pdfrwt beam="2">  1       -1 0.59595617E-02 0.35108031E+03</pdfrwt>
<totfact> 0.31471319E+03</totfact>
</mgrwt>
</event>
<event>
 4    1  0.1807309E-004  0.4362684E+03  0.7818608E-02  0.1031898E+00
          4   -1    0    0  501    0  0.00000000000E+00  0.00000000000E+00  0.32264080237E+02  0.32264080237E+02  0.00000000000E+00 0.  1.
         -4   -1    0    0    0  501 -0.00000000000E+00 -0.00000000000E+00 -0.14747835123E+04  0.14747835123E+04  0.00000000000E+00 0.  1.
         25    1    1    2    0    0  0.10046375617E+03  0.12031585622E+03 -0.40065706892E+03  0.44664858495E+03  0.12000000000E+03 0.  0.
         25    1    1    2    0    0 -0.10046375617E+03 -0.12031585622E+03 -0.10418623632E+04  0.10603990076E+04  0.12000000000E+03 0.  0.
<mgrwt>
<rscale>  0 0.43626842E+03</rscale>
<asrwt>0</asrwt>
<pdfrwt beam="1">  1        4 0.49637059E-02 0.43626842E+03</pdfrwt>
<pdfrwt beam="2">  1       -4 0.22688972E+00 0.43626842E+03</pdfrwt>
<totfact> 0.45273500E+01</totfact>
</mgrwt>
</event>
<event>
 4    1  0.1807309E-004  0.2591410E+03  0.7818608E-02  0.1107660E+00
          1   -1    0    0  501    0  0.00000000000E+00  0.00000000000E+00  0.19478005313E+03  0.19478005313E+03  0.00000000000E+00 0.  1.
         -1   -1    0    0    0  501 -0.00000000000E+00 -0.00000000000E+00 -0.86192170892E+02  0.86192170892E+02  0.00000000000E+00 0.  1.
         25    1    1    2    0    0 -0.38028719742E+02 -0.28208349269E+02  0.41165126128E+02  0.13541219333E+03  0.12000000000E+03 0.  0.
         25    1    1    2    0    0  0.38028719742E+02  0.28208349269E+02  0.67422756114E+02  0.14556003069E+03  0.12000000000E+03 0.  0.
<mgrwt>
<rscale>  0 0.25914101E+03</rscale>
<asrwt>0</asrwt>
<pdfrwt beam="1">  1        1 0.29966162E-01 0.25914101E+03</pdfrwt>
<pdfrwt beam="2">  1       -1 0.13260334E-01 0.25914101E+03</pdfrwt>
<totfact> 0.58708747E+03</totfact>
</mgrwt>
</event>
<event>
 4    1  0.1807309E-004  0.2513078E+03  0.7818608E-02  0.1112481E+00
         -1   -1    0    0    0  501 -0.00000000000E+00  0.00000000000E+00  0.85553659544E+01  0.85553659544E+01  0.00000000000E+00 0.  1.
          1   -1    0    0  501    0  0.00000000000E+00 -0.00000000000E+00 -0.18454964540E+04  0.18454964540E+04  0.00000000000E+00 0.  1.
         25    1    1    2    0    0  0.35031426407E+02 -0.79759830291E+01 -0.84540593547E+03  0.85463560239E+03  0.12000000000E+03 0.  0.
         25    1    1    2    0    0 -0.35031426407E+02  0.79759830291E+01 -0.99153515258E+03  0.99941621757E+03  0.12000000000E+03 0.  0.
<mgrwt>
<rscale>  0 0.25130776E+03</rscale>
<asrwt>0</asrwt>
<pdfrwt beam="1">  1        1 0.28392270E+00 0.25130776E+03</pdfrwt>
<pdfrwt beam="2">  1       -1 0.13162093E-02 0.25130776E+03</pdfrwt>
<totfact> 0.53612257E+03</totfact>
</mgrwt>
</event>
<event>
 4    1  0.1807309E-004  0.3501582E+03  0.7818608E-02  0.1062550E+00
          2   -1    0    0  501    0  0.00000000000E+00  0.00000000000E+00  0.29090580480E+03  0.29090580480E+03  0.00000000000E+00 0. -1.
         -2   -1    0    0    0  501 -0.00000000000E+00 -0.00000000000E+00 -0.10536978817E+03  0.10536978817E+03  0.00000000000E+00 0. -1.
         25    1    1    2    0    0 -0.31188051373E+02 -0.10116170036E+02  0.23219131261E+03  0.26341571156E+03  0.12000000000E+03 0.  0.
         25    1    1    2    0    0  0.31188051373E+02  0.10116170036E+02 -0.46655295980E+02  0.13285988141E+03  0.12000000000E+03 0.  0.
<mgrwt>
<rscale>  0 0.35015815E+03</rscale>
<asrwt>0</asrwt>
<pdfrwt beam="1">  1        2 0.44754739E-01 0.35015815E+03</pdfrwt>
<pdfrwt beam="2">  1       -2 0.16210737E-01 0.35015815E+03</pdfrwt>
<totfact> 0.34107962E+03</totfact>
</mgrwt>
</event>
<event>
 4    1  0.1807309E-004  0.2463000E+03  0.7818608E-02  0.1115666E+00
         -1   -1    0    0    0  501 -0.00000000000E+00  0.00000000000E+00  0.19331212791E+02  0.19331212791E+02  0.00000000000E+00 0. -1.
          1   -1    0    0  501    0  0.00000000000E+00 -0.00000000000E+00 -0.78453008174E+03  0.78453008174E+03  0.00000000000E+00 0. -1.
         25    1    1    2    0    0 -0.12943685965E+02  0.19116052148E+02 -0.43241364492E+03  0.44934899886E+03  0.12000000000E+03 0.  0.
         25    1    1    2    0    0  0.12943685965E+02 -0.19116052148E+02 -0.33278522402E+03  0.35451229567E+03  0.12000000000E+03 0.  0.
<mgrwt>
<rscale>  0 0.24629996E+03</rscale>
<asrwt>0</asrwt>
<pdfrwt beam="1">  1        1 0.12069696E+00 0.24629996E+03</pdfrwt>
<pdfrwt beam="2">  1       -1 0.29740322E-02 0.24629996E+03</pdfrwt>
<totfact> 0.90104629E+03</totfact>
</mgrwt>
</event>
<event>
 4    1  0.1807309E-004  0.2507205E+03  0.7818608E-02  0.1112850E+00
          4   -1    0    0  501    0  0.00000000000E+00  0.00000000000E+00  0.10253858259E+03  0.10253858259E+03  0.00000000000E+00 0. -1.
         -4   -1    0    0    0  501 -0.00000000000E+00 -0.00000000000E+00 -0.15326122289E+03  0.15326122289E+03  0.00000000000E+00 0. -1.
         25    1    1    2    0    0  0.53005867332E+01  0.29469042437E+02 -0.44854187518E+01  0.12376041234E+03  0.12000000000E+03 0.  0.
         25    1    1    2    0    0 -0.53005867332E+01 -0.29469042437E+02 -0.46237221548E+02  0.13203939313E+03  0.12000000000E+03 0.  0.
<mgrwt>
<rscale>  0 0.25072047E+03</rscale>
<asrwt>0</asrwt>
<pdfrwt beam="1">  1        4 0.15775167E-01 0.25072047E+03</pdfrwt>
<pdfrwt beam="2">  1       -4 0.23578650E-01 0.25072047E+03</pdfrwt>
<totfact> 0.10661995E+03</totfact>
</mgrwt>
</event>
<event>
 4    1  0.1807309E-004  0.2418784E+03  0.7818608E-02  0.1118548E+00
         -2   -1    0    0    0  501 -0.00000000000E+00  0.00000000000E+00  0.20246947852E+02  0.20246947852E+02  0.00000000000E+00 0.  1.
          2   -1    0    0  501    0  0.00000000000E+00 -0.00000000000E+00 -0.72239460873E+03  0.72239460873E+03  0.00000000000E+00 0.  1.
         25    1    1    2    0    0  0.74827062245E+01  0.65089962513E+01 -0.31634700315E+03  0.33848749509E+03  0.12000000000E+03 0.  0.
         25    1    1    2    0    0 -0.74827062245E+01 -0.65089962513E+01 -0.38580065772E+03  0.40415406150E+03  0.12000000000E+03 0.  0.
<mgrwt>
<rscale>  0 0.24187837E+03</rscale>
<asrwt>0</asrwt>
<pdfrwt beam="1">  1        2 0.11113765E+00 0.24187837E+03</pdfrwt>
<pdfrwt beam="2">  1       -2 0.31149146E-02 0.24187837E+03</pdfrwt>
<totfact> 0.15966767E+04</totfact>
</mgrwt>
</event>
<event>
 4    1  0.1807309E-004  0.2875874E+03  0.7818608E-02  0.1091616E+00
         -1   -1    0    0    0  501 -0.00000000000E+00  0.00000000000E+00  0.12679432008E+03  0.12679432008E+03  0.00000000000E+00 0. -1.
          1   -1    0    0  501    0  0.00000000000E+00 -0.00000000000E+00 -0.16307222406E+03  0.16307222406E+03  0.00000000000E+00 0. -1.
         25    1    1    2    0    0  0.41408161872E+02 -0.67067715813E+02 -0.26197146565E+02  0.14594178587E+03  0.12000000000E+03 0.  0.
         25    1    1    2    0    0 -0.41408161872E+02  0.67067715813E+02 -0.10080757420E+02  0.14392475827E+03  0.12000000000E+03 0.  0.
<mgrwt>
<rscale>  0 0.28758743E+03</rscale>
<asrwt>0</asrwt>
<pdfrwt beam="1">  1        1 0.25088034E-01 0.28758743E+03</pdfrwt>
<pdfrwt beam="2">  1       -1 0.19506819E-01 0.28758743E+03</pdfrwt>
<totfact> 0.39846868E+03</totfact>
</mgrwt>
</event>
<event>
 4    1  0.1807309E-004  0.2923508E+03  0.7818608E-02  0.1089128E+00
         -1   -1    0    0    0  501 -0.00000000000E+00  0.00000000000E+00  0.27476472896E+02  0.27476472896E+02  0.00000000000E+00 0.  1.
          1   -1    0    0  501    0  0.00000000000E+00 -0.00000000000E+00 -0.77765587323E+03  0.77765587323E+03  0.00000000000E+00 0.  1.
         25    1    1    2    0    0 -0.48819397655E+02 -0.47026794154E+02 -0.50922895192E+03  0.52754997719E+03  0.12000000000E+03 0.  0.
         25    1    1    2    0    0  0.48819397655E+02  0.47026794154E+02 -0.24095044842E+03  0.27758236894E+03  0.12000000000E+03 0.  0.
<mgrwt>
<rscale>  0 0.29235075E+03</rscale>
<asrwt>0</asrwt>
<pdfrwt beam="1">  1        1 0.11963937E+00 0.29235075E+03</pdfrwt>
<pdfrwt beam="2">  1       -1 0.42271495E-02 0.29235075E+03</pdfrwt>
<totfact> 0.54500858E+03</totfact>
</mgrwt>
</event>
<event>
 4    1  0.1807309E-004  0.2971999E+03  0.7818608E-02  0.1086649E+00
         -1   -1    0    0    0  501 -0.00000000000E+00  0.00000000000E+00  0.42052658480E+02  0.42052658480E+02  0.00000000000E+00 0. -1.
          1   -1    0    0  501    0  0.00000000000E+00 -0.00000000000E+00 -0.52510220685E+03  0.52510220685E+03  0.00000000000E+00 0. -1.
         25    1    1    2    0    0 -0.42607329666E+02 -0.29234014355E+02 -0.37662484782E+03  0.39864305855E+03  0.12000000000E+03 0.  0.
         25    1    1    2    0    0  0.42607329666E+02  0.29234014355E+02 -0.10642470055E+03  0.16851180678E+03  0.12000000000E+03 0.  0.
<mgrwt>
<rscale>  0 0.29719989E+03</rscale>
<asrwt>0</asrwt>
<pdfrwt beam="1">  1        1 0.80784957E-01 0.29719989E+03</pdfrwt>
<pdfrwt beam="2">  1       -1 0.64696396E-02 0.29719989E+03</pdfrwt>
<totfact> 0.50296364E+03</totfact>
</mgrwt>
</event>
<event>
 4    1  0.1807309E-004  0.2570647E+03  0.7818608E-02  0.1108920E+00
         -1   -1    0    0    0  501 -0.00000000000E+00  0.00000000000E+00  0.23597566465E+02  0.23597566465E+02  0.00000000000E+00 0. -1.
          1   -1    0    0  501    0  0.00000000000E+00 -0.00000000000E+00 -0.70009639461E+03  0.70009639461E+03  0.00000000000E+00 0. -1.
         25    1    1    2    0    0 -0.37686495988E+02  0.14149785648E+01 -0.26385633570E+03  0.29230538831E+03  0.12000000000E+03 0.  0.
         25    1    1    2    0    0  0.37686495988E+02 -0.14149785648E+01 -0.41264249245E+03  0.43138857277E+03  0.12000000000E+03 0.  0.
<mgrwt>
<rscale>  0 0.25706475E+03</rscale>
<asrwt>0</asrwt>
<pdfrwt beam="1">  1        1 0.10770712E+00 0.25706475E+03</pdfrwt>
<pdfrwt beam="2">  1       -1 0.36303955E-02 0.25706475E+03</pdfrwt>
<totfact> 0.79632972E+03</totfact>
</mgrwt>
</event>
<event>
 4    1  0.1807309E-004  0.3116854E+03  0.7818608E-02  0.1079541E+00
         -2   -1    0    0    0  501 -0.00000000000E+00  0.00000000000E+00  0.12893225504E+02  0.12893225504E+02  0.00000000000E+00 0.  1.
          2   -1    0    0  501    0  0.00000000000E+00 -0.00000000000E+00 -0.18836980735E+04  0.18836980735E+04  0.00000000000E+00 0.  1.
         25    1    1    2    0    0 -0.68936004347E+02  0.63896882731E+02 -0.73804345007E+03  0.75362000936E+03  0.12000000000E+03 0.  0.
         25    1    1    2    0    0  0.68936004347E+02 -0.63896882731E+02 -0.11327613979E+04  0.11429712896E+04  0.12000000000E+03 0.  0.
<mgrwt>
<rscale>  0 0.31168538E+03</rscale>
<asrwt>0</asrwt>
<pdfrwt beam="1">  1        2 0.28979943E+00 0.31168538E+03</pdfrwt>
<pdfrwt beam="2">  1       -2 0.19835750E-02 0.31168538E+03</pdfrwt>
<totfact> 0.66989202E+03</totfact>
</mgrwt>
</event>
<event>
 4    1  0.1807309E-004  0.2545714E+03  0.7818608E-02  0.1110449E+00
          2   -1    0    0  501    0  0.00000000000E+00  0.00000000000E+00  0.58414244733E+03  0.58414244733E+03  0.00000000000E+00 0. -1.
         -2   -1    0    0    0  501 -0.00000000000E+00 -0.00000000000E+00 -0.27735781172E+02  0.27735781172E+02  0.00000000000E+00 0. -1.
         25    1    1    2    0    0  0.46817776952E+01  0.25077836843E+01  0.17698398005E+03  0.21389608976E+03  0.12000000000E+03 0.  0.
         25    1    1    2    0    0 -0.46817776952E+01 -0.25077836843E+01  0.37942268611E+03  0.39798213874E+03  0.12000000000E+03 0.  0.
<mgrwt>
<rscale>  0 0.25457138E+03</rscale>
<asrwt>0</asrwt>
<pdfrwt beam="1">  1        2 0.89868059E-01 0.25457138E+03</pdfrwt>
<pdfrwt beam="2">  1       -2 0.42670437E-02 0.25457138E+03</pdfrwt>
<totfact> 0.12853057E+04</totfact>
</mgrwt>
</event>
<event>
 4    1  0.1807309E-004  0.2694973E+03  0.7818608E-02  0.1101568E+00
          2   -1    0    0  501    0  0.00000000000E+00  0.00000000000E+00  0.46641412692E+04  0.46641412692E+04  0.00000000000E+00 0. -1.
         -2   -1    0    0    0  501 -0.00000000000E+00 -0.00000000000E+00 -0.38929359849E+01  0.38929359849E+01  0.00000000000E+00 0. -1.
         25    1    1    2    0    0  0.56594229804E+01  0.73831828561E+01  0.12806981959E+04  0.12863414824E+04  0.12000000000E+03 0.  0.
         25    1    1    2    0    0 -0.56594229804E+01 -0.73831828561E+01  0.33795501373E+04  0.33816927227E+04  0.12000000000E+03 0.  0.
<mgrwt>
<rscale>  0 0.26949733E+03</rscale>
<asrwt>0</asrwt>
<pdfrwt beam="1">  1        2 0.71755572E+00 0.26949733E+03</pdfrwt>
<pdfrwt beam="2">  1       -2 0.59891696E-03 0.26949733E+03</pdfrwt>
<totfact> 0.52935898E+02</totfact>
</mgrwt>
</event>
<event>
 4    1  0.1807309E-004  0.2519792E+03  0.7818608E-02  0.1112060E+00
          2   -1    0    0  501    0  0.00000000000E+00  0.00000000000E+00  0.30254633539E+04  0.30254633539E+04  0.00000000000E+00 0. -1.
         -2   -1    0    0    0  501 -0.00000000000E+00 -0.00000000000E+00 -0.52465930179E+01  0.52465930179E+01  0.00000000000E+00 0. -1.
         25    1    1    2    0    0  0.20713820146E+02  0.29166504033E+02  0.16774728941E+04  0.16821400232E+04  0.12000000000E+03 0.  0.
         25    1    1    2    0    0 -0.20713820146E+02 -0.29166504033E+02  0.13427438668E+04  0.13485699237E+04  0.12000000000E+03 0.  0.
<mgrwt>
<rscale>  0 0.25197917E+03</rscale>
<asrwt>0</asrwt>
<pdfrwt beam="1">  1        2 0.46545451E+00 0.25197917E+03</pdfrwt>
<pdfrwt beam="2">  1       -2 0.80717057E-03 0.25197917E+03</pdfrwt>
<totfact> 0.58612812E+03</totfact>
</mgrwt>
</event>
<event>
 4    1  0.1807309E-004  0.3286567E+03  0.7818608E-02  0.1071733E+00
         -2   -1    0    0    0  501 -0.00000000000E+00  0.00000000000E+00  0.40435063565E+02  0.40435063565E+02  0.00000000000E+00 0. -1.
          2   -1    0    0  501    0  0.00000000000E+00 -0.00000000000E+00 -0.66783125245E+03  0.66783125245E+03  0.00000000000E+00 0. -1.
         25    1    1    2    0    0 -0.79917390090E+02  0.30976765860E+02 -0.46995590272E+03  0.49254938814E+03  0.12000000000E+03 0.  0.
         25    1    1    2    0    0  0.79917390090E+02 -0.30976765860E+02 -0.15744028617E+03  0.21571692788E+03  0.12000000000E+03 0.  0.
<mgrwt>
<rscale>  0 0.32865665E+03</rscale>
<asrwt>0</asrwt>
<pdfrwt beam="1">  1        2 0.10274326E+00 0.32865665E+03</pdfrwt>
<pdfrwt beam="2">  1       -2 0.62207794E-02 0.32865665E+03</pdfrwt>
<totfact> 0.62330568E+03</totfact>
</mgrwt>
</event>
<event>
 4    1  0.1807309E-004  0.2653094E+03  0.7818608E-02  0.1103995E+00
         -1   -1    0    0    0  501 -0.00000000000E+00  0.00000000000E+00  0.18032927451E+02  0.18032927451E+02  0.00000000000E+00 0. -1.
          1   -1    0    0  501    0  0.00000000000E+00 -0.00000000000E+00 -0.97584125249E+03  0.97584125249E+03  0.00000000000E+00 0. -1.
         25    1    1    2    0    0  0.50190381607E+02  0.15996302793E+02 -0.55588785013E+03  0.57112718201E+03  0.12000000000E+03 0.  0.
         25    1    1    2    0    0 -0.50190381607E+02 -0.15996302793E+02 -0.40192047490E+03  0.42274699793E+03  0.12000000000E+03 0.  0.
<mgrwt>
<rscale>  0 0.26530944E+03</rscale>
<asrwt>0</asrwt>
<pdfrwt beam="1">  1        1 0.15012940E+00 0.26530944E+03</pdfrwt>
<pdfrwt beam="2">  1       -1 0.27742970E-02 0.26530944E+03</pdfrwt>
<totfact> 0.70485049E+03</totfact>
</mgrwt>
</event>
<event>
 4    1  0.1807309E-004  0.4794729E+03  0.7818608E-02  0.1019280E+00
         -2   -1    0    0    0  501 -0.00000000000E+00  0.00000000000E+00  0.51104108572E+02  0.51104108572E+02  0.00000000000E+00 0.  1.
          2   -1    0    0  501    0  0.00000000000E+00 -0.00000000000E+00 -0.11246371062E+04  0.11246371062E+04  0.00000000000E+00 0.  1.
         25    1    1    2    0    0  0.71529978774E+02 -0.10754992842E+03 -0.93511918983E+03  0.95159414886E+03  0.12000000000E+03 0.  0.
         25    1    1    2    0    0 -0.71529978774E+02  0.10754992842E+03 -0.13841380780E+03  0.22414706591E+03  0.12000000000E+03 0.  0.
<mgrwt>
<rscale>  0 0.47947295E+03</rscale>
<asrwt>0</asrwt>
<pdfrwt beam="1">  1        2 0.17302109E+00 0.47947295E+03</pdfrwt>
<pdfrwt beam="2">  1       -2 0.78621708E-02 0.47947295E+03</pdfrwt>
<totfact> 0.21460992E+03</totfact>
</mgrwt>
</event>
<event>
 4    1  0.1807309E-004  0.2969188E+03  0.7818608E-02  0.1086791E+00
         -1   -1    0    0    0  501 -0.00000000000E+00  0.00000000000E+00  0.24569100911E+02  0.24569100911E+02  0.00000000000E+00 0. -1.
          1   -1    0    0  501    0  0.00000000000E+00 -0.00000000000E+00 -0.89706975154E+03  0.89706975154E+03  0.00000000000E+00 0. -1.
         25    1    1    2    0    0 -0.86926414269E+02  0.41277784727E+01 -0.41085102972E+03  0.43677432236E+03  0.12000000000E+03 0.  0.
         25    1    1    2    0    0  0.86926414269E+02 -0.41277784727E+01 -0.46164962091E+03  0.48486453009E+03  0.12000000000E+03 0.  0.
<mgrwt>
<rscale>  0 0.29691883E+03</rscale>
<asrwt>0</asrwt>
<pdfrwt beam="1">  1        1 0.13801076E+00 0.29691883E+03</pdfrwt>
<pdfrwt beam="2">  1       -1 0.37798608E-02 0.29691883E+03</pdfrwt>
<totfact> 0.51425267E+03</totfact>
</mgrwt>
</event>
<event>
 4    1  0.1807309E-004  0.2725067E+03  0.7818608E-02  0.1099853E+00
         -1   -1    0    0    0  501 -0.00000000000E+00  0.00000000000E+00  0.39700692594E+02  0.39700692594E+02  0.00000000000E+00 0. -1.
          1   -1    0    0  501    0  0.00000000000E+00 -0.00000000000E+00 -0.46762363308E+03  0.46762363308E+03  0.00000000000E+00 0. -1.
         25    1    1    2    0    0  0.43173798827E+02  0.46075831986E+02 -0.23880117155E+03  0.27461419980E+03  0.12000000000E+03 0.  0.
         25    1    1    2    0    0 -0.43173798827E+02 -0.46075831986E+02 -0.18912176893E+03  0.23271012587E+03  0.12000000000E+03 0.  0.
<mgrwt>
<rscale>  0 0.27250675E+03</rscale>
<asrwt>0</asrwt>
<pdfrwt beam="1">  1        1 0.71942100E-01 0.27250675E+03</pdfrwt>
<pdfrwt beam="2">  1       -1 0.61077987E-02 0.27250675E+03</pdfrwt>
<totfact> 0.63855634E+03</totfact>
</mgrwt>
</event>
<event>
 4    1  0.1807309E-004  0.3221098E+03  0.7818608E-02  0.1074682E+00
          1   -1    0    0  501    0  0.00000000000E+00  0.00000000000E+00  0.12664153160E+04  0.12664153160E+04  0.00000000000E+00 0. -1.
         -1   -1    0    0    0  501 -0.00000000000E+00 -0.00000000000E+00 -0.20481972200E+02  0.20481972200E+02  0.00000000000E+00 0. -1.
         25    1    1    2    0    0  0.86517595052E+02 -0.41382087460E+02  0.81626694148E+03  0.83059586513E+03  0.12000000000E+03 0.  0.
         25    1    1    2    0    0 -0.86517595052E+02  0.41382087460E+02  0.42966640235E+03  0.45630142310E+03  0.12000000000E+03 0.  0.
<mgrwt>
<rscale>  0 0.32210982E+03</rscale>
<asrwt>0</asrwt>
<pdfrwt beam="1">  1        1 0.19483306E+00 0.32210982E+03</pdfrwt>
<pdfrwt beam="2">  1       -1 0.31510736E-02 0.32210982E+03</pdfrwt>
<totfact> 0.36172769E+03</totfact>
</mgrwt>
</event>
<event>
 4    1  0.1807309E-004  0.2512885E+03  0.7818608E-02  0.1112493E+00
          2   -1    0    0  501    0  0.00000000000E+00  0.00000000000E+00  0.21227749268E+03  0.21227749268E+03  0.00000000000E+00 0.  1.
         -2   -1    0    0    0  501 -0.00000000000E+00 -0.00000000000E+00 -0.74367194605E+02  0.74367194605E+02  0.00000000000E+00 0.  1.
         25    1    1    2    0    0  0.12988450730E+02  0.29634911099E+02  0.89974801209E+02  0.15343530448E+03  0.12000000000E+03 0.  0.
         25    1    1    2    0    0 -0.12988450730E+02 -0.29634911099E+02  0.47935496869E+02  0.13320938281E+03  0.12000000000E+03 0.  0.
<mgrwt>
<rscale>  0 0.25128853E+03</rscale>
<asrwt>0</asrwt>
<pdfrwt beam="1">  1        2 0.32658076E-01 0.25128853E+03</pdfrwt>
<pdfrwt beam="2">  1       -2 0.11441107E-01 0.25128853E+03</pdfrwt>
<totfact> 0.84094857E+03</totfact>
</mgrwt>
</event>
<event>
 4    1  0.1807309E-004  0.3781165E+03  0.7818608E-02  0.1051632E+00
         -1   -1    0    0    0  501 -0.00000000000E+00  0.00000000000E+00  0.26963084591E+03  0.26963084591E+03  0.00000000000E+00 0. -1.
          1   -1    0    0  501    0  0.00000000000E+00 -0.00000000000E+00 -0.13256280513E+03  0.13256280513E+03  0.00000000000E+00 0. -1.
         25    1    1    2    0    0 -0.25347018312E+02  0.92569213391E+02 -0.48622555321E+02  0.16116973503E+03  0.12000000000E+03 0.  0.
         25    1    1    2    0    0  0.25347018312E+02 -0.92569213391E+02  0.18569059610E+03  0.24102391600E+03  0.12000000000E+03 0.  0.
<mgrwt>
<rscale>  0 0.37811650E+03</rscale>
<asrwt>0</asrwt>
<pdfrwt beam="1">  1        1 0.20394278E-01 0.37811650E+03</pdfrwt>
<pdfrwt beam="2">  1       -1 0.41481668E-01 0.37811650E+03</pdfrwt>
<totfact> 0.14463635E+03</totfact>
</mgrwt>
</event>
<event>
 4    1  0.1807309E-004  0.2629391E+03  0.7818608E-02  0.1105390E+00
          2   -1    0    0  501    0  0.00000000000E+00  0.00000000000E+00  0.20211587252E+04  0.20211587252E+04  0.00000000000E+00 0.  1.
         -2   -1    0    0    0  501 -0.00000000000E+00 -0.00000000000E+00 -0.85516496478E+01  0.85516496478E+01  0.00000000000E+00 0.  1.
         25    1    1    2    0    0  0.49397210908E+02  0.44721759933E+01  0.11652833491E+04  0.11724953596E+04  0.12000000000E+03 0.  0.
         25    1    1    2    0    0 -0.49397210908E+02 -0.44721759933E+01  0.84732372646E+03  0.85721501517E+03  0.12000000000E+03 0.  0.
<mgrwt>
<rscale>  0 0.26293909E+03</rscale>
<asrwt>0</asrwt>
<pdfrwt beam="1">  1        2 0.31094712E+00 0.26293909E+03</pdfrwt>
<pdfrwt beam="2">  1       -2 0.13156400E-02 0.26293909E+03</pdfrwt>
<totfact> 0.10342367E+04</totfact>
</mgrwt>
</event>
<event>
 4    1  0.1807309E-004  0.3113632E+03  0.7818608E-02  0.1079694E+00
         -2   -1    0    0    0  501 -0.00000000000E+00  0.00000000000E+00  0.21310017836E+02  0.21310017836E+02  0.00000000000E+00 0.  1.
          2   -1    0    0  501    0  0.00000000000E+00 -0.00000000000E+00 -0.11373412597E+04  0.11373412597E+04  0.00000000000E+00 0.  1.
         25    1    1    2    0    0  0.45043882913E+02 -0.88330046421E+02 -0.56683266938E+03  0.58781835933E+03  0.12000000000E+03 0.  0.
         25    1    1    2    0    0 -0.45043882913E+02  0.88330046421E+02 -0.54919857244E+03  0.57083291817E+03  0.12000000000E+03 0.  0.
<mgrwt>
<rscale>  0 0.31136321E+03</rscale>
<asrwt>0</asrwt>
<pdfrwt beam="1">  1        2 0.17497562E+00 0.31136321E+03</pdfrwt>
<pdfrwt beam="2">  1       -2 0.32784636E-02 0.31136321E+03</pdfrwt>
<totfact> 0.80716508E+03</totfact>
</mgrwt>
</event>
<event>
 4    1  0.1807309E-004  0.2933677E+03  0.7818608E-02  0.1088604E+00
         -2   -1    0    0    0  501 -0.00000000000E+00  0.00000000000E+00  0.10780874374E+03  0.10780874374E+03  0.00000000000E+00 0. -1.
          2   -1    0    0  501    0  0.00000000000E+00 -0.00000000000E+00 -0.19957708801E+03  0.19957708801E+03  0.00000000000E+00 0. -1.
         25    1    1    2    0    0 -0.54857652443E+02 -0.25730310011E+02 -0.10738061685E+03  0.17205234018E+03  0.12000000000E+03 0.  0.
         25    1    1    2    0    0  0.54857652443E+02  0.25730310011E+02  0.15612272578E+02  0.13533349157E+03  0.12000000000E+03 0.  0.
<mgrwt>
<rscale>  0 0.29336772E+03</rscale>
<asrwt>0</asrwt>
<pdfrwt beam="1">  1        2 0.30704167E-01 0.29336772E+03</pdfrwt>
<pdfrwt beam="2">  1       -2 0.16585961E-01 0.29336772E+03</pdfrwt>
<totfact> 0.49254183E+03</totfact>
</mgrwt>
</event>
<event>
 4    1  0.1807309E-004  0.2566241E+03  0.7818608E-02  0.1109189E+00
          2   -1    0    0  501    0  0.00000000000E+00  0.00000000000E+00  0.11767106695E+03  0.11767106695E+03  0.00000000000E+00 0.  1.
         -2   -1    0    0    0  501 -0.00000000000E+00 -0.00000000000E+00 -0.13991531103E+03  0.13991531103E+03  0.00000000000E+00 0.  1.
         25    1    1    2    0    0 -0.18497806275E+02 -0.85588297851E+01 -0.51876851080E+02  0.13231262254E+03  0.12000000000E+03 0.  0.
         25    1    1    2    0    0  0.18497806275E+02  0.85588297851E+01  0.29632607002E+02  0.12527375544E+03  0.12000000000E+03 0.  0.
<mgrwt>
<rscale>  0 0.25662411E+03</rscale>
<asrwt>0</asrwt>
<pdfrwt beam="1">  1        2 0.18103241E-01 0.25662411E+03</pdfrwt>
<pdfrwt beam="2">  1       -2 0.21525432E-01 0.25662411E+03</pdfrwt>
<totfact> 0.57061042E+03</totfact>
</mgrwt>
</event>
<event>
 4    1  0.1807309E-004  0.2793761E+03  0.7818608E-02  0.1096030E+00
         -1   -1    0    0    0  501 -0.00000000000E+00  0.00000000000E+00  0.57471580715E+01  0.57471580715E+01  0.00000000000E+00 0. -1.
          1   -1    0    0  501    0  0.00000000000E+00 -0.00000000000E+00 -0.33951995600E+04  0.33951995600E+04  0.00000000000E+00 0. -1.
         25    1    1    2    0    0  0.56114908176E+02 -0.40485904474E+02 -0.14753497604E+04  0.14818383538E+04  0.12000000000E+03 0.  0.
         25    1    1    2    0    0 -0.56114908176E+02  0.40485904474E+02 -0.19141026416E+04  0.19191083643E+04  0.12000000000E+03 0.  0.
<mgrwt>
<rscale>  0 0.27937608E+03</rscale>
<asrwt>0</asrwt>
<pdfrwt beam="1">  1        1 0.52233953E+00 0.27937608E+03</pdfrwt>
<pdfrwt beam="2">  1       -1 0.88417623E-03 0.27937608E+03</pdfrwt>
<totfact> 0.84424444E+02</totfact>
</mgrwt>
</event>
<event>
 4    1  0.1807309E-004  0.2745526E+03  0.7818608E-02  0.1098702E+00
          1   -1    0    0  501    0  0.00000000000E+00  0.00000000000E+00  0.72290887507E+02  0.72290887507E+02  0.00000000000E+00 0. -1.
         -1   -1    0    0    0  501 -0.00000000000E+00 -0.00000000000E+00 -0.26067991157E+03  0.26067991157E+03  0.00000000000E+00 0. -1.
         25    1    1    2    0    0 -0.50639202050E+02  0.22166356497E+02 -0.48993486492E+02  0.14091145398E+03  0.12000000000E+03 0.  0.
         25    1    1    2    0    0  0.50639202050E+02 -0.22166356497E+02 -0.13939553758E+03  0.19205934510E+03  0.12000000000E+03 0.  0.
<mgrwt>
<rscale>  0 0.27455260E+03</rscale>
<asrwt>0</asrwt>
<pdfrwt beam="1">  1        1 0.11121675E-01 0.27455260E+03</pdfrwt>
<pdfrwt beam="2">  1       -1 0.40104602E-01 0.27455260E+03</pdfrwt>
<totfact> 0.33993495E+03</totfact>
</mgrwt>
</event>
<event>
 4    1  0.1807309E-004  0.2862974E+03  0.7818608E-02  0.1092298E+00
         -2   -1    0    0    0  501 -0.00000000000E+00  0.00000000000E+00  0.20653910631E+02  0.20653910631E+02  0.00000000000E+00 0.  1.
          2   -1    0    0  501    0  0.00000000000E+00 -0.00000000000E+00 -0.99213888219E+03  0.99213888219E+03  0.00000000000E+00 0.  1.
         25    1    1    2    0    0 -0.69203713902E+02 -0.27580148491E+02 -0.40340561709E+03  0.42741772367E+03  0.12000000000E+03 0.  0.
         25    1    1    2    0    0  0.69203713902E+02  0.27580148491E+02 -0.56807935447E+03  0.58537506915E+03  0.12000000000E+03 0.  0.
<mgrwt>
<rscale>  0 0.28629738E+03</rscale>
<asrwt>0</asrwt>
<pdfrwt beam="1">  1        2 0.15263674E+00 0.28629738E+03</pdfrwt>
<pdfrwt beam="2">  1       -2 0.31775249E-02 0.28629738E+03</pdfrwt>
<totfact> 0.10310277E+04</totfact>
</mgrwt>
</event>
<event>
 4    1  0.1807309E-004  0.3285336E+03  0.7818608E-02  0.1071788E+00
          2   -1    0    0  501    0  0.00000000000E+00  0.00000000000E+00  0.44731219920E+03  0.44731219920E+03  0.00000000000E+00 0. -1.
         -2   -1    0    0    0  501 -0.00000000000E+00 -0.00000000000E+00 -0.60323837207E+02  0.60323837207E+02  0.00000000000E+00 0. -1.
         25    1    1    2    0    0  0.57588686644E+02 -0.28096302654E+02  0.51224496372E+02  0.14536095790E+03  0.12000000000E+03 0.  0.
         25    1    1    2    0    0 -0.57588686644E+02  0.28096302654E+02  0.33576386563E+03  0.36227507851E+03  0.12000000000E+03 0.  0.
<mgrwt>
<rscale>  0 0.32853364E+03</rscale>
<asrwt>0</asrwt>
<pdfrwt beam="1">  1        2 0.68817259E-01 0.32853364E+03</pdfrwt>
<pdfrwt beam="2">  1       -2 0.92805906E-02 0.32853364E+03</pdfrwt>
<totfact> 0.52825012E+03</totfact>
</mgrwt>
</event>
<event>
 4    1  0.1807309E-004  0.3637307E+03  0.7818608E-02  0.1057116E+00
          2   -1    0    0  501    0  0.00000000000E+00  0.00000000000E+00  0.10208618593E+04  0.10208618593E+04  0.00000000000E+00 0. -1.
         -2   -1    0    0    0  501 -0.00000000000E+00 -0.00000000000E+00 -0.32399100239E+02  0.32399100239E+02  0.00000000000E+00 0. -1.
         25    1    1    2    0    0 -0.40908432443E+02 -0.70933730905E+02  0.81104328985E+03  0.82395164424E+03  0.12000000000E+03 0.  0.
         25    1    1    2    0    0  0.40908432443E+02  0.70933730905E+02  0.17741946916E+03  0.22930931525E+03  0.12000000000E+03 0.  0.
<mgrwt>
<rscale>  0 0.36373070E+03</rscale>
<asrwt>0</asrwt>
<pdfrwt beam="1">  1        2 0.15705565E+00 0.36373070E+03</pdfrwt>
<pdfrwt beam="2">  1       -2 0.49844777E-02 0.36373070E+03</pdfrwt>
<totfact> 0.50368172E+03</totfact>
</mgrwt>
</event>
<event>
 4    1  0.1807309E-004  0.2993401E+03  0.7818608E-02  0.1085571E+00
         -2   -1    0    0    0  501 -0.00000000000E+00  0.00000000000E+00  0.95881035176E+01  0.95881035176E+01  0.00000000000E+00 0. -1.
          2   -1    0    0  501    0  0.00000000000E+00 -0.00000000000E+00 -0.23363451473E+04  0.23363451473E+04  0.00000000000E+00 0. -1.
         25    1    1    2    0    0  0.18213551620E+02 -0.85775180880E+02 -0.13018087338E+04  0.13102652764E+04  0.12000000000E+03 0.  0.
         25    1    1    2    0    0 -0.18213551620E+02  0.85775180880E+02 -0.10249483100E+04  0.10356679744E+04  0.12000000000E+03 0.  0.
<mgrwt>
<rscale>  0 0.29934007E+03</rscale>
<asrwt>0</asrwt>
<pdfrwt beam="1">  1        2 0.35943819E+00 0.29934007E+03</pdfrwt>
<pdfrwt beam="2">  1       -2 0.14750909E-02 0.29934007E+03</pdfrwt>
<totfact> 0.59502133E+03</totfact>
</mgrwt>
</event>
<event>
 4    1  0.1807309E-004  0.2473383E+03  0.7818608E-02  0.1114999E+00
         -1   -1    0    0    0  501 -0.00000000000E+00  0.00000000000E+00  0.10935799941E+04  0.10935799941E+04  0.00000000000E+00 0.  1.
          1   -1    0    0  501    0  0.00000000000E+00 -0.00000000000E+00 -0.13985317790E+02  0.13985317790E+02  0.00000000000E+00 0.  1.
         25    1    1    2    0    0  0.29123398523E+02  0.51175057419E+00  0.50954904765E+03  0.52429826071E+03  0.12000000000E+03 0.  0.
         25    1    1    2    0    0 -0.29123398523E+02 -0.51175057419E+00  0.57004562867E+03  0.58326705118E+03  0.12000000000E+03 0.  0.
<mgrwt>
<rscale>  0 0.24733834E+03</rscale>
<asrwt>0</asrwt>
<pdfrwt beam="1">  1        1 0.21515882E-02 0.24733834E+03</pdfrwt>
<pdfrwt beam="2">  1       -1 0.16824301E+00 0.24733834E+03</pdfrwt>
<totfact> 0.15062716E+03</totfact>
</mgrwt>
</event>
<event>
 4    1  0.1807309E-004  0.3640689E+03  0.7818608E-02  0.1056984E+00
          1   -1    0    0  501    0  0.00000000000E+00  0.00000000000E+00  0.60862454076E+03  0.60862454076E+03  0.00000000000E+00 0. -1.
         -1   -1    0    0    0  501 -0.00000000000E+00 -0.00000000000E+00 -0.54444970558E+02  0.54444970558E+02  0.00000000000E+00 0. -1.
         25    1    1    2    0    0 -0.10937152383E+03  0.65971996083E+02  0.18745585377E+03  0.25662059856E+03  0.12000000000E+03 0.  0.
         25    1    1    2    0    0  0.10937152383E+03 -0.65971996083E+02  0.36672371643E+03  0.40644891276E+03  0.12000000000E+03 0.  0.
<mgrwt>
<rscale>  0 0.36406892E+03</rscale>
<asrwt>0</asrwt>
<pdfrwt beam="1">  1        1 0.93634540E-01 0.36406892E+03</pdfrwt>
<pdfrwt beam="2">  1       -1 0.83761497E-02 0.36406892E+03</pdfrwt>
<totfact> 0.27746995E+03</totfact>
</mgrwt>
</event>
<event>
 4    1  0.1807309E-004  0.2876746E+03  0.7818608E-02  0.1091570E+00
          1   -1    0    0  501    0  0.00000000000E+00  0.00000000000E+00  0.59404649095E+02  0.59404649095E+02  0.00000000000E+00 0.  1.
         -1   -1    0    0    0  501 -0.00000000000E+00 -0.00000000000E+00 -0.34827535438E+03  0.34827535438E+03  0.00000000000E+00 0.  1.
         25    1    1    2    0    0 -0.70005982204E+02  0.36861151518E+02 -0.13672607585E+03  0.19837742274E+03  0.12000000000E+03 0.  0.
         25    1    1    2    0    0  0.70005982204E+02 -0.36861151518E+02 -0.15214462943E+03  0.20930258073E+03  0.12000000000E+03 0.  0.
<mgrwt>
<rscale>  0 0.28767464E+03</rscale>
<asrwt>0</asrwt>
<pdfrwt beam="1">  1        1 0.91391769E-02 0.28767464E+03</pdfrwt>
<pdfrwt beam="2">  1       -1 0.53580823E-01 0.28767464E+03</pdfrwt>
<totfact> 0.26119260E+03</totfact>
</mgrwt>
</event>
<event>
 4    1  0.1807309E-004  0.3152414E+03  0.7818608E-02  0.1077860E+00
         -1   -1    0    0    0  501 -0.00000000000E+00  0.00000000000E+00  0.72973826242E+02  0.72973826242E+02  0.00000000000E+00 0.  1.
          1   -1    0    0  501    0  0.00000000000E+00 -0.00000000000E+00 -0.34045471027E+03  0.34045471027E+03  0.00000000000E+00 0.  1.
         25    1    1    2    0    0 -0.24590101628E+02  0.93219189671E+02 -0.17821042343E+03  0.23548555250E+03  0.12000000000E+03 0.  0.
         25    1    1    2    0    0  0.24590101628E+02 -0.93219189671E+02 -0.89270460602E+02  0.17794298401E+03  0.12000000000E+03 0.  0.
<mgrwt>
<rscale>  0 0.31524139E+03</rscale>
<asrwt>0</asrwt>
<pdfrwt beam="1">  1        1 0.52377647E-01 0.31524139E+03</pdfrwt>
<pdfrwt beam="2">  1       -1 0.11226743E-01 0.31524139E+03</pdfrwt>
<totfact> 0.37922368E+03</totfact>
</mgrwt>
</event>
<event>
 4    1  0.1807309E-004  0.3316448E+03  0.7818608E-02  0.1070411E+00
          1   -1    0    0  501    0  0.00000000000E+00  0.00000000000E+00  0.40268810927E+03  0.40268810927E+03  0.00000000000E+00 0. -1.
         -1   -1    0    0    0  501 -0.00000000000E+00 -0.00000000000E+00 -0.68283799609E+02  0.68283799609E+02  0.00000000000E+00 0. -1.
         25    1    1    2    0    0  0.10010780757E+03  0.54337997914E+02  0.18294443638E+03  0.24666345079E+03  0.12000000000E+03 0.  0.
         25    1    1    2    0    0 -0.10010780757E+03 -0.54337997914E+02  0.15145987328E+03  0.22430845809E+03  0.12000000000E+03 0.  0.
<mgrwt>
<rscale>  0 0.33164484E+03</rscale>
<asrwt>0</asrwt>
<pdfrwt beam="1">  1        1 0.61952015E-01 0.33164484E+03</pdfrwt>
<pdfrwt beam="2">  1       -1 0.10505200E-01 0.33164484E+03</pdfrwt>
<totfact> 0.33957237E+03</totfact>
</mgrwt>
</event>
<event>
 4    1  0.1807309E-004  0.4581204E+03  0.7818608E-02  0.1025328E+00
         -2   -1    0    0    0  501 -0.00000000000E+00  0.00000000000E+00  0.91397095393E+02  0.91397095393E+02  0.00000000000E+00 0.  1.
          2   -1    0    0  501    0  0.00000000000E+00 -0.00000000000E+00 -0.57407265479E+03  0.57407265479E+03  0.00000000000E+00 0.  1.
         25    1    1    2    0    0 -0.17704805787E+03 -0.81928177629E+02 -0.23666857234E+03  0.32934822638E+03  0.12000000000E+03 0.  0.
         25    1    1    2    0    0  0.17704805787E+03  0.81928177629E+02 -0.24600698706E+03  0.33612152380E+03  0.12000000000E+03 0.  0.
<mgrwt>
<rscale>  0 0.45812039E+03</rscale>
<asrwt>0</asrwt>
<pdfrwt beam="1">  1        2 0.88318870E-01 0.45812039E+03</pdfrwt>
<pdfrwt beam="2">  1       -2 0.14061092E-01 0.45812039E+03</pdfrwt>
<totfact> 0.20361041E+03</totfact>
</mgrwt>
</event>
<event>
 4    1  0.1807309E-004  0.2888517E+03  0.7818608E-02  0.1090950E+00
          1   -1    0    0  501    0  0.00000000000E+00  0.00000000000E+00  0.23887398096E+04  0.23887398096E+04  0.00000000000E+00 0. -1.
         -1   -1    0    0    0  501 -0.00000000000E+00 -0.00000000000E+00 -0.87321468674E+01  0.87321468674E+01  0.00000000000E+00 0. -1.
         25    1    1    2    0    0 -0.96755999313E+01 -0.35041038671E+02  0.59509892143E+03  0.60816463059E+03  0.12000000000E+03 0.  0.
         25    1    1    2    0    0  0.96755999313E+01  0.35041038671E+02  0.17849087413E+04  0.17893073258E+04  0.12000000000E+03 0.  0.
<mgrwt>
<rscale>  0 0.28885170E+03</rscale>
<asrwt>0</asrwt>
<pdfrwt beam="1">  1        1 0.36749791E+00 0.28885170E+03</pdfrwt>
<pdfrwt beam="2">  1       -1 0.13434091E-02 0.28885170E+03</pdfrwt>
<totfact> 0.23012862E+03</totfact>
</mgrwt>
</event>
<event>
 4    1  0.1807309E-004  0.2835380E+03  0.7818608E-02  0.1093772E+00
         -1   -1    0    0    0  501 -0.00000000000E+00  0.00000000000E+00  0.33662339043E+03  0.33662339043E+03  0.00000000000E+00 0.  1.
          1   -1    0    0  501    0  0.00000000000E+00 -0.00000000000E+00 -0.59706038992E+02  0.59706038992E+02  0.00000000000E+00 0.  1.
         25    1    1    2    0    0 -0.18678071353E+02 -0.60892813867E+02  0.19509363105E+03  0.23773584081E+03  0.12000000000E+03 0.  0.
         25    1    1    2    0    0  0.18678071353E+02  0.60892813867E+02  0.81823720386E+02  0.15859358861E+03  0.12000000000E+03 0.  0.
<mgrwt>
<rscale>  0 0.28353800E+03</rscale>
<asrwt>0</asrwt>
<pdfrwt beam="1">  1        1 0.91855446E-02 0.28353800E+03</pdfrwt>
<pdfrwt beam="2">  1       -1 0.51788213E-01 0.28353800E+03</pdfrwt>
<totfact> 0.27637411E+03</totfact>
</mgrwt>
</event>
<event>
 4    1  0.1807309E-004  0.4076510E+03  0.7818608E-02  0.1041162E+00
          2   -1    0    0  501    0  0.00000000000E+00  0.00000000000E+00  0.35197319754E+04  0.35197319754E+04  0.00000000000E+00 0. -1.
         -2   -1    0    0    0  501 -0.00000000000E+00 -0.00000000000E+00 -0.11803408311E+02  0.11803408311E+02  0.00000000000E+00 0. -1.
         25    1    1    2    0    0  0.79372789818E+02 -0.77880445016E+02  0.28071474261E+04  0.28119107517E+04  0.12000000000E+03 0.  0.
         25    1    1    2    0    0 -0.79372789818E+02  0.77880445016E+02  0.70078114096E+03  0.71962463202E+03  0.12000000000E+03 0.  0.
<mgrwt>
<rscale>  0 0.40765100E+03</rscale>
<asrwt>0</asrwt>
<pdfrwt beam="1">  1        2 0.54149639E+00 0.40765100E+03</pdfrwt>
<pdfrwt beam="2">  1       -2 0.18159118E-02 0.40765100E+03</pdfrwt>
<totfact> 0.85525555E+02</totfact>
</mgrwt>
</event>
<event>
 4    1  0.1807309E-004  0.2536001E+03  0.7818608E-02  0.1111051E+00
         -4   -1    0    0    0  501 -0.00000000000E+00  0.00000000000E+00  0.15024308348E+03  0.15024308348E+03  0.00000000000E+00 0.  1.
          4   -1    0    0  501    0  0.00000000000E+00 -0.00000000000E+00 -0.10701492504E+03  0.10701492504E+03  0.00000000000E+00 0.  1.
         25    1    1    2    0    0  0.16062103672E+02  0.22946973573E+02  0.51940054080E+02  0.13372480693E+03  0.12000000000E+03 0.  0.
         25    1    1    2    0    0 -0.16062103672E+02 -0.22946973573E+02 -0.87118956377E+01  0.12353320159E+03  0.12000000000E+03 0.  0.
<mgrwt>
<rscale>  0 0.25360010E+03</rscale>
<asrwt>0</asrwt>
<pdfrwt beam="1">  1        4 0.16463835E-01 0.25360010E+03</pdfrwt>
<pdfrwt beam="2">  1       -4 0.23114321E-01 0.25360010E+03</pdfrwt>
<totfact> 0.10271558E+03</totfact>
</mgrwt>
</event>
<event>
 4    1  0.1807309E-004  0.3542940E+03  0.7818608E-02  0.1060866E+00
          2   -1    0    0  501    0  0.00000000000E+00  0.00000000000E+00  0.34503151212E+04  0.34503151212E+04  0.00000000000E+00 0.  1.
         -2   -1    0    0    0  501 -0.00000000000E+00 -0.00000000000E+00 -0.90951269586E+01  0.90951269586E+01  0.00000000000E+00 0.  1.
         25    1    1    2    0    0  0.12167959700E+03 -0.45839760184E+02  0.18045177700E+04  0.18131716935E+04  0.12000000000E+03 0.  0.
         25    1    1    2    0    0 -0.12167959700E+03  0.45839760184E+02  0.16367022243E+04  0.16462385547E+04  0.12000000000E+03 0.  0.
<mgrwt>
<rscale>  0 0.35429397E+03</rscale>
<asrwt>0</asrwt>
<pdfrwt beam="1">  1        2 0.53081667E+00 0.35429397E+03</pdfrwt>
<pdfrwt beam="2">  1       -2 0.13992531E-02 0.35429397E+03</pdfrwt>
<totfact> 0.14100339E+03</totfact>
</mgrwt>
</event>
<event>
 4    1  0.1807309E-004  0.2580047E+03  0.7818608E-02  0.1108348E+00
          2   -1    0    0  501    0  0.00000000000E+00  0.00000000000E+00  0.33257076290E+04  0.33257076290E+04  0.00000000000E+00 0.  1.
         -2   -1    0    0    0  501 -0.00000000000E+00 -0.00000000000E+00 -0.50039283338E+01  0.50039283338E+01  0.00000000000E+00 0.  1.
         25    1    1    2    0    0  0.78008673334E+01  0.46609662769E+02  0.16975178533E+04  0.17024101082E+04  0.12000000000E+03 0.  0.
         25    1    1    2    0    0 -0.78008673334E+01 -0.46609662769E+02  0.16231858474E+04  0.16283014492E+04  0.12000000000E+03 0.  0.
<mgrwt>
<rscale>  0 0.25800467E+03</rscale>
<asrwt>0</asrwt>
<pdfrwt beam="1">  1        2 0.51164556E+00 0.25800467E+03</pdfrwt>
<pdfrwt beam="2">  1       -2 0.76983779E-03 0.25800467E+03</pdfrwt>
<totfact> 0.41063468E+03</totfact>
</mgrwt>
</event>
<event>
 4    1  0.1807309E-004  0.2581368E+03  0.7818608E-02  0.1108268E+00
          4   -1    0    0  501    0  0.00000000000E+00  0.00000000000E+00  0.50536243684E+02  0.50536243684E+02  0.00000000000E+00 0. -1.
         -4   -1    0    0    0  501 -0.00000000000E+00 -0.00000000000E+00 -0.32963781012E+03  0.32963781012E+03  0.00000000000E+00 0. -1.
         25    1    1    2    0    0  0.10123043055E+02 -0.40033937404E+02 -0.10490284509E+03  0.16465053614E+03  0.12000000000E+03 0.  0.
         25    1    1    2    0    0 -0.10123043055E+02  0.40033937404E+02 -0.17419872135E+03  0.21552351766E+03  0.12000000000E+03 0.  0.
<mgrwt>
<rscale>  0 0.25813684E+03</rscale>
<asrwt>0</asrwt>
<pdfrwt beam="1">  1        4 0.77748067E-02 0.25813684E+03</pdfrwt>
<pdfrwt beam="2">  1       -4 0.50713509E-01 0.25813684E+03</pdfrwt>
<totfact> 0.81084504E+02</totfact>
</mgrwt>
</event>
<event>
 4    1  0.1807309E-004  0.2519722E+03  0.7818608E-02  0.1112065E+00
         -1   -1    0    0    0  501 -0.00000000000E+00  0.00000000000E+00  0.22977534326E+03  0.22977534326E+03  0.00000000000E+00 0.  1.
          1   -1    0    0  501    0  0.00000000000E+00 -0.00000000000E+00 -0.69078349767E+02  0.69078349767E+02  0.00000000000E+00 0.  1.
         25    1    1    2    0    0 -0.18264912020E+02  0.24047974398E+02  0.10843052040E+03  0.16452686662E+03  0.12000000000E+03 0.  0.
         25    1    1    2    0    0  0.18264912020E+02 -0.24047974398E+02  0.52266473087E+02  0.13432682641E+03  0.12000000000E+03 0.  0.
<mgrwt>
<rscale>  0 0.25197223E+03</rscale>
<asrwt>0</asrwt>
<pdfrwt beam="1">  1        1 0.10627439E-01 0.25197223E+03</pdfrwt>
<pdfrwt beam="2">  1       -1 0.35350052E-01 0.25197223E+03</pdfrwt>
<totfact> 0.44961460E+03</totfact>
</mgrwt>
</event>
<event>
 4    1  0.1807309E-004  0.2503402E+03  0.7818608E-02  0.1113090E+00
          1   -1    0    0  501    0  0.00000000000E+00  0.00000000000E+00  0.24887878472E+03  0.24887878472E+03  0.00000000000E+00 0.  1.
         -1   -1    0    0    0  501 -0.00000000000E+00 -0.00000000000E+00 -0.62952548476E+02  0.62952548476E+02  0.00000000000E+00 0.  1.
         25    1    1    2    0    0  0.14181481137E+02 -0.29938554051E+02  0.10920999258E+03  0.16560269897E+03  0.12000000000E+03 0.  0.
         25    1    1    2    0    0 -0.14181481137E+02  0.29938554051E+02  0.76716243658E+02  0.14622863422E+03  0.12000000000E+03 0.  0.
<mgrwt>
<rscale>  0 0.25034020E+03</rscale>
<asrwt>0</asrwt>
<pdfrwt beam="1">  1        1 0.38289043E-01 0.25034020E+03</pdfrwt>
<pdfrwt beam="2">  1       -1 0.96850076E-02 0.25034020E+03</pdfrwt>
<totfact> 0.70242123E+03</totfact>
</mgrwt>
</event>
