<event>
 9    1  0.4388925E-036  0.9992006E+03  0.7818608E-02  0.8681800E-01
          2   -1    0    0  501    0  0.00000000000E+00  0.00000000000E+00  0.12242526259E+04  0.12242526259E+04  0.00000000000E+00 0. -1.
         -2   -1    0    0    0  501 -0.00000000000E+00 -0.00000000000E+00 -0.20387985817E+03  0.20387985817E+03  0.00000000000E+00 0. -1.
         36    2    1    2    0    0  0.14210854715E-13  0.71054273576E-14  0.10203727677E+04  0.14281324841E+04  0.99920058394E+03 0.  0.
         25    2    3    3    0    0 -0.31846599018E+02 -0.60297508972E+02  0.20936830197E+02  0.14515053403E+03  0.12641333480E+03 0.  0.
         35    2    3    3    0    0  0.31846599018E+02  0.60297508972E+02  0.99943593753E+03  0.12829819500E+04  0.80157376170E+03 0.  0.
         22    1    5    5    0    0 -0.32553305805E+03 -0.10210771560E+03  0.73312465330E+03  0.80862198507E+03  0.00000000000E+00 0. -1.
         22    1    5    5    0    0  0.35737965707E+03  0.16240522458E+03  0.26631128423E+03  0.47435996497E+03  0.00000000000E+00 0. -1.
          5    1    4    4  502    0  0.84257400637E+01 -0.53215128950E+02 -0.43011769266E+02  0.69100979300E+02  0.47000000000E+01 0.  1.
         -5    1    4    4    0  502 -0.40272339082E+02 -0.70823800222E+01  0.63948599463E+02  0.76049554733E+02  0.47000000000E+01 0.  1.
<mgrwt>
<rscale>  0 0.99920058E+03</rscale>
<asrwt>0</asrwt>
<pdfrwt beam="1">  1        2 0.18834655E+00 0.99920058E+03</pdfrwt>
<pdfrwt beam="2">  1       -2 0.31366133E-01 0.99920058E+03</pdfrwt>
<totfact> 0.20798359E+02</totfact>
</mgrwt>
</event>
<event>
 9    1  0.4388925E-036  0.9997559E+03  0.7818608E-02  0.8681270E-01
         -2   -1    0    0    0  501 -0.00000000000E+00  0.00000000000E+00  0.13206266845E+03  0.13206266845E+03  0.00000000000E+00 0.  1.
          2   -1    0    0  501    0  0.00000000000E+00 -0.00000000000E+00 -0.18921164181E+04  0.18921164181E+04  0.00000000000E+00 0.  1.
         36    2    1    2    0    0  0.00000000000E+00  0.71054273576E-14 -0.17600537496E+04  0.20241790865E+04  0.99975585657E+03 0.  0.
         25    2    3    3    0    0  0.11664951629E+03 -0.22121729272E+02 -0.17965205618E+03  0.24895135985E+03  0.12492172641E+03 0.  0.
         35    2    3    3    0    0 -0.11664951629E+03  0.22121729272E+02 -0.15804016934E+04  0.17752277267E+04  0.79979215320E+03 0.  0.
         22    1    5    5    0    0 -0.39910627725E+03 -0.95716913722E+02 -0.12885206856E+04  0.13523065871E+04  0.00000000000E+00 0.  1.
         22    1    5    5    0    0  0.28245676097E+03  0.11783864299E+03 -0.29188100781E+03  0.42292113960E+03  0.00000000000E+00 0.  1.
          5    1    4    4  502    0  0.57241715467E+02  0.67502922840E+01 -0.36993602014E+00  0.57830850661E+02  0.47000000000E+01 0. -1.
         -5    1    4    4    0  502  0.59407800819E+02 -0.28872021556E+02 -0.17928212016E+03  0.19112050919E+03  0.47000000000E+01 0. -1.
<mgrwt>
<rscale>  0 0.99975586E+03</rscale>
<asrwt>0</asrwt>
<pdfrwt beam="1">  1        2 0.29109482E+00 0.99975586E+03</pdfrwt>
<pdfrwt beam="2">  1       -2 0.20317335E-01 0.99975586E+03</pdfrwt>
<totfact> 0.18783717E+02</totfact>
</mgrwt>
</event>
<event>
 9    1  0.4388925E-036  0.9996677E+03  0.7818608E-02  0.8681354E-01
         -2   -1    0    0    0  501 -0.00000000000E+00  0.00000000000E+00  0.12105416550E+03  0.12105416550E+03  0.00000000000E+00 0.  1.
          2   -1    0    0  501    0  0.00000000000E+00 -0.00000000000E+00 -0.20638189639E+04  0.20638189639E+04  0.00000000000E+00 0.  1.
         36    2    1    2    0    0  0.00000000000E+00 -0.14210854715E-13 -0.19427647984E+04  0.21848731294E+04  0.99966770962E+03 0.  0.
         25    2    3    3    0    0 -0.11951478866E+03  0.72444976637E+02 -0.34275653259E+03  0.39042517460E+03  0.12416809969E+03 0.  0.
         35    2    3    3    0    0  0.11951478866E+03 -0.72444976637E+02 -0.16000082658E+04  0.17944479548E+04  0.80030303789E+03 0.  0.
         22    1    5    5    0    0 -0.21045808058E+03 -0.32482397589E+03 -0.91227834380E+03  0.99098687961E+03  0.00000000000E+00 0.  1.
         22    1    5    5    0    0  0.32997286925E+03  0.25237899926E+03 -0.68772992203E+03  0.80346107520E+03  0.00000000000E+00 0.  1.
          5    1    4    4  502    0 -0.17128411655E+02 -0.21790833566E+02 -0.10211999286E+02  0.29909828531E+02  0.47000000000E+01 0. -1.
         -5    1    4    4    0  502 -0.10238637701E+03  0.94235810203E+02 -0.33254453330E+03  0.36051534607E+03  0.47000000000E+01 0. -1.
<mgrwt>
<rscale>  0 0.99966771E+03</rscale>
<asrwt>0</asrwt>
<pdfrwt beam="1">  1        2 0.31751060E+00 0.99966771E+03</pdfrwt>
<pdfrwt beam="2">  1       -2 0.18623718E-01 0.99966771E+03</pdfrwt>
<totfact> 0.17428539E+02</totfact>
</mgrwt>
</event>
<event>
 9    1  0.4388925E-036  0.1000367E+04  0.7818608E-02  0.8680689E-01
          2   -1    0    0  501    0  0.00000000000E+00  0.00000000000E+00  0.18733195290E+04  0.18733195290E+04  0.00000000000E+00 0. -1.
         -2   -1    0    0    0  501 -0.00000000000E+00 -0.00000000000E+00 -0.13355084273E+03  0.13355084273E+03  0.00000000000E+00 0. -1.
         36    2    1    2    0    0  0.00000000000E+00 -0.28421709430E-13  0.17397686862E+04  0.20068703717E+04  0.10003667363E+04 0.  0.
         25    2    3    3    0    0  0.10421490838E+03 -0.93504086467E+02  0.33629091811E+03  0.38521060926E+03  0.12526719669E+03 0.  0.
         35    2    3    3    0    0 -0.10421490838E+03  0.93504086467E+02  0.14034777681E+04  0.16216597624E+04  0.80026669191E+03 0.  0.
         22    1    5    5    0    0 -0.37983132076E+02  0.43357245653E+03  0.99509807423E+03  0.10861160024E+04  0.00000000000E+00 0.  1.
         22    1    5    5    0    0 -0.66231776303E+02 -0.34006837006E+03  0.40837969388E+03  0.53554376001E+03  0.00000000000E+00 0.  1.
          5    1    4    4  502    0  0.30364996884E+01 -0.20368896363E+02  0.19688823766E+03  0.19801813148E+03  0.47000000000E+01 0.  1.
         -5    1    4    4    0  502  0.10117840869E+03 -0.73135190104E+02  0.13940268046E+03  0.18719247777E+03  0.47000000000E+01 0.  1.
<mgrwt>
<rscale>  0 0.10003667E+04</rscale>
<asrwt>0</asrwt>
<pdfrwt beam="1">  1        2 0.28820299E+00 0.10003667E+04</pdfrwt>
<pdfrwt beam="2">  1       -2 0.20546285E-01 0.10003667E+04</pdfrwt>
<totfact> 0.18879205E+02</totfact>
</mgrwt>
</event>
<event>
 9    1  0.4388925E-036  0.1000249E+04  0.7818608E-02  0.8680801E-01
         -1   -1    0    0    0  501 -0.00000000000E+00  0.00000000000E+00  0.12457152863E+03  0.12457152863E+03  0.00000000000E+00 0. -1.
          1   -1    0    0  501    0  0.00000000000E+00 -0.00000000000E+00 -0.20078770914E+04  0.20078770914E+04  0.00000000000E+00 0. -1.
         36    2    1    2    0    0  0.42632564146E-13  0.00000000000E+00 -0.18833055627E+04  0.21324486200E+04  0.10002486062E+04 0.  0.
         25    2    3    3    0    0  0.94700591907E+02 -0.60268880374E+02 -0.17609166309E+03  0.24355396645E+03  0.12533842473E+03 0.  0.
         35    2    3    3    0    0 -0.94700591907E+02  0.60268880374E+02 -0.17072138997E+04  0.18888946536E+04  0.80046434837E+03 0.  0.
         22    1    5    5    0    0  0.24268995111E+03 -0.69998991446E+02 -0.13743446114E+04  0.13973622945E+04  0.00000000000E+00 0.  1.
         22    1    5    5    0    0 -0.33739054302E+03  0.13026787182E+03 -0.33286928825E+03  0.49153235906E+03  0.00000000000E+00 0.  1.
          5    1    4    4  502    0  0.38392820373E+02 -0.47468200726E+02 -0.17522126041E+03  0.18561201157E+03  0.47000000000E+01 0.  1.
         -5    1    4    4    0  502  0.56307771535E+02 -0.12800679648E+02 -0.87040267181E+00  0.57941954881E+02  0.47000000000E+01 0.  1.
<mgrwt>
<rscale>  0 0.10002486E+04</rscale>
<asrwt>0</asrwt>
<pdfrwt beam="1">  1        1 0.30890416E+00 0.10002486E+04</pdfrwt>
<pdfrwt beam="2">  1       -1 0.19164851E-01 0.10002486E+04</pdfrwt>
<totfact> 0.67474533E+01</totfact>
</mgrwt>
</event>
<event>
 9    1  0.4388925E-036  0.1000432E+04  0.7818608E-02  0.8680627E-01
         -2   -1    0    0    0  501 -0.00000000000E+00  0.00000000000E+00  0.37554645171E+03  0.37554645171E+03  0.00000000000E+00 0.  1.
          2   -1    0    0  501    0  0.00000000000E+00 -0.00000000000E+00 -0.66627142402E+03  0.66627142402E+03  0.00000000000E+00 0.  1.
         36    2    1    2    0    0  0.00000000000E+00  0.14210854715E-13 -0.29072497231E+03  0.10418178757E+04  0.10004316452E+04 0.  0.
         25    2    3    3    0    0 -0.90741473464E+02 -0.10648029242E+03 -0.44671335629E+02  0.19213726357E+03  0.12389161451E+03 0.  0.
         35    2    3    3    0    0  0.90741473464E+02  0.10648029242E+03 -0.24605363668E+03  0.84968061216E+03  0.80115084901E+03 0.  0.
         22    1    5    5    0    0  0.10216393287E+03  0.27424793412E+03  0.21223549549E+03  0.36151528889E+03  0.00000000000E+00 0.  1.
         22    1    5    5    0    0 -0.11422459407E+02 -0.16776764171E+03 -0.45828913217E+03  0.48816532327E+03  0.00000000000E+00 0.  1.
          5    1    4    4  502    0  0.22397468823E+02  0.83387089614E+01 -0.13636595171E+02  0.27914644986E+02  0.47000000000E+01 0. -1.
         -5    1    4    4    0  502 -0.11313894229E+03 -0.11481900138E+03 -0.31034740458E+02  0.16422261859E+03  0.47000000000E+01 0. -1.
<mgrwt>
<rscale>  0 0.10004316E+04</rscale>
<asrwt>0</asrwt>
<pdfrwt beam="1">  1        2 0.10250330E+00 0.10004316E+04</pdfrwt>
<pdfrwt beam="2">  1       -2 0.57776377E-01 0.10004316E+04</pdfrwt>
<totfact> 0.14796694E+02</totfact>
</mgrwt>
</event>
<event>
 9    1  0.4388925E-036  0.1002800E+04  0.7818608E-02  0.8678376E-01
          2   -1    0    0  501    0  0.00000000000E+00  0.00000000000E+00  0.77665303607E+03  0.77665303607E+03  0.00000000000E+00 0.  1.
         -2   -1    0    0    0  501 -0.00000000000E+00 -0.00000000000E+00 -0.32369902135E+03  0.32369902135E+03  0.00000000000E+00 0.  1.
         36    2    1    2    0    0 -0.71054273576E-14 -0.28421709430E-13  0.45295401471E+03  0.11003520574E+04  0.10027997361E+04 0.  0.
         25    2    3    3    0    0  0.57572282317E+02  0.13055881966E+03  0.84855369067E+02  0.20826817535E+03  0.12575780740E+03 0.  0.
         35    2    3    3    0    0 -0.57572282317E+02 -0.13055881966E+03  0.36809864565E+03  0.89208388207E+03  0.79997304120E+03 0.  0.
         22    1    5    5    0    0  0.48016591452E+02 -0.45401049553E+03  0.29652374361E+03  0.54438722765E+03  0.00000000000E+00 0. -1.
         22    1    5    5    0    0 -0.10558887377E+03  0.32345167588E+03  0.71574902040E+02  0.34769665442E+03  0.00000000000E+00 0. -1.
          5    1    4    4  502    0  0.73260115838E+02  0.74894088711E+02 -0.72134911990E+00  0.10487506587E+03  0.47000000000E+01 0.  1.
         -5    1    4    4    0  502 -0.15687833521E+02  0.55664730946E+02  0.85576718187E+02  0.10339310948E+03  0.47000000000E+01 0.  1.
<mgrwt>
<rscale>  0 0.10027997E+04</rscale>
<asrwt>0</asrwt>
<pdfrwt beam="1">  1        2 0.11948508E+00 0.10027997E+04</pdfrwt>
<pdfrwt beam="2">  1       -2 0.49799849E-01 0.10027997E+04</pdfrwt>
<totfact> 0.16546970E+02</totfact>
</mgrwt>
</event>
<event>
 9    1  0.4388925E-036  0.1000334E+04  0.7818608E-02  0.8680720E-01
         -2   -1    0    0    0  501 -0.00000000000E+00  0.00000000000E+00  0.48727122249E+03  0.48727122249E+03  0.00000000000E+00 0.  1.
          2   -1    0    0  501    0  0.00000000000E+00 -0.00000000000E+00 -0.51340454886E+03  0.51340454886E+03  0.00000000000E+00 0.  1.
         36    2    1    2    0    0  0.71054273576E-14  0.00000000000E+00 -0.26133326374E+02  0.10006757713E+04  0.10003344684E+04 0.  0.
         25    2    3    3    0    0 -0.28332126230E+02 -0.82162820356E+02 -0.11141003392E+03  0.18865739292E+03  0.12500391121E+03 0.  0.
         35    2    3    3    0    0  0.28332126230E+02  0.82162820356E+02  0.85276707542E+02  0.81201837843E+03  0.80283764961E+03 0.  0.
         22    1    5    5    0    0 -0.13633355410E+03  0.34175259313E+03  0.26727492244E+03  0.45477198358E+03  0.00000000000E+00 0.  1.
         22    1    5    5    0    0  0.16466568033E+03 -0.25958977277E+03 -0.18199821490E+03  0.35724639485E+03  0.00000000000E+00 0.  1.
          5    1    4    4  502    0 -0.72755337043E+02 -0.74578688963E+02 -0.93044176983E+02  0.13976633638E+03  0.47000000000E+01 0.  1.
         -5    1    4    4    0  502  0.44423210813E+02 -0.75841313934E+01 -0.18365856932E+02  0.48891056532E+02  0.47000000000E+01 0.  1.
<mgrwt>
<rscale>  0 0.10003345E+04</rscale>
<asrwt>0</asrwt>
<pdfrwt beam="1">  1        2 0.78985315E-01 0.10003345E+04</pdfrwt>
<pdfrwt beam="2">  1       -2 0.74964804E-01 0.10003345E+04</pdfrwt>
<totfact> 0.11529795E+02</totfact>
</mgrwt>
</event>
<event>
 9    1  0.4388925E-036  0.1004016E+04  0.7818608E-02  0.8677223E-01
          2   -1    0    0  501    0  0.00000000000E+00  0.00000000000E+00  0.42900115669E+03  0.42900115669E+03  0.00000000000E+00 0.  1.
         -2   -1    0    0    0  501 -0.00000000000E+00 -0.00000000000E+00 -0.58743852987E+03  0.58743852987E+03  0.00000000000E+00 0.  1.
         36    2    1    2    0    0  0.00000000000E+00 -0.35527136788E-14 -0.15843737318E+03  0.10164396866E+04  0.10040155553E+04 0.  0.
         25    2    3    3    0    0 -0.12585066468E+03 -0.17128171183E+02  0.38370339129E+02  0.18276911225E+03  0.12570004542E+03 0.  0.
         35    2    3    3    0    0  0.12585066468E+03  0.17128171183E+02 -0.19680771231E+03  0.83367057431E+03  0.80008848686E+03 0.  0.
         22    1    5    5    0    0  0.43080234756E+02 -0.14950556550E+03 -0.47452886714E+03  0.49938508837E+03  0.00000000000E+00 0.  1.
         22    1    5    5    0    0  0.82770429923E+02  0.16663373668E+03  0.27772115483E+03  0.33428548594E+03  0.00000000000E+00 0.  1.
          5    1    4    4  502    0 -0.83933437756E+01 -0.48355733082E+02 -0.12607258615E+02  0.50889666057E+02  0.47000000000E+01 0.  1.
         -5    1    4    4    0  502 -0.11745732090E+03  0.31227561899E+02  0.50977597744E+02  0.13187944619E+03  0.47000000000E+01 0.  1.
<mgrwt>
<rscale>  0 0.10040156E+04</rscale>
<asrwt>0</asrwt>
<pdfrwt beam="1">  1        2 0.66000178E-01 0.10040156E+04</pdfrwt>
<pdfrwt beam="2">  1       -2 0.90375158E-01 0.10040156E+04</pdfrwt>
<totfact> 0.91852960E+01</totfact>
</mgrwt>
</event>
<event>
 9    1  0.4388925E-036  0.9981361E+03  0.7818608E-02  0.8682815E-01
         -2   -1    0    0    0  501 -0.00000000000E+00  0.00000000000E+00  0.33598303870E+03  0.33598303870E+03  0.00000000000E+00 0. -1.
          2   -1    0    0  501    0  0.00000000000E+00 -0.00000000000E+00 -0.74131394582E+03  0.74131394582E+03  0.00000000000E+00 0. -1.
         36    2    1    2    0    0  0.00000000000E+00  0.71054273576E-14 -0.40533090712E+03  0.10772969845E+04  0.99813608721E+03 0.  0.
         25    2    3    3    0    0 -0.11527822438E+03 -0.16940934345E+02  0.48522917072E+01  0.17109056485E+03  0.12518934609E+03 0.  0.
         35    2    3    3    0    0  0.11527822438E+03  0.16940934345E+02 -0.41018319882E+03  0.90620641966E+03  0.79961475360E+03 0.  0.
         22    1    5    5    0    0 -0.11024014124E+03  0.12836399708E+03  0.19061169103E+03  0.25487844405E+03  0.00000000000E+00 0. -1.
         22    1    5    5    0    0  0.22551836562E+03 -0.11142306273E+03 -0.60079488985E+03  0.65132797561E+03  0.00000000000E+00 0. -1.
          5    1    4    4  502    0 -0.20017779925E+01 -0.47369515372E+02 -0.19021913676E+02  0.51301084799E+02  0.47000000000E+01 0. -1.
         -5    1    4    4    0  502 -0.11327644639E+03  0.30428581027E+02  0.23874205383E+02  0.11978948006E+03  0.47000000000E+01 0. -1.
<mgrwt>
<rscale>  0 0.99813609E+03</rscale>
<asrwt>0</asrwt>
<pdfrwt beam="1">  1        2 0.11404830E+00 0.99813609E+03</pdfrwt>
<pdfrwt beam="2">  1       -2 0.51689698E-01 0.99813609E+03</pdfrwt>
<totfact> 0.16288084E+02</totfact>
</mgrwt>
</event>
<event>
 9    1  0.4388925E-036  0.9988429E+03  0.7818608E-02  0.8682141E-01
         -1   -1    0    0    0  501 -0.00000000000E+00  0.00000000000E+00  0.56544467156E+03  0.56544467156E+03  0.00000000000E+00 0. -1.
          1   -1    0    0  501    0  0.00000000000E+00 -0.00000000000E+00 -0.44110736300E+03  0.44110736300E+03  0.00000000000E+00 0. -1.
         36    2    1    2    0    0 -0.14210854715E-13  0.71054273576E-14  0.12433730855E+03  0.10065520346E+04  0.99884294661E+03 0.  0.
         25    2    3    3    0    0 -0.49415856393E+02  0.67577877418E+01 -0.10718242066E+03  0.17203770425E+03  0.12498522243E+03 0.  0.
         35    2    3    3    0    0  0.49415856393E+02 -0.67577877418E+01  0.23151972921E+03  0.83451433032E+03  0.80020321665E+03 0.  0.
         22    1    5    5    0    0 -0.14949714050E+02 -0.11520708629E+03 -0.28239230814E+03  0.30535484666E+03  0.00000000000E+00 0.  1.
         22    1    5    5    0    0  0.64365570442E+02  0.10844929855E+03  0.51391203735E+03  0.52915948366E+03  0.00000000000E+00 0.  1.
          5    1    4    4  502    0 -0.12608375398E+02 -0.53329535174E+02 -0.17151087298E+02  0.57613021510E+02  0.47000000000E+01 0. -1.
         -5    1    4    4    0  502 -0.36807480994E+02  0.60087322916E+02 -0.90031333360E+02  0.11442468273E+03  0.47000000000E+01 0. -1.
<mgrwt>
<rscale>  0 0.99884295E+03</rscale>
<asrwt>0</asrwt>
<pdfrwt beam="1">  1        1 0.67862671E-01 0.99884295E+03</pdfrwt>
<pdfrwt beam="2">  1       -1 0.86991489E-01 0.99884295E+03</pdfrwt>
<totfact> 0.81339430E+01</totfact>
</mgrwt>
</event>
<event>
 9    1  0.4388925E-036  0.1001335E+04  0.7818608E-02  0.8679768E-01
          2   -1    0    0  501    0  0.00000000000E+00  0.00000000000E+00  0.20157362146E+04  0.20157362146E+04  0.00000000000E+00 0. -1.
         -2   -1    0    0    0  501 -0.00000000000E+00 -0.00000000000E+00 -0.12435552613E+03  0.12435552613E+03  0.00000000000E+00 0. -1.
         36    2    1    2    0    0  0.14210854715E-13  0.00000000000E+00  0.18913806885E+04  0.21400917407E+04  0.10013349839E+04 0.  0.
         25    2    3    3    0    0 -0.93577157933E+02  0.74700939533E+02  0.19838462472E+03  0.26317905921E+03  0.12477917705E+03 0.  0.
         35    2    3    3    0    0  0.93577157933E+02 -0.74700939533E+02  0.16929960638E+04  0.18769126815E+04  0.80139168159E+03 0.  0.
         22    1    5    5    0    0  0.16660267342E+03 -0.31782877285E+03  0.32049628336E+03  0.48113350256E+03  0.00000000000E+00 0. -1.
         22    1    5    5    0    0 -0.73025515485E+02  0.24312783331E+03  0.13724997804E+04  0.13957791790E+04  0.00000000000E+00 0. -1.
          5    1    4    4  502    0 -0.15716818854E+01  0.64235597263E+02  0.30251099267E+02  0.71175144162E+02  0.47000000000E+01 0.  1.
         -5    1    4    4    0  502 -0.92005476048E+02  0.10465342271E+02  0.16813352545E+03  0.19200391504E+03  0.47000000000E+01 0.  1.
<mgrwt>
<rscale>  0 0.10013350E+04</rscale>
<asrwt>0</asrwt>
<pdfrwt beam="1">  1        2 0.31011324E+00 0.10013350E+04</pdfrwt>
<pdfrwt beam="2">  1       -2 0.19131621E-01 0.10013350E+04</pdfrwt>
<totfact> 0.17727703E+02</totfact>
</mgrwt>
</event>
<event>
 9    1  0.4388925E-036  0.1000787E+04  0.7818608E-02  0.8680289E-01
         -2   -1    0    0    0  501 -0.00000000000E+00  0.00000000000E+00  0.26574324419E+03  0.26574324419E+03  0.00000000000E+00 0.  1.
          2   -1    0    0  501    0  0.00000000000E+00 -0.00000000000E+00 -0.94223961880E+03  0.94223961880E+03  0.00000000000E+00 0.  1.
         36    2    1    2    0    0 -0.14210854715E-13 -0.14210854715E-13 -0.67649637461E+03  0.12079828630E+04  0.10007873163E+04 0.  0.
         25    2    3    3    0    0  0.84155003351E+02  0.98871512260E+02 -0.19569638278E+03  0.26577218944E+03  0.12441921845E+03 0.  0.
         35    2    3    3    0    0 -0.84155003351E+02 -0.98871512260E+02 -0.48079999183E+03  0.94221067354E+03  0.79983415823E+03 0.  0.
         22    1    5    5    0    0  0.12237725629E+03  0.78085211491E+02  0.17787572335E+03  0.22959369780E+03  0.00000000000E+00 0. -1.
         22    1    5    5    0    0 -0.20653225964E+03 -0.17695672375E+03 -0.65867571518E+03  0.71261697575E+03  0.00000000000E+00 0. -1.
          5    1    4    4  502    0 -0.27893678553E+02  0.11943931528E+02 -0.10464643810E+02  0.32439383065E+02  0.47000000000E+01 0. -1.
         -5    1    4    4    0  502  0.11204868190E+03  0.86927580732E+02 -0.18523173897E+03  0.23333280638E+03  0.47000000000E+01 0. -1.
<mgrwt>
<rscale>  0 0.10007873E+04</rscale>
<asrwt>0</asrwt>
<pdfrwt beam="1">  1        2 0.14495994E+00 0.10007873E+04</pdfrwt>
<pdfrwt beam="2">  1       -2 0.40883576E-01 0.10007873E+04</pdfrwt>
<totfact> 0.18825330E+02</totfact>
</mgrwt>
</event>
<event>
 9    1  0.4388925E-036  0.9992133E+03  0.7818608E-02  0.8681787E-01
         -2   -1    0    0    0  501 -0.00000000000E+00  0.00000000000E+00  0.17270083253E+03  0.17270083253E+03  0.00000000000E+00 0. -1.
          2   -1    0    0  501    0  0.00000000000E+00 -0.00000000000E+00 -0.14453133321E+04  0.14453133321E+04  0.00000000000E+00 0. -1.
         36    2    1    2    0    0  0.00000000000E+00  0.00000000000E+00 -0.12726124996E+04  0.16180141646E+04  0.99921332201E+03 0.  0.
         25    2    3    3    0    0  0.10621706725E+03 -0.71602543256E+02 -0.32197863158E+03  0.36906134520E+03  0.12699231376E+03 0.  0.
         35    2    3    3    0    0 -0.10621706725E+03  0.71602543256E+02 -0.95063386800E+03  0.12489528194E+04  0.79985586490E+03 0.  0.
         22    1    5    5    0    0 -0.44116906122E+03 -0.69133085257E+02 -0.53717925409E+03  0.69854926461E+03  0.00000000000E+00 0. -1.
         22    1    5    5    0    0  0.33495199398E+03  0.14073562851E+03 -0.41345461391E+03  0.55040355482E+03  0.00000000000E+00 0. -1.
          5    1    4    4  502    0  0.38776752756E+02  0.45575543626E+01 -0.22508505086E+03  0.22849459070E+03  0.47000000000E+01 0.  1.
         -5    1    4    4    0  502  0.67440314492E+02 -0.76160097619E+02 -0.96893580719E+02  0.14056675451E+03  0.47000000000E+01 0.  1.
<mgrwt>
<rscale>  0 0.99921332E+03</rscale>
<asrwt>0</asrwt>
<pdfrwt beam="1">  1        2 0.22235589E+00 0.99921332E+03</pdfrwt>
<pdfrwt beam="2">  1       -2 0.26569359E-01 0.99921332E+03</pdfrwt>
<totfact> 0.20943948E+02</totfact>
</mgrwt>
</event>
<event>
 9    1  0.4388925E-036  0.1000075E+04  0.7818608E-02  0.8680967E-01
         -2   -1    0    0    0  501 -0.00000000000E+00  0.00000000000E+00  0.18660988005E+03  0.18660988005E+03  0.00000000000E+00 0. -1.
          2   -1    0    0  501    0  0.00000000000E+00 -0.00000000000E+00 -0.13398937749E+04  0.13398937749E+04  0.00000000000E+00 0. -1.
         36    2    1    2    0    0 -0.14210854715E-13  0.14210854715E-13 -0.11532838949E+04  0.15265036550E+04  0.10000748304E+04 0.  0.
         25    2    3    3    0    0 -0.81435117243E+02  0.92327186846E+02 -0.30389974250E+03  0.35298913753E+03  0.13072983581E+03 0.  0.
         35    2    3    3    0    0  0.81435117243E+02 -0.92327186846E+02 -0.84938415238E+03  0.11735145174E+04  0.80032924262E+03 0.  0.
         22    1    5    5    0    0  0.27143972347E+03 -0.36530993769E+03 -0.35283680608E+03  0.57586863587E+03  0.00000000000E+00 0.  1.
         22    1    5    5    0    0 -0.19000460623E+03  0.27298275085E+03 -0.49654734630E+03  0.59764588157E+03  0.00000000000E+00 0.  1.
          5    1    4    4  502    0 -0.31253794686E+02  0.84151308066E+01 -0.22472302569E+03  0.22709060391E+03  0.47000000000E+01 0. -1.
         -5    1    4    4    0  502 -0.50181322557E+02  0.83912056040E+02 -0.79176716801E+02  0.12589853361E+03  0.47000000000E+01 0. -1.
<mgrwt>
<rscale>  0 0.10000748E+04</rscale>
<asrwt>0</asrwt>
<pdfrwt beam="1">  1        2 0.20613751E+00 0.10000748E+04</pdfrwt>
<pdfrwt beam="2">  1       -2 0.28709212E-01 0.10000748E+04</pdfrwt>
<totfact> 0.20931898E+02</totfact>
</mgrwt>
</event>
<event>
 9    1  0.4388925E-036  0.1000568E+04  0.7818608E-02  0.8680497E-01
          3   -1    0    0  501    0  0.00000000000E+00  0.00000000000E+00  0.58176290763E+03  0.58176290763E+03  0.00000000000E+00 0.  1.
         -3   -1    0    0    0  501 -0.00000000000E+00 -0.00000000000E+00 -0.43021668875E+03  0.43021668875E+03  0.00000000000E+00 0.  1.
         36    2    1    2    0    0 -0.14210854715E-13  0.14210854715E-13  0.15154621888E+03  0.10119795964E+04  0.10005680622E+04 0.  0.
         25    2    3    3    0    0 -0.29619173418E+02 -0.20656366492E+02  0.16616371211E+03  0.21148416907E+03  0.12574256891E+03 0.  0.
         35    2    3    3    0    0  0.29619173418E+02  0.20656366492E+02 -0.14617493231E+02  0.80049542731E+03  0.79954691990E+03 0.  0.
         22    1    5    5    0    0 -0.31504976203E+03 -0.21560518439E+03  0.10085808587E+02  0.38189484368E+03  0.00000000000E+00 0. -1.
         22    1    5    5    0    0  0.34466893545E+03  0.23626155088E+03 -0.24703301818E+02  0.41860058363E+03  0.00000000000E+00 0. -1.
          5    1    4    4  502    0 -0.22525011009E+02  0.43443094979E+02  0.22754754099E+02  0.54171463488E+02  0.47000000000E+01 0. -1.
         -5    1    4    4    0  502 -0.70941624095E+01 -0.64099461471E+02  0.14340895801E+03  0.15731270558E+03  0.47000000000E+01 0. -1.
<mgrwt>
<rscale>  0 0.10005681E+04</rscale>
<asrwt>0</asrwt>
<pdfrwt beam="1">  1        3 0.89501986E-01 0.10005681E+04</pdfrwt>
<pdfrwt beam="2">  1       -3 0.66187182E-01 0.10005681E+04</pdfrwt>
<totfact> 0.10135850E+01</totfact>
</mgrwt>
</event>
<event>
 9    1  0.4388925E-036  0.1001818E+04  0.7818608E-02  0.8679309E-01
          2   -1    0    0  501    0  0.00000000000E+00  0.00000000000E+00  0.25796554539E+04  0.25796554539E+04  0.00000000000E+00 0. -1.
         -2   -1    0    0    0  501 -0.00000000000E+00 -0.00000000000E+00 -0.97264853435E+02  0.97264853435E+02  0.00000000000E+00 0. -1.
         36    2    1    2    0    0  0.14210854715E-13  0.00000000000E+00  0.24823906005E+04  0.26769203073E+04  0.10018179668E+04 0.  0.
         25    2    3    3    0    0  0.55740940272E+02  0.13004953758E+03  0.44950644635E+03  0.48760237955E+03  0.12522020835E+03 0.  0.
         35    2    3    3    0    0 -0.55740940272E+02 -0.13004953758E+03  0.20328841541E+04  0.21893179278E+04  0.80029686383E+03 0.  0.
         22    1    5    5    0    0 -0.37797195474E+03 -0.37422127805E+02  0.15848179249E+04  0.16296966188E+04  0.00000000000E+00 0.  1.
         22    1    5    5    0    0  0.32223101447E+03 -0.92627409773E+02  0.44806622924E+03  0.55962130903E+03  0.00000000000E+00 0.  1.
          5    1    4    4  502    0 -0.22842904492E+02 -0.25684269076E+01  0.13831728665E+03  0.14029311063E+03  0.47000000000E+01 0. -1.
         -5    1    4    4    0  502  0.78583844764E+02  0.13261796449E+03  0.31118915970E+03  0.34730926892E+03  0.47000000000E+01 0. -1.
<mgrwt>
<rscale>  0 0.10018180E+04</rscale>
<asrwt>0</asrwt>
<pdfrwt beam="1">  1        2 0.39687002E+00 0.10018180E+04</pdfrwt>
<pdfrwt beam="2">  1       -2 0.14963826E-01 0.10018180E+04</pdfrwt>
<totfact> 0.12495767E+02</totfact>
</mgrwt>
</event>
<event>
 9    1  0.4388925E-036  0.1000107E+04  0.7818608E-02  0.8680936E-01
          1   -1    0    0  501    0  0.00000000000E+00  0.00000000000E+00  0.12231661668E+04  0.12231661668E+04  0.00000000000E+00 0.  1.
         -1   -1    0    0    0  501 -0.00000000000E+00 -0.00000000000E+00 -0.20443152616E+03  0.20443152616E+03  0.00000000000E+00 0.  1.
         36    2    1    2    0    0  0.00000000000E+00  0.71054273576E-14  0.10187346406E+04  0.14275976929E+04  0.10001074467E+04 0.  0.
         25    2    3    3    0    0  0.42727232181E+02  0.19926218012E+02  0.37962187083E+03  0.40213780759E+03  0.12401363208E+03 0.  0.
         35    2    3    3    0    0 -0.42727232181E+02 -0.19926218012E+02  0.63911276979E+03  0.10254598854E+04  0.80054991938E+03 0.  0.
         22    1    5    5    0    0  0.79967998984E+02  0.23470371093E+03  0.69449975650E+03  0.73743516634E+03  0.00000000000E+00 0.  1.
         22    1    5    5    0    0 -0.12269523117E+03 -0.25462992894E+03 -0.55386986707E+02  0.28802471901E+03  0.00000000000E+00 0.  1.
          5    1    4    4  502    0  0.39636971532E+02 -0.40977967126E+02  0.93979871015E+02  0.11002085919E+03  0.47000000000E+01 0.  1.
         -5    1    4    4    0  502  0.30902606491E+01  0.60904185137E+02  0.28564199982E+03  0.29211694839E+03  0.47000000000E+01 0.  1.
<mgrwt>
<rscale>  0 0.10001074E+04</rscale>
<asrwt>0</asrwt>
<pdfrwt beam="1">  1        1 0.18817941E+00 0.10001074E+04</pdfrwt>
<pdfrwt beam="2">  1       -1 0.31451005E-01 0.10001074E+04</pdfrwt>
<totfact> 0.10618507E+02</totfact>
</mgrwt>
</event>
<event>
 9    1  0.4388925E-036  0.1000131E+04  0.7818608E-02  0.8680913E-01
         -2   -1    0    0    0  501 -0.00000000000E+00  0.00000000000E+00  0.26181271817E+03  0.26181271817E+03  0.00000000000E+00 0. -1.
          2   -1    0    0  501    0  0.00000000000E+00 -0.00000000000E+00 -0.95513147943E+03  0.95513147943E+03  0.00000000000E+00 0. -1.
         36    2    1    2    0    0 -0.14210854715E-13  0.14210854715E-13 -0.69331876127E+03  0.12169441976E+04  0.10001311291E+04 0.  0.
         25    2    3    3    0    0 -0.74118334385E+02 -0.30819726429E+02 -0.26951278917E+03  0.30775246215E+03  0.12502420327E+03 0.  0.
         35    2    3    3    0    0  0.74118334385E+02  0.30819726429E+02 -0.42380597209E+03  0.90919173545E+03  0.80035912365E+03 0.  0.
         22    1    5    5    0    0  0.40522516548E+01  0.37204882896E+03 -0.15380988395E+02  0.37238867690E+03  0.00000000000E+00 0. -1.
         22    1    5    5    0    0  0.70066082730E+02 -0.34122910254E+03 -0.40842498370E+03  0.53680305856E+03  0.00000000000E+00 0. -1.
          5    1    4    4  502    0  0.95957823926E+00 -0.40936276906E+01  0.12853947584E+02  0.14317560775E+02  0.47000000000E+01 0. -1.
         -5    1    4    4    0  502 -0.75077912624E+02 -0.26726098738E+02 -0.28236673676E+03  0.29343490138E+03  0.47000000000E+01 0. -1.
<mgrwt>
<rscale>  0 0.10001311E+04</rscale>
<asrwt>0</asrwt>
<pdfrwt beam="1">  1        2 0.14694330E+00 0.10001311E+04</pdfrwt>
<pdfrwt beam="2">  1       -2 0.40278880E-01 0.10001311E+04</pdfrwt>
<totfact> 0.19005616E+02</totfact>
</mgrwt>
</event>
<event>
 9    1  0.4388925E-036  0.9999698E+03  0.7818608E-02  0.8681067E-01
         -1   -1    0    0    0  501 -0.00000000000E+00  0.00000000000E+00  0.38618009649E+03  0.38618009649E+03  0.00000000000E+00 0.  1.
          1   -1    0    0  501    0  0.00000000000E+00 -0.00000000000E+00 -0.64732729602E+03  0.64732729602E+03  0.00000000000E+00 0.  1.
         36    2    1    2    0    0  0.00000000000E+00  0.10658141036E-13 -0.26114719953E+03  0.10335073925E+04  0.99996983483E+03 0.  0.
         25    2    3    3    0    0 -0.12191666099E+03 -0.27322333308E+02 -0.11240930052E+03  0.20948282612E+03  0.12504807664E+03 0.  0.
         35    2    3    3    0    0  0.12191666099E+03  0.27322333308E+02 -0.14873789901E+03  0.82402456640E+03  0.80080168663E+03 0.  0.
         22    1    5    5    0    0  0.31722563670E+03  0.22863882384E+03  0.14576893264E+03  0.41732049802E+03  0.00000000000E+00 0.  1.
         22    1    5    5    0    0 -0.19530897570E+03 -0.20131649053E+03 -0.29450683164E+03  0.40670406838E+03  0.00000000000E+00 0.  1.
          5    1    4    4  502    0  0.38955798486E+01 -0.21606662395E+02  0.17514233039E+02  0.28475634517E+02  0.47000000000E+01 0. -1.
         -5    1    4    4    0  502 -0.12581224084E+03 -0.57156709133E+01 -0.12992353356E+03  0.18100719160E+03  0.47000000000E+01 0. -1.
<mgrwt>
<rscale>  0 0.99996983E+03</rscale>
<asrwt>0</asrwt>
<pdfrwt beam="1">  1        1 0.99588814E-01 0.99996983E+03</pdfrwt>
<pdfrwt beam="2">  1       -1 0.59412323E-01 0.99996983E+03</pdfrwt>
<totfact> 0.10180406E+02</totfact>
</mgrwt>
</event>
<event>
 9    1  0.4388925E-036  0.9994095E+03  0.7818608E-02  0.8681601E-01
         -2   -1    0    0    0  501 -0.00000000000E+00  0.00000000000E+00  0.86334776320E+03  0.86334776320E+03  0.00000000000E+00 0.  1.
          2   -1    0    0  501    0  0.00000000000E+00 -0.00000000000E+00 -0.28922855392E+03  0.28922855392E+03  0.00000000000E+00 0.  1.
         36    2    1    2    0    0  0.00000000000E+00  0.00000000000E+00  0.57411920928E+03  0.11525763171E+04  0.99940947580E+03 0.  0.
         25    2    3    3    0    0  0.52870576246E+02  0.12793499113E+03  0.10932290609E+03  0.21640728060E+03  0.12537126270E+03 0.  0.
         35    2    3    3    0    0 -0.52870576246E+02 -0.12793499113E+03  0.46479630319E+03  0.93616903653E+03  0.80075851647E+03 0.  0.
         22    1    5    5    0    0  0.79227932857E+02 -0.45187463152E+03  0.30953260795E+03  0.55342405382E+03  0.00000000000E+00 0.  1.
         22    1    5    5    0    0 -0.13209850910E+03  0.32393964040E+03  0.15526369524E+03  0.38274498271E+03  0.00000000000E+00 0.  1.
          5    1    4    4  502    0  0.74881712774E+01  0.11123673782E+03  0.18090199937E+02  0.11304437131E+03  0.47000000000E+01 0.  1.
         -5    1    4    4    0  502  0.45382404969E+02  0.16698253302E+02  0.91232706153E+02  0.10336290929E+03  0.47000000000E+01 0.  1.
<mgrwt>
<rscale>  0 0.99940948E+03</rscale>
<asrwt>0</asrwt>
<pdfrwt beam="1">  1        2 0.44496701E-01 0.99940948E+03</pdfrwt>
<pdfrwt beam="2">  1       -2 0.13282273E+00 0.99940948E+03</pdfrwt>
<totfact> 0.54152237E+01</totfact>
</mgrwt>
</event>
<event>
 9    1  0.4388925E-036  0.1009209E+04  0.7818608E-02  0.8672317E-01
          2   -1    0    0  501    0  0.00000000000E+00  0.00000000000E+00  0.62403183416E+03  0.62403183416E+03  0.00000000000E+00 0.  1.
         -2   -1    0    0    0  501 -0.00000000000E+00 -0.00000000000E+00 -0.40803324126E+03  0.40803324126E+03  0.00000000000E+00 0.  1.
         36    2    1    2    0    0  0.14210854715E-13  0.14210854715E-13  0.21599859290E+03  0.10320650754E+04  0.10092090605E+04 0.  0.
         25    2    3    3    0    0 -0.11544205970E+03 -0.82640558357E+02  0.95389872285E+02  0.21172480194E+03  0.12478715074E+03 0.  0.
         35    2    3    3    0    0  0.11544205970E+03  0.82640558357E+02  0.12060872061E+03  0.82034027348E+03  0.79890886199E+03 0.  0.
         22    1    5    5    0    0 -0.10649866778E+03 -0.62380142809E+02 -0.29929452377E+03  0.32374443688E+03  0.00000000000E+00 0. -1.
         22    1    5    5    0    0  0.22194072748E+03  0.14502070117E+03  0.41990324438E+03  0.49659583659E+03  0.00000000000E+00 0. -1.
          5    1    4    4  502    0 -0.56263140837E+02 -0.62920373424E+01 -0.20849019763E+02  0.60513654457E+02  0.47000000000E+01 0. -1.
         -5    1    4    4    0  502 -0.59178918864E+02 -0.76348521014E+02  0.11623889205E+03  0.15121114748E+03  0.47000000000E+01 0. -1.
<mgrwt>
<rscale>  0 0.10092091E+04</rscale>
<asrwt>0</asrwt>
<pdfrwt beam="1">  1        2 0.96004898E-01 0.10092091E+04</pdfrwt>
<pdfrwt beam="2">  1       -2 0.62774345E-01 0.10092091E+04</pdfrwt>
<totfact> 0.13461449E+02</totfact>
</mgrwt>
</event>
<event>
 9    1  0.4388925E-036  0.9996976E+03  0.7818608E-02  0.8681326E-01
          2   -1    0    0  501    0  0.00000000000E+00  0.00000000000E+00  0.64120787755E+03  0.64120787755E+03  0.00000000000E+00 0. -1.
         -2   -1    0    0    0  501 -0.00000000000E+00 -0.00000000000E+00 -0.38965339088E+03  0.38965339088E+03  0.00000000000E+00 0. -1.
         36    2    1    2    0    0  0.14210854715E-13 -0.19539925233E-13  0.25155448667E+03  0.10308612684E+04  0.99969760178E+03 0.  0.
         25    2    3    3    0    0  0.72389989382E+02 -0.12949689542E+02  0.17012226549E+03  0.22294383799E+03  0.12391273002E+03 0.  0.
         35    2    3    3    0    0 -0.72389989382E+02  0.12949689542E+02  0.81432221182E+02  0.80791743045E+03  0.80043198509E+03 0.  0.
         22    1    5    5    0    0  0.28832378973E+03 -0.22805072310E+03  0.68310557937E+02  0.37390382768E+03  0.00000000000E+00 0.  1.
         22    1    5    5    0    0 -0.36071377911E+03  0.24100041264E+03  0.13121663245E+02  0.43401360276E+03  0.00000000000E+00 0.  1.
          5    1    4    4  502    0  0.61069620235E+02 -0.42227243625E+01  0.18904687256E+03  0.19876654633E+03  0.47000000000E+01 0.  1.
         -5    1    4    4    0  502  0.11320369147E+02 -0.87269651797E+01 -0.18924607074E+02  0.24177291655E+02  0.47000000000E+01 0.  1.
<mgrwt>
<rscale>  0 0.99969760E+03</rscale>
<asrwt>0</asrwt>
<pdfrwt beam="1">  1        2 0.98647366E-01 0.99969760E+03</pdfrwt>
<pdfrwt beam="2">  1       -2 0.59946676E-01 0.99969760E+03</pdfrwt>
<totfact> 0.14356000E+02</totfact>
</mgrwt>
</event>
<event>
 9    1  0.4388925E-036  0.1011031E+04  0.7818608E-02  0.8670603E-01
         -2   -1    0    0    0  501 -0.00000000000E+00  0.00000000000E+00  0.27038079586E+03  0.27038079586E+03  0.00000000000E+00 0.  1.
          2   -1    0    0  501    0  0.00000000000E+00 -0.00000000000E+00 -0.94513403219E+03  0.94513403219E+03  0.00000000000E+00 0.  1.
         36    2    1    2    0    0  0.14210854715E-13 -0.35527136788E-14 -0.67475323633E+03  0.12155148281E+04  0.10110313384E+04 0.  0.
         25    2    3    3    0    0  0.87538091482E+02 -0.11789556237E+02 -0.28007074846E+03  0.31874143894E+03  0.12391355720E+03 0.  0.
         35    2    3    3    0    0 -0.87538091482E+02  0.11789556237E+02 -0.39468248786E+03  0.89677338911E+03  0.80039136308E+03 0.  0.
         22    1    5    5    0    0 -0.12554780785E+02  0.19599142417E+03  0.19360551959E+03  0.27577773312E+03  0.00000000000E+00 0. -1.
         22    1    5    5    0    0 -0.74983310697E+02 -0.18420186793E+03 -0.58828800746E+03  0.62099565598E+03  0.00000000000E+00 0. -1.
          5    1    4    4  502    0  0.11896143551E+03 -0.14792100032E+02 -0.22891273891E+03  0.25844489045E+03  0.47000000000E+01 0.  1.
         -5    1    4    4    0  502 -0.31423344030E+02  0.30025437953E+01 -0.51158009551E+02  0.60296548495E+02  0.47000000000E+01 0.  1.
<mgrwt>
<rscale>  0 0.10110313E+04</rscale>
<asrwt>0</asrwt>
<pdfrwt beam="1">  1        2 0.14540524E+00 0.10110313E+04</pdfrwt>
<pdfrwt beam="2">  1       -2 0.41597046E-01 0.10110313E+04</pdfrwt>
<totfact> 0.18128289E+02</totfact>
</mgrwt>
</event>
<event>
 9    1  0.4388925E-036  0.1000785E+04  0.7818608E-02  0.8680291E-01
          2   -1    0    0  501    0  0.00000000000E+00  0.00000000000E+00  0.18906334657E+04  0.18906334657E+04  0.00000000000E+00 0.  1.
         -2   -1    0    0    0  501 -0.00000000000E+00 -0.00000000000E+00 -0.13243849823E+03  0.13243849823E+03  0.00000000000E+00 0.  1.
         36    2    1    2    0    0 -0.71054273576E-14  0.71054273576E-14  0.17581949675E+04  0.20230719640E+04  0.10007850057E+04 0.  0.
         25    2    3    3    0    0  0.31324028309E+02 -0.13212596252E+02  0.60996160833E+03  0.62322990697E+03  0.12331498633E+03 0.  0.
         35    2    3    3    0    0 -0.31324028309E+02  0.13212596252E+02  0.11482333592E+04  0.13998420570E+04  0.79997635588E+03 0.  0.
         22    1    5    5    0    0 -0.28790407823E+03  0.20479823518E+03  0.97224334052E+03  0.10344506700E+04  0.00000000000E+00 0. -1.
         22    1    5    5    0    0  0.25658004992E+03 -0.19158563892E+03  0.17599001867E+03  0.36539138705E+03  0.00000000000E+00 0. -1.
          5    1    4    4  502    0 -0.49899340542E+01  0.51986189875E+02  0.28410053005E+03  0.28889905599E+03  0.47000000000E+01 0. -1.
         -5    1    4    4    0  502  0.36313962363E+02 -0.65198786127E+02  0.32586107828E+03  0.33433085097E+03  0.47000000000E+01 0. -1.
<mgrwt>
<rscale>  0 0.10007850E+04</rscale>
<asrwt>0</asrwt>
<pdfrwt beam="1">  1        2 0.29086667E+00 0.10007850E+04</pdfrwt>
<pdfrwt beam="2">  1       -2 0.20375155E-01 0.10007850E+04</pdfrwt>
<totfact> 0.18727564E+02</totfact>
</mgrwt>
</event>
<event>
 9    1  0.4388925E-036  0.1000092E+04  0.7818608E-02  0.8680950E-01
          1   -1    0    0  501    0  0.00000000000E+00  0.00000000000E+00  0.10004803844E+04  0.10004803844E+04  0.00000000000E+00 0. -1.
         -1   -1    0    0    0  501 -0.00000000000E+00 -0.00000000000E+00 -0.24992593398E+03  0.24992593398E+03  0.00000000000E+00 0. -1.
         36    2    1    2    0    0  0.00000000000E+00  0.28421709430E-13  0.75055445045E+03  0.12504063184E+04  0.10000919848E+04 0.  0.
         25    2    3    3    0    0  0.36418243314E+02 -0.58058604149E+01 -0.36603684891E+02  0.12838084110E+03  0.11739597162E+03 0.  0.
         35    2    3    3    0    0 -0.36418243314E+02  0.58058604149E+01  0.78715813534E+03  0.11220254773E+04  0.79872601389E+03 0.  0.
         22    1    5    5    0    0 -0.95965479009E+02 -0.36334667398E+03  0.19946430826E+03  0.42545997335E+03  0.00000000000E+00 0.  1.
         22    1    5    5    0    0  0.59547235695E+02  0.36915253440E+03  0.58769382708E+03  0.69656550397E+03  0.00000000000E+00 0.  1.
          5    1    4    4  502    0 -0.74421433067E+01  0.39687240340E+02  0.18258524128E+02  0.44563732408E+02  0.47000000000E+01 0.  1.
         -5    1    4    4    0  502  0.43860386621E+02 -0.45493100755E+02 -0.54862209019E+02  0.83817108691E+02  0.47000000000E+01 0.  1.
<mgrwt>
<rscale>  0 0.10000920E+04</rscale>
<asrwt>0</asrwt>
<pdfrwt beam="1">  1        1 0.15392006E+00 0.10000920E+04</pdfrwt>
<pdfrwt beam="2">  1       -1 0.38450144E-01 0.10000920E+04</pdfrwt>
<totfact> 0.11078079E+02</totfact>
</mgrwt>
</event>
<event>
 9    1  0.4388925E-036  0.1000187E+04  0.7818608E-02  0.8680860E-01
          2   -1    0    0  501    0  0.00000000000E+00  0.00000000000E+00  0.16982217748E+04  0.16982217748E+04  0.00000000000E+00 0.  1.
         -2   -1    0    0    0  501 -0.00000000000E+00 -0.00000000000E+00 -0.14726780025E+03  0.14726780025E+03  0.00000000000E+00 0.  1.
         36    2    1    2    0    0 -0.71054273576E-14  0.00000000000E+00  0.15509539746E+04  0.18454895751E+04  0.10001867528E+04 0.  0.
         25    2    3    3    0    0 -0.59828855044E+02 -0.12918523313E+03  0.28714224894E+03  0.34429904406E+03  0.12578888766E+03 0.  0.
         35    2    3    3    0    0  0.59828855044E+02  0.12918523313E+03  0.12638117256E+04  0.15011905310E+04  0.79754913089E+03 0.  0.
         22    1    5    5    0    0 -0.55964020458E+02 -0.18922785986E+03  0.48022444587E+01  0.19738849025E+03  0.00000000000E+00 0.  1.
         22    1    5    5    0    0  0.11579287550E+03  0.31841309299E+03  0.12590094812E+04  0.13038020408E+04  0.00000000000E+00 0.  1.
          5    1    4    4  502    0  0.63999381231E+01 -0.10105635139E+03  0.23310058891E+03  0.25418756837E+03  0.47000000000E+01 0. -1.
         -5    1    4    4    0  502 -0.66228793167E+02 -0.28128881743E+02  0.54041660033E+02  0.90111475693E+02  0.47000000000E+01 0. -1.
<mgrwt>
<rscale>  0 0.10001868E+04</rscale>
<asrwt>0</asrwt>
<pdfrwt beam="1">  1        2 0.26126488E+00 0.10001868E+04</pdfrwt>
<pdfrwt beam="2">  1       -2 0.22656586E-01 0.10001868E+04</pdfrwt>
<totfact> 0.19983938E+02</totfact>
</mgrwt>
</event>
<event>
 9    1  0.4388925E-036  0.1001335E+04  0.7818608E-02  0.8679768E-01
          2   -1    0    0  501    0  0.00000000000E+00  0.00000000000E+00  0.26973490925E+04  0.26973490925E+04  0.00000000000E+00 0. -1.
         -2   -1    0    0    0  501 -0.00000000000E+00 -0.00000000000E+00 -0.92931186155E+02  0.92931186155E+02  0.00000000000E+00 0. -1.
         36    2    1    2    0    0  0.71054273576E-14  0.00000000000E+00  0.26044179064E+04  0.27902802787E+04  0.10013348104E+04 0.  0.
         25    2    3    3    0    0 -0.46028321264E+02  0.58954025924E+02  0.15154346155E+03  0.20907066416E+03  0.12308914796E+03 0.  0.
         35    2    3    3    0    0  0.46028321264E+02 -0.58954025924E+02  0.24528744448E+04  0.25812096145E+04  0.80028485458E+03 0.  0.
         22    1    5    5    0    0 -0.99474558333E+02 -0.11557489357E+03  0.24159680090E+04  0.24207755295E+04  0.00000000000E+00 0. -1.
         22    1    5    5    0    0  0.14550287960E+03  0.56620867644E+02  0.36906435819E+02  0.16043408500E+03  0.00000000000E+00 0. -1.
          5    1    4    4  502    0 -0.83373378672E+02  0.13397062339E+02  0.96445940829E+02  0.12827513809E+03  0.47000000000E+01 0. -1.
         -5    1    4    4    0  502  0.37345057408E+02  0.45556963585E+02  0.55097520717E+02  0.80795526071E+02  0.47000000000E+01 0. -1.
<mgrwt>
<rscale>  0 0.10013348E+04</rscale>
<asrwt>0</asrwt>
<pdfrwt beam="1">  1        2 0.41497672E+00 0.10013348E+04</pdfrwt>
<pdfrwt beam="2">  1       -2 0.14297108E-01 0.10013348E+04</pdfrwt>
<totfact> 0.11389701E+02</totfact>
</mgrwt>
</event>
<event>
 9    1  0.4388925E-036  0.9993586E+03  0.7818608E-02  0.8681649E-01
         -3   -1    0    0    0  501 -0.00000000000E+00  0.00000000000E+00  0.54740293931E+03  0.54740293931E+03  0.00000000000E+00 0. -1.
          3   -1    0    0  501    0  0.00000000000E+00 -0.00000000000E+00 -0.45611628172E+03  0.45611628172E+03  0.00000000000E+00 0. -1.
         36    2    1    2    0    0 -0.37303493627E-13  0.00000000000E+00  0.91286657585E+02  0.10035192210E+04  0.99935858085E+03 0.  0.
         25    2    3    3    0    0 -0.38796633282E+01  0.12045549950E+03  0.90577068664E+02  0.19570650451E+03  0.12478882720E+03 0.  0.
         35    2    3    3    0    0  0.38796633282E+01 -0.12045549950E+03  0.70958892062E+00  0.80781271652E+03  0.79877174606E+03 0.  0.
         22    1    5    5    0    0 -0.35877633849E+03 -0.16439121833E+03  0.13723670622E+03  0.41782633624E+03  0.00000000000E+00 0.  1.
         22    1    5    5    0    0  0.36265600182E+03  0.43935718835E+02 -0.13652711730E+03  0.38998638028E+03  0.00000000000E+00 0.  1.
          5    1    4    4  502    0  0.42469363813E+01  0.10276815800E+03  0.21305409256E-01  0.10296320324E+03  0.47000000000E+01 0. -1.
         -5    1    4    4    0  502 -0.81265997096E+01  0.17687341492E+02  0.90555763255E+02  0.92743301271E+02  0.47000000000E+01 0. -1.
<mgrwt>
<rscale>  0 0.99935858E+03</rscale>
<asrwt>0</asrwt>
<pdfrwt beam="1">  1        3 0.70171735E-01 0.99935858E+03</pdfrwt>
<pdfrwt beam="2">  1       -3 0.84215837E-01 0.99935858E+03</pdfrwt>
<totfact> 0.97603976E+00</totfact>
</mgrwt>
</event>
<event>
 9    1  0.4388925E-036  0.9993749E+03  0.7818608E-02  0.8681633E-01
          2   -1    0    0  501    0  0.00000000000E+00  0.00000000000E+00  0.61495140574E+03  0.61495140574E+03  0.00000000000E+00 0. -1.
         -2   -1    0    0    0  501 -0.00000000000E+00 -0.00000000000E+00 -0.40602808262E+03  0.40602808262E+03  0.00000000000E+00 0. -1.
         36    2    1    2    0    0 -0.14210854715E-13 -0.42632564146E-13  0.20892332312E+03  0.10209794884E+04  0.99937488497E+03 0.  0.
         25    2    3    3    0    0  0.91186387115E+02 -0.98304297127E+02  0.23924135920E+01  0.18317998546E+03  0.12478177512E+03 0.  0.
         35    2    3    3    0    0 -0.91186387115E+02  0.98304297127E+02  0.20653090953E+03  0.83779950290E+03  0.80079604048E+03 0.  0.
         22    1    5    5    0    0  0.11615713937E+03  0.41313898479E+03  0.15976800322E+03  0.45793243676E+03  0.00000000000E+00 0.  1.
         22    1    5    5    0    0 -0.20734352649E+03 -0.31483468766E+03  0.46762906311E+02  0.37986706614E+03  0.00000000000E+00 0.  1.
          5    1    4    4  502    0  0.65119907302E+02 -0.37318456064E+02 -0.56735066639E+02  0.94203117128E+02  0.47000000000E+01 0.  1.
         -5    1    4    4    0  502  0.26066479813E+02 -0.60985841063E+02  0.59127480231E+02  0.88976868334E+02  0.47000000000E+01 0.  1.
<mgrwt>
<rscale>  0 0.99937488E+03</rscale>
<asrwt>0</asrwt>
<pdfrwt beam="1">  1        2 0.94607908E-01 0.99937488E+03</pdfrwt>
<pdfrwt beam="2">  1       -2 0.62465859E-01 0.99937488E+03</pdfrwt>
<totfact> 0.13845581E+02</totfact>
</mgrwt>
</event>
<event>
 9    1  0.4388925E-036  0.9999430E+03  0.7818608E-02  0.8681092E-01
         -2   -1    0    0    0  501 -0.00000000000E+00  0.00000000000E+00  0.88010678758E+02  0.88010678758E+02  0.00000000000E+00 0. -1.
          2   -1    0    0  501    0  0.00000000000E+00 -0.00000000000E+00 -0.28402403212E+04  0.28402403212E+04  0.00000000000E+00 0. -1.
         36    2    1    2    0    0 -0.14210854715E-13 -0.14210854715E-13 -0.27522296424E+04  0.29282510000E+04  0.99994295539E+03 0.  0.
         25    2    3    3    0    0  0.87119889492E+02 -0.60139749268E+02 -0.25070653302E+03  0.29982967113E+03  0.12584673775E+03 0.  0.
         35    2    3    3    0    0 -0.87119889492E+02  0.60139749268E+02 -0.25015231094E+04  0.26284213288E+04  0.79985883148E+03 0.  0.
         22    1    5    5    0    0 -0.43801845364E+03  0.10843759222E+03 -0.13245013479E+04  0.13992579096E+04  0.00000000000E+00 0.  1.
         22    1    5    5    0    0  0.35089856415E+03 -0.48297842952E+02 -0.11770217615E+04  0.12291634192E+04  0.00000000000E+00 0.  1.
          5    1    4    4  502    0  0.18071685053E+02  0.24439717994E+01 -0.18440505259E+03  0.18536416110E+03  0.47000000000E+01 0. -1.
         -5    1    4    4    0  502  0.69048204438E+02 -0.62583721068E+02 -0.66301480427E+02  0.11446551003E+03  0.47000000000E+01 0. -1.
<mgrwt>
<rscale>  0 0.99994296E+03</rscale>
<asrwt>0</asrwt>
<pdfrwt beam="1">  1        2 0.43695995E+00 0.99994296E+03</pdfrwt>
<pdfrwt beam="2">  1       -2 0.13540108E-01 0.99994296E+03</pdfrwt>
<totfact> 0.10109242E+02</totfact>
</mgrwt>
</event>
<event>
 9    1  0.4388925E-036  0.9999670E+03  0.7818608E-02  0.8681069E-01
         -2   -1    0    0    0  501 -0.00000000000E+00  0.00000000000E+00  0.30427357481E+03  0.30427357481E+03  0.00000000000E+00 0. -1.
          2   -1    0    0  501    0  0.00000000000E+00 -0.00000000000E+00 -0.82157482555E+03  0.82157482555E+03  0.00000000000E+00 0. -1.
         36    2    1    2    0    0  0.28421709430E-13  0.28421709430E-13 -0.51730125074E+03  0.11258484004E+04  0.99996701775E+03 0.  0.
         25    2    3    3    0    0  0.90557816183E+02 -0.90380929860E+02 -0.31767276737E+02  0.18153319680E+03  0.12480268873E+03 0.  0.
         35    2    3    3    0    0 -0.90557816183E+02  0.90380929860E+02 -0.48553397400E+03  0.94431520356E+03  0.79976154772E+03 0.  0.
         22    1    5    5    0    0  0.21018902660E+03 -0.17104295025E+03 -0.47360264013E+03  0.54565060109E+03  0.00000000000E+00 0.  1.
         22    1    5    5    0    0 -0.30074684279E+03  0.26142388011E+03 -0.11931333871E+02  0.39866460247E+03  0.00000000000E+00 0.  1.
          5    1    4    4  502    0  0.32052969673E+02  0.24322951170E+02  0.16772374271E+02  0.43845197652E+02  0.47000000000E+01 0.  1.
         -5    1    4    4    0  502  0.58504846511E+02 -0.11470388103E+03 -0.48539651008E+02  0.13768799914E+03  0.47000000000E+01 0.  1.
<mgrwt>
<rscale>  0 0.99996702E+03</rscale>
<asrwt>0</asrwt>
<pdfrwt beam="1">  1        2 0.12639612E+00 0.99996702E+03</pdfrwt>
<pdfrwt beam="2">  1       -2 0.46811320E-01 0.99996702E+03</pdfrwt>
<totfact> 0.17402275E+02</totfact>
</mgrwt>
</event>
<event>
 9    1  0.4388925E-036  0.9921738E+03  0.7818608E-02  0.8688527E-01
         -1   -1    0    0    0  501 -0.00000000000E+00  0.00000000000E+00  0.13904827393E+03  0.13904827393E+03  0.00000000000E+00 0. -1.
          1   -1    0    0  501    0  0.00000000000E+00 -0.00000000000E+00 -0.17699046655E+04  0.17699046655E+04  0.00000000000E+00 0. -1.
         36    2    1    2    0    0  0.14210854715E-13 -0.28421709430E-13 -0.16308563916E+04  0.19089529394E+04  0.99217375245E+03 0.  0.
         25    2    3    3    0    0  0.97283096621E+02  0.52559381082E+02 -0.15366960558E+03  0.22594362011E+03  0.12332754097E+03 0.  0.
         35    2    3    3    0    0 -0.97283096621E+02 -0.52559381082E+02 -0.14771867860E+04  0.16830093193E+04  0.79888239360E+03 0.  0.
         22    1    5    5    0    0 -0.33391199846E+03 -0.28554209952E+03 -0.10758338506E+04  0.11620886315E+04  0.00000000000E+00 0. -1.
         22    1    5    5    0    0  0.23662890184E+03  0.23298271844E+03 -0.40135293538E+03  0.52092068784E+03  0.00000000000E+00 0. -1.
          5    1    4    4  502    0 -0.13974153752E+02 -0.18018874557E+02  0.24496490295E+00  0.23283187522E+02  0.47000000000E+01 0. -1.
         -5    1    4    4    0  502  0.11125725037E+03  0.70578255638E+02 -0.15391457048E+03  0.20266043258E+03  0.47000000000E+01 0. -1.
<mgrwt>
<rscale>  0 0.99217375E+03</rscale>
<asrwt>0</asrwt>
<pdfrwt beam="1">  1        1 0.27229300E+00 0.99217375E+03</pdfrwt>
<pdfrwt beam="2">  1       -1 0.21392045E-01 0.99217375E+03</pdfrwt>
<totfact> 0.82666009E+01</totfact>
</mgrwt>
</event>
<event>
 9    1  0.4388925E-036  0.1000479E+04  0.7818608E-02  0.8680582E-01
         -1   -1    0    0    0  501 -0.00000000000E+00  0.00000000000E+00  0.22385007963E+03  0.22385007963E+03  0.00000000000E+00 0. -1.
          1   -1    0    0  501    0  0.00000000000E+00 -0.00000000000E+00 -0.11178892662E+04  0.11178892662E+04  0.00000000000E+00 0. -1.
         36    2    1    2    0    0 -0.14210854715E-13  0.14210854715E-13 -0.89403918660E+03  0.13417393459E+04  0.10004790878E+04 0.  0.
         25    2    3    3    0    0  0.65835864888E+02  0.12000927716E+03 -0.97988489031E+02  0.20480278615E+03  0.11664411482E+03 0.  0.
         35    2    3    3    0    0 -0.65835864888E+02 -0.12000927716E+03 -0.79605069757E+03  0.11369365597E+04  0.80011964104E+03 0.  0.
         22    1    5    5    0    0 -0.70601979358E+02 -0.39958530339E+03 -0.14937121582E+03  0.43239428105E+03  0.00000000000E+00 0. -1.
         22    1    5    5    0    0  0.47661144700E+01  0.27957602622E+03 -0.64667948175E+03  0.70454227865E+03  0.00000000000E+00 0. -1.
          5    1    4    4  502    0  0.19815602203E+02  0.38459490490E+02  0.24972750709E+02  0.50174881937E+02  0.47000000000E+01 0. -1.
         -5    1    4    4    0  502  0.46020262685E+02  0.81549786673E+02 -0.12296123974E+03  0.15462790422E+03  0.47000000000E+01 0. -1.
<mgrwt>
<rscale>  0 0.10004791E+04</rscale>
<asrwt>0</asrwt>
<pdfrwt beam="1">  1        1 0.17198296E+00 0.10004791E+04</pdfrwt>
<pdfrwt beam="2">  1       -1 0.34438474E-01 0.10004791E+04</pdfrwt>
<totfact> 0.10891165E+02</totfact>
</mgrwt>
</event>
<event>
 9    1  0.4388925E-036  0.9985570E+03  0.7818608E-02  0.8682413E-01
          2   -1    0    0  501    0  0.00000000000E+00  0.00000000000E+00  0.69747983966E+03  0.69747983966E+03  0.00000000000E+00 0.  1.
         -2   -1    0    0    0  501 -0.00000000000E+00 -0.00000000000E+00 -0.35739958789E+03  0.35739958789E+03  0.00000000000E+00 0.  1.
         36    2    1    2    0    0  0.00000000000E+00 -0.14210854715E-13  0.34008025178E+03  0.10548794275E+04  0.99855697334E+03 0.  0.
         25    2    3    3    0    0 -0.61499247115E+02  0.89151191880E+02  0.15873408824E+03  0.22940456418E+03  0.12529904584E+03 0.  0.
         35    2    3    3    0    0  0.61499247115E+02 -0.89151191880E+02  0.18134616354E+03  0.82547486337E+03  0.79799262315E+03 0.  0.
         22    1    5    5    0    0  0.13341623768E+03 -0.26078359639E+03 -0.23101871433E+03  0.37306517259E+03  0.00000000000E+00 0. -1.
         22    1    5    5    0    0 -0.71916990562E+02  0.17163240451E+03  0.41236487787E+03  0.45240969078E+03  0.00000000000E+00 0. -1.
          5    1    4    4  502    0 -0.24204462829E+02  0.22301878679E+02  0.14832859458E+03  0.15200885430E+03  0.47000000000E+01 0. -1.
         -5    1    4    4    0  502 -0.37294784286E+02  0.66849313200E+02  0.10405493656E+02  0.77395709884E+02  0.47000000000E+01 0. -1.
<mgrwt>
<rscale>  0 0.99855697E+03</rscale>
<asrwt>0</asrwt>
<pdfrwt beam="1">  1        2 0.10730459E+00 0.99855697E+03</pdfrwt>
<pdfrwt beam="2">  1       -2 0.54984552E-01 0.99855697E+03</pdfrwt>
<totfact> 0.15495025E+02</totfact>
</mgrwt>
</event>
<event>
 9    1  0.4388925E-036  0.1000147E+04  0.7818608E-02  0.8680898E-01
         -2   -1    0    0    0  501 -0.00000000000E+00  0.00000000000E+00  0.53954174788E+03  0.53954174788E+03  0.00000000000E+00 0.  1.
          2   -1    0    0  501    0  0.00000000000E+00 -0.00000000000E+00 -0.46349278403E+03  0.46349278403E+03  0.00000000000E+00 0.  1.
         36    2    1    2    0    0  0.00000000000E+00  0.28421709430E-13  0.76048963852E+02  0.10030345319E+04  0.10001474028E+04 0.  0.
         25    2    3    3    0    0  0.83909947717E+02 -0.82012480271E+02  0.96641101716E+02  0.19434481293E+03  0.12109284671E+03 0.  0.
         35    2    3    3    0    0 -0.83909947717E+02  0.82012480271E+02 -0.20592137864E+02  0.80868971899E+03  0.79986755104E+03 0.  0.
         22    1    5    5    0    0  0.18419372921E+03 -0.28583327769E+03  0.63188132797E+02  0.34586230301E+03  0.00000000000E+00 0. -1.
         22    1    5    5    0    0 -0.26810367692E+03  0.36784575797E+03 -0.83780270661E+02  0.46282741598E+03  0.00000000000E+00 0. -1.
          5    1    4    4  502    0 -0.18410382901E+02 -0.58296476009E+02  0.50895276554E+02  0.79685886386E+02  0.47000000000E+01 0.  1.
         -5    1    4    4    0  502  0.10232033062E+03 -0.23716004262E+02  0.45745825162E+02  0.11465892654E+03  0.47000000000E+01 0.  1.
<mgrwt>
<rscale>  0 0.10001474E+04</rscale>
<asrwt>0</asrwt>
<pdfrwt beam="1">  1        2 0.71306583E-01 0.10001474E+04</pdfrwt>
<pdfrwt beam="2">  1       -2 0.83006422E-01 0.10001474E+04</pdfrwt>
<totfact> 0.10273001E+02</totfact>
</mgrwt>
</event>
<event>
 9    1  0.4388925E-036  0.9995759E+03  0.7818608E-02  0.8681442E-01
         -1   -1    0    0    0  501 -0.00000000000E+00  0.00000000000E+00  0.12410091732E+03  0.12410091732E+03  0.00000000000E+00 0. -1.
          1   -1    0    0  501    0  0.00000000000E+00 -0.00000000000E+00 -0.20127812211E+04  0.20127812211E+04  0.00000000000E+00 0. -1.
         36    2    1    2    0    0  0.00000000000E+00 -0.14210854715E-13 -0.18886803038E+04  0.21368821384E+04  0.99957590189E+03 0.  0.
         25    2    3    3    0    0  0.92792737446E+02 -0.60214286388E+02 -0.53680010917E+03  0.56221085781E+03  0.12526148259E+03 0.  0.
         35    2    3    3    0    0 -0.92792737446E+02  0.60214286388E+02 -0.13518801946E+04  0.15746712806E+04  0.79985831810E+03 0.  0.
         22    1    5    5    0    0 -0.33518434209E+03  0.26782579842E+03 -0.10545237010E+04  0.11384636303E+04  0.00000000000E+00 0. -1.
         22    1    5    5    0    0  0.24239160464E+03 -0.20761151203E+03 -0.29735649360E+03  0.43620765034E+03  0.00000000000E+00 0. -1.
          5    1    4    4  502    0  0.11858034178E+03 -0.23752789896E+02 -0.36011171947E+03  0.37990529475E+03  0.47000000000E+01 0.  1.
         -5    1    4    4    0  502 -0.25787604332E+02 -0.36461496493E+02 -0.17668838971E+03  0.18230556306E+03  0.47000000000E+01 0.  1.
<mgrwt>
<rscale>  0 0.99957590E+03</rscale>
<asrwt>0</asrwt>
<pdfrwt beam="1">  1        1 0.30965862E+00 0.99957590E+03</pdfrwt>
<pdfrwt beam="2">  1       -1 0.19092451E-01 0.99957590E+03</pdfrwt>
<totfact> 0.67363901E+01</totfact>
</mgrwt>
</event>
<event>
 9    1  0.4388925E-036  0.9986969E+03  0.7818608E-02  0.8682280E-01
          2   -1    0    0  501    0  0.00000000000E+00  0.00000000000E+00  0.10011961428E+04  0.10011961428E+04  0.00000000000E+00 0. -1.
         -2   -1    0    0    0  501 -0.00000000000E+00 -0.00000000000E+00 -0.24905097656E+03  0.24905097656E+03  0.00000000000E+00 0. -1.
         36    2    1    2    0    0  0.00000000000E+00  0.28421709430E-13  0.75214516624E+03  0.12502471194E+04  0.99869690515E+03 0.  0.
         25    2    3    3    0    0  0.65576664702E+02 -0.11657181549E+03  0.88326070787E+02  0.20340748184E+03  0.12523506604E+03 0.  0.
         35    2    3    3    0    0 -0.65576664702E+02  0.11657181549E+03  0.66381909545E+03  0.10468396375E+04  0.79832834603E+03 0.  0.
         22    1    5    5    0    0  0.65345029798E+02  0.41603615510E+03  0.16890254634E+03  0.45374455967E+03  0.00000000000E+00 0.  1.
         22    1    5    5    0    0 -0.13092169450E+03 -0.29946433961E+03  0.49491654911E+03  0.59309507785E+03  0.00000000000E+00 0.  1.
          5    1    4    4  502    0 -0.66077023150E+01  0.12481545143E+02  0.47726749933E+02  0.49993833202E+02  0.47000000000E+01 0.  1.
         -5    1    4    4    0  502  0.72184367017E+02 -0.12905336064E+03  0.40599320853E+02  0.15341364863E+03  0.47000000000E+01 0.  1.
<mgrwt>
<rscale>  0 0.99869691E+03</rscale>
<asrwt>0</asrwt>
<pdfrwt beam="1">  1        2 0.15403017E+00 0.99869691E+03</pdfrwt>
<pdfrwt beam="2">  1       -2 0.38315535E-01 0.99869691E+03</pdfrwt>
<totfact> 0.19546809E+02</totfact>
</mgrwt>
</event>
<event>
 9    1  0.4388925E-036  0.1001958E+04  0.7818608E-02  0.8679175E-01
         -2   -1    0    0    0  501 -0.00000000000E+00  0.00000000000E+00  0.27940116104E+03  0.27940116104E+03  0.00000000000E+00 0. -1.
          2   -1    0    0  501    0  0.00000000000E+00 -0.00000000000E+00 -0.89827864307E+03  0.89827864307E+03  0.00000000000E+00 0. -1.
         36    2    1    2    0    0  0.14210854715E-13 -0.14210854715E-13 -0.61887748203E+03  0.11776798041E+04  0.10019582742E+04 0.  0.
         25    2    3    3    0    0  0.82801091014E+02 -0.11721368691E+03 -0.12711295761E+03  0.22854552573E+03  0.12441979049E+03 0.  0.
         35    2    3    3    0    0 -0.82801091014E+02  0.11721368691E+03 -0.49176452441E+03  0.94913427838E+03  0.79901718496E+03 0.  0.
         22    1    5    5    0    0  0.17588312596E+03 -0.81413410954E+02 -0.57978474752E+03  0.61132100482E+03  0.00000000000E+00 0.  1.
         22    1    5    5    0    0 -0.25868421698E+03  0.19862709786E+03  0.88020223104E+02  0.33781327356E+03  0.00000000000E+00 0.  1.
          5    1    4    4  502    0  0.18701238309E+02 -0.32110875402E+02  0.23337275928E+02  0.44131203033E+02  0.47000000000E+01 0.  1.
         -5    1    4    4    0  502  0.64099852705E+02 -0.85102811504E+02 -0.15045023354E+03  0.18441432270E+03  0.47000000000E+01 0.  1.
<mgrwt>
<rscale>  0 0.10019583E+04</rscale>
<asrwt>0</asrwt>
<pdfrwt beam="1">  1        2 0.13819671E+00 0.10019583E+04</pdfrwt>
<pdfrwt beam="2">  1       -2 0.42984794E-01 0.10019583E+04</pdfrwt>
<totfact> 0.18253810E+02</totfact>
</mgrwt>
</event>
<event>
 9    1  0.4388925E-036  0.9996217E+03  0.7818608E-02  0.8681398E-01
         -1   -1    0    0    0  501 -0.00000000000E+00  0.00000000000E+00  0.16452889864E+03  0.16452889864E+03  0.00000000000E+00 0.  1.
          1   -1    0    0  501    0  0.00000000000E+00 -0.00000000000E+00 -0.15183406088E+04  0.15183406088E+04  0.00000000000E+00 0.  1.
         36    2    1    2    0    0 -0.28421709430E-13  0.14210854715E-13 -0.13538117101E+04  0.16828695074E+04  0.99962174470E+03 0.  0.
         25    2    3    3    0    0  0.12702245571E+03 -0.60485555719E+02 -0.23480837855E+03  0.30047622213E+03  0.12392650534E+03 0.  0.
         35    2    3    3    0    0 -0.12702245571E+03  0.60485555719E+02 -0.11190033316E+04  0.13823932853E+04  0.79940573702E+03 0.  0.
         22    1    5    5    0    0  0.31054064489E+03 -0.11478210072E+03 -0.36138219716E+03  0.49010969711E+03  0.00000000000E+00 0.  1.
         22    1    5    5    0    0 -0.43756310060E+03  0.17526765644E+03 -0.75762113443E+03  0.89228358818E+03  0.00000000000E+00 0.  1.
          5    1    4    4  502    0  0.14143639951E+03 -0.80090286627E+02 -0.20693561148E+03  0.26317892472E+03  0.47000000000E+01 0. -1.
         -5    1    4    4    0  502 -0.14413943804E+02  0.19604730909E+02 -0.27872767074E+02  0.37297297414E+02  0.47000000000E+01 0. -1.
<mgrwt>
<rscale>  0 0.99962174E+03</rscale>
<asrwt>0</asrwt>
<pdfrwt beam="1">  1        1 0.23359086E+00 0.99962174E+03</pdfrwt>
<pdfrwt beam="2">  1       -1 0.25312138E-01 0.99962174E+03</pdfrwt>
<totfact> 0.93929012E+01</totfact>
</mgrwt>
</event>
<event>
 9    1  0.4388925E-036  0.1003108E+04  0.7818608E-02  0.8678084E-01
         -2   -1    0    0    0  501 -0.00000000000E+00  0.00000000000E+00  0.13903227790E+03  0.13903227790E+03  0.00000000000E+00 0.  1.
          2   -1    0    0  501    0  0.00000000000E+00 -0.00000000000E+00 -0.18093383251E+04  0.18093383251E+04  0.00000000000E+00 0.  1.
         36    2    1    2    0    0 -0.17763568394E-14  0.00000000000E+00 -0.16703060472E+04  0.19483706030E+04  0.10031080277E+04 0.  0.
         25    2    3    3    0    0 -0.11910059789E+02 -0.84285542468E+02 -0.53857175339E+03  0.55967899422E+03  0.12623446767E+03 0.  0.
         35    2    3    3    0    0  0.11910059789E+02  0.84285542468E+02 -0.11317342939E+04  0.13886916088E+04  0.80024744318E+03 0.  0.
         22    1    5    5    0    0  0.89745030302E+00  0.22228150358E+03  0.25016537143E+02  0.22368660975E+03  0.00000000000E+00 0. -1.
         22    1    5    5    0    0  0.11012609485E+02 -0.13799596111E+03 -0.11567508310E+04  0.11650049991E+04  0.00000000000E+00 0. -1.
          5    1    4    4  502    0 -0.59097101325E+02 -0.83453472983E+02 -0.41159538409E+03  0.42413417658E+03  0.47000000000E+01 0.  1.
         -5    1    4    4    0  502  0.47187041537E+02 -0.83206948484E+00 -0.12697636931E+03  0.13554481765E+03  0.47000000000E+01 0.  1.
<mgrwt>
<rscale>  0 0.10031080E+04</rscale>
<asrwt>0</asrwt>
<pdfrwt beam="1">  1        2 0.27835976E+00 0.10031080E+04</pdfrwt>
<pdfrwt beam="2">  1       -2 0.21389580E-01 0.10031080E+04</pdfrwt>
<totfact> 0.19131066E+02</totfact>
</mgrwt>
</event>
<event>
 9    1  0.4388925E-036  0.9995769E+03  0.7818608E-02  0.8681441E-01
         -1   -1    0    0    0  501 -0.00000000000E+00  0.00000000000E+00  0.10074434234E+03  0.10074434234E+03  0.00000000000E+00 0.  1.
          1   -1    0    0  501    0  0.00000000000E+00 -0.00000000000E+00 -0.24794295287E+04  0.24794295287E+04  0.00000000000E+00 0.  1.
         36    2    1    2    0    0  0.28421709430E-13 -0.28421709430E-13 -0.23786851864E+04  0.25801738710E+04  0.99957690497E+03 0.  0.
         25    2    3    3    0    0  0.77060361778E+02  0.98096771082E+02 -0.60746452272E+03  0.63270674029E+03  0.12547269419E+03 0.  0.
         35    2    3    3    0    0 -0.77060361778E+02 -0.98096771082E+02 -0.17712206636E+04  0.19474671307E+04  0.79990268794E+03 0.  0.
         22    1    5    5    0    0 -0.38526977238E+03  0.14601264871E+03 -0.80485495268E+03  0.90418138996E+03  0.00000000000E+00 0. -1.
         22    1    5    5    0    0  0.30820941060E+03 -0.24410941979E+03 -0.96636571096E+03  0.10432857408E+04  0.00000000000E+00 0. -1.
          5    1    4    4  502    0 -0.23308900928E+02  0.67076316713E+02 -0.27126013155E+03  0.28044016491E+03  0.47000000000E+01 0. -1.
         -5    1    4    4    0  502  0.10036926271E+03  0.31020454369E+02 -0.33620439117E+03  0.35226657538E+03  0.47000000000E+01 0. -1.
<mgrwt>
<rscale>  0 0.99957690E+03</rscale>
<asrwt>0</asrwt>
<pdfrwt beam="1">  1        1 0.38145070E+00 0.99957690E+03</pdfrwt>
<pdfrwt beam="2">  1       -1 0.15499129E-01 0.99957690E+03</pdfrwt>
<totfact> 0.44520496E+01</totfact>
</mgrwt>
</event>
<event>
 9    1  0.4388925E-036  0.1001958E+04  0.7818608E-02  0.8679176E-01
         -1   -1    0    0    0  501 -0.00000000000E+00  0.00000000000E+00  0.49848089171E+03  0.49848089171E+03  0.00000000000E+00 0. -1.
          1   -1    0    0  501    0  0.00000000000E+00 -0.00000000000E+00 -0.50348940521E+03  0.50348940521E+03  0.00000000000E+00 0. -1.
         36    2    1    2    0    0  0.35527136788E-13  0.14210854715E-13 -0.50085134980E+01  0.10019702969E+04  0.10019577789E+04 0.  0.
         25    2    3    3    0    0  0.61154283277E+02  0.12585055510E+03  0.25297938512E+02  0.18906672308E+03  0.12461152234E+03 0.  0.
         35    2    3    3    0    0 -0.61154283277E+02 -0.12585055510E+03 -0.30306452010E+02  0.81290357384E+03  0.80019718242E+03 0.  0.
         22    1    5    5    0    0  0.31173374127E+03 -0.22713630069E+03  0.11118868910E+03  0.40141219354E+03  0.00000000000E+00 0.  1.
         22    1    5    5    0    0 -0.37288802454E+03  0.10128574559E+03 -0.14149514111E+03  0.41149138031E+03  0.00000000000E+00 0.  1.
          5    1    4    4  502    0 -0.38117006390E+02  0.32755594761E+02  0.14222334697E+02  0.52442348999E+02  0.47000000000E+01 0.  1.
         -5    1    4    4    0  502  0.99271289667E+02  0.93094960342E+02  0.11075603814E+02  0.13662437408E+03  0.47000000000E+01 0.  1.
<mgrwt>
<rscale>  0 0.10019578E+04</rscale>
<asrwt>0</asrwt>
<pdfrwt beam="1">  1        1 0.77459908E-01 0.10019578E+04</pdfrwt>
<pdfrwt beam="2">  1       -1 0.76689368E-01 0.10019578E+04</pdfrwt>
<totfact> 0.88362488E+01</totfact>
</mgrwt>
</event>
<event>
 9    1  0.4388925E-036  0.9990407E+03  0.7818608E-02  0.8681952E-01
          2   -1    0    0  501    0  0.00000000000E+00  0.00000000000E+00  0.21928167502E+04  0.21928167502E+04  0.00000000000E+00 0. -1.
         -2   -1    0    0    0  501 -0.00000000000E+00 -0.00000000000E+00 -0.11378997449E+03  0.11378997449E+03  0.00000000000E+00 0. -1.
         36    2    1    2    0    0  0.28421709430E-13  0.00000000000E+00  0.20790267757E+04  0.23066067247E+04  0.99904066395E+03 0.  0.
         25    2    3    3    0    0 -0.11523222736E+03 -0.19313764236E+02  0.56739527539E+03  0.59262693694E+03  0.12497119727E+03 0.  0.
         35    2    3    3    0    0  0.11523222736E+03  0.19313764236E+02  0.15116315003E+04  0.17139797877E+04  0.79940317256E+03 0.  0.
         22    1    5    5    0    0  0.79500738053E+02 -0.34692102067E+03  0.36522478212E+03  0.50996441386E+03  0.00000000000E+00 0.  1.
         22    1    5    5    0    0  0.35731489305E+02  0.36623478490E+03  0.11464067182E+04  0.12040153739E+04  0.00000000000E+00 0.  1.
          5    1    4    4  502    0 -0.90613403694E+02 -0.65752400644E+02  0.45289649814E+03  0.46655277852E+03  0.47000000000E+01 0. -1.
         -5    1    4    4    0  502 -0.24618823664E+02  0.46438636408E+02  0.11449877725E+03  0.12607415842E+03  0.47000000000E+01 0. -1.
<mgrwt>
<rscale>  0 0.99904066E+03</rscale>
<asrwt>0</asrwt>
<pdfrwt beam="1">  1        2 0.33735639E+00 0.99904066E+03</pdfrwt>
<pdfrwt beam="2">  1       -2 0.17506152E-01 0.99904066E+03</pdfrwt>
<totfact> 0.16324631E+02</totfact>
</mgrwt>
</event>
<event>
 9    1  0.4388925E-036  0.1000017E+04  0.7818608E-02  0.8681022E-01
          1   -1    0    0  501    0  0.00000000000E+00  0.00000000000E+00  0.11614588913E+04  0.11614588913E+04  0.00000000000E+00 0. -1.
         -1   -1    0    0    0  501 -0.00000000000E+00 -0.00000000000E+00 -0.21525373471E+03  0.21525373471E+03  0.00000000000E+00 0. -1.
         36    2    1    2    0    0 -0.14210854715E-13 -0.14210854715E-13  0.94620515659E+03  0.13767126260E+04  0.10000167280E+04 0.  0.
         25    2    3    3    0    0  0.10699302049E+03 -0.85829644913E+02  0.21886742483E+03  0.28717096071E+03  0.12549891092E+03 0.  0.
         35    2    3    3    0    0 -0.10699302049E+03  0.85829644913E+02  0.72733773176E+03  0.10895416653E+04  0.79954151237E+03 0.  0.
         22    1    5    5    0    0  0.38809653576E+02 -0.23280367885E+03 -0.46057322143E+02  0.24046833267E+03  0.00000000000E+00 0.  1.
         22    1    5    5    0    0 -0.14580267406E+03  0.31863332376E+03  0.77339505390E+03  0.84907333262E+03  0.00000000000E+00 0.  1.
          5    1    4    4  502    0  0.93271799610E+02 -0.94019824316E+02  0.97140801281E+02  0.16431001564E+03  0.47000000000E+01 0.  1.
         -5    1    4    4    0  502  0.13721220878E+02  0.81901794021E+01  0.12172662355E+03  0.12286094507E+03  0.47000000000E+01 0.  1.
<mgrwt>
<rscale>  0 0.10000167E+04</rscale>
<asrwt>0</asrwt>
<pdfrwt beam="1">  1        1 0.17868598E+00 0.10000167E+04</pdfrwt>
<pdfrwt beam="2">  1       -1 0.33115960E-01 0.10000167E+04</pdfrwt>
<totfact> 0.10804076E+02</totfact>
</mgrwt>
</event>
<event>
 9    1  0.4388925E-036  0.1000048E+04  0.7818608E-02  0.8680992E-01
          2   -1    0    0  501    0  0.00000000000E+00  0.00000000000E+00  0.60531959582E+03  0.60531959582E+03  0.00000000000E+00 0.  1.
         -2   -1    0    0    0  501 -0.00000000000E+00 -0.00000000000E+00 -0.41304477352E+03  0.41304477352E+03  0.00000000000E+00 0.  1.
         36    2    1    2    0    0 -0.15099033135E-13  0.28421709430E-13  0.19227482230E+03  0.10183643693E+04  0.10000481896E+04 0.  0.
         25    2    3    3    0    0  0.23316137629E+01  0.10920748361E+03 -0.49467167338E+02  0.17317123541E+03  0.12493824567E+03 0.  0.
         35    2    3    3    0    0 -0.23316137629E+01 -0.10920748361E+03  0.24174198964E+03  0.84519313393E+03  0.80248397690E+03 0.  0.
         22    1    5    5    0    0  0.25431816058E+03  0.64278035973E+02 -0.18273973450E+03  0.31969235724E+03  0.00000000000E+00 0.  1.
         22    1    5    5    0    0 -0.25664977434E+03 -0.17348551958E+03  0.42448172414E+03  0.52550077669E+03  0.00000000000E+00 0.  1.
          5    1    4    4  502    0 -0.54891009602E+01  0.13659817691E+03 -0.44715692553E+02  0.14391238767E+03  0.47000000000E+01 0.  1.
         -5    1    4    4    0  502  0.78207147231E+01 -0.27390693304E+02 -0.47514747847E+01  0.29258847740E+02  0.47000000000E+01 0.  1.
<mgrwt>
<rscale>  0 0.10000482E+04</rscale>
<asrwt>0</asrwt>
<pdfrwt beam="1">  1        2 0.93126091E-01 0.10000482E+04</pdfrwt>
<pdfrwt beam="2">  1       -2 0.63545350E-01 0.10000482E+04</pdfrwt>
<totfact> 0.13606699E+02</totfact>
</mgrwt>
</event>
<event>
 9    1  0.4388925E-036  0.9999088E+03  0.7818608E-02  0.8681125E-01
         -2   -1    0    0    0  501 -0.00000000000E+00  0.00000000000E+00  0.67178815501E+03  0.67178815501E+03  0.00000000000E+00 0.  1.
          2   -1    0    0  501    0  0.00000000000E+00 -0.00000000000E+00 -0.37207327194E+03  0.37207327194E+03  0.00000000000E+00 0.  1.
         36    2    1    2    0    0  0.28421709430E-13  0.00000000000E+00  0.29971488307E+03  0.10438614270E+04  0.99990882962E+03 0.  0.
         25    2    3    3    0    0 -0.13218593916E+03 -0.42991933567E+02  0.36115421224E+02  0.19080067319E+03  0.12561506428E+03 0.  0.
         35    2    3    3    0    0  0.13218593916E+03  0.42991933567E+02  0.26359946185E+03  0.85306075377E+03  0.79931629814E+03 0.  0.
         22    1    5    5    0    0  0.45015787018E+03 -0.24991110866E+02  0.28380976103E+02  0.45174344878E+03  0.00000000000E+00 0. -1.
         22    1    5    5    0    0 -0.31797193102E+03  0.67983044433E+02  0.23521848575E+03  0.40131730499E+03  0.00000000000E+00 0. -1.
          5    1    4    4  502    0 -0.41225222371E+02 -0.49452258319E+02  0.68304582789E+02  0.93982183643E+02  0.47000000000E+01 0.  1.
         -5    1    4    4    0  502 -0.90960716794E+02  0.64603247518E+01 -0.32189161565E+02  0.96818489545E+02  0.47000000000E+01 0.  1.
<mgrwt>
<rscale>  0 0.99990883E+03</rscale>
<asrwt>0</asrwt>
<pdfrwt beam="1">  1        2 0.57242042E-01 0.99990883E+03</pdfrwt>
<pdfrwt beam="2">  1       -2 0.10335202E+00 0.99990883E+03</pdfrwt>
<totfact> 0.78061960E+01</totfact>
</mgrwt>
</event>
<event>
 9    1  0.4388925E-036  0.9992388E+03  0.7818608E-02  0.8681763E-01
          2   -1    0    0  501    0  0.00000000000E+00  0.00000000000E+00  0.13868708617E+04  0.13868708617E+04  0.00000000000E+00 0. -1.
         -2   -1    0    0    0  501 -0.00000000000E+00 -0.00000000000E+00 -0.17998757759E+03  0.17998757759E+03  0.00000000000E+00 0. -1.
         36    2    1    2    0    0  0.49737991503E-13  0.00000000000E+00  0.12068832841E+04  0.15668584393E+04  0.99923876392E+03 0.  0.
         25    2    3    3    0    0  0.10294228335E+02  0.13679601616E+03  0.18267300517E+03  0.25996354424E+03  0.12406649967E+03 0.  0.
         35    2    3    3    0    0 -0.10294228335E+02 -0.13679601616E+03  0.10242102790E+04  0.13068948951E+04  0.80009277590E+03 0.  0.
         22    1    5    5    0    0  0.31135090996E+03  0.15175830035E+03  0.64441074614E+03  0.73159769040E+03  0.00000000000E+00 0.  1.
         22    1    5    5    0    0 -0.32164513830E+03 -0.28855431651E+03  0.37979953281E+03  0.57529720466E+03  0.00000000000E+00 0.  1.
          5    1    4    4  502    0 -0.32961127087E+02  0.11355614494E+03  0.17315073941E+03  0.20972530251E+03  0.47000000000E+01 0. -1.
         -5    1    4    4    0  502  0.43255355422E+02  0.23239871217E+02  0.95222657568E+01  0.50238241729E+02  0.47000000000E+01 0. -1.
<mgrwt>
<rscale>  0 0.99923876E+03</rscale>
<asrwt>0</asrwt>
<pdfrwt beam="1">  1        2 0.21336474E+00 0.99923876E+03</pdfrwt>
<pdfrwt beam="2">  1       -2 0.27690397E-01 0.99923876E+03</pdfrwt>
<totfact> 0.20998476E+02</totfact>
</mgrwt>
</event>
<event>
 9    1  0.4388925E-036  0.1000268E+04  0.7818608E-02  0.8680783E-01
         -2   -1    0    0    0  501 -0.00000000000E+00  0.00000000000E+00  0.14752843937E+03  0.14752843937E+03  0.00000000000E+00 0. -1.
          2   -1    0    0  501    0  0.00000000000E+00 -0.00000000000E+00 -0.16954963647E+04  0.16954963647E+04  0.00000000000E+00 0. -1.
         36    2    1    2    0    0  0.00000000000E+00  0.14210854715E-13 -0.15479679253E+04  0.18430248040E+04  0.10002678294E+04 0.  0.
         25    2    3    3    0    0 -0.10811782885E+03  0.33501842498E+02 -0.45152630976E+03  0.48173286849E+03  0.12401092618E+03 0.  0.
         35    2    3    3    0    0  0.10811782885E+03 -0.33501842498E+02 -0.10964416155E+04  0.13612919355E+04  0.79882393501E+03 0.  0.
         22    1    5    5    0    0 -0.16590756358E+03  0.19099702302E+03 -0.94104899795E+03  0.97446313373E+03  0.00000000000E+00 0. -1.
         22    1    5    5    0    0  0.27402539243E+03 -0.22449886552E+03 -0.15539261759E+03  0.38682880182E+03  0.00000000000E+00 0. -1.
          5    1    4    4  502    0 -0.36571844556E+02 -0.27126078284E+02 -0.43873313820E+02  0.63405690619E+02  0.47000000000E+01 0. -1.
         -5    1    4    4    0  502 -0.71545984291E+02  0.60627920782E+02 -0.40765299594E+03  0.41832717787E+03  0.47000000000E+01 0. -1.
<mgrwt>
<rscale>  0 0.10002678E+04</rscale>
<asrwt>0</asrwt>
<pdfrwt beam="1">  1        2 0.26084559E+00 0.10002678E+04</pdfrwt>
<pdfrwt beam="2">  1       -2 0.22696684E-01 0.10002678E+04</pdfrwt>
<totfact> 0.19992610E+02</totfact>
</mgrwt>
</event>
<event>
 9    1  0.4388925E-036  0.1000289E+04  0.7818608E-02  0.8680763E-01
         -2   -1    0    0    0  501 -0.00000000000E+00  0.00000000000E+00  0.52854470254E+03  0.52854470254E+03  0.00000000000E+00 0. -1.
          2   -1    0    0  501    0  0.00000000000E+00 -0.00000000000E+00 -0.47327052518E+03  0.47327052518E+03  0.00000000000E+00 0. -1.
         36    2    1    2    0    0  0.00000000000E+00 -0.14210854715E-13  0.55274177367E+02  0.10018152277E+04  0.10002892161E+04 0.  0.
         25    2    3    3    0    0  0.18516556136E+02 -0.10398095617E+03  0.93168116328E+02  0.19388045222E+03  0.13324574948E+03 0.  0.
         35    2    3    3    0    0 -0.18516556136E+02  0.10398095617E+03 -0.37893938961E+02  0.80793477550E+03  0.80010483610E+03 0.  0.
         22    1    5    5    0    0  0.44316995584E+02  0.10076039540E+03 -0.41308782480E+03  0.42750228582E+03  0.00000000000E+00 0. -1.
         22    1    5    5    0    0 -0.62833551719E+02  0.32205607778E+01  0.37519388584E+03  0.38043248968E+03  0.00000000000E+00 0. -1.
          5    1    4    4  502    0  0.21952623927E+02 -0.43973518204E+02  0.11858495173E+03  0.12845259350E+03  0.47000000000E+01 0.  1.
         -5    1    4    4    0  502 -0.34360677914E+01 -0.60007437970E+02 -0.25416835406E+02  0.65427858712E+02  0.47000000000E+01 0.  1.
<mgrwt>
<rscale>  0 0.10002892E+04</rscale>
<asrwt>0</asrwt>
<pdfrwt beam="1">  1        2 0.72810850E-01 0.10002892E+04</pdfrwt>
<pdfrwt beam="2">  1       -2 0.81314569E-01 0.10002892E+04</pdfrwt>
<totfact> 0.10524066E+02</totfact>
</mgrwt>
</event>
<event>
 9    1  0.4388925E-036  0.1014644E+04  0.7818608E-02  0.8667216E-01
         -2   -1    0    0    0  501 -0.00000000000E+00  0.00000000000E+00  0.20349298439E+03  0.20349298439E+03  0.00000000000E+00 0.  1.
          2   -1    0    0  501    0  0.00000000000E+00 -0.00000000000E+00 -0.12647884385E+04  0.12647884385E+04  0.00000000000E+00 0.  1.
         36    2    1    2    0    0  0.00000000000E+00  0.28421709430E-13 -0.10612954541E+04  0.14682814229E+04  0.10146439257E+04 0.  0.
         25    2    3    3    0    0 -0.11575496065E+03  0.10080418741E+03 -0.22591482232E+03  0.30128246604E+03  0.12717280484E+03 0.  0.
         35    2    3    3    0    0  0.11575496065E+03 -0.10080418741E+03 -0.83538063181E+03  0.11669989569E+04  0.80029061609E+03 0.  0.
         22    1    5    5    0    0 -0.47272339886E+02  0.26174687698E+03 -0.28490312349E+02  0.26750289648E+03  0.00000000000E+00 0. -1.
         22    1    5    5    0    0  0.16302730053E+03 -0.36255106439E+03 -0.80689031946E+03  0.89949606039E+03  0.00000000000E+00 0. -1.
          5    1    4    4  502    0 -0.24688993894E+02 -0.26443603193E+02 -0.77072499876E+02  0.85270574095E+02  0.47000000000E+01 0.  1.
         -5    1    4    4    0  502 -0.91065966753E+02  0.12724779060E+03 -0.14884232244E+03  0.21601189195E+03  0.47000000000E+01 0.  1.
<mgrwt>
<rscale>  0 0.10146439E+04</rscale>
<asrwt>0</asrwt>
<pdfrwt beam="1">  1        2 0.19458284E+00 0.10146439E+04</pdfrwt>
<pdfrwt beam="2">  1       -2 0.31306613E-01 0.10146439E+04</pdfrwt>
<totfact> 0.19760039E+02</totfact>
</mgrwt>
</event>
<event>
 9    1  0.4388925E-036  0.1003127E+04  0.7818608E-02  0.8678066E-01
          2   -1    0    0  501    0  0.00000000000E+00  0.00000000000E+00  0.12761312452E+04  0.12761312452E+04  0.00000000000E+00 0.  1.
         -2   -1    0    0    0  501 -0.00000000000E+00 -0.00000000000E+00 -0.19713168825E+03  0.19713168825E+03  0.00000000000E+00 0.  1.
         36    2    1    2    0    0  0.00000000000E+00  0.14210854715E-13  0.10789995569E+04  0.14732629334E+04  0.10031269248E+04 0.  0.
         25    2    3    3    0    0 -0.13151523224E+03  0.57297804040E+02  0.21595192546E+03  0.28776934982E+03  0.12488662828E+03 0.  0.
         35    2    3    3    0    0  0.13151523224E+03 -0.57297804040E+02  0.86304763146E+03  0.11854935836E+04  0.79997782966E+03 0.  0.
         22    1    5    5    0    0  0.10744141806E+03  0.31239264126E+03  0.11335721733E+03  0.34926018861E+03  0.00000000000E+00 0.  1.
         22    1    5    5    0    0  0.24073814180E+02 -0.36969044530E+03  0.74969041413E+03  0.83623339500E+03  0.00000000000E+00 0.  1.
          5    1    4    4  502    0 -0.14309472903E+02  0.23962118175E+02  0.14277516716E+03  0.14555336643E+03  0.47000000000E+01 0. -1.
         -5    1    4    4    0  502 -0.11720575934E+03  0.33335685864E+02  0.73176758307E+02  0.14221598339E+03  0.47000000000E+01 0. -1.
<mgrwt>
<rscale>  0 0.10031269E+04</rscale>
<asrwt>0</asrwt>
<pdfrwt beam="1">  1        2 0.19632788E+00 0.10031269E+04</pdfrwt>
<pdfrwt beam="2">  1       -2 0.30327953E-01 0.10031269E+04</pdfrwt>
<totfact> 0.20626970E+02</totfact>
</mgrwt>
</event>
<event>
 9    1  0.4388925E-036  0.9996756E+03  0.7818608E-02  0.8681347E-01
          1   -1    0    0  501    0  0.00000000000E+00  0.00000000000E+00  0.17199852639E+04  0.17199852639E+04  0.00000000000E+00 0. -1.
         -1   -1    0    0    0  501 -0.00000000000E+00 -0.00000000000E+00 -0.14525580640E+03  0.14525580640E+03  0.00000000000E+00 0. -1.
         36    2    1    2    0    0  0.00000000000E+00 -0.28421709430E-13  0.15747294575E+04  0.18652410703E+04  0.99967564039E+03 0.  0.
         25    2    3    3    0    0  0.29075510438E+02  0.10304720789E+03  0.13346053839E+03  0.21159392014E+03  0.12448357069E+03 0.  0.
         35    2    3    3    0    0 -0.29075510438E+02 -0.10304720789E+03  0.14412689191E+04  0.16536471502E+04  0.80363467301E+03 0.  0.
         22    1    5    5    0    0 -0.24320642265E+03  0.23735359912E+03  0.33770907329E+03  0.47909655939E+03  0.00000000000E+00 0. -1.
         22    1    5    5    0    0  0.21413091221E+03 -0.34040080701E+03  0.11035598458E+04  0.11745505908E+04  0.00000000000E+00 0. -1.
          5    1    4    4  502    0 -0.26400464107E+02  0.70767111642E+02  0.12576661088E+03  0.14677976361E+03  0.47000000000E+01 0. -1.
         -5    1    4    4    0  502  0.55475974545E+02  0.32280096246E+02  0.76939275165E+01  0.64814156525E+02  0.47000000000E+01 0. -1.
<mgrwt>
<rscale>  0 0.99967564E+03</rscale>
<asrwt>0</asrwt>
<pdfrwt beam="1">  1        1 0.26461310E+00 0.99967564E+03</pdfrwt>
<pdfrwt beam="2">  1       -1 0.22347048E-01 0.99967564E+03</pdfrwt>
<totfact> 0.83306715E+01</totfact>
</mgrwt>
</event>
<event>
 9    1  0.4388925E-036  0.1000125E+04  0.7818608E-02  0.8680919E-01
         -1   -1    0    0    0  501 -0.00000000000E+00  0.00000000000E+00  0.38640049910E+03  0.38640049910E+03  0.00000000000E+00 0.  1.
          1   -1    0    0  501    0  0.00000000000E+00 -0.00000000000E+00 -0.64715853435E+03  0.64715853435E+03  0.00000000000E+00 0.  1.
         36    2    1    2    0    0  0.00000000000E+00  0.00000000000E+00 -0.26075803525E+03  0.10335590334E+04  0.10001247536E+04 0.  0.
         25    2    3    3    0    0 -0.28383494821E+02  0.13667857904E+03 -0.63493304783E+02  0.19813942840E+03  0.12546384574E+03 0.  0.
         35    2    3    3    0    0  0.28383494821E+02 -0.13667857904E+03 -0.19726473046E+03  0.83541960504E+03  0.79970362376E+03 0.  0.
         22    1    5    5    0    0  0.21976329290E+03  0.15315739912E+03  0.17991955733E+03  0.32268272486E+03  0.00000000000E+00 0.  1.
         22    1    5    5    0    0 -0.19137979808E+03 -0.28983597816E+03 -0.37718428779E+03  0.51273688019E+03  0.00000000000E+00 0.  1.
          5    1    4    4  502    0  0.49525870597E+02  0.52362317758E+02 -0.17054371214E+02  0.74212975664E+02  0.47000000000E+01 0. -1.
         -5    1    4    4    0  502 -0.77909365418E+02  0.84316261285E+02 -0.46438933569E+02  0.12392645274E+03  0.47000000000E+01 0. -1.
<mgrwt>
<rscale>  0 0.10001248E+04</rscale>
<asrwt>0</asrwt>
<pdfrwt beam="1">  1        1 0.99562851E-01 0.10001248E+04</pdfrwt>
<pdfrwt beam="2">  1       -1 0.59446231E-01 0.10001248E+04</pdfrwt>
<totfact> 0.10173117E+02</totfact>
</mgrwt>
</event>
<event>
 9    1  0.4388925E-036  0.1000650E+04  0.7818608E-02  0.8680420E-01
         -2   -1    0    0    0  501 -0.00000000000E+00  0.00000000000E+00  0.36472902939E+03  0.36472902939E+03  0.00000000000E+00 0.  1.
          2   -1    0    0  501    0  0.00000000000E+00 -0.00000000000E+00 -0.68633105277E+03  0.68633105277E+03  0.00000000000E+00 0.  1.
         36    2    1    2    0    0  0.00000000000E+00  0.14210854715E-13 -0.32160202337E+03  0.10510600822E+04  0.10006495065E+04 0.  0.
         25    2    3    3    0    0 -0.92723520922E+02 -0.89379229430E+02 -0.12357578007E+03  0.21732229707E+03  0.12398269798E+03 0.  0.
         35    2    3    3    0    0  0.92723520922E+02  0.89379229430E+02 -0.19802624330E+03  0.83373778509E+03  0.79957363843E+03 0.  0.
         22    1    5    5    0    0  0.19537911359E+03 -0.22859865384E+02  0.27428871910E+03  0.33753499507E+03  0.00000000000E+00 0. -1.
         22    1    5    5    0    0 -0.10265559267E+03  0.11223909481E+03 -0.47231496241E+03  0.49620279002E+03  0.00000000000E+00 0. -1.
          5    1    4    4  502    0 -0.70899918756E+02 -0.72979563348E+02 -0.14848925925E+03  0.18006655786E+03  0.47000000000E+01 0. -1.
         -5    1    4    4    0  502 -0.21823602166E+02 -0.16399666082E+02  0.24913479184E+02  0.37255739211E+02  0.47000000000E+01 0. -1.
<mgrwt>
<rscale>  0 0.10006495E+04</rscale>
<asrwt>0</asrwt>
<pdfrwt beam="1">  1        2 0.10558939E+00 0.10006495E+04</pdfrwt>
<pdfrwt beam="2">  1       -2 0.56112159E-01 0.10006495E+04</pdfrwt>
<totfact> 0.15158671E+02</totfact>
</mgrwt>
</event>
<event>
 9    1  0.4388925E-036  0.1000117E+04  0.7818608E-02  0.8680927E-01
         -3   -1    0    0    0  501 -0.00000000000E+00  0.00000000000E+00  0.14753092891E+03  0.14753092891E+03  0.00000000000E+00 0.  1.
          3   -1    0    0  501    0  0.00000000000E+00 -0.00000000000E+00 -0.16949552240E+04  0.16949552240E+04  0.00000000000E+00 0.  1.
         36    2    1    2    0    0 -0.71054273576E-14  0.71054273576E-14 -0.15474242951E+04  0.18424861529E+04  0.10001166305E+04 0.  0.
         25    2    3    3    0    0  0.56290996454E+02 -0.58946502803E+02 -0.79857361095E+02  0.16911938449E+03  0.12482308125E+03 0.  0.
         35    2    3    3    0    0 -0.56290996454E+02  0.58946502803E+02 -0.14675669340E+04  0.16733667685E+04  0.79985015436E+03 0.  0.
         22    1    5    5    0    0  0.35021227648E+03 -0.10508447524E+03 -0.66990974469E+03  0.76319751805E+03  0.00000000000E+00 0. -1.
         22    1    5    5    0    0 -0.40650327293E+03  0.16403097805E+03 -0.79765718935E+03  0.91016925041E+03  0.00000000000E+00 0. -1.
          5    1    4    4  502    0  0.35723146321E+02  0.25417699412E+02  0.87648600503E+01  0.44956817038E+02  0.47000000000E+01 0.  1.
         -5    1    4    4    0  502  0.20567850132E+02 -0.84364202216E+02 -0.88622221146E+02  0.12416256745E+03  0.47000000000E+01 0.  1.
<mgrwt>
<rscale>  0 0.10001166E+04</rscale>
<asrwt>0</asrwt>
<pdfrwt beam="1">  1        3 0.26076235E+00 0.10001166E+04</pdfrwt>
<pdfrwt beam="2">  1       -3 0.22697065E-01 0.10001166E+04</pdfrwt>
<totfact> 0.47386414E+00</totfact>
</mgrwt>
</event>
<event>
 9    1  0.4388925E-036  0.1000295E+04  0.7818608E-02  0.8680757E-01
          1   -1    0    0  501    0  0.00000000000E+00  0.00000000000E+00  0.37630882103E+03  0.37630882103E+03  0.00000000000E+00 0. -1.
         -1   -1    0    0    0  501 -0.00000000000E+00 -0.00000000000E+00 -0.66473946292E+03  0.66473946292E+03  0.00000000000E+00 0. -1.
         36    2    1    2    0    0  0.56843418861E-13 -0.21316282073E-13 -0.28843064189E+03  0.10410482839E+04  0.10002946038E+04 0.  0.
         25    2    3    3    0    0 -0.12943241241E+03  0.47283278208E+02 -0.33067447416E+02  0.18956107481E+03  0.12590268949E+03 0.  0.
         35    2    3    3    0    0  0.12943241241E+03 -0.47283278208E+02 -0.25536319448E+03  0.85148720914E+03  0.80051961154E+03 0.  0.
         22    1    5    5    0    0  0.38634534323E+03 -0.21770883195E+03 -0.30636257589E+03  0.53899711284E+03  0.00000000000E+00 0.  1.
         22    1    5    5    0    0 -0.25691293081E+03  0.17042555374E+03  0.50999381413E+02  0.31249009631E+03  0.00000000000E+00 0.  1.
          5    1    4    4  502    0 -0.79894080996E+02  0.78212436136E+01 -0.77792653202E+02  0.11188397080E+03  0.47000000000E+01 0.  1.
         -5    1    4    4    0  502 -0.49538331419E+02  0.39462034595E+02  0.44725205786E+02  0.77677104006E+02  0.47000000000E+01 0.  1.
<mgrwt>
<rscale>  0 0.10002946E+04</rscale>
<asrwt>0</asrwt>
<pdfrwt beam="1">  1        1 0.57893665E-01 0.10002946E+04</pdfrwt>
<pdfrwt beam="2">  1       -1 0.10226761E+00 0.10002946E+04</pdfrwt>
<totfact> 0.70641546E+01</totfact>
</mgrwt>
</event>
<event>
 9    1  0.4388925E-036  0.9997678E+03  0.7818608E-02  0.8681259E-01
         -2   -1    0    0    0  501 -0.00000000000E+00  0.00000000000E+00  0.20857559158E+03  0.20857559158E+03  0.00000000000E+00 0.  1.
          2   -1    0    0  501    0  0.00000000000E+00 -0.00000000000E+00 -0.11980497218E+04  0.11980497218E+04  0.00000000000E+00 0.  1.
         36    2    1    2    0    0  0.00000000000E+00  0.00000000000E+00 -0.98947413019E+03  0.14066253134E+04  0.99976783197E+03 0.  0.
         25    2    3    3    0    0  0.10857748709E+03  0.63050348036E+02 -0.27134300921E+03  0.32389989236E+03  0.12457806602E+03 0.  0.
         35    2    3    3    0    0 -0.10857748709E+03 -0.63050348036E+02 -0.71813112099E+03  0.10827254210E+04  0.80051084518E+03 0.  0.
         22    1    5    5    0    0  0.31975704698E+03  0.10970334116E+03 -0.39028891062E+03  0.51633789897E+03  0.00000000000E+00 0. -1.
         22    1    5    5    0    0 -0.42833453408E+03 -0.17275368919E+03 -0.32784221037E+03  0.56638752203E+03  0.00000000000E+00 0. -1.
          5    1    4    4  502    0 -0.18358002069E+02  0.10454756681E+02 -0.10916895871E+03  0.11129361942E+03  0.47000000000E+01 0.  1.
         -5    1    4    4    0  502  0.12693548916E+03  0.52595591355E+02 -0.16217405050E+03  0.21260627294E+03  0.47000000000E+01 0.  1.
<mgrwt>
<rscale>  0 0.99976783E+03</rscale>
<asrwt>0</asrwt>
<pdfrwt beam="1">  1        2 0.18431534E+00 0.99976783E+03</pdfrwt>
<pdfrwt beam="2">  1       -2 0.32088552E-01 0.99976783E+03</pdfrwt>
<totfact> 0.20668582E+02</totfact>
</mgrwt>
</event>
<event>
 9    1  0.4388925E-036  0.9996935E+03  0.7818608E-02  0.8681330E-01
          1   -1    0    0  501    0  0.00000000000E+00  0.00000000000E+00  0.87068743162E+03  0.87068743162E+03  0.00000000000E+00 0. -1.
         -1   -1    0    0    0  501 -0.00000000000E+00 -0.00000000000E+00 -0.28695345955E+03  0.28695345955E+03  0.00000000000E+00 0. -1.
         36    2    1    2    0    0  0.71054273576E-14 -0.71054273576E-14  0.58373397207E+03  0.11576408912E+04  0.99969349440E+03 0.  0.
         25    2    3    3    0    0  0.34021935006E+02  0.45623536410E+02 -0.42674344037E+02  0.14345336735E+03  0.12457435462E+03 0.  0.
         35    2    3    3    0    0 -0.34021935006E+02 -0.45623536410E+02  0.62640831611E+03  0.10141875238E+04  0.79558152055E+03 0.  0.
         22    1    5    5    0    0 -0.24346346219E+03 -0.34038477566E+03  0.22960116254E+03  0.47733944606E+03  0.00000000000E+00 0. -1.
         22    1    5    5    0    0  0.20944152719E+03  0.29476123925E+03  0.39680715357E+03  0.53684807776E+03  0.00000000000E+00 0. -1.
          5    1    4    4  502    0  0.21724778869E+01  0.83961421297E+02 -0.12620416185E+02  0.85062358486E+02  0.47000000000E+01 0. -1.
         -5    1    4    4    0  502  0.31849457119E+02 -0.38337884888E+02 -0.30053927852E+02  0.58391008861E+02  0.47000000000E+01 0. -1.
<mgrwt>
<rscale>  0 0.99969349E+03</rscale>
<asrwt>0</asrwt>
<pdfrwt beam="1">  1        1 0.13395191E+00 0.99969349E+03</pdfrwt>
<pdfrwt beam="2">  1       -1 0.44146687E-01 0.99969349E+03</pdfrwt>
<totfact> 0.11050364E+02</totfact>
</mgrwt>
</event>
<event>
 9    1  0.4388925E-036  0.1000414E+04  0.7818608E-02  0.8680644E-01
         -2   -1    0    0    0  501 -0.00000000000E+00  0.00000000000E+00  0.15493725656E+03  0.15493725656E+03  0.00000000000E+00 0.  1.
          2   -1    0    0  501    0  0.00000000000E+00 -0.00000000000E+00 -0.16148911267E+04  0.16148911267E+04  0.00000000000E+00 0.  1.
         36    2    1    2    0    0 -0.71054273576E-14  0.00000000000E+00 -0.14599538702E+04  0.17698283833E+04  0.10004135161E+04 0.  0.
         25    2    3    3    0    0  0.41306824665E+02  0.10612623814E+03 -0.42027148097E+03  0.45301178037E+03  0.12499009261E+03 0.  0.
         35    2    3    3    0    0 -0.41306824665E+02 -0.10612623814E+03 -0.10396823892E+04  0.13168166029E+04  0.80006091213E+03 0.  0.
         22    1    5    5    0    0  0.28541280948E+03 -0.79631724371E+02 -0.92215412483E+03  0.96859171651E+03  0.00000000000E+00 0. -1.
         22    1    5    5    0    0 -0.32671963414E+03 -0.26494513770E+02 -0.11752826438E+03  0.34822488642E+03  0.00000000000E+00 0. -1.
          5    1    4    4  502    0 -0.25159527489E+02  0.93172963930E+02 -0.19325614013E+03  0.21606533440E+03  0.47000000000E+01 0.  1.
         -5    1    4    4    0  502  0.66466352155E+02  0.12953274210E+02 -0.22701534084E+03  0.23694644597E+03  0.47000000000E+01 0.  1.
<mgrwt>
<rscale>  0 0.10004135E+04</rscale>
<asrwt>0</asrwt>
<pdfrwt beam="1">  1        2 0.24844478E+00 0.10004135E+04</pdfrwt>
<pdfrwt beam="2">  1       -2 0.23836502E-01 0.10004135E+04</pdfrwt>
<totfact> 0.20364160E+02</totfact>
</mgrwt>
</event>
<event>
 9    1  0.4388925E-036  0.9997522E+03  0.7818608E-02  0.8681274E-01
         -3   -1    0    0    0  501 -0.00000000000E+00  0.00000000000E+00  0.41352891836E+03  0.41352891836E+03  0.00000000000E+00 0.  1.
          3   -1    0    0  501    0  0.00000000000E+00 -0.00000000000E+00 -0.60425310165E+03  0.60425310165E+03  0.00000000000E+00 0.  1.
         36    2    1    2    0    0 -0.14210854715E-13  0.56843418861E-13 -0.19072418329E+03  0.10177820200E+04  0.99975223238E+03 0.  0.
         25    2    3    3    0    0  0.46754174963E+02  0.12338469336E+03 -0.80094027229E+02  0.19842407222E+03  0.12468890811E+03 0.  0.
         35    2    3    3    0    0 -0.46754174963E+02 -0.12338469336E+03 -0.11063015606E+03  0.81935794779E+03  0.80106097130E+03 0.  0.
         22    1    5    5    0    0  0.11290773479E+03 -0.44129793021E+03 -0.77581364269E+02  0.46207238380E+03  0.00000000000E+00 0. -1.
         22    1    5    5    0    0 -0.15966190976E+03  0.31791323686E+03 -0.33048791792E+02  0.35728556399E+03  0.00000000000E+00 0. -1.
          5    1    4    4  502    0  0.18186587658E+02  0.91673902217E+02  0.14354347031E+02  0.94673088030E+02  0.47000000000E+01 0. -1.
         -5    1    4    4    0  502  0.28567587306E+02  0.31710791140E+02 -0.94448374260E+02  0.10375098419E+03  0.47000000000E+01 0. -1.
<mgrwt>
<rscale>  0 0.99975223E+03</rscale>
<asrwt>0</asrwt>
<pdfrwt beam="1">  1        3 0.92962016E-01 0.99975223E+03</pdfrwt>
<pdfrwt beam="2">  1       -3 0.63619834E-01 0.99975223E+03</pdfrwt>
<totfact> 0.10173001E+01</totfact>
</mgrwt>
</event>
<event>
 9    1  0.4388925E-036  0.9997746E+03  0.7818608E-02  0.8681253E-01
         -2   -1    0    0    0  501 -0.00000000000E+00  0.00000000000E+00  0.10536112419E+03  0.10536112419E+03  0.00000000000E+00 0. -1.
          2   -1    0    0  501    0  0.00000000000E+00 -0.00000000000E+00 -0.23717219753E+04  0.23717219753E+04  0.00000000000E+00 0. -1.
         36    2    1    2    0    0 -0.14210854715E-13  0.28421709430E-13 -0.22663608512E+04  0.24770830995E+04  0.99977456175E+03 0.  0.
         25    2    3    3    0    0  0.51058787194E+02  0.12719884241E+03 -0.49452191231E+03  0.52817749499E+03  0.12503199271E+03 0.  0.
         35    2    3    3    0    0 -0.51058787194E+02 -0.12719884241E+03 -0.17718389389E+04  0.19489056045E+04  0.80002080281E+03 0.  0.
         22    1    5    5    0    0  0.23197890578E+03 -0.93262093727E+02 -0.12866542740E+03  0.28118823421E+03  0.00000000000E+00 0.  1.
         22    1    5    5    0    0 -0.28303769297E+03 -0.33936748686E+02 -0.16431735115E+04  0.16677173703E+04  0.00000000000E+00 0.  1.
          5    1    4    4  502    0 -0.17087837876E+02 -0.10609741369E+02 -0.14292418342E+03  0.14440904758E+03  0.47000000000E+01 0.  1.
         -5    1    4    4    0  502  0.68146625071E+02  0.13780858378E+03 -0.35159772888E+03  0.38376844741E+03  0.47000000000E+01 0.  1.
<mgrwt>
<rscale>  0 0.99977456E+03</rscale>
<asrwt>0</asrwt>
<pdfrwt beam="1">  1        2 0.36488029E+00 0.99977456E+03</pdfrwt>
<pdfrwt beam="2">  1       -2 0.16209405E-01 0.99977456E+03</pdfrwt>
<totfact> 0.14600075E+02</totfact>
</mgrwt>
</event>
<event>
 9    1  0.4388925E-036  0.1000232E+04  0.7818608E-02  0.8680817E-01
         -2   -1    0    0    0  501 -0.00000000000E+00  0.00000000000E+00  0.16083674467E+03  0.16083674467E+03  0.00000000000E+00 0.  1.
          2   -1    0    0  501    0  0.00000000000E+00 -0.00000000000E+00 -0.15550925205E+04  0.15550925205E+04  0.00000000000E+00 0.  1.
         36    2    1    2    0    0 -0.28421709430E-13  0.00000000000E+00 -0.13942557758E+04  0.17159292651E+04  0.10002320104E+04 0.  0.
         25    2    3    3    0    0  0.73357399829E+02  0.11649637142E+03 -0.30892430964E+03  0.36072266783E+03  0.12543484898E+03 0.  0.
         35    2    3    3    0    0 -0.73357399829E+02 -0.11649637142E+03 -0.10853314661E+04  0.13552065973E+04  0.79980486200E+03 0.  0.
         22    1    5    5    0    0  0.24919693652E+03  0.12390264369E+03 -0.83792538083E+03  0.88293256941E+03  0.00000000000E+00 0. -1.
         22    1    5    5    0    0 -0.32255433635E+03 -0.24039901511E+03 -0.24740608531E+03  0.47227402789E+03  0.00000000000E+00 0. -1.
          5    1    4    4  502    0  0.25527399609E+02  0.67500681151E+02 -0.27464313846E+03  0.28400516472E+03  0.47000000000E+01 0. -1.
         -5    1    4    4    0  502  0.47830000220E+02  0.48995690268E+02 -0.34281171180E+02  0.76717503109E+02  0.47000000000E+01 0. -1.
<mgrwt>
<rscale>  0 0.10002320E+04</rscale>
<asrwt>0</asrwt>
<pdfrwt beam="1">  1        2 0.23924500E+00 0.10002320E+04</pdfrwt>
<pdfrwt beam="2">  1       -2 0.24744115E-01 0.10002320E+04</pdfrwt>
<totfact> 0.20601662E+02</totfact>
</mgrwt>
</event>
<event>
 9    1  0.4388925E-036  0.1000113E+04  0.7818608E-02  0.8680931E-01
         -2   -1    0    0    0  501 -0.00000000000E+00  0.00000000000E+00  0.23454959696E+03  0.23454959696E+03  0.00000000000E+00 0. -1.
          2   -1    0    0  501    0  0.00000000000E+00 -0.00000000000E+00 -0.10661126846E+04  0.10661126846E+04  0.00000000000E+00 0. -1.
         36    2    1    2    0    0 -0.28421709430E-13  0.00000000000E+00 -0.83156308767E+03  0.13006622816E+04  0.10001125946E+04 0.  0.
         25    2    3    3    0    0  0.12704282781E+03  0.52480710153E+02 -0.12329757050E+03  0.22306591495E+03  0.12514793840E+03 0.  0.
         35    2    3    3    0    0 -0.12704282781E+03 -0.52480710153E+02 -0.70826551717E+03  0.10775963666E+04  0.80042475071E+03 0.  0.
         22    1    5    5    0    0 -0.21883550821E+03  0.32929145220E+03 -0.22496645356E+03  0.45489751084E+03  0.00000000000E+00 0. -1.
         22    1    5    5    0    0  0.91792680403E+02 -0.38177216235E+03 -0.48329906362E+03  0.62269885580E+03  0.00000000000E+00 0. -1.
          5    1    4    4  502    0  0.72727626845E+02  0.33179043031E+02  0.71276832538E+01  0.80393099651E+02  0.47000000000E+01 0.  1.
         -5    1    4    4    0  502  0.54315200961E+02  0.19301667122E+02 -0.13042525375E+03  0.14267281530E+03  0.47000000000E+01 0.  1.
<mgrwt>
<rscale>  0 0.10001126E+04</rscale>
<asrwt>0</asrwt>
<pdfrwt beam="1">  1        2 0.16401734E+00 0.10001126E+04</pdfrwt>
<pdfrwt beam="2">  1       -2 0.36084553E-01 0.10001126E+04</pdfrwt>
<totfact> 0.19950901E+02</totfact>
</mgrwt>
</event>
<event>
 9    1  0.4388925E-036  0.9998805E+03  0.7818608E-02  0.8681152E-01
         -3   -1    0    0    0  501 -0.00000000000E+00  0.00000000000E+00  0.93698980531E+03  0.93698980531E+03  0.00000000000E+00 0. -1.
          3   -1    0    0  501    0  0.00000000000E+00 -0.00000000000E+00 -0.26674812832E+03  0.26674812832E+03  0.00000000000E+00 0. -1.
         36    2    1    2    0    0 -0.17763568394E-14  0.00000000000E+00  0.67024167699E+03  0.12037379336E+04  0.99988054651E+03 0.  0.
         25    2    3    3    0    0 -0.63578635664E+01  0.14520107970E+03  0.18421260949E+03  0.26616534882E+03  0.12564207671E+03 0.  0.
         35    2    3    3    0    0  0.63578635664E+01 -0.14520107970E+03  0.48602906750E+03  0.93757258482E+03  0.78847594850E+03 0.  0.
         22    1    5    5    0    0  0.13250674439E+02  0.17648116116E+03 -0.14529799206E+03  0.22898184888E+03  0.00000000000E+00 0.  1.
         22    1    5    5    0    0 -0.68928108728E+01 -0.32168224086E+03  0.63132705956E+03  0.70859073594E+03  0.00000000000E+00 0.  1.
          5    1    4    4  502    0  0.51915433962E+02  0.10163946265E+03  0.81989450012E+02  0.14060637455E+03  0.47000000000E+01 0. -1.
         -5    1    4    4    0  502 -0.58273297528E+02  0.43561617049E+02  0.10222315948E+03  0.12555897427E+03  0.47000000000E+01 0. -1.
<mgrwt>
<rscale>  0 0.99988055E+03</rscale>
<asrwt>0</asrwt>
<pdfrwt beam="1">  1        3 0.41038174E-01 0.99988055E+03</pdfrwt>
<pdfrwt beam="2">  1       -3 0.14415228E+00 0.99988055E+03</pdfrwt>
<totfact> 0.68907642E+00</totfact>
</mgrwt>
</event>
<event>
 9    1  0.4388925E-036  0.9995058E+03  0.7818608E-02  0.8681509E-01
         -2   -1    0    0    0  501 -0.00000000000E+00  0.00000000000E+00  0.18136986522E+03  0.18136986522E+03  0.00000000000E+00 0. -1.
          2   -1    0    0  501    0  0.00000000000E+00 -0.00000000000E+00 -0.13770367895E+04  0.13770367895E+04  0.00000000000E+00 0. -1.
         36    2    1    2    0    0  0.28421709430E-13  0.00000000000E+00 -0.11956669242E+04  0.15584066547E+04  0.99950583171E+03 0.  0.
         25    2    3    3    0    0 -0.45166517532E+02 -0.14249617463E+03 -0.25570606939E+03  0.31954848222E+03  0.11991857436E+03 0.  0.
         35    2    3    3    0    0  0.45166517532E+02  0.14249617463E+03 -0.93996085485E+03  0.12388581725E+04  0.79303088762E+03 0.  0.
         22    1    5    5    0    0 -0.22425637030E+03 -0.28640275417E+02  0.20254881953E+02  0.22698335894E+03  0.00000000000E+00 0. -1.
         22    1    5    5    0    0  0.26942288783E+03  0.17113645004E+03 -0.96021573680E+03  0.10118748135E+04  0.00000000000E+00 0. -1.
          5    1    4    4  502    0 -0.22682260343E+02 -0.16031689462E+03 -0.20726544630E+03  0.26305331564E+03  0.47000000000E+01 0.  1.
         -5    1    4    4    0  502 -0.22484257189E+02  0.17820719996E+02 -0.48440623085E+02  0.56495166584E+02  0.47000000000E+01 0.  1.
<mgrwt>
<rscale>  0 0.99950583E+03</rscale>
<asrwt>0</asrwt>
<pdfrwt beam="1">  1        2 0.21185182E+00 0.99950583E+03</pdfrwt>
<pdfrwt beam="2">  1       -2 0.27903055E-01 0.99950583E+03</pdfrwt>
<totfact> 0.20981208E+02</totfact>
</mgrwt>
</event>
<event>
 9    1  0.4388925E-036  0.9993404E+03  0.7818608E-02  0.8681666E-01
         -2   -1    0    0    0  501 -0.00000000000E+00  0.00000000000E+00  0.13587987894E+03  0.13587987894E+03  0.00000000000E+00 0.  1.
          2   -1    0    0  501    0  0.00000000000E+00 -0.00000000000E+00 -0.18374338981E+04  0.18374338981E+04  0.00000000000E+00 0.  1.
         36    2    1    2    0    0  0.00000000000E+00  0.28421709430E-13 -0.17015540192E+04  0.19733137770E+04  0.99934037373E+03 0.  0.
         25    2    3    3    0    0  0.55939481855E+02  0.76444990631E+02 -0.11709483573E+03  0.19586812652E+03  0.12522004716E+03 0.  0.
         35    2    3    3    0    0 -0.55939481855E+02 -0.76444990631E+02 -0.15844591834E+04  0.17774456505E+04  0.79989316437E+03 0.  0.
         22    1    5    5    0    0  0.12619323295E+03  0.31095433850E+03 -0.98675145170E+03  0.10422551320E+04  0.00000000000E+00 0.  1.
         22    1    5    5    0    0 -0.18213271480E+03 -0.38739932913E+03 -0.59770773172E+03  0.73519051856E+03  0.00000000000E+00 0.  1.
          5    1    4    4  502    0 -0.10849534277E+02  0.42472812234E+02  0.12736696054E+02  0.45890800815E+02  0.47000000000E+01 0.  1.
         -5    1    4    4    0  502  0.66789016132E+02  0.33972178397E+02 -0.12983153179E+03  0.14997732571E+03  0.47000000000E+01 0.  1.
<mgrwt>
<rscale>  0 0.99934037E+03</rscale>
<asrwt>0</asrwt>
<pdfrwt beam="1">  1        2 0.28268213E+00 0.99934037E+03</pdfrwt>
<pdfrwt beam="2">  1       -2 0.20904597E-01 0.99934037E+03</pdfrwt>
<totfact> 0.19196319E+02</totfact>
</mgrwt>
</event>
<event>
 9    1  0.4388925E-036  0.9999278E+03  0.7818608E-02  0.8681107E-01
          1   -1    0    0  501    0  0.00000000000E+00  0.00000000000E+00  0.99978261583E+03  0.99978261583E+03  0.00000000000E+00 0. -1.
         -1   -1    0    0    0  501 -0.00000000000E+00 -0.00000000000E+00 -0.25001827247E+03  0.25001827247E+03  0.00000000000E+00 0. -1.
         36    2    1    2    0    0  0.28421709430E-13 -0.71054273576E-14  0.74976434336E+03  0.12498008883E+04  0.99992784231E+03 0.  0.
         25    2    3    3    0    0 -0.10975084520E+03 -0.11705593880E+02  0.40349444756E+02  0.17163499641E+03  0.12509286690E+03 0.  0.
         35    2    3    3    0    0  0.10975084520E+03  0.11705593880E+02  0.70941489860E+03  0.10781658919E+04  0.80435683819E+03 0.  0.
         22    1    5    5    0    0  0.39086061735E+03  0.16966067371E+03  0.60351357385E+03  0.73877290166E+03  0.00000000000E+00 0. -1.
         22    1    5    5    0    0 -0.28110977215E+03 -0.15795507983E+03  0.10590132475E+03  0.33939299024E+03  0.00000000000E+00 0. -1.
          5    1    4    4  502    0 -0.44352832266E+02  0.29372149283E+02  0.70631658314E+02  0.88548393773E+02  0.47000000000E+01 0. -1.
         -5    1    4    4    0  502 -0.65398012937E+02 -0.41077743163E+02 -0.30282213558E+02  0.83086602635E+02  0.47000000000E+01 0. -1.
<mgrwt>
<rscale>  0 0.99992784E+03</rscale>
<asrwt>0</asrwt>
<pdfrwt beam="1">  1        1 0.15381271E+00 0.99992784E+03</pdfrwt>
<pdfrwt beam="2">  1       -1 0.38464350E-01 0.99992784E+03</pdfrwt>
<totfact> 0.11085139E+02</totfact>
</mgrwt>
</event>
<event>
 9    1  0.4388925E-036  0.9995069E+03  0.7818608E-02  0.8681508E-01
         -2   -1    0    0    0  501 -0.00000000000E+00  0.00000000000E+00  0.77018773028E+03  0.77018773028E+03  0.00000000000E+00 0. -1.
          2   -1    0    0  501    0  0.00000000000E+00 -0.00000000000E+00 -0.32427615281E+03  0.32427615281E+03  0.00000000000E+00 0. -1.
         36    2    1    2    0    0  0.00000000000E+00 -0.28421709430E-13  0.44591157747E+03  0.10944638831E+04  0.99950690667E+03 0.  0.
         25    2    3    3    0    0 -0.13202085886E+03 -0.44861122589E+02  0.54699518641E+02  0.19402551682E+03  0.12333627342E+03 0.  0.
         35    2    3    3    0    0  0.13202085886E+03  0.44861122589E+02  0.39121205883E+03  0.90043836628E+03  0.79893701191E+03 0.  0.
         22    1    5    5    0    0  0.14457874327E+03 -0.25117853905E+03 -0.11668755456E+03  0.31242544210E+03  0.00000000000E+00 0.  1.
         22    1    5    5    0    0 -0.12557884407E+02  0.29603966164E+03  0.50789961339E+03  0.58801292418E+03  0.00000000000E+00 0.  1.
          5    1    4    4  502    0 -0.10366595664E+03  0.14549662384E+02  0.70330985421E+02  0.12620166699E+03  0.47000000000E+01 0. -1.
         -5    1    4    4    0  502 -0.28354902218E+02 -0.59410784974E+02 -0.15631466780E+02  0.67823849822E+02  0.47000000000E+01 0. -1.
<mgrwt>
<rscale>  0 0.99950691E+03</rscale>
<asrwt>0</asrwt>
<pdfrwt beam="1">  1        2 0.49888639E-01 0.99950691E+03</pdfrwt>
<pdfrwt beam="2">  1       -2 0.11849042E+00 0.99950691E+03</pdfrwt>
<totfact> 0.64411628E+01</totfact>
</mgrwt>
</event>
<event>
 9    1  0.4388925E-036  0.9980689E+03  0.7818608E-02  0.8682879E-01
          1   -1    0    0  501    0  0.00000000000E+00  0.00000000000E+00  0.33151374657E+03  0.33151374657E+03  0.00000000000E+00 0.  1.
         -1   -1    0    0    0  501 -0.00000000000E+00 -0.00000000000E+00 -0.75120685763E+03  0.75120685763E+03  0.00000000000E+00 0.  1.
         36    2    1    2    0    0  0.42632564146E-13  0.28421709430E-13 -0.41969311106E+03  0.10827206042E+04  0.99806893514E+03 0.  0.
         25    2    3    3    0    0  0.36128966228E+02  0.10484419822E+03  0.17054979666E+02  0.16531662501E+03  0.12141295678E+03 0.  0.
         35    2    3    3    0    0 -0.36128966228E+02 -0.10484419822E+03 -0.43674809073E+03  0.91740397919E+03  0.79911423350E+03 0.  0.
         22    1    5    5    0    0  0.32870509116E+03  0.10373238351E+03 -0.34414165299E+03  0.48707383595E+03  0.00000000000E+00 0. -1.
         22    1    5    5    0    0 -0.36483405739E+03 -0.20857658173E+03 -0.92606437734E+02  0.43033014324E+03  0.00000000000E+00 0. -1.
          5    1    4    4  502    0 -0.14256463834E+02  0.29302362594E+02  0.57141016131E+02  0.65947410405E+02  0.47000000000E+01 0. -1.
         -5    1    4    4    0  502  0.50385430062E+02  0.75541835623E+02 -0.40086036465E+02  0.99369214606E+02  0.47000000000E+01 0. -1.
<mgrwt>
<rscale>  0 0.99806894E+03</rscale>
<asrwt>0</asrwt>
<pdfrwt beam="1">  1        1 0.51002115E-01 0.99806894E+03</pdfrwt>
<pdfrwt beam="2">  1       -1 0.11557028E+00 0.99806894E+03</pdfrwt>
<totfact> 0.62774938E+01</totfact>
</mgrwt>
</event>
<event>
 9    1  0.4388925E-036  0.1000569E+04  0.7818608E-02  0.8680496E-01
          2   -1    0    0  501    0  0.00000000000E+00  0.00000000000E+00  0.11223337697E+04  0.11223337697E+04  0.00000000000E+00 0. -1.
         -2   -1    0    0    0  501 -0.00000000000E+00 -0.00000000000E+00 -0.22300382800E+03  0.22300382800E+03  0.00000000000E+00 0. -1.
         36    2    1    2    0    0  0.28421709430E-13  0.00000000000E+00  0.89932994170E+03  0.13453375977E+04  0.10005692918E+04 0.  0.
         25    2    3    3    0    0 -0.13127383793E+03 -0.43056280115E+02  0.20886246371E+03  0.27964005537E+03  0.12445227213E+03 0.  0.
         35    2    3    3    0    0  0.13127383793E+03  0.43056280115E+02  0.69046747799E+03  0.10656975423E+04  0.79992452756E+03 0.  0.
         22    1    5    5    0    0  0.46683224789E+03 -0.26352035841E+02  0.43056961149E+03  0.63562329080E+03  0.00000000000E+00 0. -1.
         22    1    5    5    0    0 -0.33555840996E+03  0.69408315956E+02  0.25989786650E+03  0.43007425153E+03  0.00000000000E+00 0. -1.
          5    1    4    4  502    0 -0.46635109627E+02  0.16512674437E+02  0.15519852698E+03  0.16296065367E+03  0.47000000000E+01 0.  1.
         -5    1    4    4    0  502 -0.84638728306E+02 -0.59568954552E+02  0.53663936725E+02  0.11667940170E+03  0.47000000000E+01 0.  1.
<mgrwt>
<rscale>  0 0.10005693E+04</rscale>
<asrwt>0</asrwt>
<pdfrwt beam="1">  1        2 0.17266673E+00 0.10005693E+04</pdfrwt>
<pdfrwt beam="2">  1       -2 0.34308282E-01 0.10005693E+04</pdfrwt>
<totfact> 0.20265129E+02</totfact>
</mgrwt>
</event>
<event>
 9    1  0.4388925E-036  0.9999854E+03  0.7818608E-02  0.8681052E-01
         -1   -1    0    0    0  501 -0.00000000000E+00  0.00000000000E+00  0.25776204965E+03  0.25776204965E+03  0.00000000000E+00 0. -1.
          1   -1    0    0  501    0  0.00000000000E+00 -0.00000000000E+00 -0.96985837187E+03  0.96985837187E+03  0.00000000000E+00 0. -1.
         36    2    1    2    0    0  0.00000000000E+00 -0.71054273576E-14 -0.71209632223E+03  0.12276204215E+04  0.99998536349E+03 0.  0.
         25    2    3    3    0    0  0.85050075795E+02 -0.53305433487E+02 -0.14515267174E+02  0.16186066450E+03  0.12614752117E+03 0.  0.
         35    2    3    3    0    0 -0.85050075795E+02  0.53305433487E+02 -0.69758105505E+03  0.10657597570E+04  0.79946828998E+03 0.  0.
         22    1    5    5    0    0  0.11416070895E+03  0.26870626347E+03 -0.71452888588E+03  0.77187256219E+03  0.00000000000E+00 0.  1.
         22    1    5    5    0    0 -0.19921078475E+03 -0.21540082999E+03  0.16947830830E+02  0.29388719483E+03  0.00000000000E+00 0.  1.
          5    1    4    4  502    0  0.24425571516E+02  0.37295307748E+02 -0.26523341129E+02  0.52087677511E+02  0.47000000000E+01 0.  1.
         -5    1    4    4    0  502  0.60624504278E+02 -0.90600741234E+02  0.12008073956E+02  0.10977298698E+03  0.47000000000E+01 0.  1.
<mgrwt>
<rscale>  0 0.99998536E+03</rscale>
<asrwt>0</asrwt>
<pdfrwt beam="1">  1        1 0.14920898E+00 0.99998536E+03</pdfrwt>
<pdfrwt beam="2">  1       -1 0.39655700E-01 0.99998536E+03</pdfrwt>
<totfact> 0.11095945E+02</totfact>
</mgrwt>
</event>
<event>
 9    1  0.4388925E-036  0.1000180E+04  0.7818608E-02  0.8680867E-01
         -1   -1    0    0    0  501 -0.00000000000E+00  0.00000000000E+00  0.17714000930E+03  0.17714000930E+03  0.00000000000E+00 0. -1.
          1   -1    0    0  501    0  0.00000000000E+00 -0.00000000000E+00 -0.14118203458E+04  0.14118203458E+04  0.00000000000E+00 0. -1.
         36    2    1    2    0    0  0.14210854715E-13 -0.28421709430E-13 -0.12346803365E+04  0.15889603551E+04  0.10001797222E+04 0.  0.
         25    2    3    3    0    0 -0.72851379316E+02  0.10845520877E+03 -0.17180454939E+03  0.24996447957E+03  0.12607768271E+03 0.  0.
         35    2    3    3    0    0  0.72851379316E+02 -0.10845520877E+03 -0.10628757871E+04  0.13389958755E+04  0.80382532933E+03 0.  0.
         22    1    5    5    0    0  0.20971732176E+03  0.15407861481E+03 -0.26988655767E+02  0.26162943666E+03  0.00000000000E+00 0. -1.
         22    1    5    5    0    0 -0.13686594244E+03 -0.26253382358E+03 -0.10358871313E+04  0.10773664388E+04  0.00000000000E+00 0. -1.
          5    1    4    4  502    0 -0.98456521332E+02  0.40021406704E+02 -0.83408284132E+02  0.13518295547E+03  0.47000000000E+01 0.  1.
         -5    1    4    4    0  502  0.25605142016E+02  0.68433802070E+02 -0.88396265257E+02  0.11478152410E+03  0.47000000000E+01 0.  1.
<mgrwt>
<rscale>  0 0.10001797E+04</rscale>
<asrwt>0</asrwt>
<pdfrwt beam="1">  1        1 0.21720313E+00 0.10001797E+04</pdfrwt>
<pdfrwt beam="2">  1       -1 0.27252310E-01 0.10001797E+04</pdfrwt>
<totfact> 0.98799680E+01</totfact>
</mgrwt>
</event>
<event>
 9    1  0.4388925E-036  0.1001936E+04  0.7818608E-02  0.8679197E-01
          2   -1    0    0  501    0  0.00000000000E+00  0.00000000000E+00  0.12366751600E+04  0.12366751600E+04  0.00000000000E+00 0. -1.
         -2   -1    0    0    0  501 -0.00000000000E+00 -0.00000000000E+00 -0.20293840621E+03  0.20293840621E+03  0.00000000000E+00 0. -1.
         36    2    1    2    0    0 -0.14210854715E-13  0.14210854715E-13  0.10337367538E+04  0.14396135662E+04  0.10019358981E+04 0.  0.
         25    2    3    3    0    0  0.82516237002E+02  0.11565418560E+03  0.22579027437E+03  0.29478203446E+03  0.12542081097E+03 0.  0.
         35    2    3    3    0    0 -0.82516237002E+02 -0.11565418560E+03  0.80794647941E+03  0.11448315317E+04  0.79854674408E+03 0.  0.
         22    1    5    5    0    0 -0.25015527162E+03 -0.30761300701E+03  0.79649037539E+03  0.88971924791E+03  0.00000000000E+00 0. -1.
         22    1    5    5    0    0  0.16763903461E+03  0.19195882142E+03  0.11456104015E+02  0.25511228384E+03  0.00000000000E+00 0. -1.
          5    1    4    4  502    0  0.11170978431E+02  0.11140824723E+03  0.17166232753E+03  0.20500398290E+03  0.47000000000E+01 0. -1.
         -5    1    4    4    0  502  0.71345258571E+02  0.42459383686E+01  0.54127946838E+02  0.89778051561E+02  0.47000000000E+01 0. -1.
<mgrwt>
<rscale>  0 0.10019359E+04</rscale>
<asrwt>0</asrwt>
<pdfrwt beam="1">  1        2 0.19025771E+00 0.10019359E+04</pdfrwt>
<pdfrwt beam="2">  1       -2 0.31221294E-01 0.10019359E+04</pdfrwt>
<totfact> 0.20626158E+02</totfact>
</mgrwt>
</event>
<event>
 9    1  0.4388925E-036  0.1000439E+04  0.7818608E-02  0.8680620E-01
          2   -1    0    0  501    0  0.00000000000E+00  0.00000000000E+00  0.45462872532E+03  0.45462872532E+03  0.00000000000E+00 0. -1.
         -2   -1    0    0    0  501 -0.00000000000E+00 -0.00000000000E+00 -0.55038165020E+03  0.55038165020E+03  0.00000000000E+00 0. -1.
         36    2    1    2    0    0  0.88817841970E-14  0.10658141036E-13 -0.95752924885E+02  0.10050103755E+04  0.10004385200E+04 0.  0.
         25    2    3    3    0    0  0.13202216311E+02 -0.83298607633E+01 -0.16070155785E+03  0.20369877531E+03  0.12419547202E+03 0.  0.
         35    2    3    3    0    0 -0.13202216311E+02  0.83298607633E+01  0.64948632965E+02  0.80131160022E+03  0.79852255486E+03 0.  0.
         22    1    5    5    0    0 -0.33876990188E+03 -0.21543499663E+03  0.33192854808E+01  0.40148262958E+03  0.00000000000E+00 0.  1.
         22    1    5    5    0    0  0.32556768557E+03  0.22376485739E+03  0.61629347485E+02  0.39982897064E+03  0.00000000000E+00 0.  1.
          5    1    4    4  502    0  0.26678716302E+02 -0.30521880460E+02  0.36315324864E-01  0.40809685237E+02  0.47000000000E+01 0.  1.
         -5    1    4    4    0  502 -0.13476499991E+02  0.22192019697E+02 -0.16073787318E+03  0.16288909007E+03  0.47000000000E+01 0.  1.
<mgrwt>
<rscale>  0 0.10004385E+04</rscale>
<asrwt>0</asrwt>
<pdfrwt beam="1">  1        2 0.69942881E-01 0.10004385E+04</pdfrwt>
<pdfrwt beam="2">  1       -2 0.84674099E-01 0.10004385E+04</pdfrwt>
<totfact> 0.10023167E+02</totfact>
</mgrwt>
</event>
<event>
 9    1  0.4388925E-036  0.1000019E+04  0.7818608E-02  0.8681020E-01
         -2   -1    0    0    0  501 -0.00000000000E+00  0.00000000000E+00  0.12421293677E+03  0.12421293677E+03  0.00000000000E+00 0. -1.
          2   -1    0    0  501    0  0.00000000000E+00 -0.00000000000E+00 -0.20127482120E+04  0.20127482120E+04  0.00000000000E+00 0. -1.
         36    2    1    2    0    0  0.42632564146E-13 -0.71054273576E-14 -0.18885352753E+04  0.21369611488E+04  0.10000187326E+04 0.  0.
         25    2    3    3    0    0  0.10904306782E+03  0.51351869587E+02 -0.20254721684E+03  0.26672489330E+03  0.12485747277E+03 0.  0.
         35    2    3    3    0    0 -0.10904306782E+03 -0.51351869587E+02 -0.16859880584E+04  0.18702362555E+04  0.80043770095E+03 0.  0.
         22    1    5    5    0    0 -0.44231956559E+03  0.65822249451E+02 -0.80162142330E+03  0.91791942616E+03  0.00000000000E+00 0. -1.
         22    1    5    5    0    0  0.33327649776E+03 -0.11717411904E+03 -0.88436663514E+03  0.95231682936E+03  0.00000000000E+00 0. -1.
          5    1    4    4  502    0  0.80149184304E+02 -0.30618584098E+02 -0.11146281144E+03  0.14073889928E+03  0.47000000000E+01 0. -1.
         -5    1    4    4    0  502  0.28893883520E+02  0.81970453685E+02 -0.91084405400E+02  0.12598599402E+03  0.47000000000E+01 0. -1.
<mgrwt>
<rscale>  0 0.10000187E+04</rscale>
<asrwt>0</asrwt>
<pdfrwt beam="1">  1        2 0.30965358E+00 0.10000187E+04</pdfrwt>
<pdfrwt beam="2">  1       -2 0.19109682E-01 0.10000187E+04</pdfrwt>
<totfact> 0.17832807E+02</totfact>
</mgrwt>
</event>
<event>
 9    1  0.4388925E-036  0.9990743E+03  0.7818608E-02  0.8681920E-01
         -2   -1    0    0    0  501 -0.00000000000E+00  0.00000000000E+00  0.15543412373E+03  0.15543412373E+03  0.00000000000E+00 0.  1.
          2   -1    0    0  501    0  0.00000000000E+00 -0.00000000000E+00 -0.16054220878E+04  0.16054220878E+04  0.00000000000E+00 0.  1.
         36    2    1    2    0    0  0.00000000000E+00  0.00000000000E+00 -0.14499879641E+04  0.17608562115E+04  0.99907432244E+03 0.  0.
         25    2    3    3    0    0 -0.66970955668E+02 -0.90359422697E+02 -0.12766936430E+03  0.21098317108E+03  0.12475775617E+03 0.  0.
         35    2    3    3    0    0  0.66970955668E+02  0.90359422697E+02 -0.13223185998E+04  0.15498730405E+04  0.80058105653E+03 0.  0.
         22    1    5    5    0    0  0.35723694282E+03  0.25288998223E+03 -0.97604714371E+03  0.10696913588E+04  0.00000000000E+00 0.  1.
         22    1    5    5    0    0 -0.29026598716E+03 -0.16253055953E+03 -0.34627145606E+03  0.48018168162E+03  0.00000000000E+00 0.  1.
          5    1    4    4  502    0  0.28047905737E+02  0.50924004477E+01 -0.61892022428E+01  0.29546806646E+02  0.47000000000E+01 0. -1.
         -5    1    4    4    0  502 -0.95018861405E+02 -0.95451823145E+02 -0.12148016206E+03  0.18143636443E+03  0.47000000000E+01 0. -1.
<mgrwt>
<rscale>  0 0.99907432E+03</rscale>
<asrwt>0</asrwt>
<pdfrwt beam="1">  1        2 0.24698799E+00 0.99907432E+03</pdfrwt>
<pdfrwt beam="2">  1       -2 0.23912944E-01 0.99907432E+03</pdfrwt>
<totfact> 0.20499706E+02</totfact>
</mgrwt>
</event>
<event>
 9    1  0.4388925E-036  0.9999746E+03  0.7818608E-02  0.8681062E-01
         -2   -1    0    0    0  501 -0.00000000000E+00  0.00000000000E+00  0.11650120444E+03  0.11650120444E+03  0.00000000000E+00 0.  1.
          2   -1    0    0  501    0  0.00000000000E+00 -0.00000000000E+00 -0.21457915519E+04  0.21457915519E+04  0.00000000000E+00 0.  1.
         36    2    1    2    0    0 -0.35527136788E-14  0.28421709430E-13 -0.20292903475E+04  0.22622927564E+04  0.99997460024E+03 0.  0.
         25    2    3    3    0    0 -0.47635390997E+01  0.11058324207E+03 -0.19417258558E+03  0.25625295920E+03  0.12534449081E+03 0.  0.
         35    2    3    3    0    0  0.47635390997E+01 -0.11058324207E+03 -0.18351177619E+04  0.20060397972E+04  0.80267497970E+03 0.  0.
         22    1    5    5    0    0  0.80543255077E+02  0.17037548958E+03 -0.16509235533E+04  0.16616448484E+04  0.00000000000E+00 0.  1.
         22    1    5    5    0    0 -0.75779715977E+02 -0.28095873165E+03 -0.18419420858E+03  0.34439494874E+03  0.00000000000E+00 0.  1.
          5    1    4    4  502    0  0.22352500915E+01  0.58091959081E+02 -0.19453246575E+03  0.20308776990E+03  0.47000000000E+01 0.  1.
         -5    1    4    4    0  502 -0.69987891912E+01  0.52491282985E+02  0.35988016705E+00  0.53165189300E+02  0.47000000000E+01 0.  1.
<mgrwt>
<rscale>  0 0.99997460E+03</rscale>
<asrwt>0</asrwt>
<pdfrwt beam="1">  1        2 0.33012173E+00 0.99997460E+03</pdfrwt>
<pdfrwt beam="2">  1       -2 0.17923265E-01 0.99997460E+03</pdfrwt>
<totfact> 0.16696839E+02</totfact>
</mgrwt>
</event>
<event>
 9    1  0.4388925E-036  0.9995632E+03  0.7818608E-02  0.8681454E-01
         -2   -1    0    0    0  501 -0.00000000000E+00  0.00000000000E+00  0.14772650180E+03  0.14772650180E+03  0.00000000000E+00 0.  1.
          2   -1    0    0  501    0  0.00000000000E+00 -0.00000000000E+00 -0.16908385034E+04  0.16908385034E+04  0.00000000000E+00 0.  1.
         36    2    1    2    0    0 -0.14210854715E-13  0.00000000000E+00 -0.15431120016E+04  0.18385650052E+04  0.99956321904E+03 0.  0.
         25    2    3    3    0    0 -0.56829298234E+02 -0.12388356355E+03 -0.34294937176E+03  0.38941508438E+03  0.12431061859E+03 0.  0.
         35    2    3    3    0    0  0.56829298234E+02  0.12388356355E+03 -0.12001626298E+04  0.14491499208E+04  0.80066750184E+03 0.  0.
         22    1    5    5    0    0  0.16885346467E+03 -0.22016520171E+03 -0.99551653734E+03  0.10334589419E+04  0.00000000000E+00 0. -1.
         22    1    5    5    0    0 -0.11202416644E+03  0.34404876526E+03 -0.20464609250E+03  0.41569097888E+03  0.00000000000E+00 0. -1.
          5    1    4    4  502    0 -0.29426183637E+02 -0.12658500260E+03 -0.33648769505E+03  0.36074329112E+03  0.47000000000E+01 0. -1.
         -5    1    4    4    0  502 -0.27403114597E+02  0.27014390578E+01 -0.64616767094E+01  0.28671793256E+02  0.47000000000E+01 0. -1.
<mgrwt>
<rscale>  0 0.99956322E+03</rscale>
<asrwt>0</asrwt>
<pdfrwt beam="1">  1        2 0.26012900E+00 0.99956322E+03</pdfrwt>
<pdfrwt beam="2">  1       -2 0.22727154E-01 0.99956322E+03</pdfrwt>
<totfact> 0.20066496E+02</totfact>
</mgrwt>
</event>
<event>
 9    1  0.4388925E-036  0.9992916E+03  0.7818608E-02  0.8681713E-01
         -2   -1    0    0    0  501 -0.00000000000E+00  0.00000000000E+00  0.24821268841E+03  0.24821268841E+03  0.00000000000E+00 0.  1.
          2   -1    0    0  501    0  0.00000000000E+00 -0.00000000000E+00 -0.10057742827E+04  0.10057742827E+04  0.00000000000E+00 0.  1.
         36    2    1    2    0    0  0.00000000000E+00  0.00000000000E+00 -0.75756159425E+03  0.12539869711E+04  0.99929162637E+03 0.  0.
         25    2    3    3    0    0  0.10607330186E+03  0.71299906918E+02 -0.71336479747E+02  0.19223264005E+03  0.12461650157E+03 0.  0.
         35    2    3    3    0    0 -0.10607330186E+03 -0.71299906918E+02 -0.68622511450E+03  0.10617543310E+04  0.80005132933E+03 0.  0.
         22    1    5    5    0    0 -0.34997112024E+03  0.23272416999E+03 -0.36606604472E+03  0.55735506941E+03  0.00000000000E+00 0. -1.
         22    1    5    5    0    0  0.24389781838E+03 -0.30402407690E+03 -0.32015906979E+03  0.50439926161E+03  0.00000000000E+00 0. -1.
          5    1    4    4  502    0  0.49807335614E+01 -0.32213036723E+02 -0.62996247605E+01  0.33530027048E+02  0.47000000000E+01 0. -1.
         -5    1    4    4    0  502  0.10109256830E+03  0.10351294364E+03 -0.65036854987E+02  0.15870261300E+03  0.47000000000E+01 0. -1.
<mgrwt>
<rscale>  0 0.99929163E+03</rscale>
<asrwt>0</asrwt>
<pdfrwt beam="1">  1        2 0.15473451E+00 0.99929163E+03</pdfrwt>
<pdfrwt beam="2">  1       -2 0.38186567E-01 0.99929163E+03</pdfrwt>
<totfact> 0.19542520E+02</totfact>
</mgrwt>
</event>
<event>
 9    1  0.4388925E-036  0.1000220E+04  0.7818608E-02  0.8680829E-01
          1   -1    0    0  501    0  0.00000000000E+00  0.00000000000E+00  0.10879302693E+04  0.10879302693E+04  0.00000000000E+00 0. -1.
         -1   -1    0    0    0  501 -0.00000000000E+00 -0.00000000000E+00 -0.22989519311E+03  0.22989519311E+03  0.00000000000E+00 0. -1.
         36    2    1    2    0    0 -0.28421709430E-13  0.14210854715E-13  0.85803507617E+03  0.13178254624E+04  0.10002198545E+04 0.  0.
         25    2    3    3    0    0  0.12853831686E+03 -0.39233000824E+02  0.11610816726E+03  0.21751074421E+03  0.12557264865E+03 0.  0.
         35    2    3    3    0    0 -0.12853831686E+03  0.39233000824E+02  0.74192690890E+03  0.11003147182E+04  0.80135860488E+03 0.  0.
         22    1    5    5    0    0  0.20423530756E+03  0.16844481765E+03 -0.13193648082E+02  0.26506563299E+03  0.00000000000E+00 0.  1.
         22    1    5    5    0    0 -0.33277362442E+03 -0.12921181682E+03  0.75512055699E+03  0.83524908518E+03  0.00000000000E+00 0.  1.
          5    1    4    4  502    0  0.21164831997E+02 -0.34690318240E+02  0.10088914049E+03  0.10886724467E+03  0.47000000000E+01 0.  1.
         -5    1    4    4    0  502  0.10737348486E+03 -0.45426825835E+01  0.15219026770E+02  0.10864349954E+03  0.47000000000E+01 0.  1.
<mgrwt>
<rscale>  0 0.10002199E+04</rscale>
<asrwt>0</asrwt>
<pdfrwt beam="1">  1        1 0.16737388E+00 0.10002199E+04</pdfrwt>
<pdfrwt beam="2">  1       -1 0.35368492E-01 0.10002199E+04</pdfrwt>
<totfact> 0.10961432E+02</totfact>
</mgrwt>
</event>
<event>
 9    1  0.4388925E-036  0.1000107E+04  0.7818608E-02  0.8680936E-01
          3   -1    0    0  501    0  0.00000000000E+00  0.00000000000E+00  0.86482544201E+03  0.86482544201E+03  0.00000000000E+00 0.  1.
         -3   -1    0    0    0  501 -0.00000000000E+00 -0.00000000000E+00 -0.28913769584E+03  0.28913769584E+03  0.00000000000E+00 0.  1.
         36    2    1    2    0    0 -0.35527136788E-14 -0.35527136788E-13  0.57568774617E+03  0.11539631379E+04  0.10001072655E+04 0.  0.
         25    2    3    3    0    0 -0.57822565777E+01  0.57410629880E+02 -0.39553373276E+02  0.14317797637E+03  0.12492417166E+03 0.  0.
         35    2    3    3    0    0  0.57822565777E+01 -0.57410629880E+02  0.61524111945E+03  0.10107851615E+04  0.79989723885E+03 0.  0.
         22    1    5    5    0    0  0.13232542396E+03  0.27685788249E+03  0.57415744106E+03  0.65101234400E+03  0.00000000000E+00 0. -1.
         22    1    5    5    0    0 -0.12654316738E+03 -0.33426851237E+03  0.41083678385E+02  0.35977281748E+03  0.00000000000E+00 0. -1.
          5    1    4    4  502    0 -0.33086064118E+02  0.53608035509E+02  0.28724399370E+02  0.69395174393E+02  0.47000000000E+01 0.  1.
         -5    1    4    4    0  502  0.27303807540E+02  0.38025943713E+01 -0.68277772646E+02  0.73782801978E+02  0.47000000000E+01 0.  1.
<mgrwt>
<rscale>  0 0.10001073E+04</rscale>
<asrwt>0</asrwt>
<pdfrwt beam="1">  1        3 0.13305007E+00 0.10001073E+04</pdfrwt>
<pdfrwt beam="2">  1       -3 0.44482723E-01 0.10001073E+04</pdfrwt>
<totfact> 0.92515053E+00</totfact>
</mgrwt>
</event>
<event>
 9    1  0.4388925E-036  0.1000253E+04  0.7818608E-02  0.8680797E-01
         -1   -1    0    0    0  501 -0.00000000000E+00  0.00000000000E+00  0.11289416382E+04  0.11289416382E+04  0.00000000000E+00 0. -1.
          1   -1    0    0  501    0  0.00000000000E+00 -0.00000000000E+00 -0.22155840608E+03  0.22155840608E+03  0.00000000000E+00 0. -1.
         36    2    1    2    0    0  0.14210854715E-13  0.14210854715E-13  0.90738323209E+03  0.13505000442E+04  0.10002529878E+04 0.  0.
         25    2    3    3    0    0  0.11901266454E+03  0.35540546001E+02  0.25741423125E+03  0.31202345134E+03  0.12517748603E+03 0.  0.
         35    2    3    3    0    0 -0.11901266454E+03 -0.35540546001E+02  0.64996900084E+03  0.10384765929E+04  0.80034166906E+03 0.  0.
         22    1    5    5    0    0 -0.17663658488E+03 -0.13225947857E+03 -0.12618741827E+03  0.25419739833E+03  0.00000000000E+00 0. -1.
         22    1    5    5    0    0  0.57623920342E+02  0.96718932566E+02  0.77615641911E+03  0.78427919457E+03  0.00000000000E+00 0. -1.
          5    1    4    4  502    0  0.75536285790E+02  0.29086004360E+02  0.40463263076E+02  0.90615074791E+02  0.47000000000E+01 0. -1.
         -5    1    4    4    0  502  0.43476378750E+02  0.64545416411E+01  0.21695096817E+03  0.22140837655E+03  0.47000000000E+01 0. -1.
<mgrwt>
<rscale>  0 0.10002530E+04</rscale>
<asrwt>0</asrwt>
<pdfrwt beam="1">  1        1 0.34085909E-01 0.10002530E+04</pdfrwt>
<pdfrwt beam="2">  1       -1 0.17368333E+00 0.10002530E+04</pdfrwt>
<totfact> 0.33777310E+01</totfact>
</mgrwt>
</event>
<event>
 9    1  0.4388925E-036  0.1000404E+04  0.7818608E-02  0.8680654E-01
          2   -1    0    0  501    0  0.00000000000E+00  0.00000000000E+00  0.16811916747E+04  0.16811916747E+04  0.00000000000E+00 0.  1.
         -2   -1    0    0    0  501 -0.00000000000E+00 -0.00000000000E+00 -0.14882407584E+03  0.14882407584E+03  0.00000000000E+00 0.  1.
         36    2    1    2    0    0  0.21316282073E-13  0.28421709430E-13  0.15323675989E+04  0.18300157506E+04  0.10004035132E+04 0.  0.
         25    2    3    3    0    0  0.55589017838E+02  0.55464933213E+02  0.80759724550E+02  0.17097770702E+03  0.12862637937E+03 0.  0.
         35    2    3    3    0    0 -0.55589017838E+02 -0.55464933213E+02  0.14516078743E+04  0.16590380435E+04  0.79942186069E+03 0.  0.
         22    1    5    5    0    0  0.11932395935E+03  0.30702088614E+03  0.32517178691E+03  0.46285713002E+03  0.00000000000E+00 0. -1.
         22    1    5    5    0    0 -0.17491297719E+03 -0.36248581936E+03  0.11264360874E+04  0.11961809135E+04  0.00000000000E+00 0. -1.
          5    1    4    4  502    0 -0.15391092381E+02  0.70184364446E+02  0.16228468464E+02  0.73811814272E+02  0.47000000000E+01 0. -1.
         -5    1    4    4    0  502  0.70980110218E+02 -0.14719431233E+02  0.64531256086E+02  0.97165892753E+02  0.47000000000E+01 0. -1.
<mgrwt>
<rscale>  0 0.10004035E+04</rscale>
<asrwt>0</asrwt>
<pdfrwt beam="1">  1        2 0.25864486E+00 0.10004035E+04</pdfrwt>
<pdfrwt beam="2">  1       -2 0.22896013E-01 0.10004035E+04</pdfrwt>
<totfact> 0.20056973E+02</totfact>
</mgrwt>
</event>
<event>
 9    1  0.4388925E-036  0.9994576E+03  0.7818608E-02  0.8681555E-01
         -2   -1    0    0    0  501 -0.00000000000E+00  0.00000000000E+00  0.25777582985E+03  0.25777582985E+03  0.00000000000E+00 0. -1.
          2   -1    0    0  501    0  0.00000000000E+00 -0.00000000000E+00 -0.96878306827E+03  0.96878306827E+03  0.00000000000E+00 0. -1.
         36    2    1    2    0    0 -0.71054273576E-14  0.00000000000E+00 -0.71100723842E+03  0.12265588981E+04  0.99945757163E+03 0.  0.
         25    2    3    3    0    0  0.27518872255E+02  0.12755080131E+03 -0.68262321712E+02  0.19264569331E+03  0.12420194579E+03 0.  0.
         35    2    3    3    0    0 -0.27518872255E+02 -0.12755080131E+03 -0.64274491671E+03  0.10339132048E+04  0.79926778485E+03 0.  0.
         22    1    5    5    0    0 -0.37481406480E+03 -0.20922583753E+03 -0.22532612953E+03  0.48480191720E+03  0.00000000000E+00 0.  1.
         22    1    5    5    0    0  0.34729519255E+03  0.81675036220E+02 -0.41741878717E+03  0.54911128762E+03  0.00000000000E+00 0.  1.
          5    1    4    4  502    0  0.64234810012E+02  0.12079199387E+03 -0.72285956636E+02  0.15480363732E+03  0.47000000000E+01 0. -1.
         -5    1    4    4    0  502 -0.36715937757E+02  0.67588074415E+01  0.40236349238E+01  0.37842055988E+02  0.47000000000E+01 0. -1.
<mgrwt>
<rscale>  0 0.99945757E+03</rscale>
<asrwt>0</asrwt>
<pdfrwt beam="1">  1        2 0.14904355E+00 0.99945757E+03</pdfrwt>
<pdfrwt beam="2">  1       -2 0.39657820E-01 0.99945757E+03</pdfrwt>
<totfact> 0.19190305E+02</totfact>
</mgrwt>
</event>
<event>
 9    1  0.4388925E-036  0.9993754E+03  0.7818608E-02  0.8681633E-01
          2   -1    0    0  501    0  0.00000000000E+00  0.00000000000E+00  0.26818883770E+04  0.26818883770E+04  0.00000000000E+00 0.  1.
         -2   -1    0    0    0  501 -0.00000000000E+00 -0.00000000000E+00 -0.93101492611E+02  0.93101492611E+02  0.00000000000E+00 0.  1.
         36    2    1    2    0    0  0.14210854715E-13  0.00000000000E+00  0.25887868844E+04  0.27749898696E+04  0.99937542679E+03 0.  0.
         25    2    3    3    0    0  0.66941875130E+02 -0.11874811091E+03  0.40741588251E+03  0.44739688810E+03  0.12487572088E+03 0.  0.
         35    2    3    3    0    0 -0.66941875130E+02  0.11874811091E+03  0.21813710019E+04  0.23275929815E+04  0.80045444047E+03 0.  0.
         22    1    5    5    0    0 -0.33853781075E+03  0.31179008394E+03  0.10132715660E+04  0.11128971975E+04  0.00000000000E+00 0.  1.
         22    1    5    5    0    0  0.27159593562E+03 -0.19304197302E+03  0.11680994359E+04  0.12146957840E+04  0.00000000000E+00 0.  1.
          5    1    4    4  502    0  0.92044666570E+01 -0.61451963675E+02  0.32712164376E+03  0.33300409286E+03  0.47000000000E+01 0.  1.
         -5    1    4    4    0  502  0.57737408473E+02 -0.57296147239E+02  0.80294238751E+02  0.11439279524E+03  0.47000000000E+01 0.  1.
<mgrwt>
<rscale>  0 0.99937543E+03</rscale>
<asrwt>0</asrwt>
<pdfrwt beam="1">  1        2 0.41259815E+00 0.99937543E+03</pdfrwt>
<pdfrwt beam="2">  1       -2 0.14323309E-01 0.99937543E+03</pdfrwt>
<totfact> 0.11612528E+02</totfact>
</mgrwt>
</event>
<event>
 9    1  0.4388925E-036  0.1000047E+04  0.7818608E-02  0.8680994E-01
          1   -1    0    0  501    0  0.00000000000E+00  0.00000000000E+00  0.74635178813E+03  0.74635178813E+03  0.00000000000E+00 0. -1.
         -1   -1    0    0    0  501 -0.00000000000E+00 -0.00000000000E+00 -0.33499385719E+03  0.33499385719E+03  0.00000000000E+00 0. -1.
         36    2    1    2    0    0 -0.14210854715E-13 -0.14210854715E-13  0.41135793094E+03  0.10813456453E+04  0.10000465276E+04 0.  0.
         25    2    3    3    0    0  0.52096633128E+02  0.11877793830E+03  0.18996205117E+02  0.18048999206E+03  0.12407063962E+03 0.  0.
         35    2    3    3    0    0 -0.52096633128E+02 -0.11877793830E+03  0.39236172582E+03  0.90085565325E+03  0.80048168392E+03 0.  0.
         22    1    5    5    0    0  0.21048816958E+03  0.23729842567E+03  0.12037742853E+02  0.31742829050E+03  0.00000000000E+00 0. -1.
         22    1    5    5    0    0 -0.26258480270E+03 -0.35607636396E+03  0.38032398297E+03  0.58342736275E+03  0.00000000000E+00 0. -1.
          5    1    4    4  502    0 -0.30785389691E+02  0.40946882399E+01  0.22881342045E+02  0.38860680693E+02  0.47000000000E+01 0. -1.
         -5    1    4    4    0  502  0.82882022819E+02  0.11468325006E+03 -0.38851369276E+01  0.14162931137E+03  0.47000000000E+01 0. -1.
<mgrwt>
<rscale>  0 0.10000465E+04</rscale>
<asrwt>0</asrwt>
<pdfrwt beam="1">  1        1 0.11482335E+00 0.10000465E+04</pdfrwt>
<pdfrwt beam="2">  1       -1 0.51537517E-01 0.10000465E+04</pdfrwt>
<totfact> 0.10702329E+02</totfact>
</mgrwt>
</event>
<event>
 9    1  0.4388925E-036  0.9998523E+03  0.7818608E-02  0.8681179E-01
          2   -1    0    0  501    0  0.00000000000E+00  0.00000000000E+00  0.29395943790E+03  0.29395943790E+03  0.00000000000E+00 0. -1.
         -2   -1    0    0    0  501 -0.00000000000E+00 -0.00000000000E+00 -0.85020632967E+03  0.85020632967E+03  0.00000000000E+00 0. -1.
         36    2    1    2    0    0  0.00000000000E+00  0.00000000000E+00 -0.55624689176E+03  0.11441657676E+04  0.99985233864E+03 0.  0.
         25    2    3    3    0    0 -0.37096284952E+02  0.33160976118E+02  0.44041969399E+02  0.14528711166E+03  0.12920087094E+03 0.  0.
         35    2    3    3    0    0  0.37096284952E+02 -0.33160976118E+02 -0.60028886116E+03  0.99887865591E+03  0.79682875683E+03 0.  0.
         22    1    5    5    0    0  0.90524475816E+02  0.83560062593E+02 -0.77352022131E+03  0.78326910929E+03  0.00000000000E+00 0.  1.
         22    1    5    5    0    0 -0.53428190864E+02 -0.11672103871E+03  0.17323136015E+03  0.21560954663E+03  0.00000000000E+00 0.  1.
          5    1    4    4  502    0 -0.64666372465E+02  0.63480170589E+02  0.50011918933E+02  0.10360865708E+03  0.47000000000E+01 0.  1.
         -5    1    4    4    0  502  0.27570087514E+02 -0.30319194471E+02 -0.59699495336E+01  0.41678454581E+02  0.47000000000E+01 0.  1.
<mgrwt>
<rscale>  0 0.99985234E+03</rscale>
<asrwt>0</asrwt>
<pdfrwt beam="1">  1        2 0.45224529E-01 0.99985234E+03</pdfrwt>
<pdfrwt beam="2">  1       -2 0.13080097E+00 0.99985234E+03</pdfrwt>
<totfact> 0.55409311E+01</totfact>
</mgrwt>
</event>
<event>
 9    1  0.4388925E-036  0.9957300E+03  0.7818608E-02  0.8685115E-01
         -3   -1    0    0    0  501 -0.00000000000E+00  0.00000000000E+00  0.34358985978E+03  0.34358985978E+03  0.00000000000E+00 0. -1.
          3   -1    0    0  501    0  0.00000000000E+00 -0.00000000000E+00 -0.72141111596E+03  0.72141111596E+03  0.00000000000E+00 0. -1.
         36    2    1    2    0    0 -0.17763568394E-13  0.00000000000E+00 -0.37782125618E+03  0.10650009757E+04  0.99572997178E+03 0.  0.
         25    2    3    3    0    0  0.81283144449E+01  0.73364986423E+02  0.51821726714E+02  0.15390291427E+03  0.12470815905E+03 0.  0.
         35    2    3    3    0    0 -0.81283144449E+01 -0.73364986423E+02 -0.42964298290E+03  0.91109806147E+03  0.80003630800E+03 0.  0.
         22    1    5    5    0    0 -0.24124057258E+03  0.48753171052E+02 -0.56419002399E+03  0.61553575747E+03  0.00000000000E+00 0.  1.
         22    1    5    5    0    0  0.23311225814E+03 -0.12211815747E+03  0.13454704110E+03  0.29556230400E+03  0.00000000000E+00 0.  1.
          5    1    4    4  502    0 -0.25536185257E+02  0.78512335500E+02 -0.98674758838E+01  0.83281094274E+02  0.47000000000E+01 0.  1.
         -5    1    4    4    0  502  0.33664499702E+02 -0.51473490780E+01  0.61689202598E+02  0.70621819998E+02  0.47000000000E+01 0.  1.
<mgrwt>
<rscale>  0 0.99572997E+03</rscale>
<asrwt>0</asrwt>
<pdfrwt beam="1">  1        3 0.11098632E+00 0.99572997E+03</pdfrwt>
<pdfrwt beam="2">  1       -3 0.52859979E-01 0.99572997E+03</pdfrwt>
<totfact> 0.10115533E+01</totfact>
</mgrwt>
</event>
<event>
 9    1  0.4388925E-036  0.9978859E+03  0.7818608E-02  0.8683054E-01
         -1   -1    0    0    0  501 -0.00000000000E+00  0.00000000000E+00  0.98570256048E+03  0.98570256048E+03  0.00000000000E+00 0.  1.
          1   -1    0    0  501    0  0.00000000000E+00 -0.00000000000E+00 -0.25255495656E+03  0.25255495656E+03  0.00000000000E+00 0.  1.
         36    2    1    2    0    0 -0.35527136788E-14  0.00000000000E+00  0.73314760392E+03  0.12382575170E+04  0.99788589998E+03 0.  0.
         25    2    3    3    0    0  0.28557017903E+02  0.75513884763E+02  0.26519992117E+03  0.30463151239E+03  0.12629928774E+03 0.  0.
         35    2    3    3    0    0 -0.28557017903E+02 -0.75513884763E+02  0.46794768274E+03  0.93362600466E+03  0.80384366187E+03 0.  0.
         22    1    5    5    0    0  0.35508945677E+03 -0.11808030226E+03  0.38873800586E+03  0.53958198384E+03  0.00000000000E+00 0. -1.
         22    1    5    5    0    0 -0.38364647467E+03  0.42566417493E+02  0.79209676886E+02  0.39404402081E+03  0.00000000000E+00 0. -1.
          5    1    4    4  502    0  0.57322474592E+02  0.90921105030E+02  0.14858006615E+03  0.18344110632E+03  0.47000000000E+01 0. -1.
         -5    1    4    4    0  502 -0.28765456689E+02 -0.15407220267E+02  0.11661985503E+03  0.12119040606E+03  0.47000000000E+01 0. -1.
<mgrwt>
<rscale>  0 0.99788590E+03</rscale>
<asrwt>0</asrwt>
<pdfrwt beam="1">  1        1 0.38854609E-01 0.99788590E+03</pdfrwt>
<pdfrwt beam="2">  1       -1 0.15164655E+00 0.99788590E+03</pdfrwt>
<totfact> 0.43580235E+01</totfact>
</mgrwt>
</event>
<event>
 9    1  0.4388925E-036  0.9998554E+03  0.7818608E-02  0.8681176E-01
         -2   -1    0    0    0  501 -0.00000000000E+00  0.00000000000E+00  0.97756793259E+02  0.97756793259E+02  0.00000000000E+00 0.  1.
          2   -1    0    0  501    0  0.00000000000E+00 -0.00000000000E+00 -0.25566274314E+04  0.25566274314E+04  0.00000000000E+00 0.  1.
         36    2    1    2    0    0  0.00000000000E+00  0.00000000000E+00 -0.24588706381E+04  0.26543842247E+04  0.99985538805E+03 0.  0.
         25    2    3    3    0    0  0.13399584423E+02 -0.10257018707E+03 -0.71165915243E+03  0.72997728100E+03  0.12533111904E+03 0.  0.
         35    2    3    3    0    0 -0.13399584423E+02  0.10257018707E+03 -0.17472114857E+04  0.19244069437E+04  0.79993369529E+03 0.  0.
         22    1    5    5    0    0  0.21112642136E+03  0.77547553481E+02 -0.16708708731E+04  0.16859411209E+04  0.00000000000E+00 0. -1.
         22    1    5    5    0    0 -0.22452600579E+03  0.25022633591E+02 -0.76340612664E+02  0.23846582273E+03  0.00000000000E+00 0. -1.
          5    1    4    4  502    0 -0.38381478697E+02 -0.24788939299E+02 -0.44533754527E+03  0.44769995381E+03  0.47000000000E+01 0.  1.
         -5    1    4    4    0  502  0.51781063120E+02 -0.77781247773E+02 -0.26632160716E+03  0.28227732719E+03  0.47000000000E+01 0.  1.
<mgrwt>
<rscale>  0 0.99985539E+03</rscale>
<asrwt>0</asrwt>
<pdfrwt beam="1">  1        2 0.39332729E+00 0.99985539E+03</pdfrwt>
<pdfrwt beam="2">  1       -2 0.15039507E-01 0.99985539E+03</pdfrwt>
<totfact> 0.12801965E+02</totfact>
</mgrwt>
</event>
<event>
 9    1  0.4388925E-036  0.9997848E+03  0.7818608E-02  0.8681243E-01
         -4   -1    0    0    0  501 -0.00000000000E+00  0.00000000000E+00  0.60505702501E+03  0.60505702501E+03  0.00000000000E+00 0.  1.
          4   -1    0    0  501    0  0.00000000000E+00 -0.00000000000E+00 -0.41300635589E+03  0.41300635589E+03  0.00000000000E+00 0.  1.
         36    2    1    2    0    0 -0.28421709430E-13  0.35527136788E-14  0.19205066911E+03  0.10180633809E+04  0.99978477085E+03 0.  0.
         25    2    3    3    0    0  0.83658994074E+02 -0.13033253004E+02 -0.70710032542E+02  0.16688366219E+03  0.12522601579E+03 0.  0.
         35    2    3    3    0    0 -0.83658994074E+02  0.13033253004E+02  0.26276070166E+03  0.85117971871E+03  0.80516770566E+03 0.  0.
         22    1    5    5    0    0 -0.44422403427E+03 -0.32837176674E+02  0.12706695479E+03  0.46320544448E+03  0.00000000000E+00 0.  1.
         22    1    5    5    0    0  0.36056504020E+03  0.45870429677E+02  0.13569374687E+03  0.38797427424E+03  0.00000000000E+00 0.  1.
          5    1    4    4  502    0  0.30883410048E+02  0.19540317576E+02  0.30672916357E+02  0.47942953861E+02  0.47000000000E+01 0.  1.
         -5    1    4    4    0  502  0.52775584027E+02 -0.32573570580E+02 -0.10138294890E+03  0.11894070833E+03  0.47000000000E+01 0.  1.
<mgrwt>
<rscale>  0 0.99978477E+03</rscale>
<asrwt>0</asrwt>
<pdfrwt beam="1">  1        4 0.63539439E-01 0.99978477E+03</pdfrwt>
<pdfrwt beam="2">  1       -4 0.93085696E-01 0.99978477E+03</pdfrwt>
<totfact> 0.51350297E+00</totfact>
</mgrwt>
</event>
<event>
 9    1  0.4388925E-036  0.9926540E+03  0.7818608E-02  0.8688065E-01
          2   -1    0    0  501    0  0.00000000000E+00  0.00000000000E+00  0.96971338250E+03  0.96971338250E+03  0.00000000000E+00 0. -1.
         -2   -1    0    0    0  501 -0.00000000000E+00 -0.00000000000E+00 -0.25403433626E+03  0.25403433626E+03  0.00000000000E+00 0. -1.
         36    2    1    2    0    0 -0.28421709430E-13 -0.28421709430E-13  0.71567904624E+03  0.12237477188E+04  0.99265400918E+03 0.  0.
         25    2    3    3    0    0  0.66397994177E+02  0.11314869876E+03  0.14950318680E+03  0.23481044165E+03  0.12479350537E+03 0.  0.
         35    2    3    3    0    0 -0.66397994177E+02 -0.11314869876E+03  0.56617585944E+03  0.98893727710E+03  0.80014405738E+03 0.  0.
         22    1    5    5    0    0  0.41149900212E+02 -0.26104113800E+03  0.70916736213E+03  0.75680521769E+03  0.00000000000E+00 0.  1.
         22    1    5    5    0    0 -0.10754789439E+03  0.14789243923E+03 -0.14299150268E+03  0.23213205942E+03  0.00000000000E+00 0.  1.
          5    1    4    4  502    0  0.86202175122E+02  0.26547476942E+02  0.58864057647E+02  0.10780839861E+03  0.47000000000E+01 0. -1.
         -5    1    4    4    0  502 -0.19804180945E+02  0.86601221823E+02  0.90639129152E+02  0.12700204304E+03  0.47000000000E+01 0. -1.
<mgrwt>
<rscale>  0 0.99265401E+03</rscale>
<asrwt>0</asrwt>
<pdfrwt beam="1">  1        2 0.14918667E+00 0.99265401E+03</pdfrwt>
<pdfrwt beam="2">  1       -2 0.39082206E-01 0.99265401E+03</pdfrwt>
<totfact> 0.19707655E+02</totfact>
</mgrwt>
</event>
<event>
 9    1  0.4388925E-036  0.1011543E+04  0.7818608E-02  0.8670123E-01
          2   -1    0    0  501    0  0.00000000000E+00  0.00000000000E+00  0.10697948276E+04  0.10697948276E+04  0.00000000000E+00 0.  1.
         -2   -1    0    0    0  501 -0.00000000000E+00 -0.00000000000E+00 -0.23911572074E+03  0.23911572074E+03  0.00000000000E+00 0.  1.
         36    2    1    2    0    0  0.14210854715E-13  0.14210854715E-13  0.83067910691E+03  0.13089105484E+04  0.10115429032E+04 0.  0.
         25    2    3    3    0    0  0.71312297038E+02  0.71254255328E+02  0.31005006488E+03  0.34898101078E+03  0.12447526076E+03 0.  0.
         35    2    3    3    0    0 -0.71312297038E+02 -0.71254255328E+02  0.52062904203E+03  0.95992953761E+03  0.80015467578E+03 0.  0.
         22    1    5    5    0    0 -0.19011411949E+03  0.23858396734E+03 -0.40783823526E+02  0.30778077939E+03  0.00000000000E+00 0.  1.
         22    1    5    5    0    0  0.11880182245E+03 -0.30983822267E+03  0.56141286556E+03  0.65214875822E+03  0.00000000000E+00 0.  1.
          5    1    4    4  502    0  0.83036336738E+02  0.98464881165E+02  0.23258907188E+03  0.26591376873E+03  0.47000000000E+01 0. -1.
         -5    1    4    4    0  502 -0.11724039700E+02 -0.27210625837E+02  0.77460992994E+02  0.83067242045E+02  0.47000000000E+01 0. -1.
<mgrwt>
<rscale>  0 0.10115429E+04</rscale>
<asrwt>0</asrwt>
<pdfrwt beam="1">  1        2 0.16458382E+00 0.10115429E+04</pdfrwt>
<pdfrwt beam="2">  1       -2 0.36787035E-01 0.10115429E+04</pdfrwt>
<totfact> 0.19139015E+02</totfact>
</mgrwt>
</event>
<event>
 9    1  0.4388925E-036  0.1000004E+04  0.7818608E-02  0.8681034E-01
          2   -1    0    0  501    0  0.00000000000E+00  0.00000000000E+00  0.10476505558E+04  0.10476505558E+04  0.00000000000E+00 0.  1.
         -2   -1    0    0    0  501 -0.00000000000E+00 -0.00000000000E+00 -0.23863123709E+03  0.23863123709E+03  0.00000000000E+00 0.  1.
         36    2    1    2    0    0 -0.14210854715E-13  0.14210854715E-13  0.80901931868E+03  0.12862817929E+04  0.10000042963E+04 0.  0.
         25    2    3    3    0    0 -0.65514574047E+02 -0.96606010369E+02  0.55000704277E+02  0.17983267524E+03  0.12525906339E+03 0.  0.
         35    2    3    3    0    0  0.65514574047E+02  0.96606010369E+02  0.75401861440E+03  0.11064491176E+04  0.80128690141E+03 0.  0.
         22    1    5    5    0    0  0.20172780206E+03  0.29187581938E+03  0.43933773041E+02  0.35751332350E+03  0.00000000000E+00 0.  1.
         22    1    5    5    0    0 -0.13621322801E+03 -0.19526980901E+03  0.71008484136E+03  0.74893579413E+03  0.00000000000E+00 0.  1.
          5    1    4    4  502    0  0.24830221521E+02 -0.84128911237E+01  0.46020049108E+02  0.53171905718E+02  0.47000000000E+01 0.  1.
         -5    1    4    4    0  502 -0.90344795568E+02 -0.88193119245E+02  0.89806551688E+01  0.12666076952E+03  0.47000000000E+01 0.  1.
<mgrwt>
<rscale>  0 0.10000043E+04</rscale>
<asrwt>0</asrwt>
<pdfrwt beam="1">  1        2 0.16117701E+00 0.10000043E+04</pdfrwt>
<pdfrwt beam="2">  1       -2 0.36712499E-01 0.10000043E+04</pdfrwt>
<totfact> 0.19826286E+02</totfact>
</mgrwt>
</event>
<event>
 9    1  0.4388925E-036  0.1000516E+04  0.7818608E-02  0.8680547E-01
          2   -1    0    0  501    0  0.00000000000E+00  0.00000000000E+00  0.14848264983E+04  0.14848264983E+04  0.00000000000E+00 0. -1.
         -2   -1    0    0    0  501 -0.00000000000E+00 -0.00000000000E+00 -0.16854364720E+03  0.16854364720E+03  0.00000000000E+00 0. -1.
         36    2    1    2    0    0 -0.71054273576E-14  0.00000000000E+00  0.13162828511E+04  0.16533701455E+04  0.10005160138E+04 0.  0.
         25    2    3    3    0    0  0.22027302459E+02 -0.14586961163E+03  0.26976080292E+03  0.33176239567E+03  0.12462845075E+03 0.  0.
         35    2    3    3    0    0 -0.22027302459E+02  0.14586961163E+03  0.10465220482E+04  0.13216077499E+04  0.79352095212E+03 0.  0.
         22    1    5    5    0    0 -0.20771462508E+03  0.42096425365E+03  0.68968131142E+03  0.83427608119E+03  0.00000000000E+00 0. -1.
         22    1    5    5    0    0  0.18568732262E+03 -0.27509464202E+03  0.35684073678E+03  0.48733166866E+03  0.00000000000E+00 0. -1.
          5    1    4    4  502    0  0.48362826532E+02 -0.78914930328E+02  0.61120221382E+02  0.11101486694E+03  0.47000000000E+01 0.  1.
         -5    1    4    4    0  502 -0.26335524073E+02 -0.66954681299E+02  0.20864058154E+03  0.22074752873E+03  0.47000000000E+01 0.  1.
<mgrwt>
<rscale>  0 0.10005160E+04</rscale>
<asrwt>0</asrwt>
<pdfrwt beam="1">  1        2 0.22843484E+00 0.10005160E+04</pdfrwt>
<pdfrwt beam="2">  1       -2 0.25929793E-01 0.10005160E+04</pdfrwt>
<totfact> 0.20774338E+02</totfact>
</mgrwt>
</event>
<event>
 9    1  0.4388925E-036  0.9996861E+03  0.7818608E-02  0.8681337E-01
         -1   -1    0    0    0  501 -0.00000000000E+00  0.00000000000E+00  0.33887424051E+03  0.33887424051E+03  0.00000000000E+00 0.  1.
          1   -1    0    0  501    0  0.00000000000E+00 -0.00000000000E+00 -0.73727373111E+03  0.73727373111E+03  0.00000000000E+00 0.  1.
         36    2    1    2    0    0  0.00000000000E+00 -0.71054273576E-14 -0.39839949061E+03  0.10761479716E+04  0.99968610209E+03 0.  0.
         25    2    3    3    0    0  0.14825834794E+03 -0.50763721844E+01 -0.93328615875E+02  0.20745554601E+03  0.11100119702E+03 0.  0.
         35    2    3    3    0    0 -0.14825834794E+03  0.50763721844E+01 -0.30507087473E+03  0.86869242561E+03  0.79971994124E+03 0.  0.
         22    1    5    5    0    0  0.22620332331E+03  0.21997699051E+03  0.37230685136E+02  0.31771676655E+03  0.00000000000E+00 0.  1.
         22    1    5    5    0    0 -0.37446167125E+03 -0.21490061832E+03 -0.34230155987E+03  0.55097565907E+03  0.00000000000E+00 0.  1.
          5    1    4    4  502    0  0.10099443195E+03  0.11832000620E+02 -0.11411751660E+03  0.15292079361E+03  0.47000000000E+01 0. -1.
         -5    1    4    4    0  502  0.47263915999E+02 -0.16908372804E+02  0.20788900722E+02  0.54534752403E+02  0.47000000000E+01 0. -1.
<mgrwt>
<rscale>  0 0.99968610E+03</rscale>
<asrwt>0</asrwt>
<pdfrwt beam="1">  1        1 0.11342673E+00 0.99968610E+03</pdfrwt>
<pdfrwt beam="2">  1       -1 0.52134499E-01 0.99968610E+03</pdfrwt>
<totfact> 0.10679267E+02</totfact>
</mgrwt>
</event>
<event>
 9    1  0.4388925E-036  0.9998600E+03  0.7818608E-02  0.8681171E-01
          2   -1    0    0  501    0  0.00000000000E+00  0.00000000000E+00  0.83083119151E+03  0.83083119151E+03  0.00000000000E+00 0.  1.
         -2   -1    0    0    0  501 -0.00000000000E+00 -0.00000000000E+00 -0.30081926627E+03  0.30081926627E+03  0.00000000000E+00 0.  1.
         36    2    1    2    0    0 -0.28421709430E-13  0.71054273576E-14  0.53001192524E+03  0.11316504578E+04  0.99986004906E+03 0.  0.
         25    2    3    3    0    0 -0.13441977204E+03 -0.38198843511E+02  0.99511736719E+02  0.21214018433E+03  0.12479200816E+03 0.  0.
         35    2    3    3    0    0  0.13441977204E+03  0.38198843511E+02  0.43050018852E+03  0.91951027345E+03  0.80040046471E+03 0.  0.
         22    1    5    5    0    0 -0.20850331561E+03  0.26121073239E+03  0.12205450792E+02  0.33444529054E+03  0.00000000000E+00 0.  1.
         22    1    5    5    0    0  0.34292308765E+03 -0.22301188888E+03  0.41829473773E+03  0.58506498292E+03  0.00000000000E+00 0.  1.
          5    1    4    4  502    0  0.11422334283E+02 -0.36353447878E+01  0.53877746979E+02  0.55394828925E+02  0.47000000000E+01 0. -1.
         -5    1    4    4    0  502 -0.14584210633E+03 -0.34563498724E+02  0.45633989740E+02  0.15674535541E+03  0.47000000000E+01 0. -1.
<mgrwt>
<rscale>  0 0.99986005E+03</rscale>
<asrwt>0</asrwt>
<pdfrwt beam="1">  1        2 0.12782018E+00 0.99986005E+03</pdfrwt>
<pdfrwt beam="2">  1       -2 0.46279887E-01 0.99986005E+03</pdfrwt>
<totfact> 0.17539173E+02</totfact>
</mgrwt>
</event>
<event>
 9    1  0.4388925E-036  0.1000018E+04  0.7818608E-02  0.8681021E-01
          2   -1    0    0  501    0  0.00000000000E+00  0.00000000000E+00  0.27289266048E+04  0.27289266048E+04  0.00000000000E+00 0. -1.
         -2   -1    0    0    0  501 -0.00000000000E+00 -0.00000000000E+00 -0.91614468016E+02  0.91614468016E+02  0.00000000000E+00 0. -1.
         36    2    1    2    0    0  0.00000000000E+00 -0.28421709430E-13  0.26373121368E+04  0.28205410728E+04  0.10000183181E+04 0.  0.
         25    2    3    3    0    0  0.10963752937E+03  0.85784829829E+02  0.45726765974E+03  0.49410493054E+03  0.12516606916E+03 0.  0.
         35    2    3    3    0    0 -0.10963752937E+03 -0.85784829829E+02  0.21800444770E+04  0.23264361422E+04  0.80020733394E+03 0.  0.
         22    1    5    5    0    0 -0.19821927511E+03  0.29233435493E+03  0.15210662753E+04  0.15615354206E+04  0.00000000000E+00 0.  1.
         22    1    5    5    0    0  0.88581745741E+02 -0.37811918476E+03  0.65897820177E+03  0.76490072164E+03  0.00000000000E+00 0.  1.
          5    1    4    4  502    0  0.11726096522E+03  0.18027701060E+02  0.28134624822E+03  0.30537343263E+03  0.47000000000E+01 0.  1.
         -5    1    4    4    0  502 -0.76234358475E+01  0.67757128769E+02  0.17592141152E+03  0.18873149792E+03  0.47000000000E+01 0.  1.
<mgrwt>
<rscale>  0 0.10000183E+04</rscale>
<asrwt>0</asrwt>
<pdfrwt beam="1">  1        2 0.41983480E+00 0.10000183E+04</pdfrwt>
<pdfrwt beam="2">  1       -2 0.14094536E-01 0.10000183E+04</pdfrwt>
<totfact> 0.11141045E+02</totfact>
</mgrwt>
</event>
<event>
 9    1  0.4388925E-036  0.1000442E+04  0.7818608E-02  0.8680617E-01
         -2   -1    0    0    0  501 -0.00000000000E+00  0.00000000000E+00  0.17670482854E+03  0.17670482854E+03  0.00000000000E+00 0. -1.
          2   -1    0    0  501    0  0.00000000000E+00 -0.00000000000E+00 -0.14160389126E+04  0.14160389126E+04  0.00000000000E+00 0. -1.
         36    2    1    2    0    0  0.28421709430E-13  0.24868995752E-13 -0.12393340841E+04  0.15927437412E+04  0.10004417290E+04 0.  0.
         25    2    3    3    0    0 -0.13922102237E+03  0.42468997153E+01 -0.26968199374E+03  0.32820697811E+03  0.12486357958E+03 0.  0.
         35    2    3    3    0    0  0.13922102237E+03 -0.42468997153E+01 -0.96965209037E+03  0.12645367631E+04  0.79964211971E+03 0.  0.
         22    1    5    5    0    0  0.66025308159E+02 -0.40193081690E+03 -0.48741013022E+03  0.63519788880E+03  0.00000000000E+00 0.  1.
         22    1    5    5    0    0  0.73195714211E+02  0.39768391718E+03 -0.48224196015E+03  0.62933887429E+03  0.00000000000E+00 0.  1.
          5    1    4    4  502    0 -0.53502108590E+01  0.37283403963E+01 -0.14494756450E+03  0.14517028530E+03  0.47000000000E+01 0. -1.
         -5    1    4    4    0  502 -0.13387081151E+03  0.51855931901E+00 -0.12473442923E+03  0.18303669281E+03  0.47000000000E+01 0. -1.
<mgrwt>
<rscale>  0 0.10004417E+04</rscale>
<asrwt>0</asrwt>
<pdfrwt beam="1">  1        2 0.21785213E+00 0.10004417E+04</pdfrwt>
<pdfrwt beam="2">  1       -2 0.27185359E-01 0.10004417E+04</pdfrwt>
<totfact> 0.20887789E+02</totfact>
</mgrwt>
</event>
<event>
 9    1  0.4388925E-036  0.1000564E+04  0.7818608E-02  0.8680501E-01
         -2   -1    0    0    0  501 -0.00000000000E+00  0.00000000000E+00  0.30106976663E+03  0.30106976663E+03  0.00000000000E+00 0. -1.
          2   -1    0    0  501    0  0.00000000000E+00 -0.00000000000E+00 -0.83130894541E+03  0.83130894541E+03  0.00000000000E+00 0. -1.
         36    2    1    2    0    0  0.24868995752E-13 -0.28421709430E-13 -0.53023917879E+03  0.11323787120E+04  0.10005638214E+04 0.  0.
         25    2    3    3    0    0 -0.59436391266E+01  0.13667825845E+03 -0.62882079293E+02  0.19606889542E+03  0.12558894329E+03 0.  0.
         35    2    3    3    0    0  0.59436391266E+01 -0.13667825845E+03 -0.46735709950E+03  0.93630981662E+03  0.79971066084E+03 0.  0.
         22    1    5    5    0    0  0.32711451533E+03 -0.13472447899E+03  0.18088675857E+02  0.35423409149E+03  0.00000000000E+00 0. -1.
         22    1    5    5    0    0 -0.32117087620E+03 -0.19537794535E+01 -0.48544577535E+03  0.58207572513E+03  0.00000000000E+00 0. -1.
          5    1    4    4  502    0  0.26143391854E+02  0.10579108281E+03 -0.91964082837E+02  0.14266994313E+03  0.47000000000E+01 0. -1.
         -5    1    4    4    0  502 -0.32087030981E+02  0.30887175631E+02  0.29082003544E+02  0.53398952290E+02  0.47000000000E+01 0. -1.
<mgrwt>
<rscale>  0 0.10005638E+04</rscale>
<asrwt>0</asrwt>
<pdfrwt beam="1">  1        2 0.12789368E+00 0.10005638E+04</pdfrwt>
<pdfrwt beam="2">  1       -2 0.46318426E-01 0.10005638E+04</pdfrwt>
<totfact> 0.17497004E+02</totfact>
</mgrwt>
</event>
<event>
 9    1  0.4388925E-036  0.1009463E+04  0.7818608E-02  0.8672079E-01
          1   -1    0    0  501    0  0.00000000000E+00  0.00000000000E+00  0.13687093394E+04  0.13687093394E+04  0.00000000000E+00 0.  1.
         -1   -1    0    0    0  501 -0.00000000000E+00 -0.00000000000E+00 -0.18612699757E+03  0.18612699757E+03  0.00000000000E+00 0.  1.
         36    2    1    2    0    0  0.00000000000E+00  0.00000000000E+00  0.11825823418E+04  0.15548363370E+04  0.10094627480E+04 0.  0.
         25    2    3    3    0    0 -0.92383835563E+02  0.98318891198E+02  0.33257177732E+03  0.38012850838E+03  0.12526898407E+03 0.  0.
         35    2    3    3    0    0  0.92383835563E+02 -0.98318891198E+02  0.85001056452E+03  0.11747078286E+04  0.79951181689E+03 0.  0.
         22    1    5    5    0    0  0.12697973540E+03  0.10461819568E+03  0.93691535643E+03  0.95125138906E+03  0.00000000000E+00 0. -1.
         22    1    5    5    0    0 -0.34595899833E+02 -0.20293708687E+03 -0.86904791914E+02  0.22345643954E+03  0.00000000000E+00 0. -1.
          5    1    4    4  502    0  0.59583159974E+01  0.83858486723E+02  0.16481831184E+03  0.18508082895E+03  0.47000000000E+01 0. -1.
         -5    1    4    4    0  502 -0.98342151560E+02  0.14460404475E+02  0.16775346548E+03  0.19504767943E+03  0.47000000000E+01 0. -1.
<mgrwt>
<rscale>  0 0.10094627E+04</rscale>
<asrwt>0</asrwt>
<pdfrwt beam="1">  1        1 0.21057066E+00 0.10094627E+04</pdfrwt>
<pdfrwt beam="2">  1       -1 0.28634924E-01 0.10094627E+04</pdfrwt>
<totfact> 0.97489108E+01</totfact>
</mgrwt>
</event>
<event>
 9    1  0.4388925E-036  0.9997674E+03  0.7818608E-02  0.8681260E-01
          2   -1    0    0  501    0  0.00000000000E+00  0.00000000000E+00  0.90434211536E+03  0.90434211536E+03  0.00000000000E+00 0. -1.
         -2   -1    0    0    0  501 -0.00000000000E+00 -0.00000000000E+00 -0.27631545164E+03  0.27631545164E+03  0.00000000000E+00 0. -1.
         36    2    1    2    0    0 -0.56843418861E-13  0.00000000000E+00  0.62802666372E+03  0.11806575670E+04  0.99976737303E+03 0.  0.
         25    2    3    3    0    0 -0.79744278729E+02 -0.54349331942E+02  0.23779979594E+03  0.28564896421E+03  0.12543359968E+03 0.  0.
         35    2    3    3    0    0  0.79744278729E+02  0.54349331942E+02  0.39022686778E+03  0.89500860280E+03  0.79965642052E+03 0.  0.
         22    1    5    5    0    0 -0.28491913752E+03 -0.46462673028E+02 -0.72155977252E+02  0.29756374101E+03  0.00000000000E+00 0. -1.
         22    1    5    5    0    0  0.36466341625E+03  0.10081200497E+03  0.46238284503E+03  0.59744486179E+03  0.00000000000E+00 0. -1.
          5    1    4    4  502    0  0.54210652375E+00  0.77631925008E+01 -0.12529922450E+02  0.15480632865E+02  0.47000000000E+01 0. -1.
         -5    1    4    4    0  502 -0.80286385252E+02 -0.62112524443E+02  0.25032971839E+03  0.27016833134E+03  0.47000000000E+01 0. -1.
<mgrwt>
<rscale>  0 0.99976737E+03</rscale>
<asrwt>0</asrwt>
<pdfrwt beam="1">  1        2 0.13912955E+00 0.99976737E+03</pdfrwt>
<pdfrwt beam="2">  1       -2 0.42510070E-01 0.99976737E+03</pdfrwt>
<totfact> 0.18480973E+02</totfact>
</mgrwt>
</event>
<event>
 9    1  0.4388925E-036  0.9993017E+03  0.7818608E-02  0.8681703E-01
          2   -1    0    0  501    0  0.00000000000E+00  0.00000000000E+00  0.58418249979E+03  0.58418249979E+03  0.00000000000E+00 0.  1.
         -2   -1    0    0    0  501 -0.00000000000E+00 -0.00000000000E+00 -0.42735099608E+03  0.42735099608E+03  0.00000000000E+00 0.  1.
         36    2    1    2    0    0  0.28421709430E-13  0.00000000000E+00  0.15683150370E+03  0.10115334959E+04  0.99930170255E+03 0.  0.
         25    2    3    3    0    0 -0.76547835390E+02 -0.11950891998E+02 -0.86471039697E+02  0.17260007234E+03  0.12771511008E+03 0.  0.
         35    2    3    3    0    0  0.76547835390E+02  0.11950891998E+02  0.24330254340E+03  0.83893342354E+03  0.79913125741E+03 0.  0.
         22    1    5    5    0    0  0.25666071379E+03 -0.46863237706E+02  0.47360024685E+03  0.54071071643E+03  0.00000000000E+00 0. -1.
         22    1    5    5    0    0 -0.18011287840E+03  0.58814129704E+02 -0.23029770345E+03  0.29822270710E+03  0.00000000000E+00 0. -1.
          5    1    4    4  502    0 -0.59887567965E+02 -0.23970098234E+02 -0.11806652875E+03  0.13462125248E+03  0.47000000000E+01 0.  1.
         -5    1    4    4    0  502 -0.16660267426E+02  0.12019206236E+02  0.31595489057E+02  0.37978819860E+02  0.47000000000E+01 0.  1.
<mgrwt>
<rscale>  0 0.99930170E+03</rscale>
<asrwt>0</asrwt>
<pdfrwt beam="1">  1        2 0.89874231E-01 0.99930170E+03</pdfrwt>
<pdfrwt beam="2">  1       -2 0.65746307E-01 0.99930170E+03</pdfrwt>
<totfact> 0.13200863E+02</totfact>
</mgrwt>
</event>
<event>
 9    1  0.4388925E-036  0.9996594E+03  0.7818608E-02  0.8681362E-01
         -2   -1    0    0    0  501 -0.00000000000E+00  0.00000000000E+00  0.13243575692E+03  0.13243575692E+03  0.00000000000E+00 0. -1.
          2   -1    0    0  501    0  0.00000000000E+00 -0.00000000000E+00 -0.18864218929E+04  0.18864218929E+04  0.00000000000E+00 0. -1.
         36    2    1    2    0    0  0.00000000000E+00  0.00000000000E+00 -0.17539861360E+04  0.20188576498E+04  0.99965936448E+03 0.  0.
         25    2    3    3    0    0 -0.11749532623E+03  0.47352215818E+02 -0.20730757979E+03  0.27297389878E+03  0.12446257569E+03 0.  0.
         35    2    3    3    0    0  0.11749532623E+03 -0.47352215818E+02 -0.15466785562E+04  0.17458837510E+04  0.79990507681E+03 0.  0.
         22    1    5    5    0    0  0.34982628894E+03 -0.10895446710E+03 -0.29237050978E+03  0.46875369153E+03  0.00000000000E+00 0. -1.
         22    1    5    5    0    0 -0.23233096271E+03  0.61602251284E+02 -0.12543080464E+04  0.12771300595E+04  0.00000000000E+00 0. -1.
          5    1    4    4  502    0 -0.11184774546E+03 -0.14258133124E+02 -0.15554441124E+03  0.19217014958E+03  0.47000000000E+01 0.  1.
         -5    1    4    4    0  502 -0.56475807697E+01  0.61610348943E+02 -0.51763168553E+02  0.80803749195E+02  0.47000000000E+01 0.  1.
<mgrwt>
<rscale>  0 0.99965936E+03</rscale>
<asrwt>0</asrwt>
<pdfrwt beam="1">  1        2 0.29021876E+00 0.99965936E+03</pdfrwt>
<pdfrwt beam="2">  1       -2 0.20374731E-01 0.99965936E+03</pdfrwt>
<totfact> 0.18831429E+02</totfact>
</mgrwt>
</event>
<event>
 9    1  0.4388925E-036  0.9998177E+03  0.7818608E-02  0.8681212E-01
         -1   -1    0    0    0  501 -0.00000000000E+00  0.00000000000E+00  0.13898542352E+03  0.13898542352E+03  0.00000000000E+00 0.  1.
          1   -1    0    0  501    0  0.00000000000E+00 -0.00000000000E+00 -0.17980939791E+04  0.17980939791E+04  0.00000000000E+00 0.  1.
         36    2    1    2    0    0 -0.21316282073E-13 -0.28421709430E-13 -0.16591085556E+04  0.19370794026E+04  0.99981768980E+03 0.  0.
         25    2    3    3    0    0  0.46081840119E+02 -0.12592556386E+03 -0.23032234722E+03  0.29401014690E+03  0.12414829529E+03 0.  0.
         35    2    3    3    0    0 -0.46081840119E+02  0.12592556386E+03 -0.14287862084E+04  0.16430692557E+04  0.80016608668E+03 0.  0.
         22    1    5    5    0    0 -0.40940142317E+03  0.33900017721E+01 -0.56249281540E+03  0.69571487320E+03  0.00000000000E+00 0.  1.
         22    1    5    5    0    0  0.36331958305E+03  0.12253556209E+03 -0.86629339297E+03  0.94735438254E+03  0.00000000000E+00 0.  1.
          5    1    4    4  502    0  0.22460405550E+02 -0.74596324256E+02 -0.22370262994E+03  0.23692622914E+03  0.47000000000E+01 0.  1.
         -5    1    4    4    0  502  0.23621434569E+02 -0.51329239609E+02 -0.66197172807E+01  0.57083917760E+02  0.47000000000E+01 0.  1.
<mgrwt>
<rscale>  0 0.99981769E+03</rscale>
<asrwt>0</asrwt>
<pdfrwt beam="1">  1        1 0.27662981E+00 0.99981769E+03</pdfrwt>
<pdfrwt beam="2">  1       -1 0.21382375E-01 0.99981769E+03</pdfrwt>
<totfact> 0.78999822E+01</totfact>
</mgrwt>
</event>
<event>
 9    1  0.4388925E-036  0.9988836E+03  0.7818608E-02  0.8682102E-01
          2   -1    0    0  501    0  0.00000000000E+00  0.00000000000E+00  0.12070558120E+04  0.12070558120E+04  0.00000000000E+00 0. -1.
         -2   -1    0    0    0  501 -0.00000000000E+00 -0.00000000000E+00 -0.20665335357E+03  0.20665335357E+03  0.00000000000E+00 0. -1.
         36    2    1    2    0    0 -0.28421709430E-13 -0.28421709430E-13  0.10004024584E+04  0.14137091655E+04  0.99888363985E+03 0.  0.
         25    2    3    3    0    0  0.12081120034E+03  0.68394325130E+02  0.19834529170E+03  0.27247791490E+03  0.12502091636E+03 0.  0.
         35    2    3    3    0    0 -0.12081120034E+03 -0.68394325130E+02  0.80205716671E+03  0.11412312507E+04  0.79989995559E+03 0.  0.
         22    1    5    5    0    0 -0.39149379611E+03 -0.17567406549E+03  0.20201636211E+03  0.47427774588E+03  0.00000000000E+00 0. -1.
         22    1    5    5    0    0  0.27068259577E+03  0.10727974036E+03  0.60004080460E+03  0.66695350477E+03  0.00000000000E+00 0. -1.
          5    1    4    4  502    0  0.22651779778E+02  0.83805116985E+02  0.83512284718E+02  0.12055203216E+03  0.47000000000E+01 0. -1.
         -5    1    4    4    0  502  0.98159420566E+02 -0.15410791855E+02  0.11483300698E+03  0.15192588273E+03  0.47000000000E+01 0. -1.
<mgrwt>
<rscale>  0 0.99888364E+03</rscale>
<asrwt>0</asrwt>
<pdfrwt beam="1">  1        2 0.18570089E+00 0.99888364E+03</pdfrwt>
<pdfrwt beam="2">  1       -2 0.31792824E-01 0.99888364E+03</pdfrwt>
<totfact> 0.20767577E+02</totfact>
</mgrwt>
</event>
<event>
 9    1  0.4388925E-036  0.1000031E+04  0.7818608E-02  0.8681009E-01
         -1   -1    0    0    0  501 -0.00000000000E+00  0.00000000000E+00  0.15007149827E+03  0.15007149827E+03  0.00000000000E+00 0.  1.
          1   -1    0    0  501    0  0.00000000000E+00 -0.00000000000E+00 -0.16659755848E+04  0.16659755848E+04  0.00000000000E+00 0.  1.
         36    2    1    2    0    0  0.00000000000E+00 -0.71054273576E-14 -0.15159040865E+04  0.18160470830E+04  0.10000309037E+04 0.  0.
         25    2    3    3    0    0  0.63740301750E+02  0.49260835197E+02 -0.49931762595E+03  0.52070659077E+03  0.12380551739E+03 0.  0.
         35    2    3    3    0    0 -0.63740301750E+02 -0.49260835197E+02 -0.10165864605E+04  0.12953404923E+04  0.79872993132E+03 0.  0.
         22    1    5    5    0    0 -0.53583475404E+02  0.14601739474E+03 -0.10789430594E+04  0.10900965067E+04  0.00000000000E+00 0. -1.
         22    1    5    5    0    0 -0.10156826345E+02 -0.19527822994E+03  0.62356598852E+02  0.20524398561E+03  0.00000000000E+00 0. -1.
          5    1    4    4  502    0  0.57887478080E+02  0.68853022691E+02 -0.48918133822E+03  0.49740543877E+03  0.47000000000E+01 0.  1.
         -5    1    4    4    0  502  0.58528236693E+01 -0.19592187493E+02 -0.10136287726E+02  0.23301152000E+02  0.47000000000E+01 0.  1.
<mgrwt>
<rscale>  0 0.10000309E+04</rscale>
<asrwt>0</asrwt>
<pdfrwt beam="1">  1        1 0.25630395E+00 0.10000309E+04</pdfrwt>
<pdfrwt beam="2">  1       -1 0.23087922E-01 0.10000309E+04</pdfrwt>
<totfact> 0.86125096E+01</totfact>
</mgrwt>
</event>
<event>
 9    1  0.4388925E-036  0.9997026E+03  0.7818608E-02  0.8681321E-01
         -1   -1    0    0    0  501 -0.00000000000E+00  0.00000000000E+00  0.28490614320E+03  0.28490614320E+03  0.00000000000E+00 0.  1.
          1   -1    0    0  501    0  0.00000000000E+00 -0.00000000000E+00 -0.87696004055E+03  0.87696004055E+03  0.00000000000E+00 0.  1.
         36    2    1    2    0    0  0.49737991503E-13  0.00000000000E+00 -0.59205389734E+03  0.11618661837E+04  0.99970256156E+03 0.  0.
         25    2    3    3    0    0  0.29189852056E+02  0.13586544473E+03 -0.12884406019E+03  0.22725418106E+03  0.12542808468E+03 0.  0.
         35    2    3    3    0    0 -0.29189852056E+02 -0.13586544473E+03 -0.46320983715E+03  0.93461200269E+03  0.79976545049E+03 0.  0.
         22    1    5    5    0    0  0.35897884775E+03 -0.50809742718E+02 -0.38643302259E+03  0.52988482148E+03  0.00000000000E+00 0.  1.
         22    1    5    5    0    0 -0.38816869981E+03 -0.85055702017E+02 -0.76776814566E+02  0.40472718121E+03  0.00000000000E+00 0.  1.
          5    1    4    4  502    0 -0.39726771356E+02  0.66200904087E+01 -0.31099297930E+02  0.51100863898E+02  0.47000000000E+01 0. -1.
         -5    1    4    4    0  502  0.68916623412E+02  0.12924535433E+03 -0.97744762261E+02  0.17615331716E+03  0.47000000000E+01 0. -1.
<mgrwt>
<rscale>  0 0.99970256E+03</rscale>
<asrwt>0</asrwt>
<pdfrwt beam="1">  1        1 0.13491693E+00 0.99970256E+03</pdfrwt>
<pdfrwt beam="2">  1       -1 0.43831715E-01 0.99970256E+03</pdfrwt>
<totfact> 0.11058694E+02</totfact>
</mgrwt>
</event>
<event>
 9    1  0.4388925E-036  0.9995959E+03  0.7818608E-02  0.8681423E-01
         -2   -1    0    0    0  501 -0.00000000000E+00  0.00000000000E+00  0.20302154637E+03  0.20302154637E+03  0.00000000000E+00 0.  1.
          2   -1    0    0  501    0  0.00000000000E+00 -0.00000000000E+00 -0.12304014520E+04  0.12304014520E+04  0.00000000000E+00 0.  1.
         36    2    1    2    0    0 -0.14210854715E-13  0.14210854715E-13 -0.10273799057E+04  0.14334229984E+04  0.99959592927E+03 0.  0.
         25    2    3    3    0    0  0.73359710185E+02 -0.93609947269E+02 -0.17129268527E+03  0.25032955953E+03  0.13848911525E+03 0.  0.
         35    2    3    3    0    0 -0.73359710185E+02  0.93609947269E+02 -0.85608722040E+03  0.11830934389E+04  0.80788630814E+03 0.  0.
         22    1    5    5    0    0 -0.15792449009E+02  0.42928475366E+03 -0.66752200780E+03  0.79380125477E+03  0.00000000000E+00 0.  1.
         22    1    5    5    0    0 -0.57567261176E+02 -0.33567480640E+03 -0.18856521260E+03  0.38929218411E+03  0.00000000000E+00 0.  1.
          5    1    4    4  502    0  0.77234638098E+02  0.99265162214E+01 -0.85378082695E+02  0.11565133830E+03  0.47000000000E+01 0. -1.
         -5    1    4    4    0  502 -0.38749279136E+01 -0.10353646349E+03 -0.85914602572E+02  0.13467822123E+03  0.47000000000E+01 0. -1.
<mgrwt>
<rscale>  0 0.99959593E+03</rscale>
<asrwt>0</asrwt>
<pdfrwt beam="1">  1        2 0.18929253E+00 0.99959593E+03</pdfrwt>
<pdfrwt beam="2">  1       -2 0.31234084E-01 0.99959593E+03</pdfrwt>
<totfact> 0.20786240E+02</totfact>
</mgrwt>
</event>
<event>
 9    1  0.4388925E-036  0.9994329E+03  0.7818608E-02  0.8681578E-01
         -1   -1    0    0    0  501 -0.00000000000E+00  0.00000000000E+00  0.27272016663E+03  0.27272016663E+03  0.00000000000E+00 0. -1.
          1   -1    0    0  501    0  0.00000000000E+00 -0.00000000000E+00 -0.91565122154E+03  0.91565122154E+03  0.00000000000E+00 0. -1.
         36    2    1    2    0    0  0.14210854715E-13  0.00000000000E+00 -0.64293105491E+03  0.11883713882E+04  0.99943294664E+03 0.  0.
         25    2    3    3    0    0  0.50200377655E+02 -0.10430225629E+03 -0.21578164951E+03  0.27482793546E+03  0.12477834452E+03 0.  0.
         35    2    3    3    0    0 -0.50200377655E+02  0.10430225629E+03 -0.42714940541E+03  0.91354345270E+03  0.79919083256E+03 0.  0.
         22    1    5    5    0    0 -0.17238215663E+03 -0.12783205003E+03  0.16183076069E+03  0.26878585536E+03  0.00000000000E+00 0.  1.
         22    1    5    5    0    0  0.12218177897E+03  0.23213430631E+03 -0.58898016609E+03  0.64475759734E+03  0.00000000000E+00 0.  1.
          5    1    4    4  502    0 -0.20620846428E+02 -0.49931541983E+02 -0.16119846456E+03  0.17007472819E+03  0.47000000000E+01 0. -1.
         -5    1    4    4    0  502  0.70821224083E+02 -0.54370714303E+02 -0.54583184947E+02  0.10475320727E+03  0.47000000000E+01 0. -1.
<mgrwt>
<rscale>  0 0.99943295E+03</rscale>
<asrwt>0</asrwt>
<pdfrwt beam="1">  1        1 0.14086942E+00 0.99943295E+03</pdfrwt>
<pdfrwt beam="2">  1       -1 0.41956949E-01 0.99943295E+03</pdfrwt>
<totfact> 0.11107899E+02</totfact>
</mgrwt>
</event>
<event>
 9    1  0.4388925E-036  0.1001982E+04  0.7818608E-02  0.8679153E-01
          1   -1    0    0  501    0  0.00000000000E+00  0.00000000000E+00  0.23994368219E+04  0.23994368219E+04  0.00000000000E+00 0. -1.
         -1   -1    0    0    0  501 -0.00000000000E+00 -0.00000000000E+00 -0.10460459018E+03  0.10460459018E+03  0.00000000000E+00 0. -1.
         36    2    1    2    0    0  0.28421709430E-13 -0.35527136788E-14  0.22948322317E+04  0.25040414121E+04  0.10019822462E+04 0.  0.
         25    2    3    3    0    0  0.13534907170E+03  0.47413414413E+01  0.31867732530E+03  0.36761911334E+03  0.12347762268E+03 0.  0.
         35    2    3    3    0    0 -0.13534907170E+03 -0.47413414413E+01  0.19761549064E+04  0.21364222987E+04  0.80048121330E+03 0.  0.
         22    1    5    5    0    0  0.15937235098E+03 -0.56648554005E+02  0.35495590635E+02  0.17282517722E+03  0.00000000000E+00 0.  1.
         22    1    5    5    0    0 -0.29472142267E+03  0.51907212563E+02  0.19406593158E+04  0.19635971215E+04  0.00000000000E+00 0.  1.
          5    1    4    4  502    0 -0.12713848558E+02  0.29774530594E+02  0.49017899249E+02  0.58932241295E+02  0.47000000000E+01 0.  1.
         -5    1    4    4    0  502  0.14806292025E+03 -0.25033189153E+02  0.26965942605E+03  0.30868687204E+03  0.47000000000E+01 0.  1.
<mgrwt>
<rscale>  0 0.10019822E+04</rscale>
<asrwt>0</asrwt>
<pdfrwt beam="1">  1        1 0.36914408E+00 0.10019822E+04</pdfrwt>
<pdfrwt beam="2">  1       -1 0.16093016E-01 0.10019822E+04</pdfrwt>
<totfact> 0.47667041E+01</totfact>
</mgrwt>
</event>
<event>
 9    1  0.4388925E-036  0.1000547E+04  0.7818608E-02  0.8680517E-01
         -2   -1    0    0    0  501 -0.00000000000E+00  0.00000000000E+00  0.28903158483E+03  0.28903158483E+03  0.00000000000E+00 0. -1.
          2   -1    0    0  501    0  0.00000000000E+00 -0.00000000000E+00 -0.86590439034E+03  0.86590439034E+03  0.00000000000E+00 0. -1.
         36    2    1    2    0    0 -0.28421709430E-13 -0.14210854715E-13 -0.57687280552E+03  0.11549359752E+04  0.10005472867E+04 0.  0.
         25    2    3    3    0    0  0.12157392334E+03  0.53439242328E+02 -0.16259578404E+03  0.24434181316E+03  0.12501824353E+03 0.  0.
         35    2    3    3    0    0 -0.12157392334E+03 -0.53439242328E+02 -0.41427702148E+03  0.91059416200E+03  0.79995018963E+03 0.  0.
         22    1    5    5    0    0  0.13468359758E+03 -0.14687479710E+03  0.17246900204E+03  0.26354778342E+03  0.00000000000E+00 0.  1.
         22    1    5    5    0    0 -0.25625752092E+03  0.93435554775E+02 -0.58674602352E+03  0.64704637859E+03  0.00000000000E+00 0.  1.
          5    1    4    4  502    0 -0.22478882137E+02 -0.92757135034E+01 -0.28235798040E+02  0.37559143948E+02  0.47000000000E+01 0.  1.
         -5    1    4    4    0  502  0.14405280548E+03  0.62714955831E+02 -0.13435998600E+03  0.20678266922E+03  0.47000000000E+01 0.  1.
<mgrwt>
<rscale>  0 0.10005473E+04</rscale>
<asrwt>0</asrwt>
<pdfrwt beam="1">  1        2 0.13321606E+00 0.10005473E+04</pdfrwt>
<pdfrwt beam="2">  1       -2 0.44466398E-01 0.10005473E+04</pdfrwt>
<totfact> 0.17957497E+02</totfact>
</mgrwt>
</event>
<event>
 9    1  0.4388925E-036  0.9924392E+03  0.7818608E-02  0.8688272E-01
          2   -1    0    0  501    0  0.00000000000E+00  0.00000000000E+00  0.13502224743E+04  0.13502224743E+04  0.00000000000E+00 0. -1.
         -2   -1    0    0    0  501 -0.00000000000E+00 -0.00000000000E+00 -0.18236541148E+03  0.18236541148E+03  0.00000000000E+00 0. -1.
         36    2    1    2    0    0  0.00000000000E+00 -0.14210854715E-13  0.11678570629E+04  0.15325878858E+04  0.99243917117E+03 0.  0.
         25    2    3    3    0    0 -0.64865938213E+02  0.96198941108E+02  0.11807137106E+03  0.20757491221E+03  0.12523844978E+03 0.  0.
         35    2    3    3    0    0  0.64865938213E+02 -0.96198941108E+02  0.10497856918E+04  0.13250129736E+04  0.80009221675E+03 0.  0.
         22    1    5    5    0    0  0.73943509836E+02 -0.44386566751E+03  0.69690177868E+03  0.82955196496E+03  0.00000000000E+00 0. -1.
         22    1    5    5    0    0 -0.90775716228E+01  0.34766672640E+03  0.35288391312E+03  0.49546100865E+03  0.00000000000E+00 0. -1.
          5    1    4    4  502    0  0.37193617622E+02  0.35505587615E+02  0.41028756536E+02  0.65950442050E+02  0.47000000000E+01 0.  1.
         -5    1    4    4    0  502 -0.10205955584E+03  0.60693353494E+02  0.77042614521E+02  0.14162447016E+03  0.47000000000E+01 0.  1.
<mgrwt>
<rscale>  0 0.99243917E+03</rscale>
<asrwt>0</asrwt>
<pdfrwt beam="1">  1        2 0.20772653E+00 0.99243917E+03</pdfrwt>
<pdfrwt beam="2">  1       -2 0.28056218E-01 0.99243917E+03</pdfrwt>
<totfact> 0.21524628E+02</totfact>
</mgrwt>
</event>
<event>
 9    1  0.4388925E-036  0.9991037E+03  0.7818608E-02  0.8681892E-01
         -1   -1    0    0    0  501 -0.00000000000E+00  0.00000000000E+00  0.12308974414E+03  0.12308974414E+03  0.00000000000E+00 0.  1.
          1   -1    0    0  501    0  0.00000000000E+00 -0.00000000000E+00 -0.20273991690E+04  0.20273991690E+04  0.00000000000E+00 0.  1.
         36    2    1    2    0    0  0.00000000000E+00  0.42632564146E-13 -0.19043094249E+04  0.21504889131E+04  0.99910368826E+03 0.  0.
         25    2    3    3    0    0 -0.43198876446E+02 -0.10687389779E+03 -0.52206763993E+03  0.54909990881E+03  0.12517154722E+03 0.  0.
         35    2    3    3    0    0  0.43198876446E+02  0.10687389779E+03 -0.13822417849E+04  0.16013890043E+04  0.80035380815E+03 0.  0.
         22    1    5    5    0    0  0.74284472803E+01  0.45132307736E+03 -0.64964777564E+03  0.79106885565E+03  0.00000000000E+00 0. -1.
         22    1    5    5    0    0  0.35770429166E+02 -0.34444917956E+03 -0.73259400928E+03  0.81032014867E+03  0.00000000000E+00 0. -1.
          5    1    4    4  502    0 -0.70579639516E+02 -0.12562380636E+02 -0.22226513372E+03  0.23358762508E+03  0.47000000000E+01 0. -1.
         -5    1    4    4    0  502  0.27380763071E+02 -0.94311517156E+02 -0.29980250621E+03  0.31551228373E+03  0.47000000000E+01 0. -1.
<mgrwt>
<rscale>  0 0.99910369E+03</rscale>
<asrwt>0</asrwt>
<pdfrwt beam="1">  1        1 0.31190753E+00 0.99910369E+03</pdfrwt>
<pdfrwt beam="2">  1       -1 0.18936886E-01 0.99910369E+03</pdfrwt>
<totfact> 0.66686771E+01</totfact>
</mgrwt>
</event>
<event>
 9    1  0.4388925E-036  0.9974749E+03  0.7818608E-02  0.8683446E-01
         -2   -1    0    0    0  501 -0.00000000000E+00  0.00000000000E+00  0.14574404766E+03  0.14574404766E+03  0.00000000000E+00 0. -1.
          2   -1    0    0  501    0  0.00000000000E+00 -0.00000000000E+00 -0.17066841748E+04  0.17066841748E+04  0.00000000000E+00 0. -1.
         36    2    1    2    0    0 -0.71054273576E-14  0.00000000000E+00 -0.15609401271E+04  0.18524282225E+04  0.99747493144E+03 0.  0.
         25    2    3    3    0    0  0.19511985259E+02 -0.10888341479E+03 -0.13737037773E+03  0.21610489974E+03  0.12487750570E+03 0.  0.
         35    2    3    3    0    0 -0.19511985259E+02  0.10888341479E+03 -0.14235697494E+04  0.16363233227E+04  0.79922892180E+03 0.  0.
         22    1    5    5    0    0  0.13020709280E+03 -0.80047163715E+02 -0.13835447803E+04  0.13919617791E+04  0.00000000000E+00 0. -1.
         22    1    5    5    0    0 -0.14971907806E+03  0.18893057851E+03 -0.40024969093E+02  0.24436154358E+03  0.00000000000E+00 0. -1.
          5    1    4    4  502    0  0.28213502254E+02 -0.40211209166E+02  0.12542817323E+02  0.50915177682E+02  0.47000000000E+01 0.  1.
         -5    1    4    4    0  502 -0.87015169945E+01 -0.68672205628E+02 -0.14991319505E+03  0.16518972206E+03  0.47000000000E+01 0.  1.
<mgrwt>
<rscale>  0 0.99747493E+03</rscale>
<asrwt>0</asrwt>
<pdfrwt beam="1">  1        2 0.26256682E+00 0.99747493E+03</pdfrwt>
<pdfrwt beam="2">  1       -2 0.22422159E-01 0.99747493E+03</pdfrwt>
<totfact> 0.20129414E+02</totfact>
</mgrwt>
</event>
<event>
 9    1  0.4388925E-036  0.1000223E+04  0.7818608E-02  0.8680826E-01
         -2   -1    0    0    0  501 -0.00000000000E+00  0.00000000000E+00  0.68275162559E+02  0.68275162559E+02  0.00000000000E+00 0.  1.
          2   -1    0    0  501    0  0.00000000000E+00 -0.00000000000E+00 -0.36632870942E+04  0.36632870942E+04  0.00000000000E+00 0.  1.
         36    2    1    2    0    0 -0.14210854715E-13 -0.14210854715E-13 -0.35950119316E+04  0.37315622567E+04  0.10002230188E+04 0.  0.
         25    2    3    3    0    0  0.45084518356E+02 -0.71789050605E+02 -0.25494611396E+03  0.29593188400E+03  0.12406400510E+03 0.  0.
         35    2    3    3    0    0 -0.45084518356E+02  0.71789050605E+02 -0.33400658177E+04  0.34356303727E+04  0.80020629228E+03 0.  0.
         22    1    5    5    0    0 -0.27648169150E+03 -0.75513270457E+02 -0.45628044191E+03  0.53882856403E+03  0.00000000000E+00 0. -1.
         22    1    5    5    0    0  0.23139717314E+03  0.14730232106E+03 -0.28837853758E+04  0.28968018087E+04  0.00000000000E+00 0. -1.
          5    1    4    4  502    0 -0.56438763443E+01 -0.93777495357E+02 -0.14618565034E+03  0.17383442220E+03  0.47000000000E+01 0.  1.
         -5    1    4    4    0  502  0.50728394700E+02  0.21988444752E+02 -0.10876046362E+03  0.12209746180E+03  0.47000000000E+01 0.  1.
<mgrwt>
<rscale>  0 0.10002230E+04</rscale>
<asrwt>0</asrwt>
<pdfrwt beam="1">  1        2 0.56358280E+00 0.10002230E+04</pdfrwt>
<pdfrwt beam="2">  1       -2 0.10503868E-01 0.10002230E+04</pdfrwt>
<totfact> 0.39832842E+01</totfact>
</mgrwt>
</event>
<event>
 9    1  0.4388925E-036  0.1000806E+04  0.7818608E-02  0.8680270E-01
          2   -1    0    0  501    0  0.00000000000E+00  0.00000000000E+00  0.15827997340E+03  0.15827997340E+03  0.00000000000E+00 0.  1.
         -2   -1    0    0    0  501 -0.00000000000E+00 -0.00000000000E+00 -0.15820283317E+04  0.15820283317E+04  0.00000000000E+00 0.  1.
         36    2    1    2    0    0 -0.71054273576E-14 -0.28421709430E-13 -0.14237483583E+04  0.17403083051E+04  0.10008064793E+04 0.  0.
         25    2    3    3    0    0  0.27896231457E+02 -0.13382393307E+03 -0.31619201891E+03  0.36631314036E+03  0.12458282060E+03 0.  0.
         35    2    3    3    0    0 -0.27896231457E+02  0.13382393307E+03 -0.11075563394E+04  0.13739951647E+04  0.80155762301E+03 0.  0.
         22    1    5    5    0    0 -0.38794403287E+03  0.76655021101E+01 -0.33604142212E+03  0.51330611719E+03  0.00000000000E+00 0. -1.
         22    1    5    5    0    0  0.36004780141E+03  0.12615843096E+03 -0.77151491726E+03  0.86068904754E+03  0.00000000000E+00 0. -1.
          5    1    4    4  502    0  0.48065247969E+02 -0.15047440290E+03 -0.26237492172E+03  0.30629316600E+03  0.47000000000E+01 0.  1.
         -5    1    4    4    0  502 -0.20169016512E+02  0.16650469832E+02 -0.53817097192E+02  0.60019974366E+02  0.47000000000E+01 0.  1.
<mgrwt>
<rscale>  0 0.10008065E+04</rscale>
<asrwt>0</asrwt>
<pdfrwt beam="1">  1        2 0.24350767E-01 0.10008065E+04</pdfrwt>
<pdfrwt beam="2">  1       -2 0.24338896E+00 0.10008065E+04</pdfrwt>
<totfact> 0.17103122E+01</totfact>
</mgrwt>
</event>
<event>
 9    1  0.4388925E-036  0.9981678E+03  0.7818608E-02  0.8682785E-01
          2   -1    0    0  501    0  0.00000000000E+00  0.00000000000E+00  0.57436178704E+03  0.57436178704E+03  0.00000000000E+00 0.  1.
         -2   -1    0    0    0  501 -0.00000000000E+00 -0.00000000000E+00 -0.43367219259E+03  0.43367219259E+03  0.00000000000E+00 0.  1.
         36    2    1    2    0    0  0.21316282073E-13 -0.28421709430E-13  0.14068959445E+03  0.10080339796E+04  0.99816779256E+03 0.  0.
         25    2    3    3    0    0  0.19748057469E+02  0.13570502637E+03  0.88940489452E+01  0.18648919469E+03  0.12606853563E+03 0.  0.
         35    2    3    3    0    0 -0.19748057469E+02 -0.13570502637E+03  0.13179554550E+03  0.82154478494E+03  0.79922457914E+03 0.  0.
         22    1    5    5    0    0  0.28863915585E+03  0.12740979483E+03  0.24634815961E+03  0.40029143615E+03  0.00000000000E+00 0. -1.
         22    1    5    5    0    0 -0.30838721332E+03 -0.26311482119E+03 -0.11455261411E+03  0.42125334879E+03  0.00000000000E+00 0. -1.
          5    1    4    4  502    0 -0.38375116442E+02  0.90890419663E+02  0.40096215918E+02  0.10659978649E+03  0.47000000000E+01 0. -1.
         -5    1    4    4    0  502  0.58123173911E+02  0.44814606703E+02 -0.31202166973E+02  0.79889408204E+02  0.47000000000E+01 0. -1.
<mgrwt>
<rscale>  0 0.99816779E+03</rscale>
<asrwt>0</asrwt>
<pdfrwt beam="1">  1        2 0.88363352E-01 0.99816779E+03</pdfrwt>
<pdfrwt beam="2">  1       -2 0.66718799E-01 0.99816779E+03</pdfrwt>
<totfact> 0.13050931E+02</totfact>
</mgrwt>
</event>
<event>
 9    1  0.4388925E-036  0.1009839E+04  0.7818608E-02  0.8671724E-01
         -1   -1    0    0    0  501 -0.00000000000E+00  0.00000000000E+00  0.16216975387E+03  0.16216975387E+03  0.00000000000E+00 0.  1.
          1   -1    0    0  501    0  0.00000000000E+00 -0.00000000000E+00 -0.15720807509E+04  0.15720807509E+04  0.00000000000E+00 0.  1.
         36    2    1    2    0    0  0.00000000000E+00  0.42632564146E-13 -0.14099109970E+04  0.17342505048E+04  0.10098394891E+04 0.  0.
         25    2    3    3    0    0 -0.32629808570E+02 -0.11952257822E+03 -0.41918944699E+03  0.45507178119E+03  0.12657085941E+03 0.  0.
         35    2    3    3    0    0  0.32629808570E+02  0.11952257822E+03 -0.99072155004E+03  0.12791787236E+04  0.79963658375E+03 0.  0.
         22    1    5    5    0    0 -0.90867903662E+02 -0.32350451849E+03 -0.30690560700E+03  0.45508592706E+03  0.00000000000E+00 0.  1.
         22    1    5    5    0    0  0.12349771223E+03  0.44302709671E+03 -0.68381594304E+03  0.82409279653E+03  0.00000000000E+00 0.  1.
          5    1    4    4  502    0  0.12055910198E+02 -0.12594069799E+03 -0.25462954954E+03  0.28436719550E+03  0.47000000000E+01 0.  1.
         -5    1    4    4    0  502 -0.44685718768E+02  0.64181197696E+01 -0.16455989746E+03  0.17070458568E+03  0.47000000000E+01 0.  1.
<mgrwt>
<rscale>  0 0.10098395E+04</rscale>
<asrwt>0</asrwt>
<pdfrwt beam="1">  1        1 0.24185858E+00 0.10098395E+04</pdfrwt>
<pdfrwt beam="2">  1       -1 0.24949192E-01 0.10098395E+04</pdfrwt>
<totfact> 0.88068432E+01</totfact>
</mgrwt>
</event>
<event>
 9    1  0.4388925E-036  0.1003307E+04  0.7818608E-02  0.8677895E-01
         -1   -1    0    0    0  501 -0.00000000000E+00  0.00000000000E+00  0.42266888139E+03  0.42266888139E+03  0.00000000000E+00 0.  1.
          1   -1    0    0  501    0  0.00000000000E+00 -0.00000000000E+00 -0.59539864291E+03  0.59539864291E+03  0.00000000000E+00 0.  1.
         36    2    1    2    0    0 -0.71054273576E-14  0.42632564146E-13 -0.17272976152E+03  0.10180675243E+04  0.10033074870E+04 0.  0.
         25    2    3    3    0    0 -0.76225241414E+00  0.71319040142E+02 -0.16024399048E+03  0.21536465529E+03  0.12496724269E+03 0.  0.
         35    2    3    3    0    0  0.76225241414E+00 -0.71319040142E+02 -0.12485771036E+02  0.80270286902E+03  0.79943043158E+03 0.  0.
         22    1    5    5    0    0 -0.21420344167E+03  0.27367776003E+03 -0.14295262812E+03  0.37578994750E+03  0.00000000000E+00 0. -1.
         22    1    5    5    0    0  0.21496569409E+03 -0.34499680017E+03  0.13046685708E+03  0.42691292152E+03  0.00000000000E+00 0. -1.
          5    1    4    4  502    0  0.19115070060E+02 -0.32399487411E+02 -0.48222915437E+02  0.61340461859E+02  0.47000000000E+01 0. -1.
         -5    1    4    4    0  502 -0.19877322474E+02  0.10371852755E+03 -0.11202107505E+03  0.15402419343E+03  0.47000000000E+01 0. -1.
<mgrwt>
<rscale>  0 0.10033075E+04</rscale>
<asrwt>0</asrwt>
<pdfrwt beam="1">  1        1 0.91599791E-01 0.10033075E+04</pdfrwt>
<pdfrwt beam="2">  1       -1 0.65025982E-01 0.10033075E+04</pdfrwt>
<totfact> 0.96720873E+01</totfact>
</mgrwt>
</event>
<event>
 9    1  0.4388925E-036  0.1000439E+04  0.7818608E-02  0.8680620E-01
         -1   -1    0    0    0  501 -0.00000000000E+00  0.00000000000E+00  0.67048848219E+03  0.67048848219E+03  0.00000000000E+00 0.  1.
          1   -1    0    0  501    0  0.00000000000E+00 -0.00000000000E+00 -0.37319001612E+03  0.37319001612E+03  0.00000000000E+00 0.  1.
         36    2    1    2    0    0  0.00000000000E+00 -0.71054273576E-14  0.29729846607E+03  0.10436784983E+04  0.10004391185E+04 0.  0.
         25    2    3    3    0    0  0.10251093861E+03 -0.49448708688E+02 -0.29177546851E+02  0.17153200658E+03  0.12497292793E+03 0.  0.
         35    2    3    3    0    0 -0.10251093861E+03  0.49448708688E+02  0.32647601292E+03  0.87214649173E+03  0.80068673568E+03 0.  0.
         22    1    5    5    0    0 -0.33771936072E+03  0.15737698748E+02 -0.12622119354E+03  0.36087924776E+03  0.00000000000E+00 0.  1.
         22    1    5    5    0    0  0.23520842211E+03  0.33711009939E+02  0.45269720646E+03  0.51126724397E+03  0.00000000000E+00 0.  1.
          5    1    4    4  502    0  0.45059320105E+02  0.15186611008E+02  0.38706753456E+02  0.61492099048E+02  0.47000000000E+01 0.  1.
         -5    1    4    4    0  502  0.57451618503E+02 -0.64635319696E+02 -0.67884300307E+02  0.11003990753E+03  0.47000000000E+01 0.  1.
<mgrwt>
<rscale>  0 0.10004391E+04</rscale>
<asrwt>0</asrwt>
<pdfrwt beam="1">  1        1 0.57413849E-01 0.10004391E+04</pdfrwt>
<pdfrwt beam="2">  1       -1 0.10315207E+00 0.10004391E+04</pdfrwt>
<totfact> 0.70043181E+01</totfact>
</mgrwt>
</event>
<event>
 9    1  0.4388925E-036  0.9996795E+03  0.7818608E-02  0.8681343E-01
         -2   -1    0    0    0  501 -0.00000000000E+00  0.00000000000E+00  0.23010474113E+03  0.23010474113E+03  0.00000000000E+00 0. -1.
          2   -1    0    0  501    0  0.00000000000E+00 -0.00000000000E+00 -0.10857654249E+04  0.10857654249E+04  0.00000000000E+00 0. -1.
         36    2    1    2    0    0 -0.14210854715E-13 -0.14210854715E-13 -0.85566068378E+03  0.13158701660E+04  0.99967949270E+03 0.  0.
         25    2    3    3    0    0 -0.11941910630E+03  0.27541576035E+02 -0.70814288973E+02  0.18831096855E+03  0.12420505623E+03 0.  0.
         35    2    3    3    0    0  0.11941910630E+03 -0.27541576035E+02 -0.78484639481E+03  0.11275591975E+04  0.80024147546E+03 0.  0.
         22    1    5    5    0    0  0.24401249810E+02  0.18684995526E+03  0.99190231225E+02  0.21294841803E+03  0.00000000000E+00 0. -1.
         22    1    5    5    0    0  0.95017856495E+02 -0.21439153129E+03 -0.88403662603E+03  0.91461077946E+03  0.00000000000E+00 0. -1.
          5    1    4    4  502    0  0.91893986843E+00  0.13553193599E+02  0.28281968738E+02  0.31725277980E+02  0.47000000000E+01 0. -1.
         -5    1    4    4    0  502 -0.12033804617E+03  0.13988382436E+02 -0.99096257711E+02  0.15658569057E+03  0.47000000000E+01 0. -1.
<mgrwt>
<rscale>  0 0.99967949E+03</rscale>
<asrwt>0</asrwt>
<pdfrwt beam="1">  1        2 0.16704083E+00 0.99967949E+03</pdfrwt>
<pdfrwt beam="2">  1       -2 0.35400730E-01 0.99967949E+03</pdfrwt>
<totfact> 0.20114718E+02</totfact>
</mgrwt>
</event>
<event>
 9    1  0.4388925E-036  0.9998894E+03  0.7818608E-02  0.8681143E-01
         -2   -1    0    0    0  501 -0.00000000000E+00  0.00000000000E+00  0.59528607213E+03  0.59528607213E+03  0.00000000000E+00 0.  1.
          2   -1    0    0  501    0  0.00000000000E+00 -0.00000000000E+00 -0.41987328471E+03  0.41987328471E+03  0.00000000000E+00 0.  1.
         36    2    1    2    0    0  0.00000000000E+00 -0.28421709430E-13  0.17541278742E+03  0.10151593568E+04  0.99988943078E+03 0.  0.
         25    2    3    3    0    0  0.94845818498E+02 -0.99077704502E+02  0.31813380349E+01  0.18532441250E+03  0.12459091517E+03 0.  0.
         35    2    3    3    0    0 -0.94845818498E+02  0.99077704502E+02  0.17223144938E+03  0.82983494434E+03  0.80009389566E+03 0.  0.
         22    1    5    5    0    0 -0.21108711239E+03  0.83923529028E+02  0.46333033888E+03  0.51601931231E+03  0.00000000000E+00 0.  1.
         22    1    5    5    0    0  0.11624129389E+03  0.15154175474E+02 -0.29109888950E+03  0.31381563203E+03  0.00000000000E+00 0.  1.
          5    1    4    4  502    0  0.62300885577E+02 -0.12717223110E+03 -0.24321265682E+01  0.14171161543E+03  0.47000000000E+01 0.  1.
         -5    1    4    4    0  502  0.32544932921E+02  0.28094526602E+02  0.56134646030E+01  0.43612797075E+02  0.47000000000E+01 0.  1.
<mgrwt>
<rscale>  0 0.99988943E+03</rscale>
<asrwt>0</asrwt>
<pdfrwt beam="1">  1        2 0.64595890E-01 0.99988943E+03</pdfrwt>
<pdfrwt beam="2">  1       -2 0.91582473E-01 0.99988943E+03</pdfrwt>
<totfact> 0.91230323E+01</totfact>
</mgrwt>
</event>
<event>
 9    1  0.4388925E-036  0.9995441E+03  0.7818608E-02  0.8681472E-01
          1   -1    0    0  501    0  0.00000000000E+00  0.00000000000E+00  0.40897174884E+04  0.40897174884E+04  0.00000000000E+00 0. -1.
         -1   -1    0    0    0  501 -0.00000000000E+00 -0.00000000000E+00 -0.61073197047E+02  0.61073197047E+02  0.00000000000E+00 0. -1.
         36    2    1    2    0    0  0.14210854715E-13 -0.14210854715E-13  0.40286442913E+04  0.41507906854E+04  0.99954414017E+03 0.  0.
         25    2    3    3    0    0 -0.80513279023E+02  0.78966708179E+02  0.10980865886E+04  0.11109119960E+04  0.12495270233E+03 0.  0.
         35    2    3    3    0    0  0.80513279023E+02 -0.78966708179E+02  0.29305577028E+04  0.30398786894E+04  0.79998491732E+03 0.  0.
         22    1    5    5    0    0  0.54143338815E+02 -0.38132212147E+03  0.23821912848E+04  0.24131252307E+04  0.00000000000E+00 0. -1.
         22    1    5    5    0    0  0.26369940208E+02  0.30235541329E+03  0.54836641795E+03  0.62675345873E+03  0.00000000000E+00 0. -1.
          5    1    4    4  502    0 -0.55653373387E+02  0.10254729402E+03  0.10021805970E+04  0.10089604970E+04  0.47000000000E+01 0.  1.
         -5    1    4    4    0  502 -0.24859905636E+02 -0.23580585846E+02  0.95905991563E+02  0.10195149903E+03  0.47000000000E+01 0.  1.
<mgrwt>
<rscale>  0 0.99954414E+03</rscale>
<asrwt>0</asrwt>
<pdfrwt beam="1">  1        1 0.62918709E+00 0.99954414E+03</pdfrwt>
<pdfrwt beam="2">  1       -1 0.93958797E-02 0.99954414E+03</pdfrwt>
<totfact> 0.65552992E+00</totfact>
</mgrwt>
</event>
<event>
 9    1  0.4388925E-036  0.1000445E+04  0.7818608E-02  0.8680615E-01
         -2   -1    0    0    0  501 -0.00000000000E+00  0.00000000000E+00  0.38087345935E+03  0.38087345935E+03  0.00000000000E+00 0. -1.
          2   -1    0    0  501    0  0.00000000000E+00 -0.00000000000E+00 -0.65696970880E+03  0.65696970880E+03  0.00000000000E+00 0. -1.
         36    2    1    2    0    0 -0.71054273576E-14  0.14210854715E-13 -0.27609624945E+03  0.10378431681E+04  0.10004445525E+04 0.  0.
         25    2    3    3    0    0 -0.18437717342E+02  0.83081235960E+02  0.64940620414E+02  0.16406673972E+03  0.12433088801E+03 0.  0.
         35    2    3    3    0    0  0.18437717342E+02 -0.83081235960E+02 -0.34103686987E+03  0.87377642843E+03  0.79996041094E+03 0.  0.
         22    1    5    5    0    0  0.19712217710E+03 -0.63843847271E+02 -0.55613529606E+03  0.59348096605E+03  0.00000000000E+00 0.  1.
         22    1    5    5    0    0 -0.17868445976E+03 -0.19237388689E+02  0.21509842619E+03  0.28029546238E+03  0.00000000000E+00 0.  1.
          5    1    4    4  502    0 -0.41950846129E+02  0.63331745430E+02 -0.15643894822E+02  0.77702026455E+02  0.47000000000E+01 0.  1.
         -5    1    4    4    0  502  0.23513128786E+02  0.19749490530E+02  0.80584515235E+02  0.86364713264E+02  0.47000000000E+01 0.  1.
<mgrwt>
<rscale>  0 0.10004446E+04</rscale>
<asrwt>0</asrwt>
<pdfrwt beam="1">  1        2 0.10107226E+00 0.10004446E+04</pdfrwt>
<pdfrwt beam="2">  1       -2 0.58595918E-01 0.10004446E+04</pdfrwt>
<totfact> 0.14617936E+02</totfact>
</mgrwt>
</event>
<event>
 9    1  0.4388925E-036  0.1010711E+04  0.7818608E-02  0.8670904E-01
          2   -1    0    0  501    0  0.00000000000E+00  0.00000000000E+00  0.18315972226E+04  0.18315972226E+04  0.00000000000E+00 0.  1.
         -2   -1    0    0    0  501 -0.00000000000E+00 -0.00000000000E+00 -0.13943252629E+03  0.13943252629E+03  0.00000000000E+00 0.  1.
         36    2    1    2    0    0  0.00000000000E+00 -0.35527136788E-14  0.16921646963E+04  0.19710297489E+04  0.10107110920E+04 0.  0.
         25    2    3    3    0    0 -0.13341184238E+03 -0.14021516926E+02  0.23265920602E+03  0.29756969720E+03  0.12814872578E+03 0.  0.
         35    2    3    3    0    0  0.13341184238E+03  0.14021516926E+02  0.14595054903E+04  0.16734600517E+04  0.80766140543E+03 0.  0.
         22    1    5    5    0    0  0.14913930171E+03 -0.24083508418E+02 -0.53221099485E+02  0.16017188306E+03  0.00000000000E+00 0.  1.
         22    1    5    5    0    0 -0.15727459327E+02  0.38105025345E+02  0.15127265898E+04  0.15132881687E+04  0.00000000000E+00 0.  1.
          5    1    4    4  502    0 -0.12825265783E+03  0.27562341931E+02  0.21489679563E+03  0.25181570583E+03  0.47000000000E+01 0. -1.
         -5    1    4    4    0  502 -0.51591845488E+01 -0.41583858857E+02  0.17762410396E+02  0.45753991364E+02  0.47000000000E+01 0. -1.
<mgrwt>
<rscale>  0 0.10107111E+04</rscale>
<asrwt>0</asrwt>
<pdfrwt beam="1">  1        2 0.28178417E+00 0.10107111E+04</pdfrwt>
<pdfrwt beam="2">  1       -2 0.21451159E-01 0.10107111E+04</pdfrwt>
<totfact> 0.18492355E+02</totfact>
</mgrwt>
</event>
<event>
 9    1  0.4388925E-036  0.1000138E+04  0.7818608E-02  0.8680907E-01
          2   -1    0    0  501    0  0.00000000000E+00  0.00000000000E+00  0.90600092391E+03  0.90600092391E+03  0.00000000000E+00 0. -1.
         -2   -1    0    0    0  501 -0.00000000000E+00 -0.00000000000E+00 -0.27601405503E+03  0.27601405503E+03  0.00000000000E+00 0. -1.
         36    2    1    2    0    0 -0.28421709430E-13  0.14210854715E-13  0.62998686888E+03  0.11820149789E+04  0.10001379682E+04 0.  0.
         25    2    3    3    0    0 -0.95014583481E+02 -0.70228271031E+02  0.21198010205E+03  0.27192788056E+03  0.12267610784E+03 0.  0.
         35    2    3    3    0    0  0.95014583481E+02  0.70228271031E+02  0.41800676683E+03  0.91008709839E+03  0.79973063490E+03 0.  0.
         22    1    5    5    0    0 -0.20102143407E+03  0.64137763720E+02  0.54761802093E+03  0.58686349907E+03  0.00000000000E+00 0.  1.
         22    1    5    5    0    0  0.29603601755E+03  0.60905073104E+01 -0.12961125410E+03  0.32322359932E+03  0.00000000000E+00 0.  1.
          5    1    4    4  502    0 -0.48314031082E+02 -0.72689960138E+01  0.18095175722E+03  0.18749056602E+03  0.47000000000E+01 0. -1.
         -5    1    4    4    0  502 -0.46700552399E+02 -0.62959275017E+02  0.31028344826E+02  0.84437314546E+02  0.47000000000E+01 0. -1.
<mgrwt>
<rscale>  0 0.10001380E+04</rscale>
<asrwt>0</asrwt>
<pdfrwt beam="1">  1        2 0.13938476E+00 0.10001380E+04</pdfrwt>
<pdfrwt beam="2">  1       -2 0.42463701E-01 0.10001380E+04</pdfrwt>
<totfact> 0.18473567E+02</totfact>
</mgrwt>
</event>
<event>
 9    1  0.4388925E-036  0.1000094E+04  0.7818608E-02  0.8680949E-01
          2   -1    0    0  501    0  0.00000000000E+00  0.00000000000E+00  0.19555671863E+04  0.19555671863E+04  0.00000000000E+00 0.  1.
         -2   -1    0    0    0  501 -0.00000000000E+00 -0.00000000000E+00 -0.12786406225E+03  0.12786406225E+03  0.00000000000E+00 0.  1.
         36    2    1    2    0    0 -0.71054273576E-14  0.00000000000E+00  0.18277031240E+04  0.20834312485E+04  0.10000935245E+04 0.  0.
         25    2    3    3    0    0 -0.41635401329E+02  0.10926064418E+03  0.18071520955E+03  0.24840302482E+03  0.12399468039E+03 0.  0.
         35    2    3    3    0    0  0.41635401329E+02 -0.10926064418E+03  0.16469879145E+04  0.18350282237E+04  0.80067970899E+03 0.  0.
         22    1    5    5    0    0 -0.12350569521E+03 -0.18622097503E+03  0.16374060012E+04  0.16525829241E+04  0.00000000000E+00 0. -1.
         22    1    5    5    0    0  0.16514109654E+03  0.76960330852E+02  0.95819132930E+01  0.18244529962E+03  0.00000000000E+00 0. -1.
          5    1    4    4  502    0  0.20473992158E+02 -0.20204787423E+01 -0.63192971519E+01  0.22029303341E+02  0.47000000000E+01 0. -1.
         -5    1    4    4    0  502 -0.62109393487E+02  0.11128112292E+03  0.18703450671E+03  0.22637372148E+03  0.47000000000E+01 0. -1.
<mgrwt>
<rscale>  0 0.10000935E+04</rscale>
<asrwt>0</asrwt>
<pdfrwt beam="1">  1        2 0.30085647E+00 0.10000935E+04</pdfrwt>
<pdfrwt beam="2">  1       -2 0.19671396E-01 0.10000935E+04</pdfrwt>
<totfact> 0.18283658E+02</totfact>
</mgrwt>
</event>
<event>
 9    1  0.4388925E-036  0.1000834E+04  0.7818608E-02  0.8680244E-01
          1   -1    0    0  501    0  0.00000000000E+00  0.00000000000E+00  0.15089680357E+04  0.15089680357E+04  0.00000000000E+00 0.  1.
         -1   -1    0    0    0  501 -0.00000000000E+00 -0.00000000000E+00 -0.16595252513E+03  0.16595252513E+03  0.00000000000E+00 0.  1.
         36    2    1    2    0    0  0.71054273576E-14  0.28421709430E-13  0.13430155106E+04  0.16749205609E+04  0.10008337642E+04 0.  0.
         25    2    3    3    0    0 -0.62989264402E+02 -0.91407361747E+02  0.10627554717E+03  0.19785726795E+03  0.12461963466E+03 0.  0.
         35    2    3    3    0    0  0.62989264402E+02  0.91407361747E+02  0.12367399634E+04  0.14770632929E+04  0.79991704627E+03 0.  0.
         22    1    5    5    0    0  0.17138007886E+02 -0.27425278268E+03  0.11775472780E+03  0.29895564226E+03  0.00000000000E+00 0.  1.
         22    1    5    5    0    0  0.45851256516E+02  0.36566014443E+03  0.11189852356E+04  0.11781076506E+04  0.00000000000E+00 0.  1.
          5    1    4    4  502    0  0.47630491765E+01  0.18883962051E+02  0.55030064506E+02  0.58563543777E+02  0.47000000000E+01 0. -1.
         -5    1    4    4    0  502 -0.67752313579E+02 -0.11029132380E+03  0.51245482662E+02  0.13929372417E+03  0.47000000000E+01 0. -1.
<mgrwt>
<rscale>  0 0.10008338E+04</rscale>
<asrwt>0</asrwt>
<pdfrwt beam="1">  1        1 0.23214892E+00 0.10008338E+04</pdfrwt>
<pdfrwt beam="2">  1       -1 0.25531159E-01 0.10008338E+04</pdfrwt>
<totfact> 0.94001171E+01</totfact>
</mgrwt>
</event>
<event>
 9    1  0.4388925E-036  0.1000237E+04  0.7818608E-02  0.8680812E-01
         -2   -1    0    0    0  501 -0.00000000000E+00  0.00000000000E+00  0.23527892863E+03  0.23527892863E+03  0.00000000000E+00 0. -1.
          2   -1    0    0  501    0  0.00000000000E+00 -0.00000000000E+00 -0.10630722201E+04  0.10630722201E+04  0.00000000000E+00 0. -1.
         36    2    1    2    0    0  0.14210854715E-13 -0.28421709430E-13 -0.82779329147E+03  0.12983511487E+04  0.10002369579E+04 0.  0.
         25    2    3    3    0    0  0.59687665616E+02 -0.11892165318E+03 -0.20671342047E+03  0.27633940013E+03  0.12620637400E+03 0.  0.
         35    2    3    3    0    0 -0.59687665616E+02  0.11892165318E+03 -0.62107987100E+03  0.10220117486E+04  0.80066399388E+03 0.  0.
         22    1    5    5    0    0 -0.42102448873E+03 -0.92786665027E+01 -0.39227761755E+03  0.57552536260E+03  0.00000000000E+00 0. -1.
         22    1    5    5    0    0  0.36133682311E+03  0.12820031969E+03 -0.22880225345E+03  0.44648638601E+03  0.00000000000E+00 0. -1.
          5    1    4    4  502    0 -0.36106253544E+02 -0.41614622058E+02 -0.95625150232E+02  0.11046129490E+03  0.47000000000E+01 0. -1.
         -5    1    4    4    0  502  0.95793919160E+02 -0.77307031126E+02 -0.11108827024E+03  0.16587810523E+03  0.47000000000E+01 0. -1.
<mgrwt>
<rscale>  0 0.10002370E+04</rscale>
<asrwt>0</asrwt>
<pdfrwt beam="1">  1        2 0.16354957E+00 0.10002370E+04</pdfrwt>
<pdfrwt beam="2">  1       -2 0.36196758E-01 0.10002370E+04</pdfrwt>
<totfact> 0.19920361E+02</totfact>
</mgrwt>
</event>
<event>
 9    1  0.4388925E-036  0.1000051E+04  0.7818608E-02  0.8680989E-01
          4   -1    0    0  501    0  0.00000000000E+00  0.00000000000E+00  0.57829232034E+03  0.57829232034E+03  0.00000000000E+00 0.  1.
         -4   -1    0    0    0  501 -0.00000000000E+00 -0.00000000000E+00 -0.43235181473E+03  0.43235181473E+03  0.00000000000E+00 0.  1.
         36    2    1    2    0    0  0.00000000000E+00 -0.28421709430E-13  0.14594050561E+03  0.10106441351E+04  0.10000514670E+04 0.  0.
         25    2    3    3    0    0  0.12057310024E+03  0.62084761024E+02  0.59040362343E+01  0.18696232502E+03  0.12855995987E+03 0.  0.
         35    2    3    3    0    0 -0.12057310024E+03 -0.62084761024E+02  0.14003646937E+03  0.82368181005E+03  0.80028065164E+03 0.  0.
         22    1    5    5    0    0 -0.28262082528E+03 -0.36691358939E+03  0.11698846493E+03  0.47768861603E+03  0.00000000000E+00 0.  1.
         22    1    5    5    0    0  0.16204772505E+03  0.30482882837E+03  0.23048004447E+02  0.34599319401E+03  0.00000000000E+00 0.  1.
          5    1    4    4  502    0  0.41841508321E+02  0.92242548025E+02  0.12982336107E+02  0.10222539086E+03  0.47000000000E+01 0.  1.
         -5    1    4    4    0  502  0.78731591916E+02 -0.30157787001E+02 -0.70782998723E+01  0.84736934164E+02  0.47000000000E+01 0.  1.
<mgrwt>
<rscale>  0 0.10000515E+04</rscale>
<asrwt>0</asrwt>
<pdfrwt beam="1">  1        4 0.88968050E-01 0.10000515E+04</pdfrwt>
<pdfrwt beam="2">  1       -4 0.66515664E-01 0.10000515E+04</pdfrwt>
<totfact> 0.51808057E+00</totfact>
</mgrwt>
</event>
<event>
 9    1  0.4388925E-036  0.9999082E+03  0.7818608E-02  0.8681125E-01
         -2   -1    0    0    0  501 -0.00000000000E+00  0.00000000000E+00  0.57568480198E+03  0.57568480198E+03  0.00000000000E+00 0. -1.
          2   -1    0    0  501    0  0.00000000000E+00 -0.00000000000E+00 -0.43418569703E+03  0.43418569703E+03  0.00000000000E+00 0. -1.
         36    2    1    2    0    0 -0.14210854715E-13  0.00000000000E+00  0.14149910495E+03  0.10098704990E+04  0.99990820982E+03 0.  0.
         25    2    3    3    0    0 -0.10137926557E+03  0.49752813293E+02 -0.56167804371E+02  0.17775492569E+03  0.12525531303E+03 0.  0.
         35    2    3    3    0    0  0.10137926557E+03 -0.49752813293E+02  0.19766690932E+03  0.83211557332E+03  0.80036930376E+03 0.  0.
         22    1    5    5    0    0  0.32459748593E+03 -0.68116302736E+01  0.40868809157E+03  0.52195390828E+03  0.00000000000E+00 0.  1.
         22    1    5    5    0    0 -0.22321822036E+03 -0.42941183019E+02 -0.21102118225E+03  0.31016166504E+03  0.00000000000E+00 0.  1.
          5    1    4    4  502    0 -0.28315642456E+02  0.20852655433E+02 -0.86428061936E+02  0.93426488408E+02  0.47000000000E+01 0. -1.
         -5    1    4    4    0  502 -0.73063623112E+02  0.28900157860E+02  0.30260257565E+02  0.84328437283E+02  0.47000000000E+01 0. -1.
<mgrwt>
<rscale>  0 0.99990821E+03</rscale>
<asrwt>0</asrwt>
<pdfrwt beam="1">  1        2 0.66797799E-01 0.99990821E+03</pdfrwt>
<pdfrwt beam="2">  1       -2 0.88566893E-01 0.99990821E+03</pdfrwt>
<totfact> 0.95043362E+01</totfact>
</mgrwt>
</event>
<event>
 9    1  0.4388925E-036  0.1002203E+04  0.7818608E-02  0.8678943E-01
          2   -1    0    0  501    0  0.00000000000E+00  0.00000000000E+00  0.44049006984E+03  0.44049006984E+03  0.00000000000E+00 0. -1.
         -2   -1    0    0    0  501 -0.00000000000E+00 -0.00000000000E+00 -0.57005303793E+03  0.57005303793E+03  0.00000000000E+00 0. -1.
         36    2    1    2    0    0 -0.14210854715E-13  0.14210854715E-13 -0.12956296809E+03  0.10105431078E+04  0.10022029784E+04 0.  0.
         25    2    3    3    0    0 -0.86259305513E+02  0.49565940434E+02  0.78506888595E+02  0.17773650950E+03  0.12461735439E+03 0.  0.
         35    2    3    3    0    0  0.86259305513E+02 -0.49565940434E+02 -0.20806985669E+03  0.83280659826E+03  0.80023516207E+03 0.  0.
         22    1    5    5    0    0  0.27872274806E+03 -0.22185253423E+03 -0.38127506850E+03  0.52180034026E+03  0.00000000000E+00 0. -1.
         22    1    5    5    0    0 -0.19246344255E+03  0.17228659380E+03  0.17320521181E+03  0.31100625801E+03  0.00000000000E+00 0. -1.
          5    1    4    4  502    0 -0.41718723922E+02  0.16191287183E+02  0.10623928471E+03  0.11537541039E+03  0.47000000000E+01 0.  1.
         -5    1    4    4    0  502 -0.44540581590E+02  0.33374653251E+02 -0.27732396117E+02  0.62361099112E+02  0.47000000000E+01 0.  1.
<mgrwt>
<rscale>  0 0.10022030E+04</rscale>
<asrwt>0</asrwt>
<pdfrwt beam="1">  1        2 0.67767703E-01 0.10022030E+04</pdfrwt>
<pdfrwt beam="2">  1       -2 0.87700468E-01 0.10022030E+04</pdfrwt>
<totfact> 0.95676813E+01</totfact>
</mgrwt>
</event>
<event>
 9    1  0.4388925E-036  0.9928613E+03  0.7818608E-02  0.8687866E-01
          2   -1    0    0  501    0  0.00000000000E+00  0.00000000000E+00  0.65930123505E+03  0.65930123505E+03  0.00000000000E+00 0. -1.
         -2   -1    0    0    0  501 -0.00000000000E+00 -0.00000000000E+00 -0.37379482442E+03  0.37379482442E+03  0.00000000000E+00 0. -1.
         36    2    1    2    0    0  0.00000000000E+00  0.00000000000E+00  0.28550641063E+03  0.10330960595E+04  0.99286129826E+03 0.  0.
         25    2    3    3    0    0 -0.12572579998E+03 -0.37903602484E+02  0.33241484892E+02  0.18418141675E+03  0.12479638655E+03 0.  0.
         35    2    3    3    0    0  0.12572579998E+03  0.37903602484E+02  0.25226492574E+03  0.84891464272E+03  0.79985924887E+03 0.  0.
         22    1    5    5    0    0 -0.25975494840E+03  0.23894026125E+03  0.14145413314E+02  0.35322114091E+03  0.00000000000E+00 0. -1.
         22    1    5    5    0    0  0.38548074839E+03 -0.20103665876E+03  0.23811951242E+03  0.49569350181E+03  0.00000000000E+00 0. -1.
          5    1    4    4  502    0 -0.78695126139E+02 -0.16530166553E+02  0.80593891513E+02  0.11394575303E+03  0.47000000000E+01 0.  1.
         -5    1    4    4    0  502 -0.47030673842E+02 -0.21373435931E+02 -0.47352406621E+02  0.70235663721E+02  0.47000000000E+01 0.  1.
<mgrwt>
<rscale>  0 0.99286130E+03</rscale>
<asrwt>0</asrwt>
<pdfrwt beam="1">  1        2 0.10143096E+00 0.99286130E+03</pdfrwt>
<pdfrwt beam="2">  1       -2 0.57506896E-01 0.99286130E+03</pdfrwt>
<totfact> 0.15135427E+02</totfact>
</mgrwt>
</event>
<event>
 9    1  0.4388925E-036  0.1000526E+04  0.7818608E-02  0.8680537E-01
          1   -1    0    0  501    0  0.00000000000E+00  0.00000000000E+00  0.25939790735E+04  0.25939790735E+04  0.00000000000E+00 0. -1.
         -1   -1    0    0    0  501 -0.00000000000E+00 -0.00000000000E+00 -0.96478506207E+02  0.96478506207E+02  0.00000000000E+00 0. -1.
         36    2    1    2    0    0 -0.71054273576E-14 -0.42632564146E-13  0.24975005673E+04  0.26904575797E+04  0.10005263138E+04 0.  0.
         25    2    3    3    0    0  0.20744321154E+02  0.92324450111E+02  0.75530586387E+03  0.77145055585E+03  0.12527921291E+03 0.  0.
         35    2    3    3    0    0 -0.20744321154E+02 -0.92324450111E+02  0.17421947035E+04  0.19190070239E+04  0.79899401876E+03 0.  0.
         22    1    5    5    0    0  0.14364363954E+03  0.22387211526E+03  0.13996433920E+04  0.14246942984E+04  0.00000000000E+00 0. -1.
         22    1    5    5    0    0 -0.16438796070E+03 -0.31619656538E+03  0.34255131145E+03  0.49431272547E+03  0.00000000000E+00 0. -1.
          5    1    4    4  502    0  0.33595030313E+02  0.41599264305E+01  0.50242304792E+02  0.60764382993E+02  0.47000000000E+01 0.  1.
         -5    1    4    4    0  502 -0.12850709158E+02  0.88164523681E+02  0.70506355908E+03  0.71068617286E+03  0.47000000000E+01 0.  1.
<mgrwt>
<rscale>  0 0.10005263E+04</rscale>
<asrwt>0</asrwt>
<pdfrwt beam="1">  1        1 0.39907365E+00 0.10005263E+04</pdfrwt>
<pdfrwt beam="2">  1       -1 0.14842849E-01 0.10005263E+04</pdfrwt>
<totfact> 0.39670970E+01</totfact>
</mgrwt>
</event>
<event>
 9    1  0.4388925E-036  0.9995818E+03  0.7818608E-02  0.8681436E-01
          2   -1    0    0  501    0  0.00000000000E+00  0.00000000000E+00  0.23730608269E+04  0.23730608269E+04  0.00000000000E+00 0. -1.
         -2   -1    0    0    0  501 -0.00000000000E+00 -0.00000000000E+00 -0.10526108251E+03  0.10526108251E+03  0.00000000000E+00 0. -1.
         36    2    1    2    0    0 -0.28421709430E-13  0.00000000000E+00  0.22677997444E+04  0.24783219094E+04  0.99958181554E+03 0.  0.
         25    2    3    3    0    0 -0.13507748140E+03 -0.28662726869E+02  0.38117822019E+03  0.42479279750E+03  0.12682510545E+03 0.  0.
         35    2    3    3    0    0  0.13507748140E+03  0.28662726869E+02  0.18866215242E+04  0.20535291119E+04  0.79910797764E+03 0.  0.
         22    1    5    5    0    0  0.22790349356E+03  0.24162579831E+03  0.17557436813E+04  0.17868852519E+04  0.00000000000E+00 0. -1.
         22    1    5    5    0    0 -0.92826012162E+02 -0.21296307144E+03  0.13087784283E+03  0.26664386000E+03  0.00000000000E+00 0. -1.
          5    1    4    4  502    0 -0.58561766388E+02 -0.56370909501E+02  0.85422309310E+02  0.11800941000E+03  0.47000000000E+01 0. -1.
         -5    1    4    4    0  502 -0.76515715013E+02  0.27708182633E+02  0.29575591088E+03  0.30678338750E+03  0.47000000000E+01 0. -1.
<mgrwt>
<rscale>  0 0.99958182E+03</rscale>
<asrwt>0</asrwt>
<pdfrwt beam="1">  1        2 0.36508624E+00 0.99958182E+03</pdfrwt>
<pdfrwt beam="2">  1       -2 0.16194014E-01 0.99958182E+03</pdfrwt>
<totfact> 0.14596724E+02</totfact>
</mgrwt>
</event>
<event>
 9    1  0.4388925E-036  0.9980662E+03  0.7818608E-02  0.8682882E-01
         -2   -1    0    0    0  501 -0.00000000000E+00  0.00000000000E+00  0.11593334897E+03  0.11593334897E+03  0.00000000000E+00 0.  1.
          2   -1    0    0  501    0  0.00000000000E+00 -0.00000000000E+00 -0.21480794625E+04  0.21480794625E+04  0.00000000000E+00 0.  1.
         36    2    1    2    0    0 -0.71054273576E-14  0.00000000000E+00 -0.20321461135E+04  0.22640128114E+04  0.99806622214E+03 0.  0.
         25    2    3    3    0    0 -0.34117859964E+02 -0.63185661375E+02 -0.64808125390E+03  0.66386638776E+03  0.12471091758E+03 0.  0.
         35    2    3    3    0    0  0.34117859964E+02  0.63185661375E+02 -0.13840648596E+04  0.16001464237E+04  0.79979784039E+03 0.  0.
         22    1    5    5    0    0  0.38277576395E+03  0.10559975058E+03 -0.10186436602E+04  0.10932993640E+04  0.00000000000E+00 0. -1.
         22    1    5    5    0    0 -0.34865790399E+03 -0.42414089200E+02 -0.36542119942E+03  0.50684705974E+03  0.00000000000E+00 0. -1.
          5    1    4    4  502    0  0.18325167815E+02 -0.53416033363E+02 -0.54278123455E+03  0.54573129192E+03  0.47000000000E+01 0. -1.
         -5    1    4    4    0  502 -0.52443027778E+02 -0.97696280122E+01 -0.10530001935E+03  0.11813509584E+03  0.47000000000E+01 0. -1.
<mgrwt>
<rscale>  0 0.99806622E+03</rscale>
<asrwt>0</asrwt>
<pdfrwt beam="1">  1        2 0.33047376E+00 0.99806622E+03</pdfrwt>
<pdfrwt beam="2">  1       -2 0.17835900E-01 0.99806622E+03</pdfrwt>
<totfact> 0.16785903E+02</totfact>
</mgrwt>
</event>
<event>
 9    1  0.4388925E-036  0.1001044E+04  0.7818608E-02  0.8680044E-01
          2   -1    0    0  501    0  0.00000000000E+00  0.00000000000E+00  0.74069324036E+03  0.74069324036E+03  0.00000000000E+00 0. -1.
         -2   -1    0    0    0  501 -0.00000000000E+00 -0.00000000000E+00 -0.33822675474E+03  0.33822675474E+03  0.00000000000E+00 0. -1.
         36    2    1    2    0    0  0.14210854715E-13  0.00000000000E+00  0.40246648563E+03  0.10789199951E+04  0.10010439969E+04 0.  0.
         25    2    3    3    0    0 -0.11517312615E+03 -0.58578858850E+01  0.16396942808E+03  0.23614457127E+03  0.12481635061E+03 0.  0.
         35    2    3    3    0    0  0.11517312615E+03  0.58578858850E+01  0.23849705754E+03  0.84277542383E+03  0.80005650097E+03 0.  0.
         22    1    5    5    0    0  0.21652444758E+03 -0.28712955956E+02  0.50789780296E+03  0.55287200010E+03  0.00000000000E+00 0.  1.
         22    1    5    5    0    0 -0.10135132143E+03  0.34570841841E+02 -0.26940074542E+03  0.28990342373E+03  0.00000000000E+00 0.  1.
          5    1    4    4  502    0 -0.88509962361E+02 -0.18897597018E+02  0.25068411189E+02  0.94030036955E+02  0.47000000000E+01 0.  1.
         -5    1    4    4    0  502 -0.26663163790E+02  0.13039711133E+02  0.13890101689E+03  0.14211453432E+03  0.47000000000E+01 0.  1.
<mgrwt>
<rscale>  0 0.10010440E+04</rscale>
<asrwt>0</asrwt>
<pdfrwt beam="1">  1        2 0.11395281E+00 0.10010440E+04</pdfrwt>
<pdfrwt beam="2">  1       -2 0.52034885E-01 0.10010440E+04</pdfrwt>
<totfact> 0.16086496E+02</totfact>
</mgrwt>
</event>
<event>
 9    1  0.4388925E-036  0.9985981E+03  0.7818608E-02  0.8682374E-01
         -2   -1    0    0    0  501 -0.00000000000E+00  0.00000000000E+00  0.29729745074E+03  0.29729745074E+03  0.00000000000E+00 0.  1.
          2   -1    0    0  501    0  0.00000000000E+00 -0.00000000000E+00 -0.83855257922E+03  0.83855257922E+03  0.00000000000E+00 0.  1.
         36    2    1    2    0    0  0.00000000000E+00 -0.28421709430E-13 -0.54125512847E+03  0.11358500300E+04  0.99859810558E+03 0.  0.
         25    2    3    3    0    0 -0.65737630278E+02  0.78082828902E+02  0.32306748862E+01  0.16142131629E+03  0.12501215896E+03 0.  0.
         35    2    3    3    0    0  0.65737630278E+02 -0.78082828902E+02 -0.54448580336E+03  0.97442871368E+03  0.80164091947E+03 0.  0.
         22    1    5    5    0    0  0.29017949810E+03 -0.21587116867E+03 -0.60439136393E+03  0.70433899748E+03  0.00000000000E+00 0. -1.
         22    1    5    5    0    0 -0.22444186782E+03  0.13778833977E+03  0.59905560574E+02  0.27008971619E+03  0.00000000000E+00 0. -1.
          5    1    4    4  502    0  0.20944882157E+02 -0.10777211469E+02  0.25703137867E+02  0.35179222161E+02  0.47000000000E+01 0. -1.
         -5    1    4    4    0  502 -0.86682512435E+02  0.88860040371E+02 -0.22472462981E+02  0.12624209413E+03  0.47000000000E+01 0. -1.
<mgrwt>
<rscale>  0 0.99859811E+03</rscale>
<asrwt>0</asrwt>
<pdfrwt beam="1">  1        2 0.12900809E+00 0.99859811E+03</pdfrwt>
<pdfrwt beam="2">  1       -2 0.45738070E-01 0.99859811E+03</pdfrwt>
<totfact> 0.17733374E+02</totfact>
</mgrwt>
</event>
<event>
 9    1  0.4388925E-036  0.1000642E+04  0.7818608E-02  0.8680426E-01
          1   -1    0    0  501    0  0.00000000000E+00  0.00000000000E+00  0.97649838074E+03  0.97649838074E+03  0.00000000000E+00 0. -1.
         -1   -1    0    0    0  501 -0.00000000000E+00 -0.00000000000E+00 -0.25634589519E+03  0.25634589519E+03  0.00000000000E+00 0. -1.
         36    2    1    2    0    0 -0.56843418861E-13 -0.14210854715E-13  0.72015248555E+03  0.12328442759E+04  0.10006424967E+04 0.  0.
         25    2    3    3    0    0  0.10806271488E+03  0.77453145246E+02  0.75964363283E+02  0.19780477794E+03  0.12521823202E+03 0.  0.
         35    2    3    3    0    0 -0.10806271488E+03 -0.77453145246E+02  0.64418812227E+03  0.10350394980E+04  0.79915698424E+03 0.  0.
         22    1    5    5    0    0 -0.37723912639E+03  0.16740450608E+03  0.19359978614E+03  0.45586676160E+03  0.00000000000E+00 0. -1.
         22    1    5    5    0    0  0.26917641151E+03 -0.24485765132E+03  0.45058833612E+03  0.57917273639E+03  0.00000000000E+00 0. -1.
          5    1    4    4  502    0  0.86276642844E+02  0.20737254252E+02 -0.13172094679E+02  0.89829209573E+02  0.47000000000E+01 0.  1.
         -5    1    4    4    0  502  0.21786072037E+02  0.56715890994E+02  0.89136457962E+02  0.10797556837E+03  0.47000000000E+01 0.  1.
<mgrwt>
<rscale>  0 0.10006425E+04</rscale>
<asrwt>0</asrwt>
<pdfrwt beam="1">  1        1 0.15023052E+00 0.10006425E+04</pdfrwt>
<pdfrwt beam="2">  1       -1 0.39437831E-01 0.10006425E+04</pdfrwt>
<totfact> 0.11067620E+02</totfact>
</mgrwt>
</event>
<event>
 9    1  0.4388925E-036  0.1000111E+04  0.7818608E-02  0.8680932E-01
          2   -1    0    0  501    0  0.00000000000E+00  0.00000000000E+00  0.29733505815E+03  0.29733505815E+03  0.00000000000E+00 0.  1.
         -2   -1    0    0    0  501 -0.00000000000E+00 -0.00000000000E+00 -0.84098890997E+03  0.84098890997E+03  0.00000000000E+00 0.  1.
         36    2    1    2    0    0  0.00000000000E+00  0.00000000000E+00 -0.54365385182E+03  0.11383239681E+04  0.10001109667E+04 0.  0.
         25    2    3    3    0    0 -0.12367422762E+03 -0.62758860806E+01 -0.28480701841E+02  0.17881779779E+03  0.12581714154E+03 0.  0.
         35    2    3    3    0    0  0.12367422762E+03  0.62758860806E+01 -0.51517314998E+03  0.95950617032E+03  0.79994625763E+03 0.  0.
         22    1    5    5    0    0  0.22342211895E+02 -0.34934058632E+03 -0.47138998841E+03  0.58715120783E+03  0.00000000000E+00 0.  1.
         22    1    5    5    0    0  0.10133201572E+03  0.35561647240E+03 -0.43783161575E+02  0.37235496249E+03  0.00000000000E+00 0.  1.
          5    1    4    4  502    0 -0.55697083777E+02  0.57180989193E+02  0.43695637192E+01  0.80081294654E+02  0.47000000000E+01 0. -1.
         -5    1    4    4    0  502 -0.67977143842E+02 -0.63456875273E+02 -0.32850265560E+02  0.98736503137E+02  0.47000000000E+01 0. -1.
<mgrwt>
<rscale>  0 0.10001110E+04</rscale>
<asrwt>0</asrwt>
<pdfrwt beam="1">  1        2 0.45743856E-01 0.10001110E+04</pdfrwt>
<pdfrwt beam="2">  1       -2 0.12938291E+00 0.10001110E+04</pdfrwt>
<totfact> 0.56319437E+01</totfact>
</mgrwt>
</event>
<event>
 9    1  0.4388925E-036  0.9995588E+03  0.7818608E-02  0.8681458E-01
         -2   -1    0    0    0  501 -0.00000000000E+00  0.00000000000E+00  0.13707170899E+03  0.13707170899E+03  0.00000000000E+00 0. -1.
          2   -1    0    0  501    0  0.00000000000E+00 -0.00000000000E+00 -0.18222538315E+04  0.18222538315E+04  0.00000000000E+00 0. -1.
         36    2    1    2    0    0 -0.14210854715E-13  0.00000000000E+00 -0.16851821225E+04  0.19593255405E+04  0.99955879647E+03 0.  0.
         25    2    3    3    0    0  0.88984256801E+02 -0.96173376068E+02 -0.41216895384E+03  0.45063265472E+03  0.12656629399E+03 0.  0.
         35    2    3    3    0    0 -0.88984256801E+02  0.96173376068E+02 -0.12730131686E+04  0.15086928857E+04  0.79901450533E+03 0.  0.
         22    1    5    5    0    0 -0.13584058695E+03 -0.32854338744E+03 -0.38997987431E+03  0.52770988702E+03  0.00000000000E+00 0.  1.
         22    1    5    5    0    0  0.46856330149E+02  0.42471676351E+03 -0.88303329433E+03  0.98098299872E+03  0.00000000000E+00 0.  1.
          5    1    4    4  502    0  0.57362165180E+02 -0.58061637520E+02 -0.38572946278E+03  0.39429795866E+03  0.47000000000E+01 0.  1.
         -5    1    4    4    0  502  0.31622091620E+02 -0.38111738549E+02 -0.26439491057E+02  0.56334696067E+02  0.47000000000E+01 0.  1.
<mgrwt>
<rscale>  0 0.99955880E+03</rscale>
<asrwt>0</asrwt>
<pdfrwt beam="1">  1        2 0.28034675E+00 0.99955880E+03</pdfrwt>
<pdfrwt beam="2">  1       -2 0.21087955E-01 0.99955880E+03</pdfrwt>
<totfact> 0.19283682E+02</totfact>
</mgrwt>
</event>
<event>
 9    1  0.4388925E-036  0.1000012E+04  0.7818608E-02  0.8681026E-01
          1   -1    0    0  501    0  0.00000000000E+00  0.00000000000E+00  0.32402438043E+03  0.32402438043E+03  0.00000000000E+00 0.  1.
         -1   -1    0    0    0  501 -0.00000000000E+00 -0.00000000000E+00 -0.77156559243E+03  0.77156559243E+03  0.00000000000E+00 0.  1.
         36    2    1    2    0    0  0.28421709430E-13  0.71054273576E-14 -0.44754121200E+03  0.10955899729E+04  0.10000121260E+04 0.  0.
         25    2    3    3    0    0 -0.16991105498E+02  0.49897670430E+02 -0.23179615054E+03  0.26925847546E+03  0.12646025471E+03 0.  0.
         35    2    3    3    0    0  0.16991105498E+02 -0.49897670430E+02 -0.21574506146E+03  0.82633149739E+03  0.79592671576E+03 0.  0.
         22    1    5    5    0    0 -0.28649527291E+03  0.21850374877E+03 -0.21810089575E+03  0.42117862049E+03  0.00000000000E+00 0. -1.
         22    1    5    5    0    0  0.30348637841E+03 -0.26840141920E+03  0.23558342897E+01  0.40515287691E+03  0.00000000000E+00 0. -1.
          5    1    4    4  502    0  0.38870694639E+02 -0.22602093305E+02 -0.70702226949E+02  0.83920679329E+02  0.47000000000E+01 0.  1.
         -5    1    4    4    0  502 -0.55861800137E+02  0.72499763735E+02 -0.16109392360E+03  0.18533779613E+03  0.47000000000E+01 0.  1.
<mgrwt>
<rscale>  0 0.10000121E+04</rscale>
<asrwt>0</asrwt>
<pdfrwt beam="1">  1        1 0.49849905E-01 0.10000121E+04</pdfrwt>
<pdfrwt beam="2">  1       -1 0.11870240E+00 0.10000121E+04</pdfrwt>
<totfact> 0.60586606E+01</totfact>
</mgrwt>
</event>
<event>
 9    1  0.4388925E-036  0.9997541E+03  0.7818608E-02  0.8681272E-01
          2   -1    0    0  501    0  0.00000000000E+00  0.00000000000E+00  0.15312023318E+04  0.15312023318E+04  0.00000000000E+00 0. -1.
         -2   -1    0    0    0  501 -0.00000000000E+00 -0.00000000000E+00 -0.16319009679E+03  0.16319009679E+03  0.00000000000E+00 0. -1.
         36    2    1    2    0    0  0.00000000000E+00 -0.71054273576E-14  0.13680122350E+04  0.16943924286E+04  0.99975408322E+03 0.  0.
         25    2    3    3    0    0 -0.72643464347E+02 -0.21688173862E+02  0.45688228445E+03  0.47968658182E+03  0.12494136679E+03 0.  0.
         35    2    3    3    0    0  0.72643464347E+02  0.21688173862E+02  0.91112995056E+03  0.12147058468E+04  0.79975312289E+03 0.  0.
         22    1    5    5    0    0  0.18695389605E+03 -0.11444227122E+02 -0.89102637398E+02  0.20741747654E+03  0.00000000000E+00 0. -1.
         22    1    5    5    0    0 -0.11431043170E+03  0.33132400984E+02  0.10002325880E+04  0.10072883702E+04  0.00000000000E+00 0. -1.
          5    1    4    4  502    0 -0.82128200069E+02  0.34126015169E+02  0.26444715401E+03  0.27904123965E+03  0.47000000000E+01 0.  1.
         -5    1    4    4    0  502  0.94847357220E+01 -0.55814189031E+02  0.19243513044E+03  0.20064534217E+03  0.47000000000E+01 0.  1.
<mgrwt>
<rscale>  0 0.99975408E+03</rscale>
<asrwt>0</asrwt>
<pdfrwt beam="1">  1        2 0.23556958E+00 0.99975408E+03</pdfrwt>
<pdfrwt beam="2">  1       -2 0.25106170E-01 0.99975408E+03</pdfrwt>
<totfact> 0.20711918E+02</totfact>
</mgrwt>
</event>
<event>
 9    1  0.4388925E-036  0.9990036E+03  0.7818608E-02  0.8681987E-01
         -1   -1    0    0    0  501 -0.00000000000E+00  0.00000000000E+00  0.25457726364E+03  0.25457726364E+03  0.00000000000E+00 0. -1.
          1   -1    0    0  501    0  0.00000000000E+00 -0.00000000000E+00 -0.98006409015E+03  0.98006409015E+03  0.00000000000E+00 0. -1.
         36    2    1    2    0    0  0.00000000000E+00  0.71054273576E-14 -0.72548682652E+03  0.12346413538E+04  0.99900357209E+03 0.  0.
         25    2    3    3    0    0  0.94990186489E+02  0.60422143304E+01 -0.18876851439E+02  0.16290196261E+03  0.13084750673E+03 0.  0.
         35    2    3    3    0    0 -0.94990186489E+02 -0.60422143304E+01 -0.70660997508E+03  0.10717393912E+04  0.80016749612E+03 0.  0.
         22    1    5    5    0    0 -0.40720890946E+03  0.15470710495E+03 -0.50458797838E+03  0.66660513964E+03  0.00000000000E+00 0.  1.
         22    1    5    5    0    0  0.31221872297E+03 -0.16074931928E+03 -0.20202199670E+03  0.40513425155E+03  0.00000000000E+00 0.  1.
          5    1    4    4  502    0  0.10363799828E+03 -0.38813805455E+02  0.55115940063E+01  0.11090452583E+03  0.47000000000E+01 0. -1.
         -5    1    4    4    0  502 -0.86478117917E+01  0.44856019785E+02 -0.24388445445E+02  0.51997436773E+02  0.47000000000E+01 0. -1.
<mgrwt>
<rscale>  0 0.99900357E+03</rscale>
<asrwt>0</asrwt>
<pdfrwt beam="1">  1        1 0.15077909E+00 0.99900357E+03</pdfrwt>
<pdfrwt beam="2">  1       -1 0.39165733E-01 0.99900357E+03</pdfrwt>
<totfact> 0.11132675E+02</totfact>
</mgrwt>
</event>
<event>
 9    1  0.4388925E-036  0.9997638E+03  0.7818608E-02  0.8681263E-01
         -2   -1    0    0    0  501 -0.00000000000E+00  0.00000000000E+00  0.72753010514E+02  0.72753010514E+02  0.00000000000E+00 0.  1.
          2   -1    0    0  501    0  0.00000000000E+00 -0.00000000000E+00 -0.34346609673E+04  0.34346609673E+04  0.00000000000E+00 0.  1.
         36    2    1    2    0    0  0.28421709430E-13 -0.14210854715E-13 -0.33619079567E+04  0.35074139778E+04  0.99976382303E+03 0.  0.
         25    2    3    3    0    0  0.96175847455E+02 -0.91965716456E+02 -0.45807573714E+03  0.49241161242E+03  0.12218153893E+03 0.  0.
         35    2    3    3    0    0 -0.96175847455E+02  0.91965716456E+02 -0.29038322196E+04  0.30150023653E+04  0.80018136494E+03 0.  0.
         22    1    5    5    0    0  0.14399729607E+03 -0.74277231065E+02 -0.25545387107E+04  0.25596719229E+04  0.00000000000E+00 0. -1.
         22    1    5    5    0    0 -0.24017314353E+03  0.16624294752E+03 -0.34929350890E+03  0.45533044246E+03  0.00000000000E+00 0. -1.
          5    1    4    4  502    0  0.69859567778E+02 -0.10693470010E+03 -0.43678294301E+03  0.45510088837E+03  0.47000000000E+01 0. -1.
         -5    1    4    4    0  502  0.26316279677E+02  0.14968983641E+02 -0.21292794134E+02  0.37310724053E+02  0.47000000000E+01 0. -1.
<mgrwt>
<rscale>  0 0.99976382E+03</rscale>
<asrwt>0</asrwt>
<pdfrwt beam="1">  1        2 0.52840932E+00 0.99976382E+03</pdfrwt>
<pdfrwt beam="2">  1       -2 0.11192772E-01 0.99976382E+03</pdfrwt>
<totfact> 0.53760038E+01</totfact>
</mgrwt>
</event>
<event>
 9    1  0.4388925E-036  0.9983754E+03  0.7818608E-02  0.8682587E-01
          1   -1    0    0  501    0  0.00000000000E+00  0.00000000000E+00  0.24544692794E+03  0.24544692794E+03  0.00000000000E+00 0.  1.
         -1   -1    0    0    0  501 -0.00000000000E+00 -0.00000000000E+00 -0.10152433551E+04  0.10152433551E+04  0.00000000000E+00 0.  1.
         36    2    1    2    0    0 -0.10658141036E-13 -0.14210854715E-13 -0.76979642713E+03  0.12606902830E+04  0.99837540558E+03 0.  0.
         25    2    3    3    0    0 -0.25031640466E+02  0.12366366759E+03 -0.21523823643E+03  0.27908163155E+03  0.12505907779E+03 0.  0.
         35    2    3    3    0    0  0.25031640466E+02 -0.12366366759E+03 -0.55455819070E+03  0.98160865147E+03  0.80006341752E+03 0.  0.
         22    1    5    5    0    0  0.14014289895E+03 -0.27839579059E+03 -0.68241403294E+03  0.75022207426E+03  0.00000000000E+00 0.  1.
         22    1    5    5    0    0 -0.11511125849E+03  0.15473212300E+03  0.12785584224E+03  0.23138657721E+03  0.00000000000E+00 0.  1.
          5    1    4    4  502    0  0.12632008074E+02 -0.13409362562E+02 -0.82056707058E+02  0.84230468391E+02  0.47000000000E+01 0.  1.
         -5    1    4    4    0  502 -0.37663648540E+02  0.13707303015E+03 -0.13318152938E+03  0.19485116316E+03  0.47000000000E+01 0.  1.
<mgrwt>
<rscale>  0 0.99837541E+03</rscale>
<asrwt>0</asrwt>
<pdfrwt beam="1">  1        1 0.37761066E-01 0.99837541E+03</pdfrwt>
<pdfrwt beam="2">  1       -1 0.15619129E+00 0.99837541E+03</pdfrwt>
<totfact> 0.41425675E+01</totfact>
</mgrwt>
</event>
<event>
 9    1  0.4388925E-036  0.9988536E+03  0.7818608E-02  0.8682130E-01
         -2   -1    0    0    0  501 -0.00000000000E+00  0.00000000000E+00  0.12976964292E+03  0.12976964292E+03  0.00000000000E+00 0.  1.
          2   -1    0    0  501    0  0.00000000000E+00 -0.00000000000E+00 -0.19220761222E+04  0.19220761222E+04  0.00000000000E+00 0.  1.
         36    2    1    2    0    0 -0.14210854715E-13  0.00000000000E+00 -0.17923064793E+04  0.20518457651E+04  0.99885360699E+03 0.  0.
         25    2    3    3    0    0  0.55027416854E+02  0.95254096375E+02 -0.16364541230E+03  0.23396888974E+03  0.12593752784E+03 0.  0.
         35    2    3    3    0    0 -0.55027416854E+02 -0.95254096375E+02 -0.16286610670E+04  0.18178768754E+04  0.80002381431E+03 0.  0.
         22    1    5    5    0    0 -0.66330285756E+02  0.25802771757E+03 -0.13261200851E+04  0.13526169044E+04  0.00000000000E+00 0. -1.
         22    1    5    5    0    0  0.11302868902E+02 -0.35328181395E+03 -0.30254098185E+03  0.46525997100E+03  0.00000000000E+00 0. -1.
          5    1    4    4  502    0  0.79662712632E+00  0.73757281648E+02 -0.16667098160E+02  0.75767099535E+02  0.47000000000E+01 0. -1.
         -5    1    4    4    0  502  0.54230789728E+02  0.21496814727E+02 -0.14697831414E+03  0.15820179021E+03  0.47000000000E+01 0. -1.
<mgrwt>
<rscale>  0 0.99885361E+03</rscale>
<asrwt>0</asrwt>
<pdfrwt beam="1">  1        2 0.29570399E+00 0.99885361E+03</pdfrwt>
<pdfrwt beam="2">  1       -2 0.19964562E-01 0.99885361E+03</pdfrwt>
<totfact> 0.18619537E+02</totfact>
</mgrwt>
</event>
<event>
 9    1  0.4388925E-036  0.9996076E+03  0.7818608E-02  0.8681412E-01
          1   -1    0    0  501    0  0.00000000000E+00  0.00000000000E+00  0.36426798211E+03  0.36426798211E+03  0.00000000000E+00 0. -1.
         -1   -1    0    0    0  501 -0.00000000000E+00 -0.00000000000E+00 -0.68576939547E+03  0.68576939547E+03  0.00000000000E+00 0. -1.
         36    2    1    2    0    0  0.21316282073E-13  0.42632564146E-13 -0.32150141337E+03  0.10500373776E+04  0.99960759077E+03 0.  0.
         25    2    3    3    0    0  0.24950546780E+02  0.12407708641E+03 -0.12327920164E+03  0.21652395865E+03  0.12516872595E+03 0.  0.
         35    2    3    3    0    0 -0.24950546780E+02 -0.12407708641E+03 -0.19822221172E+03  0.83351341893E+03  0.79964674773E+03 0.  0.
         22    1    5    5    0    0 -0.32563311073E+03 -0.31052468816E+03 -0.61166274071E+02  0.45409670539E+03  0.00000000000E+00 0.  1.
         22    1    5    5    0    0  0.30068256395E+03  0.18644760175E+03 -0.13705593765E+03  0.37941671354E+03  0.00000000000E+00 0.  1.
          5    1    4    4  502    0 -0.26552334695E+02  0.79962350215E+02 -0.12224167734E+03  0.14853996637E+03  0.47000000000E+01 0.  1.
         -5    1    4    4    0  502  0.51502881475E+02  0.44114736197E+02 -0.10375243009E+01  0.67983992282E+02  0.47000000000E+01 0.  1.
<mgrwt>
<rscale>  0 0.99960759E+03</rscale>
<asrwt>0</asrwt>
<pdfrwt beam="1">  1        1 0.56041229E-01 0.99960759E+03</pdfrwt>
<pdfrwt beam="2">  1       -1 0.10550298E+00 0.99960759E+03</pdfrwt>
<totfact> 0.68703872E+01</totfact>
</mgrwt>
</event>
<event>
 9    1  0.4388925E-036  0.1000087E+04  0.7818608E-02  0.8680955E-01
          1   -1    0    0  501    0  0.00000000000E+00  0.00000000000E+00  0.14744299944E+04  0.14744299944E+04  0.00000000000E+00 0. -1.
         -1   -1    0    0    0  501 -0.00000000000E+00 -0.00000000000E+00 -0.16958643875E+03  0.16958643875E+03  0.00000000000E+00 0. -1.
         36    2    1    2    0    0 -0.14210854715E-13 -0.14210854715E-13  0.13048435557E+04  0.16440164332E+04  0.10000866601E+04 0.  0.
         25    2    3    3    0    0  0.11286300877E+03  0.52443017574E+02  0.14127967820E+03  0.22580315634E+03  0.12465467941E+03 0.  0.
         35    2    3    3    0    0 -0.11286300877E+03 -0.52443017574E+02  0.11635638775E+04  0.14182132768E+04  0.80122385936E+03 0.  0.
         22    1    5    5    0    0 -0.38569562824E+03 -0.21364442622E+03  0.41570191846E+03  0.60598114122E+03  0.00000000000E+00 0.  1.
         22    1    5    5    0    0  0.27283261947E+03  0.16120140865E+03  0.74786195901E+03  0.81223213562E+03  0.00000000000E+00 0.  1.
          5    1    4    4  502    0  0.77257275318E+02 -0.20292037004E+02  0.11584044519E+03  0.14078903401E+03  0.47000000000E+01 0.  1.
         -5    1    4    4    0  502  0.35605733453E+02  0.72735054577E+02  0.25439233005E+02  0.85014122327E+02  0.47000000000E+01 0.  1.
<mgrwt>
<rscale>  0 0.10000867E+04</rscale>
<asrwt>0</asrwt>
<pdfrwt beam="1">  1        1 0.22683538E+00 0.10000867E+04</pdfrwt>
<pdfrwt beam="2">  1       -1 0.26090222E-01 0.10000867E+04</pdfrwt>
<totfact> 0.95920929E+01</totfact>
</mgrwt>
</event>
<event>
 9    1  0.4388925E-036  0.9997867E+03  0.7818608E-02  0.8681241E-01
         -2   -1    0    0    0  501 -0.00000000000E+00  0.00000000000E+00  0.11794893732E+03  0.11794893732E+03  0.00000000000E+00 0.  1.
          2   -1    0    0  501    0  0.00000000000E+00 -0.00000000000E+00 -0.21186572829E+04  0.21186572829E+04  0.00000000000E+00 0.  1.
         36    2    1    2    0    0  0.00000000000E+00  0.00000000000E+00 -0.20007083455E+04  0.22366062202E+04  0.99978672737E+03 0.  0.
         25    2    3    3    0    0 -0.85962032313E+02  0.75529322662E+02 -0.54284429820E+03  0.56907713228E+03  0.12678604345E+03 0.  0.
         35    2    3    3    0    0  0.85962032313E+02 -0.75529322662E+02 -0.14578640473E+04  0.16675290879E+04  0.80136853500E+03 0.  0.
         22    1    5    5    0    0 -0.17071723685E+03 -0.36207670190E+03 -0.53905149013E+03  0.67143162126E+03  0.00000000000E+00 0. -1.
         22    1    5    5    0    0  0.25667926916E+03  0.28654737923E+03 -0.91881255721E+03  0.99609746664E+03  0.00000000000E+00 0. -1.
          5    1    4    4  502    0 -0.36031209995E+01 -0.16505957373E+02 -0.25774184981E+03  0.25833772519E+03  0.47000000000E+01 0.  1.
         -5    1    4    4    0  502 -0.82358911313E+02  0.92035280035E+02 -0.28510244839E+03  0.31073940710E+03  0.47000000000E+01 0.  1.
<mgrwt>
<rscale>  0 0.99978673E+03</rscale>
<asrwt>0</asrwt>
<pdfrwt beam="1">  1        2 0.32594729E+00 0.99978673E+03</pdfrwt>
<pdfrwt beam="2">  1       -2 0.18145990E-01 0.99978673E+03</pdfrwt>
<totfact> 0.16948129E+02</totfact>
</mgrwt>
</event>
<event>
 9    1  0.4388925E-036  0.1000223E+04  0.7818608E-02  0.8680826E-01
          1   -1    0    0  501    0  0.00000000000E+00  0.00000000000E+00  0.20790112594E+04  0.20790112594E+04  0.00000000000E+00 0.  1.
         -1   -1    0    0    0  501 -0.00000000000E+00 -0.00000000000E+00 -0.12030303929E+03  0.12030303929E+03  0.00000000000E+00 0.  1.
         36    2    1    2    0    0 -0.42632564146E-13  0.00000000000E+00  0.19587082202E+04  0.21993142987E+04  0.10002227217E+04 0.  0.
         25    2    3    3    0    0 -0.44032310343E+02  0.69173683349E+02  0.60388736109E+03  0.62234112918E+03  0.12611381115E+03 0.  0.
         35    2    3    3    0    0  0.44032310343E+02 -0.69173683349E+02  0.13548208591E+04  0.15769731696E+04  0.80285800398E+03 0.  0.
         22    1    5    5    0    0  0.40764403485E+03 -0.58371590438E+02  0.93377521216E+03  0.10205474259E+04  0.00000000000E+00 0.  1.
         22    1    5    5    0    0 -0.36361172450E+03 -0.10802092911E+02  0.42104564691E+03  0.55642574364E+03  0.00000000000E+00 0.  1.
          5    1    4    4  502    0  0.94068596082E+01  0.78020331118E+02  0.48829260484E+03  0.49459824001E+03  0.47000000000E+01 0.  1.
         -5    1    4    4    0  502 -0.53439169951E+02 -0.88466477689E+01  0.11559475625E+03  0.12774288917E+03  0.47000000000E+01 0.  1.
<mgrwt>
<rscale>  0 0.10002227E+04</rscale>
<asrwt>0</asrwt>
<pdfrwt beam="1">  1        1 0.31984786E+00 0.10002227E+04</pdfrwt>
<pdfrwt beam="2">  1       -1 0.18508161E-01 0.10002227E+04</pdfrwt>
<totfact> 0.63705139E+01</totfact>
</mgrwt>
</event>
<event>
 9    1  0.4388925E-036  0.9990442E+03  0.7818608E-02  0.8681949E-01
         -2   -1    0    0    0  501 -0.00000000000E+00  0.00000000000E+00  0.14601581024E+03  0.14601581024E+03  0.00000000000E+00 0.  1.
          2   -1    0    0  501    0  0.00000000000E+00 -0.00000000000E+00 -0.17088719022E+04  0.17088719022E+04  0.00000000000E+00 0.  1.
         36    2    1    2    0    0 -0.14210854715E-13  0.28421709430E-13 -0.15628560920E+04  0.18548877125E+04  0.99904417401E+03 0.  0.
         25    2    3    3    0    0  0.18726137738E+02  0.12312839816E+03 -0.39907981923E+03  0.43630557130E+03  0.12484622047E+03 0.  0.
         35    2    3    3    0    0 -0.18726137738E+02 -0.12312839816E+03 -0.11637762728E+04  0.14185821412E+04  0.80155399540E+03 0.  0.
         22    1    5    5    0    0 -0.38991767929E+03  0.64365683236E+02 -0.55485661140E+03  0.68120818918E+03  0.00000000000E+00 0. -1.
         22    1    5    5    0    0  0.37119154155E+03 -0.18749408140E+03 -0.60891966137E+03  0.73737395199E+03  0.00000000000E+00 0. -1.
          5    1    4    4  502    0 -0.33401313531E+02  0.26451736887E+02 -0.33061775616E+02  0.54134214106E+02  0.47000000000E+01 0. -1.
         -5    1    4    4    0  502  0.52127451269E+02  0.96676661276E+02 -0.36601804361E+03  0.38217135719E+03  0.47000000000E+01 0. -1.
<mgrwt>
<rscale>  0 0.99904417E+03</rscale>
<asrwt>0</asrwt>
<pdfrwt beam="1">  1        2 0.26290335E+00 0.99904417E+03</pdfrwt>
<pdfrwt beam="2">  1       -2 0.22463972E-01 0.99904417E+03</pdfrwt>
<totfact> 0.20007011E+02</totfact>
</mgrwt>
</event>
<event>
 9    1  0.4388925E-036  0.1000239E+04  0.7818608E-02  0.8680811E-01
          1   -1    0    0  501    0  0.00000000000E+00  0.00000000000E+00  0.10003624991E+04  0.10003624991E+04  0.00000000000E+00 0. -1.
         -1   -1    0    0    0  501 -0.00000000000E+00 -0.00000000000E+00 -0.25002877351E+03  0.25002877351E+03  0.00000000000E+00 0. -1.
         36    2    1    2    0    0  0.14210854715E-13  0.28421709430E-13  0.75033372555E+03  0.12503912726E+04  0.10002387889E+04 0.  0.
         25    2    3    3    0    0  0.10148362812E+03  0.79235563906E+02  0.21457308179E+03  0.27959597460E+03  0.12472008749E+03 0.  0.
         35    2    3    3    0    0 -0.10148362812E+03 -0.79235563906E+02  0.53576064377E+03  0.97079529796E+03  0.79926643979E+03 0.  0.
         22    1    5    5    0    0  0.10953879723E+03 -0.35645721559E+03  0.49539970405E+03  0.62006561057E+03  0.00000000000E+00 0. -1.
         22    1    5    5    0    0 -0.21102242535E+03  0.27722165168E+03  0.40360939717E+02  0.35072968739E+03  0.00000000000E+00 0. -1.
          5    1    4    4  502    0  0.77328894488E+02  0.10471901860E+02  0.18493053879E+03  0.20077552846E+03  0.47000000000E+01 0. -1.
         -5    1    4    4    0  502  0.24154733628E+02  0.68763662047E+02  0.29642542993E+02  0.78820446141E+02  0.47000000000E+01 0. -1.
<mgrwt>
<rscale>  0 0.10002388E+04</rscale>
<asrwt>0</asrwt>
<pdfrwt beam="1">  1        1 0.15390192E+00 0.10002388E+04</pdfrwt>
<pdfrwt beam="2">  1       -1 0.38465966E-01 0.10002388E+04</pdfrwt>
<totfact> 0.11072256E+02</totfact>
</mgrwt>
</event>
<event>
 9    1  0.4388925E-036  0.9998861E+03  0.7818608E-02  0.8681146E-01
          1   -1    0    0  501    0  0.00000000000E+00  0.00000000000E+00  0.23225686098E+04  0.23225686098E+04  0.00000000000E+00 0.  1.
         -1   -1    0    0    0  501 -0.00000000000E+00 -0.00000000000E+00 -0.10761493178E+03  0.10761493178E+03  0.00000000000E+00 0.  1.
         36    2    1    2    0    0 -0.35527136788E-14  0.00000000000E+00  0.22149536781E+04  0.24301835416E+04  0.99988611852E+03 0.  0.
         25    2    3    3    0    0  0.14993275122E+02  0.13490015553E+03  0.34243695935E+03  0.38921705389E+03  0.12571393577E+03 0.  0.
         35    2    3    3    0    0 -0.14993275122E+02 -0.13490015553E+03  0.18725167187E+04  0.20409664877E+04  0.80050140034E+03 0.  0.
         22    1    5    5    0    0 -0.25867376916E+03 -0.20145393526E+03  0.17087489720E+04  0.17399192097E+04  0.00000000000E+00 0. -1.
         22    1    5    5    0    0  0.24368049404E+03  0.66553779726E+02  0.16376774673E+03  0.30104727808E+03  0.00000000000E+00 0. -1.
          5    1    4    4  502    0 -0.10234144891E+02 -0.13167771038E+02  0.11705395700E+03  0.11832939941E+03  0.47000000000E+01 0.  1.
         -5    1    4    4    0  502  0.25227420014E+02  0.14806792657E+03  0.22538300236E+03  0.27088765448E+03  0.47000000000E+01 0.  1.
<mgrwt>
<rscale>  0 0.99988612E+03</rscale>
<asrwt>0</asrwt>
<pdfrwt beam="1">  1        1 0.35731821E+00 0.99988612E+03</pdfrwt>
<pdfrwt beam="2">  1       -1 0.16556145E-01 0.99988612E+03</pdfrwt>
<totfact> 0.51555710E+01</totfact>
</mgrwt>
</event>
<event>
 9    1  0.4388925E-036  0.1001008E+04  0.7818608E-02  0.8680078E-01
          2   -1    0    0  501    0  0.00000000000E+00  0.00000000000E+00  0.49738268168E+03  0.49738268168E+03  0.00000000000E+00 0. -1.
         -2   -1    0    0    0  501 -0.00000000000E+00 -0.00000000000E+00 -0.50364505487E+03  0.50364505487E+03  0.00000000000E+00 0. -1.
         36    2    1    2    0    0 -0.10658141036E-13 -0.71054273576E-14 -0.62623731898E+01  0.10010277365E+04  0.10010081478E+04 0.  0.
         25    2    3    3    0    0 -0.29878621680E+02  0.61652606667E+02 -0.12296052404E+03  0.18886954419E+03  0.12593108555E+03 0.  0.
         35    2    3    3    0    0  0.29878621680E+02 -0.61652606667E+02  0.11669815085E+03  0.81215819235E+03  0.80080502936E+03 0.  0.
         22    1    5    5    0    0 -0.71190822079E+02  0.21860709005E+03  0.36024207458E+03  0.42735412162E+03  0.00000000000E+00 0. -1.
         22    1    5    5    0    0  0.10106944376E+03 -0.28025969671E+03 -0.24354392373E+03  0.38480407073E+03  0.00000000000E+00 0. -1.
          5    1    4    4  502    0  0.20489133935E+02 -0.32930087957E+00 -0.10472295050E+03  0.10681244969E+03  0.47000000000E+01 0.  1.
         -5    1    4    4    0  502 -0.50367755614E+02  0.61981907546E+02 -0.18237573540E+02  0.82057094497E+02  0.47000000000E+01 0.  1.
<mgrwt>
<rscale>  0 0.10010081E+04</rscale>
<asrwt>0</asrwt>
<pdfrwt beam="1">  1        2 0.76520412E-01 0.10010081E+04</pdfrwt>
<pdfrwt beam="2">  1       -2 0.77483855E-01 0.10010081E+04</pdfrwt>
<totfact> 0.11102533E+02</totfact>
</mgrwt>
</event>
<event>
 9    1  0.4388925E-036  0.9987386E+03  0.7818608E-02  0.8682240E-01
         -2   -1    0    0    0  501 -0.00000000000E+00  0.00000000000E+00  0.88444447634E+02  0.88444447634E+02  0.00000000000E+00 0. -1.
          2   -1    0    0  501    0  0.00000000000E+00 -0.00000000000E+00 -0.28195063071E+04  0.28195063071E+04  0.00000000000E+00 0. -1.
         36    2    1    2    0    0  0.28421709430E-13  0.00000000000E+00 -0.27310618594E+04  0.29079507547E+04  0.99873856025E+03 0.  0.
         25    2    3    3    0    0 -0.91124202197E+02  0.66823698059E+02 -0.27852477060E+03  0.32564769616E+03  0.12530501718E+03 0.  0.
         35    2    3    3    0    0  0.91124202197E+02 -0.66823698059E+02 -0.24525370888E+04  0.25823030585E+04  0.80036359687E+03 0.  0.
         22    1    5    5    0    0 -0.71267070064E+02  0.34761765707E+03 -0.90696997359E+03  0.97391558350E+03  0.00000000000E+00 0. -1.
         22    1    5    5    0    0  0.16239127226E+03 -0.41444135513E+03 -0.15455671152E+04  0.16083874750E+04  0.00000000000E+00 0. -1.
          5    1    4    4  502    0 -0.43183773491E+02  0.72321301305E+02 -0.26066921429E+03  0.27398127344E+03  0.47000000000E+01 0.  1.
         -5    1    4    4    0  502 -0.47940428706E+02 -0.54976032461E+01 -0.17855556307E+02  0.51666422723E+02  0.47000000000E+01 0.  1.
<mgrwt>
<rscale>  0 0.99873856E+03</rscale>
<asrwt>0</asrwt>
<pdfrwt beam="1">  1        2 0.43377023E+00 0.99873856E+03</pdfrwt>
<pdfrwt beam="2">  1       -2 0.13606837E-01 0.99873856E+03</pdfrwt>
<totfact> 0.10341087E+02</totfact>
</mgrwt>
</event>
<event>
 9    1  0.4388925E-036  0.1001091E+04  0.7818608E-02  0.8680000E-01
         -2   -1    0    0    0  501 -0.00000000000E+00  0.00000000000E+00  0.14906561109E+03  0.14906561109E+03  0.00000000000E+00 0. -1.
          2   -1    0    0  501    0  0.00000000000E+00 -0.00000000000E+00 -0.16807737501E+04  0.16807737501E+04  0.00000000000E+00 0. -1.
         36    2    1    2    0    0 -0.56843418861E-13 -0.14210854715E-13 -0.15317081390E+04  0.18298393612E+04  0.10010905377E+04 0.  0.
         25    2    3    3    0    0 -0.77763113274E+02 -0.82557864227E+02 -0.43942014228E+03  0.47074119814E+03  0.12507722195E+03 0.  0.
         35    2    3    3    0    0  0.77763113274E+02  0.82557864227E+02 -0.10922879968E+04  0.13590981631E+04  0.80074455745E+03 0.  0.
         22    1    5    5    0    0 -0.26280354443E+03  0.28379899137E+03 -0.36831387565E+03  0.53409987967E+03  0.00000000000E+00 0.  1.
         22    1    5    5    0    0  0.34056665770E+03 -0.20124112715E+03 -0.72397412110E+03  0.82499828340E+03  0.00000000000E+00 0.  1.
          5    1    4    4  502    0 -0.44214025137E+02 -0.10033894993E+03 -0.19865612955E+03  0.22695623521E+03  0.47000000000E+01 0. -1.
         -5    1    4    4    0  502 -0.33549088137E+02  0.17781085706E+02 -0.24076401274E+03  0.24378496293E+03  0.47000000000E+01 0. -1.
<mgrwt>
<rscale>  0 0.10010905E+04</rscale>
<asrwt>0</asrwt>
<pdfrwt beam="1">  1        2 0.25858057E+00 0.10010905E+04</pdfrwt>
<pdfrwt beam="2">  1       -2 0.22933172E-01 0.10010905E+04</pdfrwt>
<totfact> 0.20010788E+02</totfact>
</mgrwt>
</event>
<event>
 9    1  0.4388925E-036  0.9998403E+03  0.7818608E-02  0.8681190E-01
          2   -1    0    0  501    0  0.00000000000E+00  0.00000000000E+00  0.51677035360E+03  0.51677035360E+03  0.00000000000E+00 0.  1.
         -2   -1    0    0    0  501 -0.00000000000E+00 -0.00000000000E+00 -0.48361941090E+03  0.48361941090E+03  0.00000000000E+00 0.  1.
         36    2    1    2    0    0  0.00000000000E+00  0.00000000000E+00  0.33150942704E+02  0.10003897645E+04  0.99984033521E+03 0.  0.
         25    2    3    3    0    0 -0.55871389110E+02  0.12059442599E+03 -0.39723726465E+02  0.18733561006E+03  0.12590483967E+03 0.  0.
         35    2    3    3    0    0  0.55871389110E+02 -0.12059442599E+03  0.72874669170E+02  0.81305415445E+03  0.79880017085E+03 0.  0.
         22    1    5    5    0    0 -0.49834145647E+02  0.30406639727E+03 -0.12533659593E+03  0.33263956214E+03  0.00000000000E+00 0.  1.
         22    1    5    5    0    0  0.10570553476E+03 -0.42466082326E+03  0.19821126510E+03  0.48041459231E+03  0.00000000000E+00 0.  1.
          5    1    4    4  502    0 -0.51558552096E+02  0.13545255998E+03 -0.63726450168E+02  0.15839454142E+03  0.47000000000E+01 0. -1.
         -5    1    4    4    0  502 -0.43128370142E+01 -0.14858133994E+02  0.24002723703E+02  0.28941068640E+02  0.47000000000E+01 0. -1.
<mgrwt>
<rscale>  0 0.99984034E+03</rscale>
<asrwt>0</asrwt>
<pdfrwt beam="1">  1        2 0.79503132E-01 0.99984034E+03</pdfrwt>
<pdfrwt beam="2">  1       -2 0.74402986E-01 0.99984034E+03</pdfrwt>
<totfact> 0.11636655E+02</totfact>
</mgrwt>
</event>
<event>
 9    1  0.4388925E-036  0.1000005E+04  0.7818608E-02  0.8681033E-01
          2   -1    0    0  501    0  0.00000000000E+00  0.00000000000E+00  0.24629219492E+04  0.24629219492E+04  0.00000000000E+00 0.  1.
         -2   -1    0    0    0  501 -0.00000000000E+00 -0.00000000000E+00 -0.10150640914E+03  0.10150640914E+03  0.00000000000E+00 0.  1.
         36    2    1    2    0    0 -0.71054273576E-14  0.00000000000E+00  0.23614155400E+04  0.25644283583E+04  0.10000047261E+04 0.  0.
         25    2    3    3    0    0  0.66675071460E+01  0.13780170987E+03  0.42728866480E+03  0.46604239723E+03  0.12484448748E+03 0.  0.
         35    2    3    3    0    0 -0.66675071460E+01 -0.13780170987E+03  0.19341268752E+04  0.20983859611E+04  0.80208671931E+03 0.  0.
         22    1    5    5    0    0  0.10011623786E+03 -0.19467001738E+02 -0.45978233472E+02  0.11187592767E+03  0.00000000000E+00 0. -1.
         22    1    5    5    0    0 -0.10678374500E+03 -0.11833470813E+03  0.19801051087E+04  0.19865100334E+04  0.00000000000E+00 0. -1.
          5    1    4    4  502    0  0.49011970406E+02  0.13232095269E+02  0.16283572040E+03  0.17063066379E+03  0.47000000000E+01 0. -1.
         -5    1    4    4    0  502 -0.42344463260E+02  0.12456961460E+03  0.26445294440E+03  0.29541173344E+03  0.47000000000E+01 0. -1.
<mgrwt>
<rscale>  0 0.10000047E+04</rscale>
<asrwt>0</asrwt>
<pdfrwt beam="1">  1        2 0.37891102E+00 0.10000047E+04</pdfrwt>
<pdfrwt beam="2">  1       -2 0.15616372E-01 0.10000047E+04</pdfrwt>
<totfact> 0.13706538E+02</totfact>
</mgrwt>
</event>
<event>
 9    1  0.4388925E-036  0.1000006E+04  0.7818608E-02  0.8681032E-01
         -4   -1    0    0    0  501 -0.00000000000E+00  0.00000000000E+00  0.22993853300E+03  0.22993853300E+03  0.00000000000E+00 0. -1.
          4   -1    0    0  501    0  0.00000000000E+00 -0.00000000000E+00 -0.10872608165E+04  0.10872608165E+04  0.00000000000E+00 0. -1.
         36    2    1    2    0    0 -0.28421709430E-13  0.28421709430E-13 -0.85732228354E+03  0.13171993495E+04  0.10000063143E+04 0.  0.
         25    2    3    3    0    0  0.73190108210E+02 -0.55850783873E+02 -0.22186860320E+02  0.15659114767E+03  0.12470937719E+03 0.  0.
         35    2    3    3    0    0 -0.73190108210E+02  0.55850783873E+02 -0.83513542322E+03  0.11606082019E+04  0.80067728901E+03 0.  0.
         22    1    5    5    0    0 -0.34540126819E+03 -0.16056815759E+03 -0.18531833176E+03  0.42358830648E+03  0.00000000000E+00 0.  1.
         22    1    5    5    0    0  0.27221115998E+03  0.21641894147E+03 -0.64981709146E+03  0.73701989539E+03  0.00000000000E+00 0.  1.
          5    1    4    4  502    0  0.37459786405E+02  0.80709616218E+00  0.46924003894E+02  0.60231546079E+02  0.47000000000E+01 0.  1.
         -5    1    4    4    0  502  0.35730321806E+02 -0.56657880035E+02 -0.69110864214E+02  0.96359601591E+02  0.47000000000E+01 0.  1.
<mgrwt>
<rscale>  0 0.10000063E+04</rscale>
<asrwt>0</asrwt>
<pdfrwt beam="1">  1        4 0.16727090E+00 0.10000063E+04</pdfrwt>
<pdfrwt beam="2">  1       -4 0.35375158E-01 0.10000063E+04</pdfrwt>
<totfact> 0.32931879E+00</totfact>
</mgrwt>
</event>
<event>
 9    1  0.4388925E-036  0.1000320E+04  0.7818608E-02  0.8680733E-01
          2   -1    0    0  501    0  0.00000000000E+00  0.00000000000E+00  0.10387858697E+04  0.10387858697E+04  0.00000000000E+00 0. -1.
         -2   -1    0    0    0  501 -0.00000000000E+00 -0.00000000000E+00 -0.24081970793E+03  0.24081970793E+03  0.00000000000E+00 0. -1.
         36    2    1    2    0    0  0.00000000000E+00  0.00000000000E+00  0.79796616177E+03  0.12796055776E+04  0.10003201682E+04 0.  0.
         25    2    3    3    0    0  0.41431687147E+01 -0.79671236055E+02  0.48618793542E+01  0.15073978187E+03  0.12780521220E+03 0.  0.
         35    2    3    3    0    0 -0.41431687147E+01  0.79671236055E+02  0.79310428241E+03  0.11288657957E+04  0.79934905412E+03 0.  0.
         22    1    5    5    0    0  0.87539794987E+01  0.14540578856E+02  0.95434194499E+03  0.95449285412E+03  0.00000000000E+00 0.  1.
         22    1    5    5    0    0 -0.12897148213E+02  0.65130657199E+02 -0.16123766258E+03  0.17437294163E+03  0.00000000000E+00 0.  1.
          5    1    4    4  502    0  0.49307634877E+02  0.40555439235E+01 -0.17878958386E+02  0.52815125169E+02  0.47000000000E+01 0.  1.
         -5    1    4    4    0  502 -0.45164466162E+02 -0.83726779978E+02  0.22740837740E+02  0.97924656703E+02  0.47000000000E+01 0.  1.
<mgrwt>
<rscale>  0 0.10003202E+04</rscale>
<asrwt>0</asrwt>
<pdfrwt beam="1">  1        2 0.15981321E+00 0.10003202E+04</pdfrwt>
<pdfrwt beam="2">  1       -2 0.37049186E-01 0.10003202E+04</pdfrwt>
<totfact> 0.19735627E+02</totfact>
</mgrwt>
</event>
<event>
 9    1  0.4388925E-036  0.1000185E+04  0.7818608E-02  0.8680862E-01
          2   -1    0    0  501    0  0.00000000000E+00  0.00000000000E+00  0.27464948454E+04  0.27464948454E+04  0.00000000000E+00 0.  1.
         -2   -1    0    0    0  501 -0.00000000000E+00 -0.00000000000E+00 -0.91058757425E+02  0.91058757425E+02  0.00000000000E+00 0.  1.
         36    2    1    2    0    0  0.42632564146E-13  0.00000000000E+00  0.26554360880E+04  0.28375536028E+04  0.10001847987E+04 0.  0.
         25    2    3    3    0    0 -0.56344428507E+02  0.11982917390E+03  0.37439831487E+03  0.41661322649E+03  0.12593155588E+03 0.  0.
         35    2    3    3    0    0  0.56344428507E+02 -0.11982917390E+03  0.22810377731E+04  0.24209403764E+04  0.80017826633E+03 0.  0.
         22    1    5    5    0    0 -0.27379046677E+03 -0.32192328273E+03  0.12607580698E+04  0.13297017449E+04  0.00000000000E+00 0.  1.
         22    1    5    5    0    0  0.33013489528E+03  0.20209410883E+03  0.10202797033E+04  0.10912386315E+04  0.00000000000E+00 0.  1.
          5    1    4    4  502    0  0.17507513738E+02  0.11728438170E+02  0.18539242453E+03  0.18664541348E+03  0.47000000000E+01 0.  1.
         -5    1    4    4    0  502 -0.73851942245E+02  0.10810073573E+03  0.18900589034E+03  0.22996781301E+03  0.47000000000E+01 0.  1.
<mgrwt>
<rscale>  0 0.10001848E+04</rscale>
<asrwt>0</asrwt>
<pdfrwt beam="1">  1        2 0.42253760E+00 0.10001848E+04</pdfrwt>
<pdfrwt beam="2">  1       -2 0.14009042E-01 0.10001848E+04</pdfrwt>
<totfact> 0.10969354E+02</totfact>
</mgrwt>
</event>
<event>
 9    1  0.4388925E-036  0.1000004E+04  0.7818608E-02  0.8681035E-01
          1   -1    0    0  501    0  0.00000000000E+00  0.00000000000E+00  0.12326490523E+04  0.12326490523E+04  0.00000000000E+00 0.  1.
         -1   -1    0    0    0  501 -0.00000000000E+00 -0.00000000000E+00 -0.20281667395E+03  0.20281667395E+03  0.00000000000E+00 0.  1.
         36    2    1    2    0    0  0.00000000000E+00 -0.21316282073E-13  0.10298323784E+04  0.14354657263E+04  0.10000035619E+04 0.  0.
         25    2    3    3    0    0 -0.12750922174E+03  0.20598056113E+02  0.11671902623E+03  0.21410592828E+03  0.12464002526E+03 0.  0.
         35    2    3    3    0    0  0.12750922174E+03 -0.20598056113E+02  0.91311335215E+03  0.12213597980E+04  0.80078766272E+03 0.  0.
         22    1    5    5    0    0 -0.26549708888E+03  0.15689369835E+03  0.14567565574E+03  0.34106558528E+03  0.00000000000E+00 0.  1.
         22    1    5    5    0    0  0.39300631062E+03 -0.17749175446E+03  0.76743769641E+03  0.88029421273E+03  0.00000000000E+00 0.  1.
          5    1    4    4  502    0 -0.13371494726E+03  0.52454474739E+02  0.10911512790E+03  0.18044212418E+03  0.47000000000E+01 0. -1.
         -5    1    4    4    0  502  0.62057255180E+01 -0.31856418627E+02  0.76038983267E+01  0.33663804103E+02  0.47000000000E+01 0. -1.
<mgrwt>
<rscale>  0 0.10000036E+04</rscale>
<asrwt>0</asrwt>
<pdfrwt beam="1">  1        1 0.18963831E+00 0.10000036E+04</pdfrwt>
<pdfrwt beam="2">  1       -1 0.31202566E-01 0.10000036E+04</pdfrwt>
<totfact> 0.10591517E+02</totfact>
</mgrwt>
</event>
<event>
 9    1  0.4388925E-036  0.9998953E+03  0.7818608E-02  0.8681138E-01
          1   -1    0    0  501    0  0.00000000000E+00  0.00000000000E+00  0.64433093769E+03  0.64433093769E+03  0.00000000000E+00 0. -1.
         -1   -1    0    0    0  501 -0.00000000000E+00 -0.00000000000E+00 -0.38791811980E+03  0.38791811980E+03  0.00000000000E+00 0. -1.
         36    2    1    2    0    0  0.00000000000E+00  0.35527136788E-14  0.25641281790E+03  0.10322490575E+04  0.99989528627E+03 0.  0.
         25    2    3    3    0    0  0.10696058572E+03  0.60378051880E+01 -0.44760496470E+02  0.17077167493E+03  0.12522955293E+03 0.  0.
         35    2    3    3    0    0 -0.10696058572E+03 -0.60378051880E+01  0.30117331437E+03  0.86147738256E+03  0.79997555799E+03 0.  0.
         22    1    5    5    0    0 -0.44593418755E+03  0.78155546050E+02  0.21777381453E+03  0.50238533349E+03  0.00000000000E+00 0.  1.
         22    1    5    5    0    0  0.33897360183E+03 -0.84193351238E+02  0.83399499838E+02  0.35909204907E+03  0.00000000000E+00 0.  1.
          5    1    4    4  502    0  0.60437355584E+02 -0.95742696998E+01 -0.86580406918E+02  0.10612538552E+03  0.47000000000E+01 0.  1.
         -5    1    4    4    0  502  0.46523230135E+02  0.15612074888E+02  0.41819910448E+02  0.64646289409E+02  0.47000000000E+01 0.  1.
<mgrwt>
<rscale>  0 0.99989529E+03</rscale>
<asrwt>0</asrwt>
<pdfrwt beam="1">  1        1 0.99127837E-01 0.99989529E+03</pdfrwt>
<pdfrwt beam="2">  1       -1 0.59679711E-01 0.99989529E+03</pdfrwt>
<totfact> 0.10163535E+02</totfact>
</mgrwt>
</event>
<event>
 9    1  0.4388925E-036  0.9998658E+03  0.7818608E-02  0.8681166E-01
         -2   -1    0    0    0  501 -0.00000000000E+00  0.00000000000E+00  0.24783112158E+03  0.24783112158E+03  0.00000000000E+00 0. -1.
          2   -1    0    0  501    0  0.00000000000E+00 -0.00000000000E+00 -0.10084807118E+04  0.10084807118E+04  0.00000000000E+00 0. -1.
         36    2    1    2    0    0  0.00000000000E+00  0.00000000000E+00 -0.76064959025E+03  0.12563118334E+04  0.99986580280E+03 0.  0.
         25    2    3    3    0    0 -0.12582474571E+03  0.61169514310E+02 -0.12603152521E+03  0.22612690492E+03  0.12520325742E+03 0.  0.
         35    2    3    3    0    0  0.12582474571E+03 -0.61169514310E+02 -0.63461806504E+03  0.10301849285E+04  0.79935431587E+03 0.  0.
         22    1    5    5    0    0  0.41538953530E+03 -0.52123956241E+02 -0.60944955417E+03  0.73938767364E+03  0.00000000000E+00 0.  1.
         22    1    5    5    0    0 -0.28956478959E+03 -0.90455580684E+01 -0.25168510869E+02  0.29079725485E+03  0.00000000000E+00 0.  1.
          5    1    4    4  502    0  0.20742156692E+02  0.21518543752E+02 -0.25504887869E+01  0.30362473261E+02  0.47000000000E+01 0. -1.
         -5    1    4    4    0  502 -0.14656690241E+03  0.39650970558E+02 -0.12348103642E+03  0.19576443166E+03  0.47000000000E+01 0. -1.
<mgrwt>
<rscale>  0 0.99986580E+03</rscale>
<asrwt>0</asrwt>
<pdfrwt beam="1">  1        2 0.15515088E+00 0.99986580E+03</pdfrwt>
<pdfrwt beam="2">  1       -2 0.38127864E-01 0.99986580E+03</pdfrwt>
<totfact> 0.19523180E+02</totfact>
</mgrwt>
</event>
<event>
 9    1  0.4388925E-036  0.9942399E+03  0.7818608E-02  0.8686543E-01
          1   -1    0    0  501    0  0.00000000000E+00  0.00000000000E+00  0.20358647353E+04  0.20358647353E+04  0.00000000000E+00 0. -1.
         -1   -1    0    0    0  501 -0.00000000000E+00 -0.00000000000E+00 -0.12138734921E+03  0.12138734921E+03  0.00000000000E+00 0. -1.
         36    2    1    2    0    0 -0.28421709430E-13  0.42632564146E-13  0.19144773861E+04  0.21572520845E+04  0.99423985752E+03 0.  0.
         25    2    3    3    0    0  0.11461404870E+03  0.19155046736E+02  0.22386856069E+03  0.28384504722E+03  0.13018288055E+03 0.  0.
         35    2    3    3    0    0 -0.11461404870E+03 -0.19155046736E+02  0.16906088254E+04  0.18734070373E+04  0.79874428379E+03 0.  0.
         22    1    5    5    0    0  0.63048335223E+02 -0.33281253559E+03  0.12933634975E+04  0.13369848216E+04  0.00000000000E+00 0. -1.
         22    1    5    5    0    0 -0.17766238393E+03  0.31365748886E+03  0.39724532782E+03  0.53642221566E+03  0.00000000000E+00 0. -1.
          5    1    4    4  502    0 -0.19262093368E-01  0.52427584643E+02  0.91365351175E+02  0.10544367879E+03  0.47000000000E+01 0.  1.
         -5    1    4    4    0  502  0.11463331080E+03 -0.33272537907E+02  0.13250320952E+03  0.17840136842E+03  0.47000000000E+01 0.  1.
<mgrwt>
<rscale>  0 0.99423986E+03</rscale>
<asrwt>0</asrwt>
<pdfrwt beam="1">  1        1 0.31320993E+00 0.99423986E+03</pdfrwt>
<pdfrwt beam="2">  1       -1 0.18674978E-01 0.99423986E+03</pdfrwt>
<totfact> 0.67326413E+01</totfact>
</mgrwt>
</event>
<event>
 9    1  0.4388925E-036  0.9995369E+03  0.7818608E-02  0.8681479E-01
         -2   -1    0    0    0  501 -0.00000000000E+00  0.00000000000E+00  0.26531189506E+03  0.26531189506E+03  0.00000000000E+00 0.  1.
          2   -1    0    0  501    0  0.00000000000E+00 -0.00000000000E+00 -0.94141461810E+03  0.94141461810E+03  0.00000000000E+00 0.  1.
         36    2    1    2    0    0  0.14210854715E-13  0.00000000000E+00 -0.67610272305E+03  0.12067265132E+04  0.99953688549E+03 0.  0.
         25    2    3    3    0    0  0.11783572463E+03  0.37453528741E+02 -0.21718606834E+03  0.27939406970E+03  0.12491290200E+03 0.  0.
         35    2    3    3    0    0 -0.11783572463E+03 -0.37453528741E+02 -0.45891665470E+03  0.92733244346E+03  0.79627441244E+03 0.  0.
         22    1    5    5    0    0 -0.41278611814E+03  0.65203340756E+01 -0.42318294761E+02  0.41500088212E+03  0.00000000000E+00 0. -1.
         22    1    5    5    0    0  0.29495039351E+03 -0.43973862817E+02 -0.41659835994E+03  0.51233156134E+03  0.00000000000E+00 0. -1.
          5    1    4    4  502    0 -0.13338212070E+02  0.26341624310E+02 -0.95472030096E+02  0.10004392837E+03  0.47000000000E+01 0.  1.
         -5    1    4    4    0  502  0.13117393670E+03  0.11111904431E+02 -0.12171403825E+03  0.17935014134E+03  0.47000000000E+01 0.  1.
<mgrwt>
<rscale>  0 0.99953689E+03</rscale>
<asrwt>0</asrwt>
<pdfrwt beam="1">  1        2 0.14483302E+00 0.99953689E+03</pdfrwt>
<pdfrwt beam="2">  1       -2 0.40817214E-01 0.99953689E+03</pdfrwt>
<totfact> 0.18907605E+02</totfact>
</mgrwt>
</event>
<event>
 9    1  0.4388925E-036  0.1000309E+04  0.7818608E-02  0.8680743E-01
          2   -1    0    0  501    0  0.00000000000E+00  0.00000000000E+00  0.14275583438E+04  0.14275583438E+04  0.00000000000E+00 0. -1.
         -2   -1    0    0    0  501 -0.00000000000E+00 -0.00000000000E+00 -0.17523253680E+03  0.17523253680E+03  0.00000000000E+00 0. -1.
         36    2    1    2    0    0  0.00000000000E+00  0.19539925233E-13  0.12523258070E+04  0.16027908806E+04  0.10003092922E+04 0.  0.
         25    2    3    3    0    0  0.65032083915E+02 -0.66145972471E+01  0.36654913581E+02  0.14609728067E+03  0.12541095604E+03 0.  0.
         35    2    3    3    0    0 -0.65032083915E+02  0.66145972471E+01  0.12156708935E+04  0.14566936000E+04  0.79989224159E+03 0.  0.
         22    1    5    5    0    0  0.32077070056E+02 -0.39096134511E+03  0.55828500760E+03  0.68232093732E+03  0.00000000000E+00 0.  1.
         22    1    5    5    0    0 -0.97109153971E+02  0.39757594236E+03  0.65738588585E+03  0.77437266264E+03  0.00000000000E+00 0.  1.
          5    1    4    4  502    0  0.15360300505E+02  0.45068961541E+01 -0.45989059268E+02  0.48921718254E+02  0.47000000000E+01 0. -1.
         -5    1    4    4    0  502  0.49671783411E+02 -0.11121493401E+02  0.82643972849E+02  0.97175562417E+02  0.47000000000E+01 0. -1.
<mgrwt>
<rscale>  0 0.10003093E+04</rscale>
<asrwt>0</asrwt>
<pdfrwt beam="1">  1        2 0.21962435E+00 0.10003093E+04</pdfrwt>
<pdfrwt beam="2">  1       -2 0.26958853E-01 0.10003093E+04</pdfrwt>
<totfact> 0.20885480E+02</totfact>
</mgrwt>
</event>
<event>
 9    1  0.4388925E-036  0.1003979E+04  0.7818608E-02  0.8677258E-01
          1   -1    0    0  501    0  0.00000000000E+00  0.00000000000E+00  0.70998681467E+03  0.70998681467E+03  0.00000000000E+00 0.  1.
         -1   -1    0    0    0  501 -0.00000000000E+00 -0.00000000000E+00 -0.35492710206E+03  0.35492710206E+03  0.00000000000E+00 0.  1.
         36    2    1    2    0    0  0.00000000000E+00  0.00000000000E+00  0.35505971261E+03  0.10649139167E+04  0.10039792082E+04 0.  0.
         25    2    3    3    0    0  0.13934160317E+03 -0.16772222549E+02  0.10452322730E+03  0.21488203659E+03  0.12470683535E+03 0.  0.
         35    2    3    3    0    0 -0.13934160317E+03  0.16772222549E+02  0.25053648531E+03  0.85003188015E+03  0.80005517120E+03 0.  0.
         22    1    5    5    0    0 -0.34732556705E+03  0.29650496922E+03  0.19705242414E+03  0.49737300305E+03  0.00000000000E+00 0. -1.
         22    1    5    5    0    0  0.20798396388E+03 -0.27973274667E+03  0.53484061169E+02  0.35265887709E+03  0.00000000000E+00 0. -1.
          5    1    4    4  502    0  0.69135912043E+02 -0.52842328876E+02  0.10416649008E+03  0.13581175837E+03  0.47000000000E+01 0. -1.
         -5    1    4    4    0  502  0.70205691126E+02  0.36070106327E+02  0.35673721648E+00  0.79070278224E+02  0.47000000000E+01 0. -1.
<mgrwt>
<rscale>  0 0.10039792E+04</rscale>
<asrwt>0</asrwt>
<pdfrwt beam="1">  1        1 0.10922874E+00 0.10039792E+04</pdfrwt>
<pdfrwt beam="2">  1       -1 0.54604169E-01 0.10039792E+04</pdfrwt>
<totfact> 0.10380868E+02</totfact>
</mgrwt>
</event>
<event>
 9    1  0.4388925E-036  0.1000537E+04  0.7818608E-02  0.8680527E-01
          2   -1    0    0  501    0  0.00000000000E+00  0.00000000000E+00  0.19866379820E+04  0.19866379820E+04  0.00000000000E+00 0. -1.
         -2   -1    0    0    0  501 -0.00000000000E+00 -0.00000000000E+00 -0.12597592517E+03  0.12597592517E+03  0.00000000000E+00 0. -1.
         36    2    1    2    0    0  0.71054273576E-14 -0.42632564146E-13  0.18606620568E+04  0.21126139072E+04  0.10005369714E+04 0.  0.
         25    2    3    3    0    0 -0.47541290175E+01 -0.99728640383E+02  0.55903473590E+03  0.58144764581E+03  0.12487243659E+03 0.  0.
         35    2    3    3    0    0  0.47541290175E+01  0.99728640383E+02  0.13016273209E+04  0.15311662614E+04  0.80016750365E+03 0.  0.
         22    1    5    5    0    0  0.11668992002E+03 -0.24970384211E+03  0.10516842414E+04  0.10872020464E+04  0.00000000000E+00 0.  1.
         22    1    5    5    0    0 -0.11193579101E+03  0.34943248249E+03  0.24994307956E+03  0.44396421494E+03  0.00000000000E+00 0.  1.
          5    1    4    4  502    0  0.33639559178E+02 -0.12976302305E+02  0.41100584870E+02  0.54875791018E+02  0.47000000000E+01 0. -1.
         -5    1    4    4    0  502 -0.38393688195E+02 -0.86752338078E+02  0.51793415103E+03  0.52657185479E+03  0.47000000000E+01 0. -1.
<mgrwt>
<rscale>  0 0.10005370E+04</rscale>
<asrwt>0</asrwt>
<pdfrwt beam="1">  1        2 0.30563659E+00 0.10005370E+04</pdfrwt>
<pdfrwt beam="2">  1       -2 0.19380913E-01 0.10005370E+04</pdfrwt>
<totfact> 0.18011625E+02</totfact>
</mgrwt>
</event>
<event>
 9    1  0.4388925E-036  0.9992877E+03  0.7818608E-02  0.8681717E-01
         -2   -1    0    0    0  501 -0.00000000000E+00  0.00000000000E+00  0.18550799507E+03  0.18550799507E+03  0.00000000000E+00 0. -1.
          2   -1    0    0  501    0  0.00000000000E+00 -0.00000000000E+00 -0.13457317278E+04  0.13457317278E+04  0.00000000000E+00 0. -1.
         36    2    1    2    0    0  0.28421709430E-13 -0.28421709430E-13 -0.11602237327E+04  0.15312397229E+04  0.99928773581E+03 0.  0.
         25    2    3    3    0    0 -0.13039169755E+03 -0.21855176630E+02 -0.15198438759E+03  0.23712986973E+03  0.12510666453E+03 0.  0.
         35    2    3    3    0    0  0.13039169755E+03  0.21855176630E+02 -0.10082393452E+04  0.12941098532E+04  0.80043368957E+03 0.  0.
         22    1    5    5    0    0 -0.16690028201E+03 -0.31481362425E+03 -0.52370007745E+03  0.63342331286E+03  0.00000000000E+00 0. -1.
         22    1    5    5    0    0  0.29729197956E+03  0.33666880088E+03 -0.48453926770E+03  0.66068654031E+03  0.00000000000E+00 0. -1.
          5    1    4    4  502    0 -0.39387408542E+02 -0.53154120280E+02 -0.11725150751E+03  0.13470981578E+03  0.47000000000E+01 0. -1.
         -5    1    4    4    0  502 -0.91004289010E+02  0.31298943650E+02 -0.34732880078E+02  0.10242005395E+03  0.47000000000E+01 0. -1.
<mgrwt>
<rscale>  0 0.99928774E+03</rscale>
<asrwt>0</asrwt>
<pdfrwt beam="1">  1        2 0.20703565E+00 0.99928774E+03</pdfrwt>
<pdfrwt beam="2">  1       -2 0.28539691E-01 0.99928774E+03</pdfrwt>
<totfact> 0.20994382E+02</totfact>
</mgrwt>
</event>
<event>
 9    1  0.4388925E-036  0.9970853E+03  0.7818608E-02  0.8683819E-01
          2   -1    0    0  501    0  0.00000000000E+00  0.00000000000E+00  0.64419004078E+03  0.64419004078E+03  0.00000000000E+00 0. -1.
         -2   -1    0    0    0  501 -0.00000000000E+00 -0.00000000000E+00 -0.38582523819E+03  0.38582523819E+03  0.00000000000E+00 0. -1.
         36    2    1    2    0    0  0.14210854715E-13 -0.71054273576E-14  0.25836480259E+03  0.10300152790E+04  0.99708530413E+03 0.  0.
         25    2    3    3    0    0 -0.92216629779E+02  0.16020414334E+02 -0.55468421899E+02  0.16578801694E+03  0.12509340610E+03 0.  0.
         35    2    3    3    0    0  0.92216629779E+02 -0.16020414334E+02  0.31383322449E+03  0.86422726203E+03  0.79977303478E+03 0.  0.
         22    1    5    5    0    0  0.23757939398E+03 -0.19482151212E+03  0.48711027311E+03  0.57591302138E+03  0.00000000000E+00 0.  1.
         22    1    5    5    0    0 -0.14536276420E+03  0.17880109778E+03 -0.17327704862E+03  0.28831424065E+03  0.00000000000E+00 0.  1.
          5    1    4    4  502    0 -0.38684929954E+02  0.69880326187E+02 -0.31923742590E+02  0.86145221193E+02  0.47000000000E+01 0.  1.
         -5    1    4    4    0  502 -0.53531699825E+02 -0.53859911853E+02 -0.23544679309E+02  0.79642795749E+02  0.47000000000E+01 0.  1.
<mgrwt>
<rscale>  0 0.99708530E+03</rscale>
<asrwt>0</asrwt>
<pdfrwt beam="1">  1        2 0.99106160E-01 0.99708530E+03</pdfrwt>
<pdfrwt beam="2">  1       -2 0.59357729E-01 0.99708530E+03</pdfrwt>
<totfact> 0.14573758E+02</totfact>
</mgrwt>
</event>
<event>
 9    1  0.4388925E-036  0.1000142E+04  0.7818608E-02  0.8680902E-01
         -2   -1    0    0    0  501 -0.00000000000E+00  0.00000000000E+00  0.43902046309E+03  0.43902046309E+03  0.00000000000E+00 0. -1.
          2   -1    0    0  501    0  0.00000000000E+00 -0.00000000000E+00 -0.56961183940E+03  0.56961183940E+03  0.00000000000E+00 0. -1.
         36    2    1    2    0    0  0.00000000000E+00  0.00000000000E+00 -0.13059137631E+03  0.10086323025E+04  0.10001424969E+04 0.  0.
         25    2    3    3    0    0  0.13948335573E+03  0.65333935495E+02 -0.35703013038E+01  0.19799732725E+03  0.12436263464E+03 0.  0.
         35    2    3    3    0    0 -0.13948335573E+03 -0.65333935495E+02 -0.12702107501E+03  0.81063497523E+03  0.78566569221E+03 0.  0.
         22    1    5    5    0    0 -0.13577507377E+03 -0.53557114125E+02 -0.45735006210E+03  0.48007532163E+03  0.00000000000E+00 0. -1.
         22    1    5    5    0    0 -0.37082819578E+01 -0.11776821370E+02  0.33032898709E+03  0.33055965360E+03  0.00000000000E+00 0. -1.
          5    1    4    4  502    0  0.15969519996E+02 -0.12640038878E+02 -0.41976254171E+02  0.46892345495E+02  0.47000000000E+01 0. -1.
         -5    1    4    4    0  502  0.12351383573E+03  0.77973974373E+02  0.38405952867E+02  0.15110498176E+03  0.47000000000E+01 0. -1.
<mgrwt>
<rscale>  0 0.10001425E+04</rscale>
<asrwt>0</asrwt>
<pdfrwt beam="1">  1        2 0.87632590E-01 0.10001425E+04</pdfrwt>
<pdfrwt beam="2">  1       -2 0.67541610E-01 0.10001425E+04</pdfrwt>
<totfact> 0.12835831E+02</totfact>
</mgrwt>
</event>
<event>
 9    1  0.4388925E-036  0.1000974E+04  0.7818608E-02  0.8680111E-01
          1   -1    0    0  501    0  0.00000000000E+00  0.00000000000E+00  0.57179650969E+03  0.57179650969E+03  0.00000000000E+00 0. -1.
         -1   -1    0    0    0  501 -0.00000000000E+00 -0.00000000000E+00 -0.43807048919E+03  0.43807048919E+03  0.00000000000E+00 0. -1.
         36    2    1    2    0    0  0.71054273576E-14 -0.28421709430E-13  0.13372602050E+03  0.10098669989E+04  0.10009738792E+04 0.  0.
         25    2    3    3    0    0 -0.48140296360E+02  0.12768694010E+03  0.69340926831E+02  0.19770771374E+03  0.12513485978E+03 0.  0.
         35    2    3    3    0    0  0.48140296360E+02 -0.12768694010E+03  0.64385093665E+02  0.81215928514E+03  0.79801993794E+03 0.  0.
         22    1    5    5    0    0 -0.14721497843E+03  0.28891873433E+03 -0.72154649158E+02  0.33219358561E+03  0.00000000000E+00 0.  1.
         22    1    5    5    0    0  0.19535527479E+03 -0.41660567443E+03  0.13653974282E+03  0.47996569953E+03  0.00000000000E+00 0.  1.
          5    1    4    4  502    0  0.80803459763E+01 -0.20706304042E+02 -0.35914929637E+01  0.23000692161E+02  0.47000000000E+01 0.  1.
         -5    1    4    4    0  502 -0.56220642336E+02  0.14839324414E+03  0.72932419795E+02  0.17470702158E+03  0.47000000000E+01 0.  1.
<mgrwt>
<rscale>  0 0.10009739E+04</rscale>
<asrwt>0</asrwt>
<pdfrwt beam="1">  1        1 0.87968694E-01 0.10009739E+04</pdfrwt>
<pdfrwt beam="2">  1       -1 0.67395460E-01 0.10009739E+04</pdfrwt>
<totfact> 0.95635258E+01</totfact>
</mgrwt>
</event>
<event>
 9    1  0.4388925E-036  0.1001078E+04  0.7818608E-02  0.8680013E-01
          2   -1    0    0  501    0  0.00000000000E+00  0.00000000000E+00  0.14381815742E+04  0.14381815742E+04  0.00000000000E+00 0. -1.
         -2   -1    0    0    0  501 -0.00000000000E+00 -0.00000000000E+00 -0.17420543129E+03  0.17420543129E+03  0.00000000000E+00 0. -1.
         36    2    1    2    0    0  0.14210854715E-13  0.00000000000E+00  0.12639761430E+04  0.16123870055E+04  0.10010775023E+04 0.  0.
         25    2    3    3    0    0 -0.12308094561E+03  0.62012475493E+02  0.18726158975E+03  0.26393607447E+03  0.12490349123E+03 0.  0.
         35    2    3    3    0    0  0.12308094561E+03 -0.62012475493E+02  0.10767145532E+04  0.13484509311E+04  0.80000701129E+03 0.  0.
         22    1    5    5    0    0  0.28253107733E+03  0.25411773825E+03  0.84165373764E+03  0.92346123288E+03  0.00000000000E+00 0. -1.
         22    1    5    5    0    0 -0.15945013172E+03 -0.31613021374E+03  0.23506081556E+03  0.42498969818E+03  0.00000000000E+00 0. -1.
          5    1    4    4  502    0 -0.12621272931E+03  0.83243010006E+02  0.11971372394E+03  0.19290546248E+03  0.47000000000E+01 0.  1.
         -5    1    4    4    0  502  0.31317836921E+01 -0.21230534513E+02  0.67547865813E+02  0.71030611997E+02  0.47000000000E+01 0.  1.
<mgrwt>
<rscale>  0 0.10010775E+04</rscale>
<asrwt>0</asrwt>
<pdfrwt beam="1">  1        2 0.22125870E+00 0.10010775E+04</pdfrwt>
<pdfrwt beam="2">  1       -2 0.26800837E-01 0.10010775E+04</pdfrwt>
<totfact> 0.20814561E+02</totfact>
</mgrwt>
</event>
<event>
 9    1  0.4388925E-036  0.9970309E+03  0.7818608E-02  0.8683871E-01
         -2   -1    0    0    0  501 -0.00000000000E+00  0.00000000000E+00  0.40002281945E+03  0.40002281945E+03  0.00000000000E+00 0.  1.
          2   -1    0    0  501    0  0.00000000000E+00 -0.00000000000E+00 -0.62125869757E+03  0.62125869757E+03  0.00000000000E+00 0.  1.
         36    2    1    2    0    0 -0.14210854715E-13  0.28421709430E-13 -0.22123587811E+03  0.10212815170E+04  0.99703090386E+03 0.  0.
         25    2    3    3    0    0 -0.37262471570E+02 -0.86625202322E+02 -0.14390688763E+03  0.21195827040E+03  0.12379296676E+03 0.  0.
         35    2    3    3    0    0  0.37262471570E+02  0.86625202322E+02 -0.77328990480E+02  0.80932324662E+03  0.80008245030E+03 0.  0.
         22    1    5    5    0    0  0.12538247399E+03 -0.33891218523E+03  0.27132201282E+02  0.36237879412E+03  0.00000000000E+00 0. -1.
         22    1    5    5    0    0 -0.88120002417E+02  0.42553738755E+03 -0.10446119176E+03  0.44694445250E+03  0.00000000000E+00 0. -1.
          5    1    4    4  502    0  0.69337863841E+01  0.19271728257E+02 -0.75307808315E+02  0.78184607800E+02  0.47000000000E+01 0.  1.
         -5    1    4    4    0  502 -0.44196257954E+02 -0.10589693058E+03 -0.68599079320E+02  0.13377366260E+03  0.47000000000E+01 0.  1.
<mgrwt>
<rscale>  0 0.99703090E+03</rscale>
<asrwt>0</asrwt>
<pdfrwt beam="1">  1        2 0.95578261E-01 0.99703090E+03</pdfrwt>
<pdfrwt beam="2">  1       -2 0.61541972E-01 0.99703090E+03</pdfrwt>
<totfact> 0.14114190E+02</totfact>
</mgrwt>
</event>
<event>
 9    1  0.4388925E-036  0.1001004E+04  0.7818608E-02  0.8680082E-01
          1   -1    0    0  501    0  0.00000000000E+00  0.00000000000E+00  0.49492519988E+03  0.49492519988E+03  0.00000000000E+00 0.  1.
         -1   -1    0    0    0  501 -0.00000000000E+00 -0.00000000000E+00 -0.50614167141E+03  0.50614167141E+03  0.00000000000E+00 0.  1.
         36    2    1    2    0    0  0.14210854715E-13 -0.42632564146E-13 -0.11216471528E+02  0.10010668713E+04  0.10010040317E+04 0.  0.
         25    2    3    3    0    0  0.78810932661E+02  0.76423731723E+02 -0.92608323376E+02  0.19019515031E+03  0.12468417609E+03 0.  0.
         35    2    3    3    0    0 -0.78810932661E+02 -0.76423731723E+02  0.81391851848E+02  0.81087172098E+03  0.79927252202E+03 0.  0.
         22    1    5    5    0    0  0.46274108020E+02  0.35478405730E+03  0.34883340407E+02  0.35948555997E+03  0.00000000000E+00 0.  1.
         22    1    5    5    0    0 -0.12508504068E+03 -0.43120778902E+03  0.46508511441E+02  0.45138616101E+03  0.00000000000E+00 0.  1.
          5    1    4    4  502    0  0.94829861394E+02  0.72830166384E+02 -0.11231791584E+03  0.16411684851E+03  0.47000000000E+01 0. -1.
         -5    1    4    4    0  502 -0.16018928733E+02  0.35935653389E+01  0.19709592465E+02  0.26078301799E+02  0.47000000000E+01 0. -1.
<mgrwt>
<rscale>  0 0.10010040E+04</rscale>
<asrwt>0</asrwt>
<pdfrwt beam="1">  1        1 0.76142339E-01 0.10010040E+04</pdfrwt>
<pdfrwt beam="2">  1       -1 0.77867949E-01 0.10010040E+04</pdfrwt>
<totfact> 0.87708417E+01</totfact>
</mgrwt>
</event>
<event>
 9    1  0.4388925E-036  0.9997815E+03  0.7818608E-02  0.8681246E-01
          2   -1    0    0  501    0  0.00000000000E+00  0.00000000000E+00  0.11379403193E+04  0.11379403193E+04  0.00000000000E+00 0. -1.
         -2   -1    0    0    0  501 -0.00000000000E+00 -0.00000000000E+00 -0.21959917145E+03  0.21959917145E+03  0.00000000000E+00 0. -1.
         36    2    1    2    0    0 -0.71054273576E-14  0.14210854715E-13  0.91834114786E+03  0.13575394908E+04  0.99978147868E+03 0.  0.
         25    2    3    3    0    0 -0.55746483047E+02 -0.11153929929E+03  0.87624026177E+02  0.19720517161E+03  0.12515280296E+03 0.  0.
         35    2    3    3    0    0  0.55746483047E+02  0.11153929929E+03  0.83071712168E+03  0.11603343192E+04  0.80045993672E+03 0.  0.
         22    1    5    5    0    0  0.66653837524E+02  0.42494239256E+03  0.24260303541E+03  0.49383702154E+03  0.00000000000E+00 0. -1.
         22    1    5    5    0    0 -0.10907354477E+02 -0.31340309327E+03  0.58811408627E+03  0.66649729761E+03  0.00000000000E+00 0. -1.
          5    1    4    4  502    0 -0.85497408436E+02 -0.92994392624E+02  0.30535814106E+02  0.13004726007E+03  0.47000000000E+01 0.  1.
         -5    1    4    4    0  502  0.29750925389E+02 -0.18544906662E+02  0.57088212071E+02  0.67157911537E+02  0.47000000000E+01 0.  1.
<mgrwt>
<rscale>  0 0.99978148E+03</rscale>
<asrwt>0</asrwt>
<pdfrwt beam="1">  1        2 0.17506774E+00 0.99978148E+03</pdfrwt>
<pdfrwt beam="2">  1       -2 0.33784489E-01 0.99978148E+03</pdfrwt>
<totfact> 0.20407336E+02</totfact>
</mgrwt>
</event>
<event>
 9    1  0.4388925E-036  0.9981952E+03  0.7818608E-02  0.8682759E-01
          1   -1    0    0  501    0  0.00000000000E+00  0.00000000000E+00  0.71101457641E+03  0.71101457641E+03  0.00000000000E+00 0.  1.
         -1   -1    0    0    0  501 -0.00000000000E+00 -0.00000000000E+00 -0.35034218757E+03  0.35034218757E+03  0.00000000000E+00 0.  1.
         36    2    1    2    0    0  0.00000000000E+00 -0.28421709430E-13  0.36067238885E+03  0.10613567640E+04  0.99819517549E+03 0.  0.
         25    2    3    3    0    0 -0.12972058688E+03  0.46370540890E+02  0.44823531547E+02  0.19102565185E+03  0.12451503106E+03 0.  0.
         35    2    3    3    0    0  0.12972058688E+03 -0.46370540890E+02  0.31584885730E+03  0.87033111213E+03  0.79921091482E+03 0.  0.
         22    1    5    5    0    0  0.20897523191E+03  0.31963487204E+03  0.22718614667E+01  0.38189299592E+03  0.00000000000E+00 0. -1.
         22    1    5    5    0    0 -0.79254645026E+02 -0.36600541293E+03  0.31357699583E+03  0.48843811621E+03  0.00000000000E+00 0. -1.
          5    1    4    4  502    0 -0.87888147314E+02 -0.84734745751E+01  0.74660176798E+02  0.11572535681E+03  0.47000000000E+01 0. -1.
         -5    1    4    4    0  502 -0.41832439569E+02  0.54844015465E+02 -0.29836645251E+02  0.75300295036E+02  0.47000000000E+01 0. -1.
<mgrwt>
<rscale>  0 0.99819518E+03</rscale>
<asrwt>0</asrwt>
<pdfrwt beam="1">  1        1 0.10938686E+00 0.99819518E+03</pdfrwt>
<pdfrwt beam="2">  1       -1 0.53898798E-01 0.99819518E+03</pdfrwt>
<totfact> 0.10619473E+02</totfact>
</mgrwt>
</event>
<event>
 9    1  0.4388925E-036  0.1000416E+04  0.7818608E-02  0.8680642E-01
         -2   -1    0    0    0  501 -0.00000000000E+00  0.00000000000E+00  0.33231369443E+03  0.33231369443E+03  0.00000000000E+00 0. -1.
          2   -1    0    0  501    0  0.00000000000E+00 -0.00000000000E+00 -0.75292682072E+03  0.75292682072E+03  0.00000000000E+00 0. -1.
         36    2    1    2    0    0  0.71054273576E-14  0.14210854715E-13 -0.42061312629E+03  0.10852405151E+04  0.10004157005E+04 0.  0.
         25    2    3    3    0    0  0.21986302653E+02 -0.40304936214E+02  0.64184401180E+02  0.14724794470E+03  0.12431586574E+03 0.  0.
         35    2    3    3    0    0 -0.21986302653E+02  0.40304936214E+02 -0.48479752747E+03  0.93799257045E+03  0.80168169132E+03 0.  0.
         22    1    5    5    0    0  0.15925978530E+03 -0.30737842758E+03 -0.41382229767E+03  0.53953134385E+03  0.00000000000E+00 0. -1.
         22    1    5    5    0    0 -0.18124608796E+03  0.34768336379E+03 -0.70975229801E+02  0.39846122660E+03  0.00000000000E+00 0. -1.
          5    1    4    4  502    0  0.35394582227E+02 -0.40546213874E+01 -0.29051259147E+02  0.46209112344E+02  0.47000000000E+01 0.  1.
         -5    1    4    4    0  502 -0.13408279574E+02 -0.36250314826E+02  0.93235660327E+02  0.10103883235E+03  0.47000000000E+01 0.  1.
<mgrwt>
<rscale>  0 0.10004157E+04</rscale>
<asrwt>0</asrwt>
<pdfrwt beam="1">  1        2 0.11583489E+00 0.10004157E+04</pdfrwt>
<pdfrwt beam="2">  1       -2 0.51125184E-01 0.10004157E+04</pdfrwt>
<totfact> 0.16329152E+02</totfact>
</mgrwt>
</event>
<event>
 9    1  0.4388925E-036  0.1000500E+04  0.7818608E-02  0.8680562E-01
         -1   -1    0    0    0  501 -0.00000000000E+00  0.00000000000E+00  0.95961123680E+02  0.95961123680E+02  0.00000000000E+00 0. -1.
          1   -1    0    0  501    0  0.00000000000E+00 -0.00000000000E+00 -0.26078280523E+04  0.26078280523E+04  0.00000000000E+00 0. -1.
         36    2    1    2    0    0  0.00000000000E+00 -0.21316282073E-13 -0.25118669287E+04  0.27037891760E+04  0.10005000955E+04 0.  0.
         25    2    3    3    0    0  0.99262728597E+02 -0.48494208531E+02 -0.71706125199E+03  0.73616122813E+03  0.12470660427E+03 0.  0.
         35    2    3    3    0    0 -0.99262728597E+02  0.48494208531E+02 -0.17948056767E+04  0.19676279479E+04  0.79876626541E+03 0.  0.
         22    1    5    5    0    0  0.82718823899E+00  0.25316606918E+03 -0.12498982750E+03  0.28234057414E+03  0.00000000000E+00 0.  1.
         22    1    5    5    0    0 -0.10008991684E+03 -0.20467186065E+03 -0.16698158492E+04  0.16852873738E+04  0.00000000000E+00 0.  1.
          5    1    4    4  502    0  0.21234068047E+02 -0.68356539352E+02 -0.48953456794E+03  0.49476225131E+03  0.47000000000E+01 0. -1.
         -5    1    4    4    0  502  0.78028660550E+02  0.19862330821E+02 -0.22752668405E+03  0.24139897681E+03  0.47000000000E+01 0. -1.
<mgrwt>
<rscale>  0 0.10005001E+04</rscale>
<asrwt>0</asrwt>
<pdfrwt beam="1">  1        1 0.40120430E+00 0.10005001E+04</pdfrwt>
<pdfrwt beam="2">  1       -1 0.14763250E-01 0.10005001E+04</pdfrwt>
<totfact> 0.39130409E+01</totfact>
</mgrwt>
</event>
<event>
 9    1  0.4388925E-036  0.1000015E+04  0.7818608E-02  0.8681024E-01
          2   -1    0    0  501    0  0.00000000000E+00  0.00000000000E+00  0.22184375952E+04  0.22184375952E+04  0.00000000000E+00 0.  1.
         -2   -1    0    0    0  501 -0.00000000000E+00 -0.00000000000E+00 -0.11269530456E+03  0.11269530456E+03  0.00000000000E+00 0.  1.
         36    2    1    2    0    0  0.28421709430E-13  0.35527136788E-13  0.21057422907E+04  0.23311328998E+04  0.10000150007E+04 0.  0.
         25    2    3    3    0    0 -0.13069484815E+03  0.38009746794E+02  0.46391384887E+03  0.49933293127E+03  0.12486565938E+03 0.  0.
         35    2    3    3    0    0  0.13069484815E+03 -0.38009746794E+02  0.16418284418E+04  0.18317999685E+04  0.80085242594E+03 0.  0.
         22    1    5    5    0    0  0.26246256880E+03 -0.37080872029E+03  0.93282625386E+03  0.10375695287E+04  0.00000000000E+00 0. -1.
         22    1    5    5    0    0 -0.13176772064E+03  0.33279897350E+03  0.70900218792E+03  0.79423043976E+03  0.00000000000E+00 0. -1.
          5    1    4    4  502    0 -0.11585371235E+03  0.73516766109E+02  0.28602566754E+03  0.31726892387E+03  0.47000000000E+01 0.  1.
         -5    1    4    4    0  502 -0.14841135806E+02 -0.35507019315E+02  0.17788818133E+03  0.18206400740E+03  0.47000000000E+01 0.  1.
<mgrwt>
<rscale>  0 0.10000150E+04</rscale>
<asrwt>0</asrwt>
<pdfrwt beam="1">  1        2 0.34129806E+00 0.10000150E+04</pdfrwt>
<pdfrwt beam="2">  1       -2 0.17337741E-01 0.10000150E+04</pdfrwt>
<totfact> 0.16035789E+02</totfact>
</mgrwt>
</event>
<event>
 9    1  0.4388925E-036  0.1000176E+04  0.7818608E-02  0.8680870E-01
         -2   -1    0    0    0  501 -0.00000000000E+00  0.00000000000E+00  0.38508634750E+03  0.38508634750E+03  0.00000000000E+00 0.  1.
          2   -1    0    0  501    0  0.00000000000E+00 -0.00000000000E+00 -0.64943422055E+03  0.64943422055E+03  0.00000000000E+00 0.  1.
         36    2    1    2    0    0  0.28421709430E-13  0.71054273576E-14 -0.26434787305E+03  0.10345205681E+04  0.10001764883E+04 0.  0.
         25    2    3    3    0    0  0.13487951161E+03  0.18490367614E+02 -0.82721375406E+02  0.20223933771E+03  0.12459352880E+03 0.  0.
         35    2    3    3    0    0 -0.13487951161E+03 -0.18490367614E+02 -0.18162649764E+03  0.83228123035E+03  0.80073059477E+03 0.  0.
         22    1    5    5    0    0 -0.65913272828E+02  0.95559645534E+02  0.30573059783E+03  0.32702813922E+03  0.00000000000E+00 0. -1.
         22    1    5    5    0    0 -0.68966238783E+02 -0.11405001315E+03 -0.48735709547E+03  0.50525309113E+03  0.00000000000E+00 0. -1.
          5    1    4    4  502    0  0.10228613618E+03 -0.38202460619E+02 -0.82070653169E+02  0.13667320060E+03  0.47000000000E+01 0. -1.
         -5    1    4    4    0  502  0.32593375432E+02  0.56692828233E+02 -0.65072223704E+00  0.65566137103E+02  0.47000000000E+01 0. -1.
<mgrwt>
<rscale>  0 0.10001765E+04</rscale>
<asrwt>0</asrwt>
<pdfrwt beam="1">  1        2 0.99912957E-01 0.10001765E+04</pdfrwt>
<pdfrwt beam="2">  1       -2 0.59244054E-01 0.10001765E+04</pdfrwt>
<totfact> 0.14488361E+02</totfact>
</mgrwt>
</event>
<event>
 9    1  0.4388925E-036  0.9998781E+03  0.7818608E-02  0.8681154E-01
         -2   -1    0    0    0  501 -0.00000000000E+00  0.00000000000E+00  0.89312099203E+02  0.89312099203E+02  0.00000000000E+00 0. -1.
          2   -1    0    0  501    0  0.00000000000E+00 -0.00000000000E+00 -0.27984904979E+04  0.27984904979E+04  0.00000000000E+00 0. -1.
         36    2    1    2    0    0  0.28421709430E-13 -0.21316282073E-13 -0.27091783987E+04  0.28878025971E+04  0.99987811451E+03 0.  0.
         25    2    3    3    0    0  0.75982941165E+02  0.27294751357E+02 -0.17723898261E+03  0.23178551072E+03  0.12566803580E+03 0.  0.
         35    2    3    3    0    0 -0.75982941165E+02 -0.27294751357E+02 -0.25319394161E+04  0.26560170864E+04  0.79824253560E+03 0.  0.
         22    1    5    5    0    0 -0.28598584792E+03 -0.20702173386E+03 -0.21805203459E+04  0.22089171289E+04  0.00000000000E+00 0.  1.
         22    1    5    5    0    0  0.21000290676E+03  0.17972698251E+03 -0.35141907020E+03  0.44709995749E+03  0.00000000000E+00 0.  1.
          5    1    4    4  502    0  0.96731168843E+02  0.55818965926E+02 -0.14949469965E+03  0.18666395261E+03  0.47000000000E+01 0.  1.
         -5    1    4    4    0  502 -0.20748227678E+02 -0.28524214569E+02 -0.27744282962E+02  0.45121558103E+02  0.47000000000E+01 0.  1.
<mgrwt>
<rscale>  0 0.99987811E+03</rscale>
<asrwt>0</asrwt>
<pdfrwt beam="1">  1        2 0.43053697E+00 0.99987811E+03</pdfrwt>
<pdfrwt beam="2">  1       -2 0.13740324E-01 0.99987811E+03</pdfrwt>
<totfact> 0.10495416E+02</totfact>
</mgrwt>
</event>
<event>
 9    1  0.4388925E-036  0.1000060E+04  0.7818608E-02  0.8680980E-01
         -2   -1    0    0    0  501 -0.00000000000E+00  0.00000000000E+00  0.19164091405E+03  0.19164091405E+03  0.00000000000E+00 0. -1.
          2   -1    0    0  501    0  0.00000000000E+00 -0.00000000000E+00 -0.13046807920E+04  0.13046807920E+04  0.00000000000E+00 0. -1.
         36    2    1    2    0    0 -0.26645352591E-13  0.00000000000E+00 -0.11130398779E+04  0.14963217060E+04  0.10000604372E+04 0.  0.
         25    2    3    3    0    0  0.83844541010E+01 -0.92602417775E+02 -0.47611557386E+02  0.16186076796E+03  0.12363875185E+03 0.  0.
         35    2    3    3    0    0 -0.83844541010E+01  0.92602417775E+02 -0.10654283205E+04  0.13344609381E+04  0.79812466582E+03 0.  0.
         22    1    5    5    0    0  0.35756212322E+03  0.20386190134E+03 -0.65370372363E+03  0.77248877343E+03  0.00000000000E+00 0.  1.
         22    1    5    5    0    0 -0.36594657732E+03 -0.11125948357E+03 -0.41172459690E+03  0.56197216464E+03  0.00000000000E+00 0.  1.
          5    1    4    4  502    0  0.12400917416E+02  0.12285635988E+02  0.27354620868E+02  0.32788487115E+02  0.47000000000E+01 0.  1.
         -5    1    4    4    0  502 -0.40164633152E+01 -0.10488805376E+03 -0.74966178254E+02  0.12907228084E+03  0.47000000000E+01 0.  1.
<mgrwt>
<rscale>  0 0.10000604E+04</rscale>
<asrwt>0</asrwt>
<pdfrwt beam="1">  1        2 0.20072013E+00 0.10000604E+04</pdfrwt>
<pdfrwt beam="2">  1       -2 0.29483217E-01 0.10000604E+04</pdfrwt>
<totfact> 0.20902522E+02</totfact>
</mgrwt>
</event>
<event>
 9    1  0.4388925E-036  0.1000547E+04  0.7818608E-02  0.8680517E-01
         -1   -1    0    0    0  501 -0.00000000000E+00  0.00000000000E+00  0.53680771477E+03  0.53680771477E+03  0.00000000000E+00 0.  1.
          1   -1    0    0  501    0  0.00000000000E+00 -0.00000000000E+00 -0.46622605840E+03  0.46622605840E+03  0.00000000000E+00 0.  1.
         36    2    1    2    0    0  0.00000000000E+00  0.00000000000E+00  0.70581656370E+02  0.10030337732E+04  0.10005473402E+04 0.  0.
         25    2    3    3    0    0  0.46086816544E+02 -0.54315063033E+02  0.13467253178E+03  0.19735716171E+03  0.12545532166E+03 0.  0.
         35    2    3    3    0    0 -0.46086816544E+02  0.54315063033E+02 -0.64090875409E+02  0.80567661145E+03  0.79995814966E+03 0.  0.
         22    1    5    5    0    0 -0.28780111595E+03  0.27459555612E+03 -0.20742094941E+03  0.44861526059E+03  0.00000000000E+00 0. -1.
         22    1    5    5    0    0  0.24171429940E+03 -0.22028049309E+03  0.14333007400E+03  0.35706135087E+03  0.00000000000E+00 0. -1.
          5    1    4    4  502    0  0.19608095776E+02 -0.47476328806E+02 -0.78357470398E+01  0.52172484592E+02  0.47000000000E+01 0. -1.
         -5    1    4    4    0  502  0.26478720768E+02 -0.68387342272E+01  0.14250827882E+03  0.14518467712E+03  0.47000000000E+01 0. -1.
<mgrwt>
<rscale>  0 0.10005473E+04</rscale>
<asrwt>0</asrwt>
<pdfrwt beam="1">  1        1 0.71727086E-01 0.10005473E+04</pdfrwt>
<pdfrwt beam="2">  1       -1 0.82585802E-01 0.10005473E+04</pdfrwt>
<totfact> 0.84224900E+01</totfact>
</mgrwt>
</event>
<event>
 9    1  0.4388925E-036  0.9986577E+03  0.7818608E-02  0.8682317E-01
         -1   -1    0    0    0  501 -0.00000000000E+00  0.00000000000E+00  0.34973286334E+03  0.34973286334E+03  0.00000000000E+00 0.  1.
          1   -1    0    0  501    0  0.00000000000E+00 -0.00000000000E+00 -0.71291351657E+03  0.71291351657E+03  0.00000000000E+00 0.  1.
         36    2    1    2    0    0 -0.14210854715E-13  0.28421709430E-13 -0.36318065324E+03  0.10626463799E+04  0.99865767000E+03 0.  0.
         25    2    3    3    0    0 -0.55350540022E+02 -0.49588317485E+02  0.56386206674E+02  0.15610957273E+03  0.12517232475E+03 0.  0.
         35    2    3    3    0    0  0.55350540022E+02  0.49588317485E+02 -0.41956685991E+03  0.90653680718E+03  0.80015620308E+03 0.  0.
         22    1    5    5    0    0 -0.11988366603E+03 -0.34297015234E+03 -0.12023762613E+03  0.38269792986E+03  0.00000000000E+00 0.  1.
         22    1    5    5    0    0  0.17523420605E+03  0.39255846983E+03 -0.29932923378E+03  0.52383887732E+03  0.00000000000E+00 0.  1.
          5    1    4    4  502    0 -0.30759701612E+02  0.15989507936E+02  0.75626251823E+02  0.83326127788E+02  0.47000000000E+01 0.  1.
         -5    1    4    4    0  502 -0.24590838410E+02 -0.65577825421E+02 -0.19240045150E+02  0.72783444945E+02  0.47000000000E+01 0.  1.
<mgrwt>
<rscale>  0 0.99865767E+03</rscale>
<asrwt>0</asrwt>
<pdfrwt beam="1">  1        1 0.10967900E+00 0.99865767E+03</pdfrwt>
<pdfrwt beam="2">  1       -1 0.53805056E-01 0.99865767E+03</pdfrwt>
<totfact> 0.10609891E+02</totfact>
</mgrwt>
</event>
<event>
 9    1  0.4388925E-036  0.9988678E+03  0.7818608E-02  0.8682117E-01
         -2   -1    0    0    0  501 -0.00000000000E+00  0.00000000000E+00  0.71869675138E+03  0.71869675138E+03  0.00000000000E+00 0. -1.
          2   -1    0    0  501    0  0.00000000000E+00 -0.00000000000E+00 -0.34706463321E+03  0.34706463321E+03  0.00000000000E+00 0. -1.
         36    2    1    2    0    0 -0.14210854715E-13 -0.35527136788E-14  0.37163211818E+03  0.10657613846E+04  0.99886780788E+03 0.  0.
         25    2    3    3    0    0 -0.12283490497E+03 -0.11782001225E+02  0.20835606989E+01  0.17597609710E+03  0.12544327839E+03 0.  0.
         35    2    3    3    0    0  0.12283490497E+03  0.11782001225E+02  0.36954855748E+03  0.88978528749E+03  0.79995280615E+03 0.  0.
         22    1    5    5    0    0  0.21848082305E+03  0.67791944666E+02  0.59560158761E+03  0.63802105683E+03  0.00000000000E+00 0. -1.
         22    1    5    5    0    0 -0.95645918084E+02 -0.56009943441E+02 -0.22605303013E+03  0.25176423066E+03  0.00000000000E+00 0. -1.
          5    1    4    4  502    0 -0.55983634444E+01  0.12526543598E+02 -0.44966280570E+02  0.47247352900E+02  0.47000000000E+01 0. -1.
         -5    1    4    4    0  502 -0.11723654152E+03 -0.24308544822E+02  0.47049841269E+02  0.12872874420E+03  0.47000000000E+01 0. -1.
<mgrwt>
<rscale>  0 0.99886781E+03</rscale>
<asrwt>0</asrwt>
<pdfrwt beam="1">  1        2 0.53394559E-01 0.99886781E+03</pdfrwt>
<pdfrwt beam="2">  1       -2 0.11056873E+00 0.99886781E+03</pdfrwt>
<totfact> 0.71299591E+01</totfact>
</mgrwt>
</event>
<event>
 9    1  0.4388925E-036  0.1001961E+04  0.7818608E-02  0.8679173E-01
         -1   -1    0    0    0  501 -0.00000000000E+00  0.00000000000E+00  0.33718216479E+03  0.33718216479E+03  0.00000000000E+00 0.  1.
          1   -1    0    0  501    0  0.00000000000E+00 -0.00000000000E+00 -0.74435005689E+03  0.74435005689E+03  0.00000000000E+00 0.  1.
         36    2    1    2    0    0 -0.14210854715E-13 -0.14210854715E-13 -0.40716789210E+03  0.10815322217E+04  0.10019612039E+04 0.  0.
         25    2    3    3    0    0  0.88500501860E+02  0.74071721110E+02 -0.16983216049E+03  0.24043092177E+03  0.12508040098E+03 0.  0.
         35    2    3    3    0    0 -0.88500501860E+02 -0.74071721110E+02 -0.23733573161E+03  0.84110129991E+03  0.79862643865E+03 0.  0.
         22    1    5    5    0    0  0.19659693088E+03 -0.23227170923E+01 -0.44141611839E+03  0.48322245169E+03  0.00000000000E+00 0.  1.
         22    1    5    5    0    0 -0.28509743274E+03 -0.71749004017E+02  0.20408038678E+03  0.35787884822E+03  0.00000000000E+00 0.  1.
          5    1    4    4  502    0  0.91026915620E+01  0.77534208866E+02 -0.39277029326E+02  0.87516784509E+02  0.47000000000E+01 0. -1.
         -5    1    4    4    0  502  0.79397810298E+02 -0.34624877565E+01 -0.13055513116E+03  0.15291413726E+03  0.47000000000E+01 0. -1.
<mgrwt>
<rscale>  0 0.10019612E+04</rscale>
<asrwt>0</asrwt>
<pdfrwt beam="1">  1        1 0.11451539E+00 0.10019612E+04</pdfrwt>
<pdfrwt beam="2">  1       -1 0.51874179E-01 0.10019612E+04</pdfrwt>
<totfact> 0.10616473E+02</totfact>
</mgrwt>
</event>
<event>
 9    1  0.4388925E-036  0.1000203E+04  0.7818608E-02  0.8680845E-01
         -2   -1    0    0    0  501 -0.00000000000E+00  0.00000000000E+00  0.17145100640E+03  0.17145100640E+03  0.00000000000E+00 0.  1.
          2   -1    0    0  501    0  0.00000000000E+00 -0.00000000000E+00 -0.14587336439E+04  0.14587336439E+04  0.00000000000E+00 0.  1.
         36    2    1    2    0    0 -0.14210854715E-13 -0.42632564146E-13 -0.12872826375E+04  0.16301846503E+04  0.10002026821E+04 0.  0.
         25    2    3    3    0    0 -0.66563672130E+02 -0.99872378939E+02 -0.11043769428E+03  0.20429347484E+03  0.12302083165E+03 0.  0.
         35    2    3    3    0    0  0.66563672130E+02  0.99872378939E+02 -0.11768449433E+04  0.14258911755E+04  0.79611331440E+03 0.  0.
         22    1    5    5    0    0 -0.97530946172E+02  0.22001282308E+03 -0.11975259125E+04  0.12214688857E+04  0.00000000000E+00 0.  1.
         22    1    5    5    0    0  0.16409461830E+03 -0.12014044415E+03  0.20680969188E+02  0.20442228979E+03  0.00000000000E+00 0.  1.
          5    1    4    4  502    0 -0.78628553712E+02 -0.61154201956E+02 -0.15459628570E+02  0.10091271472E+03  0.47000000000E+01 0. -1.
         -5    1    4    4    0  502  0.12064881582E+02 -0.38718176983E+02 -0.94978065714E+02  0.10338076012E+03  0.47000000000E+01 0. -1.
<mgrwt>
<rscale>  0 0.10002027E+04</rscale>
<asrwt>0</asrwt>
<pdfrwt beam="1">  1        2 0.22442056E+00 0.10002027E+04</pdfrwt>
<pdfrwt beam="2">  1       -2 0.26377078E-01 0.10002027E+04</pdfrwt>
<totfact> 0.20848164E+02</totfact>
</mgrwt>
</event>
<event>
 9    1  0.4388925E-036  0.9997484E+03  0.7818608E-02  0.8681278E-01
          2   -1    0    0  501    0  0.00000000000E+00  0.00000000000E+00  0.13451165353E+04  0.13451165353E+04  0.00000000000E+00 0.  1.
         -2   -1    0    0    0  501 -0.00000000000E+00 -0.00000000000E+00 -0.18576397757E+03  0.18576397757E+03  0.00000000000E+00 0.  1.
         36    2    1    2    0    0  0.17763568394E-13  0.00000000000E+00  0.11593525578E+04  0.15308805129E+04  0.99974836415E+03 0.  0.
         25    2    3    3    0    0 -0.74302492576E+00  0.52828854138E+02  0.19918467223E+02  0.13704125800E+03  0.12486841531E+03 0.  0.
         35    2    3    3    0    0  0.74302492576E+00 -0.52828854138E+02  0.11394340905E+04  0.13938392549E+04  0.80105329531E+03 0.  0.
         22    1    5    5    0    0 -0.29752533936E+03  0.96469496907E+02  0.14460756506E+03  0.34458531494E+03  0.00000000000E+00 0.  1.
         22    1    5    5    0    0  0.29826836429E+03 -0.14929835105E+03  0.99482652547E+03  0.10492539400E+04  0.00000000000E+00 0.  1.
          5    1    4    4  502    0 -0.19531513207E+02 -0.14225510443E+02  0.54017338851E+02  0.59361671573E+02  0.47000000000E+01 0.  1.
         -5    1    4    4    0  502  0.18788488281E+02  0.67054364581E+02 -0.34098871627E+02  0.77679586427E+02  0.47000000000E+01 0.  1.
<mgrwt>
<rscale>  0 0.99974836E+03</rscale>
<asrwt>0</asrwt>
<pdfrwt beam="1">  1        2 0.20694100E+00 0.99974836E+03</pdfrwt>
<pdfrwt beam="2">  1       -2 0.28579074E-01 0.99974836E+03</pdfrwt>
<totfact> 0.20959117E+02</totfact>
</mgrwt>
</event>
<event>
 9    1  0.4388925E-036  0.1000302E+04  0.7818608E-02  0.8680751E-01
          2   -1    0    0  501    0  0.00000000000E+00  0.00000000000E+00  0.33522843511E+04  0.33522843511E+04  0.00000000000E+00 0. -1.
         -2   -1    0    0    0  501 -0.00000000000E+00 -0.00000000000E+00 -0.74621006476E+02  0.74621006476E+02  0.00000000000E+00 0. -1.
         36    2    1    2    0    0  0.71054273576E-14  0.00000000000E+00  0.32776633446E+04  0.34269053576E+04  0.10003016191E+04 0.  0.
         25    2    3    3    0    0 -0.21646744452E+02 -0.44666885612E+02  0.16471754693E+03  0.21227763344E+03  0.12436322277E+03 0.  0.
         35    2    3    3    0    0  0.21646744452E+02  0.44666885612E+02  0.31129457977E+04  0.32146277241E+04  0.80058488193E+03 0.  0.
         22    1    5    5    0    0 -0.67715986060E+02  0.37709417068E+03  0.23017392166E+04  0.23334071418E+04  0.00000000000E+00 0. -1.
         22    1    5    5    0    0  0.89362730512E+02 -0.33242728507E+03  0.81120658111E+03  0.88122058231E+03  0.00000000000E+00 0. -1.
          5    1    4    4  502    0 -0.71026351559E+02 -0.22142860257E+02  0.12232280988E+03  0.14324806698E+03  0.47000000000E+01 0.  1.
         -5    1    4    4    0  502  0.49379607107E+02 -0.22524025355E+02  0.42394737047E+02  0.69029566459E+02  0.47000000000E+01 0.  1.
<mgrwt>
<rscale>  0 0.10003016E+04</rscale>
<asrwt>0</asrwt>
<pdfrwt beam="1">  1        2 0.51573594E+00 0.10003016E+04</pdfrwt>
<pdfrwt beam="2">  1       -2 0.11480157E-01 0.10003016E+04</pdfrwt>
<totfact> 0.59283106E+01</totfact>
</mgrwt>
</event>
<event>
 9    1  0.4388925E-036  0.1013147E+04  0.7818608E-02  0.8668618E-01
          1   -1    0    0  501    0  0.00000000000E+00  0.00000000000E+00  0.33104335886E+04  0.33104335886E+04  0.00000000000E+00 0.  1.
         -1   -1    0    0    0  501 -0.00000000000E+00 -0.00000000000E+00 -0.77517507952E+02  0.77517507952E+02  0.00000000000E+00 0.  1.
         36    2    1    2    0    0 -0.28421709430E-13  0.00000000000E+00  0.32329160807E+04  0.33879510966E+04  0.10131467061E+04 0.  0.
         25    2    3    3    0    0  0.10321956817E+03  0.71329728361E+02  0.33427880147E+03  0.37832692130E+03  0.12508690126E+03 0.  0.
         35    2    3    3    0    0 -0.10321956817E+03 -0.71329728361E+02  0.28986372792E+04  0.30096241753E+04  0.79999836914E+03 0.  0.
         22    1    5    5    0    0 -0.15871962219E+03  0.34288808657E+02  0.67301851166E+02  0.17577593703E+03  0.00000000000E+00 0.  1.
         22    1    5    5    0    0  0.55500054029E+02 -0.10561853702E+03  0.28313354280E+04  0.28338482382E+04  0.00000000000E+00 0.  1.
          5    1    4    4  502    0  0.68952883767E+02  0.93424867504E+02  0.15117417136E+03  0.19067885602E+03  0.47000000000E+01 0.  1.
         -5    1    4    4    0  502  0.34266684399E+02 -0.22095139143E+02  0.18310463011E+03  0.18764806527E+03  0.47000000000E+01 0.  1.
<mgrwt>
<rscale>  0 0.10131467E+04</rscale>
<asrwt>0</asrwt>
<pdfrwt beam="1">  1        1 0.50929737E+00 0.10131467E+04</pdfrwt>
<pdfrwt beam="2">  1       -1 0.11925773E-01 0.10131467E+04</pdfrwt>
<totfact> 0.17113953E+01</totfact>
</mgrwt>
</event>
<event>
 9    1  0.4388925E-036  0.9999553E+03  0.7818608E-02  0.8681080E-01
         -2   -1    0    0    0  501 -0.00000000000E+00  0.00000000000E+00  0.10599120633E+03  0.10599120633E+03  0.00000000000E+00 0.  1.
          2   -1    0    0  501    0  0.00000000000E+00 -0.00000000000E+00 -0.23584755195E+04  0.23584755195E+04  0.00000000000E+00 0.  1.
         36    2    1    2    0    0  0.28421709430E-13  0.28421709430E-13 -0.22524843132E+04  0.24644667258E+04  0.99995532983E+03 0.  0.
         25    2    3    3    0    0  0.79864655558E+02 -0.11445958807E+03 -0.45352409247E+03  0.49068366807E+03  0.12492797588E+03 0.  0.
         35    2    3    3    0    0 -0.79864655558E+02  0.11445958807E+03 -0.17989602207E+04  0.19737830578E+04  0.80005145017E+03 0.  0.
         22    1    5    5    0    0  0.31453962113E+03  0.24270007451E+03 -0.86350281138E+03  0.95051333746E+03  0.00000000000E+00 0.  1.
         22    1    5    5    0    0 -0.39440427669E+03 -0.12824048644E+03 -0.93545740932E+03  0.10232697203E+04  0.00000000000E+00 0.  1.
          5    1    4    4  502    0  0.10952341567E+03 -0.10409233741E+03 -0.40855000252E+03  0.43562115174E+03  0.47000000000E+01 0. -1.
         -5    1    4    4    0  502 -0.29658760115E+02 -0.10367250655E+02 -0.44974089949E+02  0.55062516328E+02  0.47000000000E+01 0. -1.
<mgrwt>
<rscale>  0 0.99995533E+03</rscale>
<asrwt>0</asrwt>
<pdfrwt beam="1">  1        2 0.36284236E+00 0.99995533E+03</pdfrwt>
<pdfrwt beam="2">  1       -2 0.16306341E-01 0.99995533E+03</pdfrwt>
<totfact> 0.14718501E+02</totfact>
</mgrwt>
</event>
<event>
 9    1  0.4388925E-036  0.1000118E+04  0.7818608E-02  0.8680926E-01
         -2   -1    0    0    0  501 -0.00000000000E+00  0.00000000000E+00  0.73822525840E+03  0.73822525840E+03  0.00000000000E+00 0. -1.
          2   -1    0    0  501    0  0.00000000000E+00 -0.00000000000E+00 -0.33872991462E+03  0.33872991462E+03  0.00000000000E+00 0. -1.
         36    2    1    2    0    0 -0.71054273576E-14  0.14210854715E-13  0.39949534378E+03  0.10769551730E+04  0.10001179505E+04 0.  0.
         25    2    3    3    0    0 -0.55964468648E+02  0.54820771878E+02  0.20301696018E+03  0.25090409299E+03  0.12489851472E+03 0.  0.
         35    2    3    3    0    0  0.55964468648E+02 -0.54820771878E+02  0.19647838360E+03  0.82605108003E+03  0.79851067170E+03 0.  0.
         22    1    5    5    0    0  0.68098774703E+02 -0.20385563935E+03 -0.26485477969E+03  0.34109033867E+03  0.00000000000E+00 0.  1.
         22    1    5    5    0    0 -0.12134306055E+02  0.14903486747E+03  0.46133316329E+03  0.48496074136E+03  0.00000000000E+00 0.  1.
          5    1    4    4  502    0  0.32658383162E+02 -0.87039117657E+01  0.25813121304E+02  0.42787092706E+02  0.47000000000E+01 0. -1.
         -5    1    4    4    0  502 -0.88622851810E+02  0.63524683644E+02  0.17720383888E+03  0.20811700029E+03  0.47000000000E+01 0. -1.
<mgrwt>
<rscale>  0 0.10001180E+04</rscale>
<asrwt>0</asrwt>
<pdfrwt beam="1">  1        2 0.52112295E-01 0.10001180E+04</pdfrwt>
<pdfrwt beam="2">  1       -2 0.11357312E+00 0.10001180E+04</pdfrwt>
<totfact> 0.68430735E+01</totfact>
</mgrwt>
</event>
<event>
 9    1  0.4388925E-036  0.1000034E+04  0.7818608E-02  0.8681005E-01
         -1   -1    0    0    0  501 -0.00000000000E+00  0.00000000000E+00  0.56228655761E+03  0.56228655761E+03  0.00000000000E+00 0. -1.
          1   -1    0    0  501    0  0.00000000000E+00 -0.00000000000E+00 -0.44464348142E+03  0.44464348142E+03  0.00000000000E+00 0. -1.
         36    2    1    2    0    0 -0.49737991503E-13  0.00000000000E+00  0.11764307619E+03  0.10069300390E+04  0.10000341045E+04 0.  0.
         25    2    3    3    0    0  0.20888907979E+02  0.12358500603E+03 -0.39210591070E+02  0.18209675639E+03  0.12614340269E+03 0.  0.
         35    2    3    3    0    0 -0.20888907979E+02 -0.12358500603E+03  0.15685366726E+03  0.82483328265E+03  0.80002329406E+03 0.  0.
         22    1    5    5    0    0  0.29723764916E+03 -0.74226955707E+02  0.33739164164E+03  0.45573345377E+03  0.00000000000E+00 0.  1.
         22    1    5    5    0    0 -0.31812655714E+03 -0.49358050327E+02 -0.18053797438E+03  0.36909982888E+03  0.00000000000E+00 0.  1.
          5    1    4    4  502    0 -0.45170403760E+01  0.21059067511E+02  0.42895851956E+02  0.48228954926E+02  0.47000000000E+01 0. -1.
         -5    1    4    4    0  502  0.25405948355E+02  0.10252593852E+03 -0.82106443026E+02  0.13386780146E+03  0.47000000000E+01 0. -1.
<mgrwt>
<rscale>  0 0.10000341E+04</rscale>
<asrwt>0</asrwt>
<pdfrwt beam="1">  1        1 0.68406689E-01 0.10000341E+04</pdfrwt>
<pdfrwt beam="2">  1       -1 0.86505625E-01 0.10000341E+04</pdfrwt>
<totfact> 0.81419047E+01</totfact>
</mgrwt>
</event>
<event>
 9    1  0.4388925E-036  0.9888154E+03  0.7818608E-02  0.8691763E-01
          2   -1    0    0  501    0  0.00000000000E+00  0.00000000000E+00  0.10529634353E+04  0.10529634353E+04  0.00000000000E+00 0. -1.
         -2   -1    0    0    0  501 -0.00000000000E+00 -0.00000000000E+00 -0.23214381542E+03  0.23214381542E+03  0.00000000000E+00 0. -1.
         36    2    1    2    0    0  0.00000000000E+00  0.14210854715E-13  0.82081961989E+03  0.12851072507E+04  0.98881535054E+03 0.  0.
         25    2    3    3    0    0  0.59843410608E+02 -0.54920605358E+02  0.18669334593E+02  0.15031741252E+03  0.12509705738E+03 0.  0.
         35    2    3    3    0    0 -0.59843410608E+02  0.54920605358E+02  0.80215028530E+03  0.11347898382E+04  0.79856458099E+03 0.  0.
         22    1    5    5    0    0 -0.39271011488E+03 -0.47397323593E+02  0.63593147519E+03  0.74891693915E+03  0.00000000000E+00 0. -1.
         22    1    5    5    0    0  0.33286670427E+03  0.10231792895E+03  0.16621881011E+03  0.38587289906E+03  0.00000000000E+00 0. -1.
          5    1    4    4  502    0  0.31169072654E+02 -0.58203626294E+02  0.66774524162E+02  0.94021807475E+02  0.47000000000E+01 0. -1.
         -5    1    4    4    0  502  0.28674337954E+02  0.32830209365E+01 -0.48105189569E+02  0.56295605042E+02  0.47000000000E+01 0. -1.
<mgrwt>
<rscale>  0 0.98881535E+03</rscale>
<asrwt>0</asrwt>
<pdfrwt beam="1">  1        2 0.16199437E+00 0.98881535E+03</pdfrwt>
<pdfrwt beam="2">  1       -2 0.35714434E-01 0.98881535E+03</pdfrwt>
<totfact> 0.20724101E+02</totfact>
</mgrwt>
</event>
<event>
 9    1  0.4388925E-036  0.9989065E+03  0.7818608E-02  0.8682080E-01
         -2   -1    0    0    0  501 -0.00000000000E+00  0.00000000000E+00  0.62348588728E+02  0.62348588728E+02  0.00000000000E+00 0. -1.
          2   -1    0    0  501    0  0.00000000000E+00 -0.00000000000E+00 -0.40009490717E+04  0.40009490717E+04  0.00000000000E+00 0. -1.
         36    2    1    2    0    0  0.28421709430E-13  0.00000000000E+00 -0.39386004830E+04  0.40632976604E+04  0.99890645847E+03 0.  0.
         25    2    3    3    0    0  0.10812348295E+03  0.80710614283E+02 -0.59636600939E+03  0.62415723973E+03  0.12535929135E+03 0.  0.
         35    2    3    3    0    0 -0.10812348295E+03 -0.80710614283E+02 -0.33422344736E+04  0.34391404207E+04  0.79934389724E+03 0.  0.
         22    1    5    5    0    0 -0.38456010450E+03 -0.23238468282E+03 -0.13684229953E+04  0.14403022630E+04  0.00000000000E+00 0. -1.
         22    1    5    5    0    0  0.27643662155E+03  0.15167406854E+03 -0.19738114783E+04  0.19988381577E+04  0.00000000000E+00 0. -1.
          5    1    4    4  502    0  0.12868818737E+03  0.34411936543E+02 -0.43006007015E+03  0.45024280659E+03  0.47000000000E+01 0. -1.
         -5    1    4    4    0  502 -0.20564704427E+02  0.46298677740E+02 -0.16630593923E+03  0.17391443314E+03  0.47000000000E+01 0. -1.
<mgrwt>
<rscale>  0 0.99890646E+03</rscale>
<asrwt>0</asrwt>
<pdfrwt beam="1">  1        2 0.61553041E+00 0.99890646E+03</pdfrwt>
<pdfrwt beam="2">  1       -2 0.95920940E-02 0.99890646E+03</pdfrwt>
<totfact> 0.24250374E+01</totfact>
</mgrwt>
</event>
<event>
 9    1  0.4388925E-036  0.9999312E+03  0.7818608E-02  0.8681103E-01
         -1   -1    0    0    0  501 -0.00000000000E+00  0.00000000000E+00  0.14771607998E+04  0.14771607998E+04  0.00000000000E+00 0.  1.
          1   -1    0    0  501    0  0.00000000000E+00 -0.00000000000E+00 -0.16922029932E+03  0.16922029932E+03  0.00000000000E+00 0.  1.
         36    2    1    2    0    0  0.00000000000E+00  0.28421709430E-13  0.13079405005E+04  0.16463810992E+04  0.99993118302E+03 0.  0.
         25    2    3    3    0    0 -0.10927016295E+02 -0.59282293727E+02  0.45305181368E+03  0.47331847723E+03  0.12304732819E+03 0.  0.
         35    2    3    3    0    0  0.10927016295E+02  0.59282293727E+02  0.85488868684E+03  0.11730626219E+04  0.80100403123E+03 0.  0.
         22    1    5    5    0    0  0.14660937961E+03  0.20066783333E+03  0.93042997202E+03  0.96304819316E+03  0.00000000000E+00 0.  1.
         22    1    5    5    0    0 -0.13568236332E+03 -0.14138553960E+03 -0.75541285181E+02  0.21001442877E+03  0.00000000000E+00 0.  1.
          5    1    4    4  502    0 -0.53925639560E+02 -0.17345758663E+02  0.34459766191E+03  0.34925418901E+03  0.47000000000E+01 0. -1.
         -5    1    4    4    0  502  0.42998623265E+02 -0.41936535064E+02  0.10845415177E+03  0.12406428822E+03  0.47000000000E+01 0. -1.
<mgrwt>
<rscale>  0 0.99993118E+03</rscale>
<asrwt>0</asrwt>
<pdfrwt beam="1">  1        1 0.26033893E-01 0.99993118E+03</pdfrwt>
<pdfrwt beam="2">  1       -1 0.22725550E+00 0.99993118E+03</pdfrwt>
<totfact> 0.16750416E+01</totfact>
</mgrwt>
</event>
<event>
 9    1  0.4388925E-036  0.1003009E+04  0.7818608E-02  0.8678178E-01
          1   -1    0    0  501    0  0.00000000000E+00  0.00000000000E+00  0.53382871138E+03  0.53382871138E+03  0.00000000000E+00 0.  1.
         -1   -1    0    0    0  501 -0.00000000000E+00 -0.00000000000E+00 -0.47113769676E+03  0.47113769676E+03  0.00000000000E+00 0.  1.
         36    2    1    2    0    0 -0.14210854715E-13  0.24868995752E-13  0.62691014617E+02  0.10049664081E+04  0.10030091317E+04 0.  0.
         25    2    3    3    0    0  0.12007533500E+03 -0.19913989693E+02 -0.66394314436E+02  0.18628335316E+03  0.12441314085E+03 0.  0.
         35    2    3    3    0    0 -0.12007533500E+03  0.19913989693E+02  0.12908532905E+03  0.81868305498E+03  0.79922729513E+03 0.  0.
         22    1    5    5    0    0  0.13875174791E+03 -0.32773520774E+03  0.14660774494E+03  0.38491069720E+03  0.00000000000E+00 0.  1.
         22    1    5    5    0    0 -0.25882708291E+03  0.34764919743E+03 -0.17522415885E+02  0.43377235779E+03  0.00000000000E+00 0.  1.
          5    1    4    4  502    0  0.11759059004E+03  0.17435700418E+02 -0.83003550534E+02  0.14506284816E+03  0.47000000000E+01 0.  1.
         -5    1    4    4    0  502  0.24847449521E+01 -0.37349690111E+02  0.16609236098E+02  0.41220505002E+02  0.47000000000E+01 0.  1.
<mgrwt>
<rscale>  0 0.10030091E+04</rscale>
<asrwt>0</asrwt>
<pdfrwt beam="1">  1        1 0.82127494E-01 0.10030091E+04</pdfrwt>
<pdfrwt beam="2">  1       -1 0.72482722E-01 0.10030091E+04</pdfrwt>
<totfact> 0.91263702E+01</totfact>
</mgrwt>
</event>
<event>
 9    1  0.4388925E-036  0.9997797E+03  0.7818608E-02  0.8681248E-01
          2   -1    0    0  501    0  0.00000000000E+00  0.00000000000E+00  0.21807166267E+03  0.21807166267E+03  0.00000000000E+00 0.  1.
         -2   -1    0    0    0  501 -0.00000000000E+00 -0.00000000000E+00 -0.11459071143E+04  0.11459071143E+04  0.00000000000E+00 0.  1.
         36    2    1    2    0    0  0.00000000000E+00  0.00000000000E+00 -0.92783545165E+03  0.13639787770E+04  0.99977971511E+03 0.  0.
         25    2    3    3    0    0 -0.85512589321E+02 -0.60570816757E+02 -0.47475967060E+02  0.16991882421E+03  0.12504884085E+03 0.  0.
         35    2    3    3    0    0  0.85512589321E+02  0.60570816757E+02 -0.88035948459E+03  0.11940599528E+04  0.79985318775E+03 0.  0.
         22    1    5    5    0    0  0.40793830436E+03  0.20123427156E+03 -0.49034285332E+03  0.66883855004E+03  0.00000000000E+00 0. -1.
         22    1    5    5    0    0 -0.32242571504E+03 -0.14066345480E+03 -0.39001663127E+03  0.52522140274E+03  0.00000000000E+00 0. -1.
          5    1    4    4  502    0 -0.53337319887E+02 -0.47472861076E+02 -0.89888739968E+02  0.11489394155E+03  0.47000000000E+01 0.  1.
         -5    1    4    4    0  502 -0.32175269435E+02 -0.13097955681E+02  0.42412772908E+02  0.55024882662E+02  0.47000000000E+01 0.  1.
<mgrwt>
<rscale>  0 0.99977972E+03</rscale>
<asrwt>0</asrwt>
<pdfrwt beam="1">  1        2 0.33549487E-01 0.99977972E+03</pdfrwt>
<pdfrwt beam="2">  1       -2 0.17629340E+00 0.99977972E+03</pdfrwt>
<totfact> 0.33417181E+01</totfact>
</mgrwt>
</event>
<event>
 9    1  0.4388925E-036  0.1000181E+04  0.7818608E-02  0.8680866E-01
         -2   -1    0    0    0  501 -0.00000000000E+00  0.00000000000E+00  0.18490763454E+03  0.18490763454E+03  0.00000000000E+00 0.  1.
          2   -1    0    0  501    0  0.00000000000E+00 -0.00000000000E+00 -0.13525146359E+04  0.13525146359E+04  0.00000000000E+00 0.  1.
         36    2    1    2    0    0  0.14210854715E-13  0.00000000000E+00 -0.11676070013E+04  0.15374222704E+04  0.10001805477E+04 0.  0.
         25    2    3    3    0    0 -0.82679144581E+02  0.94611885664E+02 -0.12383272200E+03  0.21580778512E+03  0.12430288501E+03 0.  0.
         35    2    3    3    0    0  0.82679144581E+02 -0.94611885664E+02 -0.10437742793E+04  0.13216144853E+04  0.80088254549E+03 0.  0.
         22    1    5    5    0    0 -0.11441291893E+03  0.19218127906E+03 -0.24393505352E+01  0.22367366959E+03  0.00000000000E+00 0. -1.
         22    1    5    5    0    0  0.19709206351E+03 -0.28679316473E+03 -0.10413349288E+04  0.10979408157E+04  0.00000000000E+00 0. -1.
          5    1    4    4  502    0  0.29378602177E+02  0.24572947990E+02 -0.67112174354E+01  0.39167109649E+02  0.47000000000E+01 0.  1.
         -5    1    4    4    0  502 -0.11205774676E+03  0.70038937674E+02 -0.11712150456E+03  0.17664067547E+03  0.47000000000E+01 0.  1.
<mgrwt>
<rscale>  0 0.10001805E+04</rscale>
<asrwt>0</asrwt>
<pdfrwt beam="1">  1        2 0.20807917E+00 0.10001805E+04</pdfrwt>
<pdfrwt beam="2">  1       -2 0.28447329E-01 0.10001805E+04</pdfrwt>
<totfact> 0.20928915E+02</totfact>
</mgrwt>
</event>
<event>
 9    1  0.4388925E-036  0.9997386E+03  0.7818608E-02  0.8681287E-01
         -1   -1    0    0    0  501 -0.00000000000E+00  0.00000000000E+00  0.20234911358E+03  0.20234911358E+03  0.00000000000E+00 0.  1.
          1   -1    0    0  501    0  0.00000000000E+00 -0.00000000000E+00 -0.12348425475E+04  0.12348425475E+04  0.00000000000E+00 0.  1.
         36    2    1    2    0    0  0.71054273576E-14  0.14210854715E-13 -0.10324934339E+04  0.14371916611E+04  0.99973855563E+03 0.  0.
         25    2    3    3    0    0  0.21524512579E+02  0.49451884644E+02 -0.38151771974E+03  0.40508690718E+03  0.12502335127E+03 0.  0.
         35    2    3    3    0    0 -0.21524512579E+02 -0.49451884644E+02 -0.65097571421E+03  0.10321047539E+04  0.79910077527E+03 0.  0.
         22    1    5    5    0    0  0.30794481999E+03 -0.12568671788E+03 -0.60556511436E+03  0.69089526770E+03  0.00000000000E+00 0. -1.
         22    1    5    5    0    0 -0.32946933257E+03  0.76234833241E+02 -0.45410599850E+02  0.34120948621E+03  0.00000000000E+00 0. -1.
          5    1    4    4  502    0  0.38746363826E+02  0.62838060292E+02 -0.10943576757E+03  0.13209155823E+03  0.47000000000E+01 0. -1.
         -5    1    4    4    0  502 -0.17221851248E+02 -0.13386175648E+02 -0.27208195216E+03  0.27299534895E+03  0.47000000000E+01 0. -1.
<mgrwt>
<rscale>  0 0.99973856E+03</rscale>
<asrwt>0</asrwt>
<pdfrwt beam="1">  1        1 0.18997577E+00 0.99973856E+03</pdfrwt>
<pdfrwt beam="2">  1       -1 0.31130633E-01 0.99973856E+03</pdfrwt>
<totfact> 0.10594169E+02</totfact>
</mgrwt>
</event>
<event>
 9    1  0.4388925E-036  0.1001550E+04  0.7818608E-02  0.8679563E-01
         -1   -1    0    0    0  501 -0.00000000000E+00  0.00000000000E+00  0.45684445013E+03  0.45684445013E+03  0.00000000000E+00 0. -1.
          1   -1    0    0  501    0  0.00000000000E+00 -0.00000000000E+00 -0.54892995538E+03  0.54892995538E+03  0.00000000000E+00 0. -1.
         36    2    1    2    0    0 -0.28421709430E-13  0.00000000000E+00 -0.92085505252E+02  0.10057744055E+04  0.10015500060E+04 0.  0.
         25    2    3    3    0    0  0.94613729878E+02  0.97380979827E+02 -0.65411409122E+02  0.19527650747E+03  0.12417507323E+03 0.  0.
         35    2    3    3    0    0 -0.94613729878E+02 -0.97380979827E+02 -0.26674096130E+02  0.81049789804E+03  0.79859909980E+03 0.  0.
         22    1    5    5    0    0  0.20027088687E+03 -0.30621229075E+03 -0.19191642060E+03  0.41316619855E+03  0.00000000000E+00 0. -1.
         22    1    5    5    0    0 -0.29488461675E+03  0.20883131092E+03  0.16524232447E+03  0.39733169948E+03  0.00000000000E+00 0. -1.
          5    1    4    4  502    0  0.46475231483E+02 -0.11357829561E+02  0.16472513607E+02  0.50817134298E+02  0.47000000000E+01 0. -1.
         -5    1    4    4    0  502  0.48138498395E+02  0.10873880939E+03 -0.81883922728E+02  0.14445937317E+03  0.47000000000E+01 0. -1.
<mgrwt>
<rscale>  0 0.10015500E+04</rscale>
<asrwt>0</asrwt>
<pdfrwt beam="1">  1        1 0.84450762E-01 0.10015500E+04</pdfrwt>
<pdfrwt beam="2">  1       -1 0.70283762E-01 0.10015500E+04</pdfrwt>
<totfact> 0.93308900E+01</totfact>
</mgrwt>
</event>
<event>
 9    1  0.4388925E-036  0.1000282E+04  0.7818608E-02  0.8680769E-01
         -2   -1    0    0    0  501 -0.00000000000E+00  0.00000000000E+00  0.14929941696E+04  0.14929941696E+04  0.00000000000E+00 0.  1.
          2   -1    0    0  501    0  0.00000000000E+00 -0.00000000000E+00 -0.16754328167E+03  0.16754328167E+03  0.00000000000E+00 0.  1.
         36    2    1    2    0    0  0.00000000000E+00  0.71054273576E-14  0.13254508880E+04  0.16605374513E+04  0.10002822456E+04 0.  0.
         25    2    3    3    0    0 -0.46479261162E+02 -0.19372948599E+02  0.46518131688E+03  0.48446251921E+03  0.12559714205E+03 0.  0.
         35    2    3    3    0    0  0.46479261162E+02  0.19372948599E+02  0.86026957108E+03  0.11760749321E+04  0.80034547423E+03 0.  0.
         22    1    5    5    0    0  0.24269263865E+03 -0.23353785939E+03  0.77468075964E+03  0.84473068370E+03  0.00000000000E+00 0. -1.
         22    1    5    5    0    0 -0.19621337749E+03  0.25291080799E+03  0.85588811440E+02  0.33134424840E+03  0.00000000000E+00 0. -1.
          5    1    4    4  502    0 -0.65874343563E+02  0.36327997707E+02  0.28596325736E+03  0.29572999023E+03  0.47000000000E+01 0.  1.
         -5    1    4    4    0  502  0.19395082401E+02 -0.55700946306E+02  0.17921805952E+03  0.18873252899E+03  0.47000000000E+01 0.  1.
<mgrwt>
<rscale>  0 0.10002822E+04</rscale>
<asrwt>0</asrwt>
<pdfrwt beam="1">  1        2 0.25775890E-01 0.10002822E+04</pdfrwt>
<pdfrwt beam="2">  1       -2 0.22969140E+00 0.10002822E+04</pdfrwt>
<totfact> 0.19551453E+01</totfact>
</mgrwt>
</event>
<event>
 9    1  0.4388925E-036  0.1000998E+04  0.7818608E-02  0.8680088E-01
         -1   -1    0    0    0  501 -0.00000000000E+00  0.00000000000E+00  0.80350324608E+02  0.80350324608E+02  0.00000000000E+00 0. -1.
          1   -1    0    0  501    0  0.00000000000E+00 -0.00000000000E+00 -0.31175914420E+04  0.31175914420E+04  0.00000000000E+00 0. -1.
         36    2    1    2    0    0  0.17763568394E-14  0.00000000000E+00 -0.30372411174E+04  0.31979417666E+04  0.10009984702E+04 0.  0.
         25    2    3    3    0    0  0.98135417514E+01  0.82462110338E+02 -0.20449661121E+03  0.25361164275E+03  0.12491475533E+03 0.  0.
         35    2    3    3    0    0 -0.98135417514E+01 -0.82462110338E+02 -0.28327445062E+04  0.29443301238E+04  0.79858758799E+03 0.  0.
         22    1    5    5    0    0  0.18649696265E+02  0.22351954771E+02  0.50902440903E+02  0.58638549971E+02  0.00000000000E+00 0.  1.
         22    1    5    5    0    0 -0.28463238016E+02 -0.10481406511E+03 -0.28836469471E+04  0.28856915739E+04  0.00000000000E+00 0.  1.
          5    1    4    4  502    0 -0.27316077343E+00  0.10824556265E+03 -0.10748847326E+03  0.15262056983E+03  0.47000000000E+01 0. -1.
         -5    1    4    4    0  502  0.10086702525E+02 -0.25783452317E+02 -0.97008137953E+02  0.10099107292E+03  0.47000000000E+01 0. -1.
<mgrwt>
<rscale>  0 0.10009985E+04</rscale>
<asrwt>0</asrwt>
<pdfrwt beam="1">  1        1 0.47962953E+00 0.10009985E+04</pdfrwt>
<pdfrwt beam="2">  1       -1 0.12361586E-01 0.10009985E+04</pdfrwt>
<totfact> 0.22423300E+01</totfact>
</mgrwt>
</event>
<event>
 9    1  0.4388925E-036  0.1000250E+04  0.7818608E-02  0.8680800E-01
         -2   -1    0    0    0  501 -0.00000000000E+00  0.00000000000E+00  0.36708175499E+03  0.36708175499E+03  0.00000000000E+00 0. -1.
          2   -1    0    0  501    0  0.00000000000E+00 -0.00000000000E+00 -0.68138737772E+03  0.68138737772E+03  0.00000000000E+00 0. -1.
         36    2    1    2    0    0  0.00000000000E+00  0.00000000000E+00 -0.31430562273E+03  0.10484691327E+04  0.10002497177E+04 0.  0.
         25    2    3    3    0    0  0.93669783093E+02  0.14859940049E+02 -0.16517832488E+03  0.22680387149E+03  0.12313111318E+03 0.  0.
         35    2    3    3    0    0 -0.93669783093E+02 -0.14859940049E+02 -0.14912729786E+03  0.82166526121E+03  0.80243380065E+03 0.  0.
         22    1    5    5    0    0  0.86938052307E+02  0.34208416325E+03 -0.21927611726E+03  0.41552595019E+03  0.00000000000E+00 0.  1.
         22    1    5    5    0    0 -0.18060783540E+03 -0.35694410330E+03  0.70148819402E+02  0.40613931101E+03  0.00000000000E+00 0.  1.
          5    1    4    4  502    0 -0.26499834346E+02 -0.51970524546E+01 -0.93823151761E+01  0.28971855526E+02  0.47000000000E+01 0. -1.
         -5    1    4    4    0  502  0.12016961744E+03  0.20056992504E+02 -0.15579600970E+03  0.19783201597E+03  0.47000000000E+01 0. -1.
<mgrwt>
<rscale>  0 0.10002497E+04</rscale>
<asrwt>0</asrwt>
<pdfrwt beam="1">  1        2 0.10482883E+00 0.10002497E+04</pdfrwt>
<pdfrwt beam="2">  1       -2 0.56474116E-01 0.10002497E+04</pdfrwt>
<totfact> 0.15092280E+02</totfact>
</mgrwt>
</event>
<event>
 9    1  0.4388925E-036  0.1002386E+04  0.7818608E-02  0.8678769E-01
         -1   -1    0    0    0  501 -0.00000000000E+00  0.00000000000E+00  0.46913168357E+03  0.46913168357E+03  0.00000000000E+00 0.  1.
          1   -1    0    0  501    0  0.00000000000E+00 -0.00000000000E+00 -0.53544597260E+03  0.53544597260E+03  0.00000000000E+00 0.  1.
         36    2    1    2    0    0  0.14210854715E-13  0.14210854715E-13 -0.66314289028E+02  0.10045776562E+04  0.10023864935E+04 0.  0.
         25    2    3    3    0    0 -0.42306657220E+02 -0.10957297349E+03 -0.93565128691E+02  0.19561602549E+03  0.12535990729E+03 0.  0.
         35    2    3    3    0    0  0.42306657220E+02  0.10957297349E+03  0.27250839663E+02  0.80896163068E+03  0.79992513518E+03 0.  0.
         22    1    5    5    0    0  0.28131528950E+03 -0.21801045439E+03  0.14861049105E+03  0.38568371547E+03  0.00000000000E+00 0. -1.
         22    1    5    5    0    0 -0.23900863228E+03  0.32758342788E+03 -0.12135965138E+03  0.42327791522E+03  0.00000000000E+00 0. -1.
          5    1    4    4  502    0 -0.38198717300E+01  0.94293953585E+01  0.22364571848E+02  0.25015375088E+02  0.47000000000E+01 0. -1.
         -5    1    4    4    0  502 -0.38486785490E+02 -0.11900236885E+03 -0.11592970054E+03  0.17060065040E+03  0.47000000000E+01 0. -1.
<mgrwt>
<rscale>  0 0.10023865E+04</rscale>
<asrwt>0</asrwt>
<pdfrwt beam="1">  1        1 0.82376303E-01 0.10023865E+04</pdfrwt>
<pdfrwt beam="2">  1       -1 0.72174105E-01 0.10023865E+04</pdfrwt>
<totfact> 0.91661333E+01</totfact>
</mgrwt>
</event>
<event>
 9    1  0.4388925E-036  0.1003020E+04  0.7818608E-02  0.8678167E-01
         -2   -1    0    0    0  501 -0.00000000000E+00  0.00000000000E+00  0.88522790598E+02  0.88522790598E+02  0.00000000000E+00 0.  1.
          2   -1    0    0  501    0  0.00000000000E+00 -0.00000000000E+00 -0.28412172721E+04  0.28412172721E+04  0.00000000000E+00 0.  1.
         36    2    1    2    0    0  0.42632564146E-13  0.71054273576E-14 -0.27526944815E+04  0.29297400627E+04  0.10030204018E+04 0.  0.
         25    2    3    3    0    0 -0.63084686768E+02 -0.31248331998E+02 -0.89300431564E+03  0.90439690067E+03  0.12458294518E+03 0.  0.
         35    2    3    3    0    0  0.63084686768E+02  0.31248331998E+02 -0.18596901659E+04  0.20253431620E+04  0.79913157554E+03 0.  0.
         22    1    5    5    0    0  0.41829284813E+03 -0.39303036535E+02 -0.12192038652E+04  0.12895626005E+04  0.00000000000E+00 0.  1.
         22    1    5    5    0    0 -0.35520816137E+03  0.70551368533E+02 -0.64048630062E+03  0.73578056157E+03  0.00000000000E+00 0.  1.
          5    1    4    4  502    0 -0.76935101862E+02  0.98939884513E+00 -0.81614063788E+03  0.81977290734E+03  0.47000000000E+01 0.  1.
         -5    1    4    4    0  502  0.13850415094E+02 -0.32237730843E+02 -0.76863677763E+02  0.84623993332E+02  0.47000000000E+01 0.  1.
<mgrwt>
<rscale>  0 0.10030204E+04</rscale>
<asrwt>0</asrwt>
<pdfrwt beam="1">  1        2 0.43711036E+00 0.10030204E+04</pdfrwt>
<pdfrwt beam="2">  1       -2 0.13618891E-01 0.10030204E+04</pdfrwt>
<totfact> 0.99965671E+01</totfact>
</mgrwt>
</event>
<event>
 9    1  0.4388925E-036  0.1002585E+04  0.7818608E-02  0.8678580E-01
          3   -1    0    0  501    0  0.00000000000E+00  0.00000000000E+00  0.61852092580E+03  0.61852092580E+03  0.00000000000E+00 0. -1.
         -3   -1    0    0    0  501 -0.00000000000E+00 -0.00000000000E+00 -0.40628228940E+03  0.40628228940E+03  0.00000000000E+00 0. -1.
         36    2    1    2    0    0  0.00000000000E+00  0.21316282073E-13  0.21223863640E+03  0.10248032152E+04  0.10025848548E+04 0.  0.
         25    2    3    3    0    0  0.14817631798E+01 -0.87118212414E+01 -0.10484452582E+03  0.16356805301E+03  0.12523594500E+03 0.  0.
         35    2    3    3    0    0 -0.14817631798E+01  0.87118212414E+01  0.31708316223E+03  0.86123516219E+03  0.80069106487E+03 0.  0.
         22    1    5    5    0    0 -0.13933752089E+03 -0.21802849895E+03 -0.16786609189E+03  0.30843215767E+03  0.00000000000E+00 0.  1.
         22    1    5    5    0    0  0.13785575771E+03  0.22674032019E+03  0.48494925411E+03  0.55280300451E+03  0.00000000000E+00 0.  1.
          5    1    4    4  502    0 -0.19978934482E+02  0.43487369278E+02 -0.44394241644E+01  0.48291899907E+02  0.47000000000E+01 0.  1.
         -5    1    4    4    0  502  0.21460697662E+02 -0.52199190520E+02 -0.10040510166E+03  0.11527615310E+03  0.47000000000E+01 0.  1.
<mgrwt>
<rscale>  0 0.10025849E+04</rscale>
<asrwt>0</asrwt>
<pdfrwt beam="1">  1        3 0.95157066E-01 0.10025849E+04</pdfrwt>
<pdfrwt beam="2">  1       -3 0.62504967E-01 0.10025849E+04</pdfrwt>
<totfact> 0.10034987E+01</totfact>
</mgrwt>
</event>
<event>
 9    1  0.4388925E-036  0.9927794E+03  0.7818608E-02  0.8687945E-01
         -2   -1    0    0    0  501 -0.00000000000E+00  0.00000000000E+00  0.72338661332E+03  0.72338661332E+03  0.00000000000E+00 0.  1.
          2   -1    0    0  501    0  0.00000000000E+00 -0.00000000000E+00 -0.34062386647E+03  0.34062386647E+03  0.00000000000E+00 0.  1.
         36    2    1    2    0    0  0.00000000000E+00  0.14210854715E-13  0.38276274685E+03  0.10640104798E+04  0.99277942198E+03 0.  0.
         25    2    3    3    0    0 -0.31851797988E+01  0.87549496188E+02  0.17594535973E+03  0.23300549453E+03  0.12513884775E+03 0.  0.
         35    2    3    3    0    0  0.31851797988E+01 -0.87549496188E+02  0.20681738712E+03  0.83100498526E+03  0.80007549285E+03 0.  0.
         22    1    5    5    0    0 -0.73469970165E+02 -0.17104062036E+03 -0.27719372851E+03  0.33389982547E+03  0.00000000000E+00 0. -1.
         22    1    5    5    0    0  0.76655149964E+02  0.83491124170E+02  0.48401111563E+03  0.49710515978E+03  0.00000000000E+00 0. -1.
          5    1    4    4  502    0  0.35517129038E+02  0.88130007601E+02  0.64504320244E+02  0.11494025415E+03  0.47000000000E+01 0.  1.
         -5    1    4    4    0  502 -0.38702308837E+02 -0.58051141274E+00  0.11144103949E+03  0.11806524038E+03  0.47000000000E+01 0.  1.
<mgrwt>
<rscale>  0 0.99277942E+03</rscale>
<asrwt>0</asrwt>
<pdfrwt beam="1">  1        2 0.52403672E-01 0.99277942E+03</pdfrwt>
<pdfrwt beam="2">  1       -2 0.11129025E+00 0.99277942E+03</pdfrwt>
<totfact> 0.71648957E+01</totfact>
</mgrwt>
</event>
<event>
 9    1  0.4388925E-036  0.1000406E+04  0.7818608E-02  0.8680652E-01
         -1   -1    0    0    0  501 -0.00000000000E+00  0.00000000000E+00  0.10468832131E+04  0.10468832131E+04  0.00000000000E+00 0. -1.
          1   -1    0    0  501    0  0.00000000000E+00 -0.00000000000E+00 -0.23899796890E+03  0.23899796890E+03  0.00000000000E+00 0. -1.
         36    2    1    2    0    0  0.00000000000E+00  0.00000000000E+00  0.80788524418E+03  0.12858811820E+04  0.10004058409E+04 0.  0.
         25    2    3    3    0    0  0.48032724635E+02  0.12912575748E+03  0.19828612405E+03  0.27206175364E+03  0.12537785659E+03 0.  0.
         35    2    3    3    0    0 -0.48032724635E+02 -0.12912575748E+03  0.60959912013E+03  0.10138194283E+04  0.79827197254E+03 0.  0.
         22    1    5    5    0    0  0.31874977454E+03 -0.15048176646E+03  0.53221213074E+03  0.63835408115E+03  0.00000000000E+00 0. -1.
         22    1    5    5    0    0 -0.36678249917E+03  0.21356008989E+02  0.77386989388E+02  0.37546534720E+03  0.00000000000E+00 0. -1.
          5    1    4    4  502    0  0.55558117567E+02  0.31384526177E+02  0.17465503113E+02  0.66323651211E+02  0.47000000000E+01 0. -1.
         -5    1    4    4    0  502 -0.75253929317E+01  0.97741231298E+02  0.18082062094E+03  0.20573810243E+03  0.47000000000E+01 0.  1.
<mgrwt>
<rscale>  0 0.10004058E+04</rscale>
<asrwt>0</asrwt>
<pdfrwt beam="1">  1        1 0.36768919E-01 0.10004058E+04</pdfrwt>
<pdfrwt beam="2">  1       -1 0.16105895E+00 0.10004058E+04</pdfrwt>
<totfact> 0.39032873E+01</totfact>
</mgrwt>
</event>
<event>
 9    1  0.4388925E-036  0.9995468E+03  0.7818608E-02  0.8681470E-01
         -2   -1    0    0    0  501 -0.00000000000E+00  0.00000000000E+00  0.11828657718E+03  0.11828657718E+03  0.00000000000E+00 0.  1.
          2   -1    0    0  501    0  0.00000000000E+00 -0.00000000000E+00 -0.21115960725E+04  0.21115960725E+04  0.00000000000E+00 0.  1.
         36    2    1    2    0    0 -0.28421709430E-13 -0.14210854715E-13 -0.19933094953E+04  0.22298826496E+04  0.99954684090E+03 0.  0.
         25    2    3    3    0    0  0.97541630898E+02 -0.47448108328E+02 -0.56840427487E+03  0.59193961271E+03  0.12467314335E+03 0.  0.
         35    2    3    3    0    0 -0.97541630898E+02  0.47448108328E+02 -0.14249052204E+04  0.16379430369E+04  0.80046037521E+03 0.  0.
         22    1    5    5    0    0 -0.40910699261E+03 -0.11273293774E+03 -0.10060989066E+04  0.10919305181E+04  0.00000000000E+00 0. -1.
         22    1    5    5    0    0  0.31156536171E+03  0.16018104607E+03 -0.41880631384E+03  0.54601251877E+03  0.00000000000E+00 0. -1.
          5    1    4    4  502    0  0.11931435249E+03 -0.57783875867E+02 -0.39205600342E+03  0.41388995015E+03  0.47000000000E+01 0. -1.
         -5    1    4    4    0  502 -0.21772721592E+02  0.10335767539E+02 -0.17634827144E+03  0.17804966256E+03  0.47000000000E+01 0. -1.
<mgrwt>
<rscale>  0 0.99954684E+03</rscale>
<asrwt>0</asrwt>
<pdfrwt beam="1">  1        2 0.32486095E+00 0.99954684E+03</pdfrwt>
<pdfrwt beam="2">  1       -2 0.18197934E-01 0.99954684E+03</pdfrwt>
<totfact> 0.17024100E+02</totfact>
</mgrwt>
</event>
<event>
 9    1  0.4388925E-036  0.9999351E+03  0.7818608E-02  0.8681100E-01
         -2   -1    0    0    0  501 -0.00000000000E+00  0.00000000000E+00  0.11320404248E+03  0.11320404248E+03  0.00000000000E+00 0. -1.
          2   -1    0    0  501    0  0.00000000000E+00 -0.00000000000E+00 -0.22081149085E+04  0.22081149085E+04  0.00000000000E+00 0. -1.
         36    2    1    2    0    0  0.00000000000E+00  0.00000000000E+00 -0.20949108660E+04  0.23213189510E+04  0.99993506570E+03 0.  0.
         25    2    3    3    0    0 -0.99733492660E+02  0.23483269405E+02 -0.17134867223E+03  0.23559316242E+03  0.12508212184E+03 0.  0.
         35    2    3    3    0    0  0.99733492660E+02 -0.23483269405E+02 -0.19235621938E+04  0.20857257886E+04  0.79978892102E+03 0.  0.
         22    1    5    5    0    0  0.40264313897E+03 -0.12303143966E+03 -0.66235942110E+03  0.78484280925E+03  0.00000000000E+00 0. -1.
         22    1    5    5    0    0 -0.30290964631E+03  0.99548170254E+02 -0.12612027727E+04  0.13008829793E+04  0.00000000000E+00 0. -1.
          5    1    4    4  502    0 -0.10061324342E+02  0.50346953127E+02 -0.15685304783E+02  0.53890302679E+02  0.47000000000E+01 0. -1.
         -5    1    4    4    0  502 -0.89672168318E+02 -0.26863683721E+02 -0.15566336745E+03  0.18170285974E+03  0.47000000000E+01 0. -1.
<mgrwt>
<rscale>  0 0.99993507E+03</rscale>
<asrwt>0</asrwt>
<pdfrwt beam="1">  1        2 0.33970997E+00 0.99993507E+03</pdfrwt>
<pdfrwt beam="2">  1       -2 0.17416008E-01 0.99993507E+03</pdfrwt>
<totfact> 0.16135032E+02</totfact>
</mgrwt>
</event>
<event>
 9    1  0.4388925E-036  0.1003907E+04  0.7818608E-02  0.8677327E-01
          1   -1    0    0  501    0  0.00000000000E+00  0.00000000000E+00  0.82079175911E+03  0.82079175911E+03  0.00000000000E+00 0. -1.
         -1   -1    0    0    0  501 -0.00000000000E+00 -0.00000000000E+00 -0.30696835269E+03  0.30696835269E+03  0.00000000000E+00 0. -1.
         36    2    1    2    0    0 -0.28421709430E-13  0.28421709430E-13  0.51382340642E+03  0.11277601118E+04  0.10039065578E+04 0.  0.
         25    2    3    3    0    0  0.82435444950E+02  0.12105232480E+03  0.11982542891E+03  0.22502414621E+03  0.12177218501E+03 0.  0.
         35    2    3    3    0    0 -0.82435444950E+02 -0.12105232480E+03  0.39399797751E+03  0.90273596558E+03  0.79890459339E+03 0.  0.
         22    1    5    5    0    0 -0.40138763348E+03  0.42908316118E+02  0.51698904063E+02  0.40697166067E+03  0.00000000000E+00 0.  1.
         22    1    5    5    0    0  0.31895218853E+03 -0.16396064092E+03  0.34229907345E+03  0.49576430491E+03  0.00000000000E+00 0.  1.
          5    1    4    4  502    0  0.96360519784E+02  0.13366046010E+03  0.85700140843E+02  0.18578770817E+03  0.47000000000E+01 0.  1.
         -5    1    4    4    0  502 -0.13925074834E+02 -0.12608135294E+02  0.34125288068E+02  0.39236438045E+02  0.47000000000E+01 0.  1.
<mgrwt>
<rscale>  0 0.10039066E+04</rscale>
<asrwt>0</asrwt>
<pdfrwt beam="1">  1        1 0.12627565E+00 0.10039066E+04</pdfrwt>
<pdfrwt beam="2">  1       -1 0.47225901E-01 0.10039066E+04</pdfrwt>
<totfact> 0.10784057E+02</totfact>
</mgrwt>
</event>
<event>
 9    1  0.4388925E-036  0.9990626E+03  0.7818608E-02  0.8681931E-01
          2   -1    0    0  501    0  0.00000000000E+00  0.00000000000E+00  0.18733643619E+04  0.18733643619E+04  0.00000000000E+00 0. -1.
         -2   -1    0    0    0  501 -0.00000000000E+00 -0.00000000000E+00 -0.13319968016E+03  0.13319968016E+03  0.00000000000E+00 0. -1.
         36    2    1    2    0    0  0.28421709430E-13 -0.14210854715E-13  0.17401646818E+04  0.20065640421E+04  0.99906262832E+03 0.  0.
         25    2    3    3    0    0  0.12537453986E+03  0.44840218701E+02  0.37191880411E+03  0.41531501483E+03  0.12819338608E+03 0.  0.
         35    2    3    3    0    0 -0.12537453986E+03 -0.44840218701E+02  0.13682458776E+04  0.15912490272E+04  0.80140330954E+03 0.  0.
         22    1    5    5    0    0 -0.18533254208E+03 -0.18985923232E+03  0.14052024348E+04  0.14300309654E+04  0.00000000000E+00 0. -1.
         22    1    5    5    0    0  0.59958002217E+02  0.14501901362E+03 -0.36956557163E+02  0.16121806183E+03  0.00000000000E+00 0. -1.
          5    1    4    4  502    0  0.85104575201E+02 -0.48263751284E+01  0.81934131020E+02  0.11832740360E+03  0.47000000000E+01 0. -1.
         -5    1    4    4    0  502  0.40269964664E+02  0.49666593830E+02  0.28998467309E+03  0.29698761123E+03  0.47000000000E+01 0. -1.
<mgrwt>
<rscale>  0 0.99906263E+03</rscale>
<asrwt>0</asrwt>
<pdfrwt beam="1">  1        2 0.28820988E+00 0.99906263E+03</pdfrwt>
<pdfrwt beam="2">  1       -2 0.20492260E-01 0.99906263E+03</pdfrwt>
<totfact> 0.18964576E+02</totfact>
</mgrwt>
</event>
<event>
 9    1  0.4388925E-036  0.1000193E+04  0.7818608E-02  0.8680854E-01
         -4   -1    0    0    0  501 -0.00000000000E+00  0.00000000000E+00  0.82546270394E+03  0.82546270394E+03  0.00000000000E+00 0. -1.
          4   -1    0    0  501    0  0.00000000000E+00 -0.00000000000E+00 -0.30297738408E+03  0.30297738408E+03  0.00000000000E+00 0. -1.
         36    2    1    2    0    0 -0.71054273576E-14 -0.14210854715E-13  0.52248531986E+03  0.11284400880E+04  0.10001930428E+04 0.  0.
         25    2    3    3    0    0 -0.17935015033E+02 -0.11646201282E+03  0.18666950697E+03  0.25332890451E+03  0.12427776886E+03 0.  0.
         35    2    3    3    0    0  0.17935015033E+02  0.11646201282E+03  0.33581581288E+03  0.87511118350E+03  0.79947623987E+03 0.  0.
         22    1    5    5    0    0  0.27706163552E+03 -0.23919654565E+03  0.18349451439E+03  0.40944886633E+03  0.00000000000E+00 0. -1.
         22    1    5    5    0    0 -0.25912662048E+03  0.35565855848E+03  0.15232129850E+03  0.46566231717E+03  0.00000000000E+00 0. -1.
          5    1    4    4  502    0 -0.65405758022E+02 -0.49767422542E+02  0.12919715789E+03  0.15319499057E+03  0.47000000000E+01 0.  1.
         -5    1    4    4    0  502  0.47470742989E+02 -0.66694590280E+02  0.57472349089E+02  0.10013391395E+03  0.47000000000E+01 0.  1.
<mgrwt>
<rscale>  0 0.10001930E+04</rscale>
<asrwt>0</asrwt>
<pdfrwt beam="1">  1        4 0.46611906E-01 0.10001930E+04</pdfrwt>
<pdfrwt beam="2">  1       -4 0.12699426E+00 0.10001930E+04</pdfrwt>
<totfact> 0.43520135E+00</totfact>
</mgrwt>
</event>
<event>
 9    1  0.4388925E-036  0.9995185E+03  0.7818608E-02  0.8681497E-01
          2   -1    0    0  501    0  0.00000000000E+00  0.00000000000E+00  0.22963643255E+04  0.22963643255E+04  0.00000000000E+00 0.  1.
         -2   -1    0    0    0  501 -0.00000000000E+00 -0.00000000000E+00 -0.10876292701E+03  0.10876292701E+03  0.00000000000E+00 0.  1.
         36    2    1    2    0    0 -0.28421709430E-13 -0.14210854715E-13  0.21876013985E+04  0.24051272526E+04  0.99951849511E+03 0.  0.
         25    2    3    3    0    0  0.50655851548E+02  0.97111525144E+02  0.67172821718E+03  0.69180010150E+03  0.12398354354E+03 0.  0.
         35    2    3    3    0    0 -0.50655851548E+02 -0.97111525144E+02  0.15158731814E+04  0.17133271510E+04  0.79096255344E+03 0.  0.
         22    1    5    5    0    0 -0.29345287451E+03 -0.20568372837E+02  0.16220527218E+03  0.33592885830E+03  0.00000000000E+00 0.  1.
         22    1    5    5    0    0  0.24279702296E+03 -0.76543152307E+02  0.13536679092E+04  0.13773982927E+04  0.00000000000E+00 0.  1.
          5    1    4    4  502    0  0.76626317988E+02  0.10752314278E+03  0.47480248259E+03  0.49284105584E+03  0.47000000000E+01 0. -1.
         -5    1    4    4    0  502 -0.25970466440E+02 -0.10411617634E+02  0.19692573459E+03  0.19895904566E+03  0.47000000000E+01 0. -1.
<mgrwt>
<rscale>  0 0.99951850E+03</rscale>
<asrwt>0</asrwt>
<pdfrwt beam="1">  1        2 0.35328678E+00 0.99951850E+03</pdfrwt>
<pdfrwt beam="2">  1       -2 0.16732760E-01 0.99951850E+03</pdfrwt>
<totfact> 0.15332991E+02</totfact>
</mgrwt>
</event>
<event>
 9    1  0.4388925E-036  0.1000071E+04  0.7818608E-02  0.8680971E-01
         -1   -1    0    0    0  501 -0.00000000000E+00  0.00000000000E+00  0.24736145004E+03  0.24736145004E+03  0.00000000000E+00 0. -1.
          1   -1    0    0  501    0  0.00000000000E+00 -0.00000000000E+00 -0.10108095572E+04  0.10108095572E+04  0.00000000000E+00 0. -1.
         36    2    1    2    0    0  0.00000000000E+00  0.14210854715E-13 -0.76344810713E+03  0.12581710072E+04  0.10000706331E+04 0.  0.
         25    2    3    3    0    0  0.78849795862E+02 -0.10502060762E+03 -0.82467230532E+02  0.19952959243E+03  0.12555714161E+03 0.  0.
         35    2    3    3    0    0 -0.78849795862E+02  0.10502060762E+03 -0.68098087660E+03  0.10586414148E+04  0.79983752880E+03 0.  0.
         22    1    5    5    0    0 -0.25622779864E+03  0.29864502111E+03 -0.69174123067E+03  0.79583130351E+03  0.00000000000E+00 0.  1.
         22    1    5    5    0    0  0.17737800278E+03 -0.19362441350E+03  0.10760354073E+02  0.26281011128E+03  0.00000000000E+00 0.  1.
          5    1    4    4  502    0 -0.26138321012E+02 -0.21563525108E+02  0.11061084628E+02  0.35953233980E+02  0.47000000000E+01 0. -1.
         -5    1    4    4    0  502  0.10498811687E+03 -0.83457082508E+02 -0.93528315160E+02  0.16357635845E+03  0.47000000000E+01 0. -1.
<mgrwt>
<rscale>  0 0.10000706E+04</rscale>
<asrwt>0</asrwt>
<pdfrwt beam="1">  1        1 0.15550916E+00 0.10000706E+04</pdfrwt>
<pdfrwt beam="2">  1       -1 0.38055609E-01 0.10000706E+04</pdfrwt>
<totfact> 0.11071404E+02</totfact>
</mgrwt>
</event>
<event>
 9    1  0.4388925E-036  0.9990077E+03  0.7818608E-02  0.8681984E-01
          2   -1    0    0  501    0  0.00000000000E+00  0.00000000000E+00  0.71630640818E+03  0.71630640818E+03  0.00000000000E+00 0.  1.
         -2   -1    0    0    0  501 -0.00000000000E+00 -0.00000000000E+00 -0.34832032392E+03  0.34832032392E+03  0.00000000000E+00 0.  1.
         36    2    1    2    0    0 -0.28421709430E-13  0.00000000000E+00  0.36798608425E+03  0.10646267321E+04  0.99900766789E+03 0.  0.
         25    2    3    3    0    0 -0.10503993513E+03  0.74783220151E+02  0.12742464247E+03  0.21901875828E+03  0.12290752207E+03 0.  0.
         35    2    3    3    0    0  0.10503993513E+03 -0.74783220151E+02  0.24056144179E+03  0.84560797382E+03  0.80034812433E+03 0.  0.
         22    1    5    5    0    0  0.18405846417E+03  0.22478854894E+03 -0.16587895027E+03  0.33454930296E+03  0.00000000000E+00 0.  1.
         22    1    5    5    0    0 -0.79018529038E+02 -0.29957176910E+03  0.40644039205E+03  0.51105867086E+03  0.00000000000E+00 0.  1.
          5    1    4    4  502    0  0.31765692224E+01 -0.27696154168E+02  0.13296459372E+02  0.31241853010E+02  0.47000000000E+01 0. -1.
         -5    1    4    4    0  502 -0.10821650435E+03  0.10247937432E+03  0.11412818310E+03  0.18777690527E+03  0.47000000000E+01 0. -1.
<mgrwt>
<rscale>  0 0.99900767E+03</rscale>
<asrwt>0</asrwt>
<pdfrwt beam="1">  1        2 0.11020099E+00 0.99900767E+03</pdfrwt>
<pdfrwt beam="2">  1       -2 0.53587742E-01 0.99900767E+03</pdfrwt>
<totfact> 0.15802105E+02</totfact>
</mgrwt>
</event>
<event>
 9    1  0.4388925E-036  0.1001782E+04  0.7818608E-02  0.8679343E-01
         -2   -1    0    0    0  501 -0.00000000000E+00  0.00000000000E+00  0.70153470718E+03  0.70153470718E+03  0.00000000000E+00 0.  1.
          2   -1    0    0  501    0  0.00000000000E+00 -0.00000000000E+00 -0.35763247541E+03  0.35763247541E+03  0.00000000000E+00 0.  1.
         36    2    1    2    0    0  0.14210854715E-13  0.00000000000E+00  0.34390223177E+03  0.10591671826E+04  0.10017816008E+04 0.  0.
         25    2    3    3    0    0  0.57780027433E+02 -0.10017445445E+03  0.15208871690E+03  0.22800636257E+03  0.12442857659E+03 0.  0.
         35    2    3    3    0    0 -0.57780027433E+02  0.10017445445E+03  0.19181351487E+03  0.83116082002E+03  0.80041391251E+03 0.  0.
         22    1    5    5    0    0 -0.26820798198E+03  0.22534835389E+03 -0.17386383191E+03  0.39108315516E+03  0.00000000000E+00 0.  1.
         22    1    5    5    0    0  0.21042795455E+03 -0.12517389944E+03  0.36567734678E+03  0.44007766486E+03  0.00000000000E+00 0.  1.
          5    1    4    4  502    0 -0.17204052424E+02 -0.93444034355E+00 -0.12391634417E+02  0.21736954756E+02  0.47000000000E+01 0.  1.
         -5    1    4    4    0  502  0.74984079857E+02 -0.99240014107E+02  0.16448035132E+03  0.20626940782E+03  0.47000000000E+01 0.  1.
<mgrwt>
<rscale>  0 0.10017816E+04</rscale>
<asrwt>0</asrwt>
<pdfrwt beam="1">  1        2 0.55020381E-01 0.10017816E+04</pdfrwt>
<pdfrwt beam="2">  1       -2 0.10792842E+00 0.10017816E+04</pdfrwt>
<totfact> 0.73257017E+01</totfact>
</mgrwt>
</event>
<event>
 9    1  0.4388925E-036  0.9981231E+03  0.7818608E-02  0.8682827E-01
          2   -1    0    0  501    0  0.00000000000E+00  0.00000000000E+00  0.11592493363E+04  0.11592493363E+04  0.00000000000E+00 0.  1.
         -2   -1    0    0    0  501 -0.00000000000E+00 -0.00000000000E+00 -0.21484804022E+03  0.21484804022E+03  0.00000000000E+00 0.  1.
         36    2    1    2    0    0  0.00000000000E+00 -0.28421709430E-13  0.94440129609E+03  0.13740973765E+04  0.99812313477E+03 0.  0.
         25    2    3    3    0    0 -0.45310658850E+02 -0.10621010626E+03  0.28516744366E+03  0.33198205613E+03  0.12473160061E+03 0.  0.
         35    2    3    3    0    0  0.45310658850E+02  0.10621010626E+03  0.65923385244E+03  0.10421153204E+04  0.79879999147E+03 0.  0.
         22    1    5    5    0    0  0.50060020201E+02 -0.28753285719E+03  0.56696815106E+03  0.63767862902E+03  0.00000000000E+00 0. -1.
         22    1    5    5    0    0 -0.47493613518E+01  0.39374296345E+03  0.92265701374E+02  0.40443669140E+03  0.00000000000E+00 0. -1.
          5    1    4    4  502    0  0.17490142628E+02  0.20157772222E+02  0.65113143646E+02  0.70526961835E+02  0.47000000000E+01 0. -1.
         -5    1    4    4    0  502 -0.62800801478E+02 -0.12636787848E+03  0.22005430001E+03  0.26145509429E+03  0.47000000000E+01 0. -1.
<mgrwt>
<rscale>  0 0.99812313E+03</rscale>
<asrwt>0</asrwt>
<pdfrwt beam="1">  1        2 0.17834605E+00 0.99812313E+03</pdfrwt>
<pdfrwt beam="2">  1       -2 0.33053545E-01 0.99812313E+03</pdfrwt>
<totfact> 0.20636390E+02</totfact>
</mgrwt>
</event>
<event>
 9    1  0.4388925E-036  0.1000602E+04  0.7818608E-02  0.8680465E-01
         -3   -1    0    0    0  501 -0.00000000000E+00  0.00000000000E+00  0.52940432431E+03  0.52940432431E+03  0.00000000000E+00 0. -1.
          3   -1    0    0  501    0  0.00000000000E+00 -0.00000000000E+00 -0.47279736622E+03  0.47279736622E+03  0.00000000000E+00 0. -1.
         36    2    1    2    0    0  0.00000000000E+00  0.00000000000E+00  0.56606958087E+02  0.10022016905E+04  0.10006017593E+04 0.  0.
         25    2    3    3    0    0 -0.71247019120E+02  0.94939440063E+02  0.80912522012E+02  0.19260242631E+03  0.12829350486E+03 0.  0.
         35    2    3    3    0    0  0.71247019120E+02 -0.94939440063E+02 -0.24305563924E+02  0.80959926422E+03  0.80048146336E+03 0.  0.
         22    1    5    5    0    0  0.20241507363E+03 -0.46505013111E+01 -0.37403792091E+03  0.42532088530E+03  0.00000000000E+00 0.  1.
         22    1    5    5    0    0 -0.13116805451E+03 -0.90288938752E+02  0.34973235698E+03  0.38427837892E+03  0.00000000000E+00 0.  1.
          5    1    4    4  502    0 -0.23815893921E+02  0.64584825229E+02 -0.24320408094E+02  0.73157150730E+02  0.47000000000E+01 0. -1.
         -5    1    4    4    0  502 -0.47431125199E+02  0.30354614834E+02  0.10523293011E+03  0.11944527558E+03  0.47000000000E+01 0. -1.
<mgrwt>
<rscale>  0 0.10006018E+04</rscale>
<asrwt>0</asrwt>
<pdfrwt beam="1">  1        3 0.72738056E-01 0.10006018E+04</pdfrwt>
<pdfrwt beam="2">  1       -3 0.81446819E-01 0.10006018E+04</pdfrwt>
<totfact> 0.98335899E+00</totfact>
</mgrwt>
</event>
<event>
 9    1  0.4388925E-036  0.1001062E+04  0.7818608E-02  0.8680027E-01
          1   -1    0    0  501    0  0.00000000000E+00  0.00000000000E+00  0.58649708263E+03  0.58649708263E+03  0.00000000000E+00 0. -1.
         -1   -1    0    0    0  501 -0.00000000000E+00 -0.00000000000E+00 -0.42716546411E+03  0.42716546411E+03  0.00000000000E+00 0. -1.
         36    2    1    2    0    0 -0.42632564146E-13  0.00000000000E+00  0.15933161852E+03  0.10136625467E+04  0.10010620330E+04 0.  0.
         25    2    3    3    0    0 -0.50785726636E+02  0.76686147501E+02  0.13700396698E+03  0.20764154221E+03  0.12603558162E+03 0.  0.
         35    2    3    3    0    0  0.50785726636E+02 -0.76686147501E+02  0.22327651537E+02  0.80602100453E+03  0.80044448931E+03 0.  0.
         22    1    5    5    0    0  0.39774444993E+03 -0.10222281492E+03 -0.12343811177E+03  0.42882061375E+03  0.00000000000E+00 0. -1.
         22    1    5    5    0    0 -0.34695872329E+03  0.25536667416E+02  0.14576576331E+03  0.37720039078E+03  0.00000000000E+00 0. -1.
          5    1    4    4  502    0 -0.90426694250E+02  0.50574222316E+02  0.11575545136E+03  0.15542250003E+03  0.47000000000E+01 0. -1.
         -5    1    4    4    0  502  0.39640967614E+02  0.26111925185E+02  0.21248515619E+02  0.52219042181E+02  0.47000000000E+01 0. -1.
<mgrwt>
<rscale>  0 0.10010620E+04</rscale>
<asrwt>0</asrwt>
<pdfrwt beam="1">  1        1 0.90230320E-01 0.10010620E+04</pdfrwt>
<pdfrwt beam="2">  1       -1 0.65717764E-01 0.10010620E+04</pdfrwt>
<totfact> 0.96860337E+01</totfact>
</mgrwt>
</event>
<event>
 9    1  0.4388925E-036  0.1012398E+04  0.7818608E-02  0.8669320E-01
          2   -1    0    0  501    0  0.00000000000E+00  0.00000000000E+00  0.79593537841E+03  0.79593537841E+03  0.00000000000E+00 0.  1.
         -2   -1    0    0    0  501 -0.00000000000E+00 -0.00000000000E+00 -0.32193262086E+03  0.32193262086E+03  0.00000000000E+00 0.  1.
         36    2    1    2    0    0  0.71054273576E-14  0.28421709430E-13  0.47400275755E+03  0.11178679993E+04  0.10123982663E+04 0.  0.
         25    2    3    3    0    0  0.59758404274E+02  0.11938721471E+03  0.86961964913E+01  0.18283338901E+03  0.12461159812E+03 0.  0.
         35    2    3    3    0    0 -0.59758404274E+02 -0.11938721471E+03  0.46530656106E+03  0.93503461025E+03  0.79997196994E+03 0.  0.
         22    1    5    5    0    0  0.33472758966E+02 -0.21901807325E+03  0.66061714297E+03  0.69678142311E+03  0.00000000000E+00 0.  1.
         22    1    5    5    0    0 -0.93231163240E+02  0.99630858540E+02 -0.19531058192E+03  0.23825318714E+03  0.00000000000E+00 0.  1.
          5    1    4    4  502    0  0.57525233149E+02  0.13961439081E+03  0.28855862976E+02  0.15380533605E+03  0.47000000000E+01 0.  1.
         -5    1    4    4    0  502  0.22331711244E+01 -0.20227176094E+02 -0.20159666485E+02  0.29028052962E+02  0.47000000000E+01 0.  1.
<mgrwt>
<rscale>  0 0.10123983E+04</rscale>
<asrwt>0</asrwt>
<pdfrwt beam="1">  1        2 0.12245160E+00 0.10123983E+04</pdfrwt>
<pdfrwt beam="2">  1       -2 0.49528096E-01 0.10123983E+04</pdfrwt>
<totfact> 0.16207243E+02</totfact>
</mgrwt>
</event>
<event>
 9    1  0.4388925E-036  0.9998007E+03  0.7818608E-02  0.8681228E-01
         -1   -1    0    0    0  501 -0.00000000000E+00  0.00000000000E+00  0.61339589173E+03  0.61339589173E+03  0.00000000000E+00 0. -1.
          1   -1    0    0  501    0  0.00000000000E+00 -0.00000000000E+00 -0.40740471387E+03  0.40740471387E+03  0.00000000000E+00 0. -1.
         36    2    1    2    0    0 -0.71054273576E-14 -0.14210854715E-13  0.20599117786E+03  0.10208006056E+04  0.99980073567E+03 0.  0.
         25    2    3    3    0    0 -0.52376191322E+02  0.50476787199E+02  0.16172955156E+03  0.21679976064E+03  0.12471774894E+03 0.  0.
         35    2    3    3    0    0  0.52376191322E+02 -0.50476787199E+02  0.44261626295E+02  0.80400084497E+03  0.79947926533E+03 0.  0.
         22    1    5    5    0    0 -0.56091725913E+02 -0.26485593245E+03 -0.28715734252E+03  0.39465717532E+03  0.00000000000E+00 0.  1.
         22    1    5    5    0    0  0.10846791723E+03  0.21437914525E+03  0.33141896882E+03  0.40934366965E+03  0.00000000000E+00 0.  1.
          5    1    4    4  502    0 -0.19720693986E+02  0.46692865835E+02  0.17407942775E+03  0.18136942041E+03  0.47000000000E+01 0. -1.
         -5    1    4    4    0  502 -0.32655497336E+02  0.37839213642E+01 -0.12349876191E+02  0.35430340234E+02  0.47000000000E+01 0. -1.
<mgrwt>
<rscale>  0 0.99980074E+03</rscale>
<asrwt>0</asrwt>
<pdfrwt beam="1">  1        1 0.62677648E-01 0.99980074E+03</pdfrwt>
<pdfrwt beam="2">  1       -1 0.94368599E-01 0.99980074E+03</pdfrwt>
<totfact> 0.75979227E+01</totfact>
</mgrwt>
</event>
<event>
 9    1  0.4388925E-036  0.9972010E+03  0.7818608E-02  0.8683708E-01
          1   -1    0    0  501    0  0.00000000000E+00  0.00000000000E+00  0.40682470852E+03  0.40682470852E+03  0.00000000000E+00 0.  1.
         -1   -1    0    0    0  501 -0.00000000000E+00 -0.00000000000E+00 -0.61108008305E+03  0.61108008305E+03  0.00000000000E+00 0.  1.
         36    2    1    2    0    0  0.00000000000E+00  0.00000000000E+00 -0.20425537453E+03  0.10179047916E+04  0.99720103624E+03 0.  0.
         25    2    3    3    0    0 -0.89200386152E+02  0.10079426953E+03 -0.37119906807E+02  0.18981554247E+03  0.12859183109E+03 0.  0.
         35    2    3    3    0    0  0.89200386152E+02 -0.10079426953E+03 -0.16713546772E+03  0.82808924910E+03  0.79980081660E+03 0.  0.
         22    1    5    5    0    0  0.21770112730E+03  0.26468575296E+03  0.10058946625E+03  0.35717022465E+03  0.00000000000E+00 0.  1.
         22    1    5    5    0    0 -0.12850074115E+03 -0.36548002249E+03 -0.26772493398E+03  0.47091902445E+03  0.00000000000E+00 0.  1.
          5    1    4    4  502    0 -0.22746099863E+02 -0.18812203448E+02  0.25478233770E+02  0.39274857779E+02  0.47000000000E+01 0.  1.
         -5    1    4    4    0  502 -0.66454286290E+02  0.11960647298E+03 -0.62598140578E+02  0.15054068469E+03  0.47000000000E+01 0.  1.
<mgrwt>
<rscale>  0 0.99720104E+03</rscale>
<asrwt>0</asrwt>
<pdfrwt beam="1">  1        1 0.62588417E-01 0.99720104E+03</pdfrwt>
<pdfrwt beam="2">  1       -1 0.94012320E-01 0.99720104E+03</pdfrwt>
<totfact> 0.76776946E+01</totfact>
</mgrwt>
</event>
<event>
 9    1  0.4388925E-036  0.9996945E+03  0.7818608E-02  0.8681329E-01
         -2   -1    0    0    0  501 -0.00000000000E+00  0.00000000000E+00  0.21969293862E+03  0.21969293862E+03  0.00000000000E+00 0.  1.
          2   -1    0    0  501    0  0.00000000000E+00 -0.00000000000E+00 -0.11372566669E+04  0.11372566669E+04  0.00000000000E+00 0.  1.
         36    2    1    2    0    0  0.14210854715E-13  0.00000000000E+00 -0.91756372830E+03  0.13569496055E+04  0.99969447156E+03 0.  0.
         25    2    3    3    0    0 -0.69136796135E+02  0.94195186150E+02 -0.67417030160E+02  0.18332664505E+03  0.12414094070E+03 0.  0.
         35    2    3    3    0    0  0.69136796135E+02 -0.94195186150E+02 -0.85014669814E+03  0.11736229605E+04  0.80061777106E+03 0.  0.
         22    1    5    5    0    0 -0.18128324525E+03  0.28904586786E+03 -0.45606209742E+03  0.56956454018E+03  0.00000000000E+00 0. -1.
         22    1    5    5    0    0  0.25042004139E+03 -0.38324105401E+03 -0.39408460072E+03  0.60405842030E+03  0.00000000000E+00 0. -1.
          5    1    4    4  502    0 -0.61439869575E+01  0.29757314807E+01  0.32788446351E+02  0.33819754104E+02  0.47000000000E+01 0.  1.
         -5    1    4    4    0  502 -0.62992809177E+02  0.91219454669E+02 -0.10020547651E+03  0.14950689095E+03  0.47000000000E+01 0.  1.
<mgrwt>
<rscale>  0 0.99969447E+03</rscale>
<asrwt>0</asrwt>
<pdfrwt beam="1">  1        2 0.17496256E+00 0.99969447E+03</pdfrwt>
<pdfrwt beam="2">  1       -2 0.33798914E-01 0.99969447E+03</pdfrwt>
<totfact> 0.20410452E+02</totfact>
</mgrwt>
</event>
<event>
 9    1  0.4388925E-036  0.1000627E+04  0.7818608E-02  0.8680442E-01
          2   -1    0    0  501    0  0.00000000000E+00  0.00000000000E+00  0.14393147565E+04  0.14393147565E+04  0.00000000000E+00 0.  1.
         -2   -1    0    0    0  501 -0.00000000000E+00 -0.00000000000E+00 -0.17391148076E+03  0.17391148076E+03  0.00000000000E+00 0.  1.
         36    2    1    2    0    0 -0.14210854715E-13  0.28421709430E-13  0.12654032757E+04  0.16132262373E+04  0.10006265249E+04 0.  0.
         25    2    3    3    0    0 -0.18312909563E+02 -0.13769607887E+03  0.20189810016E+03  0.27526931252E+03  0.12535860070E+03 0.  0.
         35    2    3    3    0    0  0.18312909563E+02  0.13769607887E+03  0.10635051756E+04  0.13379569248E+04  0.79986867748E+03 0.  0.
         22    1    5    5    0    0  0.26193604868E+03  0.33462775576E+03  0.32255331672E+03  0.53350433049E+03  0.00000000000E+00 0.  1.
         22    1    5    5    0    0 -0.24362313912E+03 -0.19693167688E+03  0.74095185887E+03  0.80445259427E+03  0.00000000000E+00 0.  1.
          5    1    4    4  502    0 -0.60281154035E+02 -0.13053274584E+03  0.16308936275E+03  0.21746918290E+03  0.47000000000E+01 0. -1.
         -5    1    4    4    0  502  0.41968244473E+02 -0.71633330329E+01  0.38808737418E+02  0.57800129621E+02  0.47000000000E+01 0. -1.
<mgrwt>
<rscale>  0 0.10006265E+04</rscale>
<asrwt>0</asrwt>
<pdfrwt beam="1">  1        2 0.22143303E+00 0.10006265E+04</pdfrwt>
<pdfrwt beam="2">  1       -2 0.26755613E-01 0.10006265E+04</pdfrwt>
<totfact> 0.20846699E+02</totfact>
</mgrwt>
</event>
<event>
 9    1  0.4388925E-036  0.9989454E+03  0.7818608E-02  0.8682043E-01
          2   -1    0    0  501    0  0.00000000000E+00  0.00000000000E+00  0.39194665323E+03  0.39194665323E+03  0.00000000000E+00 0.  1.
         -2   -1    0    0    0  501 -0.00000000000E+00 -0.00000000000E+00 -0.63649724079E+03  0.63649724079E+03  0.00000000000E+00 0.  1.
         36    2    1    2    0    0  0.00000000000E+00 -0.21316282073E-13 -0.24455058757E+03  0.10284438940E+04  0.99894537051E+03 0.  0.
         25    2    3    3    0    0  0.19204514980E+02 -0.24274566653E+01 -0.19688481894E+03  0.22706928693E+03  0.11145457907E+03 0.  0.
         35    2    3    3    0    0 -0.19204514980E+02  0.24274566653E+01 -0.47665768630E+02  0.80137460709E+03  0.79972153244E+03 0.  0.
         22    1    5    5    0    0  0.13486491865E+03 -0.18835435421E+03 -0.34525047045E+03  0.41576892185E+03  0.00000000000E+00 0. -1.
         22    1    5    5    0    0 -0.15406943363E+03  0.19078181087E+03  0.29758470182E+03  0.38560568525E+03  0.00000000000E+00 0. -1.
          5    1    4    4  502    0 -0.28559959772E+02  0.39424441855E+02 -0.96580341375E+02  0.10825807248E+03  0.47000000000E+01 0. -1.
         -5    1    4    4    0  502  0.47764474751E+02 -0.41851898520E+02 -0.10030447756E+03  0.11881121444E+03  0.47000000000E+01 0. -1.
<mgrwt>
<rscale>  0 0.99894537E+03</rscale>
<asrwt>0</asrwt>
<pdfrwt beam="1">  1        2 0.60299485E-01 0.99894537E+03</pdfrwt>
<pdfrwt beam="2">  1       -2 0.97922653E-01 0.99894537E+03</pdfrwt>
<totfact> 0.84032460E+01</totfact>
</mgrwt>
</event>
<event>
 9    1  0.4388925E-036  0.9999046E+03  0.7818608E-02  0.8681129E-01
         -2   -1    0    0    0  501 -0.00000000000E+00  0.00000000000E+00  0.69658542541E+03  0.69658542541E+03  0.00000000000E+00 0.  1.
          2   -1    0    0  501    0  0.00000000000E+00 -0.00000000000E+00 -0.35882505978E+03  0.35882505978E+03  0.00000000000E+00 0.  1.
         36    2    1    2    0    0  0.00000000000E+00  0.14210854715E-13  0.33776036563E+03  0.10554104852E+04  0.99990460929E+03 0.  0.
         25    2    3    3    0    0  0.65787891729E+02 -0.42259098808E+02 -0.58892337461E+02  0.15912554106E+03  0.12545418397E+03 0.  0.
         35    2    3    3    0    0 -0.65787891729E+02  0.42259098808E+02  0.39665270309E+03  0.89628494414E+03  0.79992465651E+03 0.  0.
         22    1    5    5    0    0  0.94914129920E+01  0.22544750028E+03 -0.17867521278E+03  0.28782198312E+03  0.00000000000E+00 0.  1.
         22    1    5    5    0    0 -0.75279304721E+02 -0.18318840147E+03  0.57532791587E+03  0.60846296102E+03  0.00000000000E+00 0.  1.
          5    1    4    4  502    0  0.40441914037E+02 -0.10698347563E+02 -0.95487627188E+02  0.10435506695E+03  0.47000000000E+01 0.  1.
         -5    1    4    4    0  502  0.25345977692E+02 -0.31560751245E+02  0.36595289727E+02  0.54770474112E+02  0.47000000000E+01 0.  1.
<mgrwt>
<rscale>  0 0.99990461E+03</rscale>
<asrwt>0</asrwt>
<pdfrwt beam="1">  1        2 0.55203856E-01 0.99990461E+03</pdfrwt>
<pdfrwt beam="2">  1       -2 0.10716699E+00 0.99990461E+03</pdfrwt>
<totfact> 0.74299163E+01</totfact>
</mgrwt>
</event>
<event>
 9    1  0.4388925E-036  0.1000295E+04  0.7818608E-02  0.8680757E-01
          2   -1    0    0  501    0  0.00000000000E+00  0.00000000000E+00  0.97888381819E+03  0.97888381819E+03  0.00000000000E+00 0.  1.
         -2   -1    0    0    0  501 -0.00000000000E+00 -0.00000000000E+00 -0.25554371388E+03  0.25554371388E+03  0.00000000000E+00 0.  1.
         36    2    1    2    0    0  0.14210854715E-13  0.71054273576E-14  0.72334010431E+03  0.12344275321E+04  0.10002951691E+04 0.  0.
         25    2    3    3    0    0 -0.55587532845E+02 -0.33493685764E+02  0.28901620832E+03  0.32167882577E+03  0.12543961687E+03 0.  0.
         35    2    3    3    0    0  0.55587532845E+02  0.33493685764E+02  0.43432389599E+03  0.91274870630E+03  0.80016320424E+03 0.  0.
         22    1    5    5    0    0 -0.22655235997E+03  0.29542806973E+03  0.36538424374E+03  0.52164102768E+03  0.00000000000E+00 0. -1.
         22    1    5    5    0    0  0.28213989282E+03 -0.26193438396E+03  0.68939652256E+02  0.39110767862E+03  0.00000000000E+00 0. -1.
          5    1    4    4  502    0 -0.49694136761E+02 -0.79574715856E+02  0.20665524130E+03  0.22700247001E+03  0.47000000000E+01 0.  1.
         -5    1    4    4    0  502 -0.58933960842E+01  0.46081030092E+02  0.82360967020E+02  0.94676355761E+02  0.47000000000E+01 0.  1.
<mgrwt>
<rscale>  0 0.10002952E+04</rscale>
<asrwt>0</asrwt>
<pdfrwt beam="1">  1        2 0.15059751E+00 0.10002952E+04</pdfrwt>
<pdfrwt beam="2">  1       -2 0.39314418E-01 0.10002952E+04</pdfrwt>
<totfact> 0.19225341E+02</totfact>
</mgrwt>
</event>
<event>
 9    1  0.4388925E-036  0.1000169E+04  0.7818608E-02  0.8680877E-01
          4   -1    0    0  501    0  0.00000000000E+00  0.00000000000E+00  0.34814274015E+03  0.34814274015E+03  0.00000000000E+00 0.  1.
         -4   -1    0    0    0  501 -0.00000000000E+00 -0.00000000000E+00 -0.71833947140E+03  0.71833947140E+03  0.00000000000E+00 0.  1.
         36    2    1    2    0    0  0.00000000000E+00  0.00000000000E+00 -0.37019673125E+03  0.10664822115E+04  0.10001693295E+04 0.  0.
         25    2    3    3    0    0  0.72107144437E+02 -0.79725755882E+02  0.24637389066E+02  0.16703487177E+03  0.12545122963E+03 0.  0.
         35    2    3    3    0    0 -0.72107144437E+02  0.79725755882E+02 -0.39483412032E+03  0.89944733978E+03  0.80097184597E+03 0.  0.
         22    1    5    5    0    0 -0.26062336842E+03 -0.17139610676E+03 -0.48149047406E+03  0.57370222432E+03  0.00000000000E+00 0.  1.
         22    1    5    5    0    0  0.18851622398E+03  0.25112186265E+03  0.86656353740E+02  0.32574511546E+03  0.00000000000E+00 0.  1.
          5    1    4    4  502    0  0.11491384009E+02 -0.47377152756E+02 -0.46846351186E+02  0.67774015147E+02  0.47000000000E+01 0. -1.
         -5    1    4    4    0  502  0.60615760428E+02 -0.32348603126E+02  0.71483740253E+02  0.99260856620E+02  0.47000000000E+01 0. -1.
<mgrwt>
<rscale>  0 0.10001693E+04</rscale>
<asrwt>0</asrwt>
<pdfrwt beam="1">  1        4 0.53560422E-01 0.10001693E+04</pdfrwt>
<pdfrwt beam="2">  1       -4 0.11051376E+00 0.10001693E+04</pdfrwt>
<totfact> 0.47731222E+00</totfact>
</mgrwt>
</event>
<event>
 9    1  0.4388925E-036  0.9999877E+03  0.7818608E-02  0.8681050E-01
          2   -1    0    0  501    0  0.00000000000E+00  0.00000000000E+00  0.57365817402E+03  0.57365817402E+03  0.00000000000E+00 0. -1.
         -2   -1    0    0    0  501 -0.00000000000E+00 -0.00000000000E+00 -0.43578885452E+03  0.43578885452E+03  0.00000000000E+00 0. -1.
         36    2    1    2    0    0  0.71054273576E-14  0.00000000000E+00  0.13786931950E+03  0.10094470285E+04  0.99998767700E+03 0.  0.
         25    2    3    3    0    0  0.17704988570E+02  0.13421570920E+03  0.38712016791E+02  0.18865870153E+03  0.12556337923E+03 0.  0.
         35    2    3    3    0    0 -0.17704988570E+02 -0.13421570920E+03  0.99157302705E+02  0.82078832700E+03  0.80345129526E+03 0.  0.
         22    1    5    5    0    0  0.75682747203E+02 -0.44534222924E+03  0.17962482527E+03  0.48613028832E+03  0.00000000000E+00 0. -1.
         22    1    5    5    0    0 -0.93387735773E+02  0.31112652004E+03 -0.80467522563E+02  0.33465803868E+03  0.00000000000E+00 0. -1.
          5    1    4    4  502    0 -0.10244073278E+02  0.98058734537E+02  0.79874774825E+02  0.12697450968E+03  0.47000000000E+01 0. -1.
         -5    1    4    4    0  502  0.27949061848E+02  0.36156974661E+02 -0.41162758034E+02  0.61684191847E+02  0.47000000000E+01 0. -1.
<mgrwt>
<rscale>  0 0.99998768E+03</rscale>
<asrwt>0</asrwt>
<pdfrwt beam="1">  1        2 0.88255104E-01 0.99998768E+03</pdfrwt>
<pdfrwt beam="2">  1       -2 0.67044439E-01 0.99998768E+03</pdfrwt>
<totfact> 0.12933346E+02</totfact>
</mgrwt>
</event>
<event>
 9    1  0.4388925E-036  0.9996691E+03  0.7818608E-02  0.8681353E-01
         -3   -1    0    0    0  501 -0.00000000000E+00  0.00000000000E+00  0.35323192897E+03  0.35323192897E+03  0.00000000000E+00 0. -1.
          3   -1    0    0  501    0  0.00000000000E+00 -0.00000000000E+00 -0.70728200070E+03  0.70728200070E+03  0.00000000000E+00 0. -1.
         36    2    1    2    0    0 -0.28421709430E-13  0.00000000000E+00 -0.35405007174E+03  0.10605139297E+04  0.99966911612E+03 0.  0.
         25    2    3    3    0    0  0.12413932449E+03 -0.27752384118E+02 -0.11992554399E+03  0.21514708722E+03  0.12540082268E+03 0.  0.
         35    2    3    3    0    0 -0.12413932449E+03  0.27752384118E+02 -0.23412452775E+03  0.84536684245E+03  0.80227802981E+03 0.  0.
         22    1    5    5    0    0 -0.45551222190E+03 -0.36749766345E+02 -0.22073423245E+03  0.50750914376E+03  0.00000000000E+00 0. -1.
         22    1    5    5    0    0  0.33137289741E+03  0.64502150463E+02 -0.13390295295E+02  0.33785769869E+03  0.00000000000E+00 0. -1.
          5    1    4    4  502    0  0.83230428073E+02 -0.22500171109E+02  0.19786709253E+01  0.86368784846E+02  0.47000000000E+01 0. -1.
         -5    1    4    4    0  502  0.40908896414E+02 -0.52522130085E+01 -0.12190421491E+03  0.12877830237E+03  0.47000000000E+01 0. -1.
<mgrwt>
<rscale>  0 0.99966912E+03</rscale>
<asrwt>0</asrwt>
<pdfrwt beam="1">  1        3 0.10881261E+00 0.99966912E+03</pdfrwt>
<pdfrwt beam="2">  1       -3 0.54343375E-01 0.99966912E+03</pdfrwt>
<totfact> 0.99870059E+00</totfact>
</mgrwt>
</event>
<event>
 9    1  0.4388925E-036  0.9998948E+03  0.7818608E-02  0.8681138E-01
          2   -1    0    0  501    0  0.00000000000E+00  0.00000000000E+00  0.30208987981E+04  0.30208987981E+04  0.00000000000E+00 0.  1.
         -2   -1    0    0    0  501 -0.00000000000E+00 -0.00000000000E+00 -0.82739409673E+02  0.82739409673E+02  0.00000000000E+00 0.  1.
         36    2    1    2    0    0 -0.35527136788E-14  0.21316282073E-13  0.29381593884E+04  0.31036382078E+04  0.99989476093E+03 0.  0.
         25    2    3    3    0    0 -0.26606080453E+02  0.27181791984E+02  0.96760929051E+03  0.97635442733E+03  0.12471365342E+03 0.  0.
         35    2    3    3    0    0  0.26606080453E+02 -0.27181791984E+02  0.19705500979E+04  0.21272837804E+04  0.80051349820E+03 0.  0.
         22    1    5    5    0    0  0.21193127679E+03  0.20811376622E+03  0.27272856808E+03  0.40324567898E+03  0.00000000000E+00 0.  1.
         22    1    5    5    0    0 -0.18532519633E+03 -0.23529555821E+03  0.16978215298E+04  0.17240381014E+04  0.00000000000E+00 0.  1.
          5    1    4    4  502    0 -0.56855054072E+01 -0.34902362352E+02  0.69609088526E+03  0.69700438335E+03  0.47000000000E+01 0. -1.
         -5    1    4    4    0  502 -0.20920575046E+02  0.62084154336E+02  0.27151840525E+03  0.27935004398E+03  0.47000000000E+01 0. -1.
<mgrwt>
<rscale>  0 0.99989476E+03</rscale>
<asrwt>0</asrwt>
<pdfrwt beam="1">  1        2 0.46475358E+00 0.99989476E+03</pdfrwt>
<pdfrwt beam="2">  1       -2 0.12729142E-01 0.99989476E+03</pdfrwt>
<totfact> 0.85162032E+01</totfact>
</mgrwt>
</event>
<event>
 9    1  0.4388925E-036  0.1000283E+04  0.7818608E-02  0.8680768E-01
         -1   -1    0    0    0  501 -0.00000000000E+00  0.00000000000E+00  0.15092100406E+03  0.15092100406E+03  0.00000000000E+00 0. -1.
          1   -1    0    0  501    0  0.00000000000E+00 -0.00000000000E+00 -0.16574348602E+04  0.16574348602E+04  0.00000000000E+00 0. -1.
         36    2    1    2    0    0 -0.28421709430E-13  0.00000000000E+00 -0.15065138561E+04  0.18083558643E+04  0.10002834264E+04 0.  0.
         25    2    3    3    0    0  0.97974542524E+02  0.68488614060E+02 -0.40209618211E+03  0.43778873301E+03  0.12525148238E+03 0.  0.
         35    2    3    3    0    0 -0.97974542524E+02 -0.68488614060E+02 -0.11044176740E+04  0.13705671312E+04  0.80276158436E+03 0.  0.
         22    1    5    5    0    0  0.20809835752E+03 -0.32104206114E+03 -0.35180301767E+03  0.51974829933E+03  0.00000000000E+00 0. -1.
         22    1    5    5    0    0 -0.30607290004E+03  0.25255344708E+03 -0.75261465636E+03  0.85081883191E+03  0.00000000000E+00 0. -1.
          5    1    4    4  502    0  0.56645955269E+02  0.95569500980E+02 -0.34321881789E+03  0.36078184644E+03  0.47000000000E+01 0.  1.
         -5    1    4    4    0  502  0.41328587255E+02 -0.27080886920E+02 -0.58877364224E+02  0.77006886567E+02  0.47000000000E+01 0.  1.
<mgrwt>
<rscale>  0 0.10002834E+04</rscale>
<asrwt>0</asrwt>
<pdfrwt beam="1">  1        1 0.25498998E+00 0.10002834E+04</pdfrwt>
<pdfrwt beam="2">  1       -1 0.23218616E-01 0.10002834E+04</pdfrwt>
<totfact> 0.86508903E+01</totfact>
</mgrwt>
</event>
<event>
 9    1  0.4388925E-036  0.9999635E+03  0.7818608E-02  0.8681073E-01
         -1   -1    0    0    0  501 -0.00000000000E+00  0.00000000000E+00  0.10628981778E+03  0.10628981778E+03  0.00000000000E+00 0. -1.
          1   -1    0    0  501    0  0.00000000000E+00 -0.00000000000E+00 -0.23518878439E+04  0.23518878439E+04  0.00000000000E+00 0. -1.
         36    2    1    2    0    0 -0.28421709430E-13  0.17763568394E-14 -0.22455980261E+04  0.24581776617E+04  0.99996346005E+03 0.  0.
         25    2    3    3    0    0 -0.14400639637E+03  0.29418110897E+01 -0.37490944693E+03  0.42071891206E+03  0.12530288553E+03 0.  0.
         35    2    3    3    0    0  0.14400639637E+03 -0.29418110897E+01 -0.18706885792E+04  0.20374587496E+04  0.79436509214E+03 0.  0.
         22    1    5    5    0    0  0.11301642822E+03  0.14324824506E+03 -0.23195313071E+02  0.18393149624E+03  0.00000000000E+00 0. -1.
         22    1    5    5    0    0  0.30989968148E+02 -0.14619005615E+03 -0.18474932661E+04  0.18535272534E+04  0.00000000000E+00 0. -1.
          5    1    4    4  502    0  0.11098112062E+02  0.12817440973E+02 -0.33136134714E+01  0.17903209731E+02  0.47000000000E+01 0. -1.
         -5    1    4    4    0  502 -0.15510450843E+03 -0.98756298834E+01 -0.37159583346E+03  0.40281570233E+03  0.47000000000E+01 0. -1.
<mgrwt>
<rscale>  0 0.99996346E+03</rscale>
<asrwt>0</asrwt>
<pdfrwt beam="1">  1        1 0.36182890E+00 0.99996346E+03</pdfrwt>
<pdfrwt beam="2">  1       -1 0.16352279E-01 0.99996346E+03</pdfrwt>
<totfact> 0.50167219E+01</totfact>
</mgrwt>
</event>
<event>
 9    1  0.4388925E-036  0.1003327E+04  0.7818608E-02  0.8677876E-01
          2   -1    0    0  501    0  0.00000000000E+00  0.00000000000E+00  0.42285546776E+04  0.42285546776E+04  0.00000000000E+00 0.  1.
         -2   -1    0    0    0  501 -0.00000000000E+00 -0.00000000000E+00 -0.59515901672E+02  0.59515901672E+02  0.00000000000E+00 0.  1.
         36    2    1    2    0    0  0.00000000000E+00  0.00000000000E+00  0.41690387760E+04  0.42880705793E+04  0.10033269545E+04 0.  0.
         25    2    3    3    0    0 -0.50025989519E+02 -0.43913928754E+02  0.13169688515E+04  0.13245776911E+04  0.12517216627E+03 0.  0.
         35    2    3    3    0    0  0.50025989519E+02  0.43913928754E+02  0.28520699245E+04  0.29634928882E+04  0.80221955323E+03 0.  0.
         22    1    5    5    0    0 -0.15681480325E+03  0.29196474116E+03  0.57531542077E+03  0.66394436964E+03  0.00000000000E+00 0.  1.
         22    1    5    5    0    0  0.20684079277E+03 -0.24805081241E+03  0.22767545037E+04  0.22995485186E+04  0.00000000000E+00 0.  1.
          5    1    4    4  502    0 -0.76763830829E+02 -0.70086072986E+02  0.97357217317E+03  0.97911674979E+03  0.47000000000E+01 0.  1.
         -5    1    4    4    0  502  0.26737841311E+02  0.26172144233E+02  0.34339667828E+03  0.34546094128E+03  0.47000000000E+01 0.  1.
<mgrwt>
<rscale>  0 0.10033270E+04</rscale>
<asrwt>0</asrwt>
<pdfrwt beam="1">  1        2 0.65054664E+00 0.10033270E+04</pdfrwt>
<pdfrwt beam="2">  1       -2 0.91562959E-02 0.10033270E+04</pdfrwt>
<totfact> 0.16290474E+01</totfact>
</mgrwt>
</event>
<event>
 9    1  0.4388925E-036  0.9996333E+03  0.7818608E-02  0.8681387E-01
          2   -1    0    0  501    0  0.00000000000E+00  0.00000000000E+00  0.58685147849E+03  0.58685147849E+03  0.00000000000E+00 0.  1.
         -2   -1    0    0    0  501 -0.00000000000E+00 -0.00000000000E+00 -0.42568975588E+03  0.42568975588E+03  0.00000000000E+00 0.  1.
         36    2    1    2    0    0  0.28421709430E-13  0.00000000000E+00  0.16116172261E+03  0.10125412344E+04  0.99963325799E+03 0.  0.
         25    2    3    3    0    0  0.45525783733E+02 -0.46582423357E+02  0.15665906993E+03  0.20949167382E+03  0.12289091935E+03 0.  0.
         35    2    3    3    0    0 -0.45525783733E+02  0.46582423357E+02  0.45026526776E+01  0.80304956055E+03  0.80039103173E+03 0.  0.
         22    1    5    5    0    0  0.23057793268E+03  0.13647345597E+03 -0.28628513999E+03  0.39211014856E+03  0.00000000000E+00 0. -1.
         22    1    5    5    0    0 -0.27610371642E+03 -0.89891032615E+02  0.29078779267E+03  0.41093941199E+03  0.00000000000E+00 0. -1.
          5    1    4    4  502    0  0.72821632836E+02 -0.70950310064E+02  0.10761329803E+03  0.14812038556E+03  0.47000000000E+01 0.  1.
         -5    1    4    4    0  502 -0.27295849104E+02  0.24367886707E+02  0.49045771906E+02  0.61371288260E+02  0.47000000000E+01 0.  1.
<mgrwt>
<rscale>  0 0.99963326E+03</rscale>
<asrwt>0</asrwt>
<pdfrwt beam="1">  1        2 0.90284842E-01 0.99963326E+03</pdfrwt>
<pdfrwt beam="2">  1       -2 0.65490732E-01 0.99963326E+03</pdfrwt>
<totfact> 0.13239530E+02</totfact>
</mgrwt>
</event>
<event>
 9    1  0.4388925E-036  0.9999583E+03  0.7818608E-02  0.8681078E-01
          1   -1    0    0  501    0  0.00000000000E+00  0.00000000000E+00  0.36869088509E+03  0.36869088509E+03  0.00000000000E+00 0.  1.
         -1   -1    0    0    0  501 -0.00000000000E+00 -0.00000000000E+00 -0.67801824868E+03  0.67801824868E+03  0.00000000000E+00 0.  1.
         36    2    1    2    0    0  0.00000000000E+00 -0.14210854715E-13 -0.30932736358E+03  0.10467091338E+04  0.99995829556E+03 0.  0.
         25    2    3    3    0    0 -0.60750936577E+02 -0.76934701446E+02 -0.15587180733E+03  0.22216031093E+03  0.12429625438E+03 0.  0.
         35    2    3    3    0    0  0.60750936577E+02  0.76934701446E+02 -0.15345555626E+03  0.82454882284E+03  0.80419060484E+03 0.  0.
         22    1    5    5    0    0  0.21610793016E+03 -0.95523275134E+02  0.25942382116E+03  0.35089607088E+03  0.00000000000E+00 0. -1.
         22    1    5    5    0    0 -0.15535699359E+03  0.17245797658E+03 -0.41287937742E+03  0.47365275196E+03  0.00000000000E+00 0. -1.
          5    1    4    4  502    0  0.61993487698E+01 -0.12759128985E+02  0.18993990144E+02  0.24167932456E+02  0.47000000000E+01 0. -1.
         -5    1    4    4    0  502 -0.66950285347E+02 -0.64175572461E+02 -0.17486579747E+03  0.19799237847E+03  0.47000000000E+01 0. -1.
<mgrwt>
<rscale>  0 0.99995830E+03</rscale>
<asrwt>0</asrwt>
<pdfrwt beam="1">  1        1 0.56721675E-01 0.99995830E+03</pdfrwt>
<pdfrwt beam="2">  1       -1 0.10431050E+00 0.99995830E+03</pdfrwt>
<totfact> 0.69395055E+01</totfact>
</mgrwt>
</event>
<event>
 9    1  0.4388925E-036  0.1000059E+04  0.7818608E-02  0.8680982E-01
          2   -1    0    0  501    0  0.00000000000E+00  0.00000000000E+00  0.25807298289E+03  0.25807298289E+03  0.00000000000E+00 0. -1.
         -2   -1    0    0    0  501 -0.00000000000E+00 -0.00000000000E+00 -0.96883159385E+03  0.96883159385E+03  0.00000000000E+00 0. -1.
         36    2    1    2    0    0 -0.17763568394E-14 -0.28421709430E-13 -0.71075861096E+03  0.12269045767E+04  0.10000585170E+04 0.  0.
         25    2    3    3    0    0  0.38441693077E+01 -0.10271174930E+03 -0.25060542784E+03  0.29832440607E+03  0.12501955732E+03 0.  0.
         35    2    3    3    0    0 -0.38441693077E+01  0.10271174930E+03 -0.46015318312E+03  0.92858017067E+03  0.79997231224E+03 0.  0.
         22    1    5    5    0    0 -0.51556607220E+02 -0.18541039558E+03 -0.58135748468E+03  0.61238192619E+03  0.00000000000E+00 0. -1.
         22    1    5    5    0    0  0.47712437912E+02  0.28812214487E+03  0.12120430156E+03  0.31619824448E+03  0.00000000000E+00 0. -1.
          5    1    4    4  502    0 -0.23322814878E+01 -0.97296915363E+02 -0.76287426832E+02  0.12374971018E+03  0.47000000000E+01 0.  1.
         -5    1    4    4    0  502  0.61764507956E+01 -0.54148339361E+01 -0.17431800101E+03  0.17457469589E+03  0.47000000000E+01 0.  1.
<mgrwt>
<rscale>  0 0.10000585E+04</rscale>
<asrwt>0</asrwt>
<pdfrwt beam="1">  1        2 0.39703536E-01 0.10000585E+04</pdfrwt>
<pdfrwt beam="2">  1       -2 0.14905102E+00 0.10000585E+04</pdfrwt>
<totfact> 0.44855645E+01</totfact>
</mgrwt>
</event>
<event>
 9    1 -0.4388925E-036  0.9999183E+03  0.7818608E-02  0.8681116E-01
          1   -1    0    0  501    0  0.00000000000E+00  0.00000000000E+00  0.90147076042E+02  0.90147076042E+02  0.00000000000E+00 0.  1.
         -1   -1    0    0    0  501 -0.00000000000E+00 -0.00000000000E+00 -0.27727925058E+04  0.27727925058E+04  0.00000000000E+00 0.  1.
         36    2    1    2    0    0  0.00000000000E+00 -0.14210854715E-13 -0.26826454298E+04  0.28629395818E+04  0.99991827040E+03 0.  0.
         25    2    3    3    0    0 -0.51255247928E+02  0.11623624556E+03 -0.32351254521E+03  0.36919715889E+03  0.12453196376E+03 0.  0.
         35    2    3    3    0    0  0.51255247928E+02 -0.11623624556E+03 -0.23591328845E+04  0.24937424230E+04  0.79818878712E+03 0.  0.
         22    1    5    5    0    0  0.14494654243E+03 -0.47419567842E+02 -0.22426556274E+02  0.15414624874E+03  0.00000000000E+00 0. -1.
         22    1    5    5    0    0 -0.93691294499E+02 -0.68816677717E+02 -0.23367063283E+04  0.23395961742E+04  0.00000000000E+00 0. -1.
          5    1    4    4  502    0 -0.41807000391E+02  0.12297273028E+03 -0.33030350398E+03  0.35495438075E+03  0.47000000000E+01 0. -1.
         -5    1    4    4    0  502 -0.94482475368E+01 -0.67364847229E+01  0.67909587675E+01  0.14242778132E+02  0.47000000000E+01 0. -1.
<mgrwt>
<rscale>  0 0.99991827E+03</rscale>
<asrwt>0</asrwt>
<pdfrwt beam="1">  1        1 0.13868781E-01 0.99991827E+03</pdfrwt>
<pdfrwt beam="2">  1       -1 0.42658346E+00 0.99991827E+03</pdfrwt>
<totfact>-0.24530352E+00</totfact>
</mgrwt>
</event>
<event>
 9    1  0.4388925E-036  0.1001422E+04  0.7818608E-02  0.8679685E-01
          1   -1    0    0  501    0  0.00000000000E+00  0.00000000000E+00  0.14126613590E+03  0.14126613590E+03  0.00000000000E+00 0. -1.
         -1   -1    0    0    0  501 -0.00000000000E+00 -0.00000000000E+00 -0.17747453918E+04  0.17747453918E+04  0.00000000000E+00 0. -1.
         36    2    1    2    0    0  0.12434497876E-13  0.00000000000E+00 -0.16334792559E+04  0.19160115277E+04  0.10014218366E+04 0.  0.
         25    2    3    3    0    0 -0.15529979353E+02  0.88161570591E+02 -0.97022052067E+02  0.18175666425E+03  0.12493423719E+03 0.  0.
         35    2    3    3    0    0  0.15529979353E+02 -0.88161570591E+02 -0.15364572038E+04  0.17342548634E+04  0.79932818629E+03 0.  0.
         22    1    5    5    0    0  0.32121280508E+03 -0.16096690125E+03 -0.33101000990E+03  0.48852393605E+03  0.00000000000E+00 0.  1.
         22    1    5    5    0    0 -0.30568282572E+03  0.72805330661E+02 -0.12054471939E+04  0.12457309274E+04  0.00000000000E+00 0.  1.
          5    1    4    4  502    0 -0.15049604561E+02 -0.17305485456E+01  0.25313475268E+02  0.29872184819E+02  0.47000000000E+01 0.  1.
         -5    1    4    4    0  502 -0.48037479204E+00  0.89892119137E+02 -0.12233552734E+03  0.15188447943E+03  0.47000000000E+01 0.  1.
<mgrwt>
<rscale>  0 0.10014218E+04</rscale>
<asrwt>0</asrwt>
<pdfrwt beam="1">  1        1 0.21733252E-01 0.10014218E+04</pdfrwt>
<pdfrwt beam="2">  1       -1 0.27303775E+00 0.10014218E+04</pdfrwt>
<totfact> 0.77824550E+00</totfact>
</mgrwt>
</event>
<event>
 9    1  0.4388925E-036  0.9990930E+03  0.7818608E-02  0.8681902E-01
         -2   -1    0    0    0  501 -0.00000000000E+00  0.00000000000E+00  0.26766283085E+03  0.26766283085E+03  0.00000000000E+00 0.  1.
          2   -1    0    0  501    0  0.00000000000E+00 -0.00000000000E+00 -0.93231740716E+03  0.93231740716E+03  0.00000000000E+00 0.  1.
         36    2    1    2    0    0  0.00000000000E+00  0.71054273576E-14 -0.66465457630E+03  0.11999802380E+04  0.99909302161E+03 0.  0.
         25    2    3    3    0    0 -0.10327013465E+03 -0.58422741536E+02 -0.48122693032E+02  0.18393315486E+03  0.13205178693E+03 0.  0.
         35    2    3    3    0    0  0.10327013465E+03  0.58422741536E+02 -0.61653188327E+03  0.10160470832E+04  0.79885053337E+03 0.  0.
         22    1    5    5    0    0 -0.33085166263E+02 -0.26254335324E+03  0.44816694070E+02  0.26838810820E+03  0.00000000000E+00 0.  1.
         22    1    5    5    0    0  0.13635530091E+03  0.32096609477E+03 -0.66134857734E+03  0.74765897496E+03  0.00000000000E+00 0.  1.
          5    1    4    4  502    0 -0.60657885634E+02 -0.23902430766E+02  0.42454655460E+02  0.77943524788E+02  0.47000000000E+01 0. -1.
         -5    1    4    4    0  502 -0.42612249018E+02 -0.34520310769E+02 -0.90577348492E+02  0.10598963007E+03  0.47000000000E+01 0. -1.
<mgrwt>
<rscale>  0 0.99909302E+03</rscale>
<asrwt>0</asrwt>
<pdfrwt beam="1">  1        2 0.14343345E+00 0.99909302E+03</pdfrwt>
<pdfrwt beam="2">  1       -2 0.41178896E-01 0.99909302E+03</pdfrwt>
<totfact> 0.18843032E+02</totfact>
</mgrwt>
</event>
<event>
 9    1  0.4388925E-036  0.1000168E+04  0.7818608E-02  0.8680878E-01
         -1   -1    0    0    0  501 -0.00000000000E+00  0.00000000000E+00  0.41969563382E+03  0.41969563382E+03  0.00000000000E+00 0. -1.
          1   -1    0    0  501    0  0.00000000000E+00 -0.00000000000E+00 -0.59586950338E+03  0.59586950338E+03  0.00000000000E+00 0. -1.
         36    2    1    2    0    0  0.00000000000E+00 -0.42632564146E-13 -0.17617386956E+03  0.10155651372E+04  0.10001676437E+04 0.  0.
         25    2    3    3    0    0 -0.54589723302E+02  0.88422982600E+02  0.62154951322E+02  0.17394986174E+03  0.12488656727E+03 0.  0.
         35    2    3    3    0    0  0.54589723302E+02 -0.88422982600E+02 -0.23832882088E+03  0.84161527546E+03  0.80044798911E+03 0.  0.
         22    1    5    5    0    0  0.26742637558E+03 -0.36211094256E+03 -0.67774196304E+02  0.45523020853E+03  0.00000000000E+00 0. -1.
         22    1    5    5    0    0 -0.21283665228E+03  0.27368795996E+03 -0.17055462458E+03  0.38638506693E+03  0.00000000000E+00 0. -1.
          5    1    4    4  502    0  0.27643995327E+02 -0.13503953670E+02  0.78641817701E+01  0.32101130778E+02  0.47000000000E+01 0.  1.
         -5    1    4    4    0  502 -0.82233718629E+02  0.10192693627E+03  0.54290769551E+02  0.14184873096E+03  0.47000000000E+01 0.  1.
<mgrwt>
<rscale>  0 0.10001676E+04</rscale>
<asrwt>0</asrwt>
<pdfrwt beam="1">  1        1 0.91672231E-01 0.10001676E+04</pdfrwt>
<pdfrwt beam="2">  1       -1 0.64568559E-01 0.10001676E+04</pdfrwt>
<totfact> 0.97974462E+01</totfact>
</mgrwt>
</event>
<event>
 9    1  0.4388925E-036  0.9999475E+03  0.7818608E-02  0.8681088E-01
          1   -1    0    0  501    0  0.00000000000E+00  0.00000000000E+00  0.41762968765E+03  0.41762968765E+03  0.00000000000E+00 0.  1.
         -1   -1    0    0    0  501 -0.00000000000E+00 -0.00000000000E+00 -0.59855356681E+03  0.59855356681E+03  0.00000000000E+00 0.  1.
         36    2    1    2    0    0  0.00000000000E+00 -0.14210854715E-13 -0.18092387915E+03  0.10161832545E+04  0.99994747692E+03 0.  0.
         25    2    3    3    0    0  0.91997043508E+02  0.64890055557E+02 -0.11904422059E+03  0.20591264518E+03  0.12471694217E+03 0.  0.
         35    2    3    3    0    0 -0.91997043508E+02 -0.64890055557E+02 -0.61879658560E+02  0.81027060927E+03  0.80002199519E+03 0.  0.
         22    1    5    5    0    0  0.32036446170E+03  0.10469645185E+03 -0.12598277918E+03  0.35981439104E+03  0.00000000000E+00 0. -1.
         22    1    5    5    0    0 -0.41236150521E+03 -0.16958650740E+03  0.64103120619E+02  0.45045621823E+03  0.00000000000E+00 0. -1.
          5    1    4    4  502    0  0.10981463051E+03  0.17581558116E+02 -0.54922026265E+02  0.12412446668E+03  0.47000000000E+01 0.  1.
         -5    1    4    4    0  502 -0.17817587004E+02  0.47308497441E+02 -0.64122194329E+02  0.81788178500E+02  0.47000000000E+01 0.  1.
<mgrwt>
<rscale>  0 0.99994748E+03</rscale>
<asrwt>0</asrwt>
<pdfrwt beam="1">  1        1 0.64250722E-01 0.99994748E+03</pdfrwt>
<pdfrwt beam="2">  1       -1 0.92085164E-01 0.99994748E+03</pdfrwt>
<totfact> 0.77503090E+01</totfact>
</mgrwt>
</event>
<event>
 9    1  0.4388925E-036  0.1000227E+04  0.7818608E-02  0.8680822E-01
         -2   -1    0    0    0  501 -0.00000000000E+00  0.00000000000E+00  0.51812365705E+03  0.51812365705E+03  0.00000000000E+00 0.  1.
          2   -1    0    0  501    0  0.00000000000E+00 -0.00000000000E+00 -0.48272929097E+03  0.48272929097E+03  0.00000000000E+00 0.  1.
         36    2    1    2    0    0  0.00000000000E+00  0.00000000000E+00  0.35394366078E+02  0.10008529480E+04  0.10002269055E+04 0.  0.
         25    2    3    3    0    0 -0.88124499316E+02 -0.10325947420E+03  0.40252267331E+02  0.18895449257E+03  0.12512037741E+03 0.  0.
         35    2    3    3    0    0  0.88124499316E+02  0.10325947420E+03 -0.48579012535E+01  0.81189845545E+03  0.80045428125E+03 0.  0.
         22    1    5    5    0    0 -0.39376216618E+02  0.34977883546E+03  0.25266748061E+03  0.43328579013E+03  0.00000000000E+00 0. -1.
         22    1    5    5    0    0  0.12750071593E+03 -0.24651936126E+03 -0.25752538186E+03  0.37861266532E+03  0.00000000000E+00 0. -1.
          5    1    4    4  502    0 -0.85588887514E+02 -0.12526039733E+03  0.11300713015E+02  0.15220190840E+03  0.47000000000E+01 0.  1.
         -5    1    4    4    0  502 -0.25356118015E+01  0.22000923129E+02  0.28951554317E+02  0.36752584169E+02  0.47000000000E+01 0.  1.
<mgrwt>
<rscale>  0 0.10002269E+04</rscale>
<asrwt>0</asrwt>
<pdfrwt beam="1">  1        2 0.74266045E-01 0.10002269E+04</pdfrwt>
<pdfrwt beam="2">  1       -2 0.79711332E-01 0.10002269E+04</pdfrwt>
<totfact> 0.10771853E+02</totfact>
</mgrwt>
</event>
<event>
 9    1  0.4388925E-036  0.1000609E+04  0.7818608E-02  0.8680458E-01
          1   -1    0    0  501    0  0.00000000000E+00  0.00000000000E+00  0.25833556976E+04  0.25833556976E+04  0.00000000000E+00 0. -1.
         -1   -1    0    0    0  501 -0.00000000000E+00 -0.00000000000E+00 -0.96891344667E+02  0.96891344667E+02  0.00000000000E+00 0. -1.
         36    2    1    2    0    0  0.28421709430E-13  0.00000000000E+00  0.24864643530E+04  0.26802470423E+04  0.10006094289E+04 0.  0.
         25    2    3    3    0    0  0.10404421455E+03  0.84232915768E+02  0.58538357095E+03  0.61345140754E+03  0.12541260541E+03 0.  0.
         35    2    3    3    0    0 -0.10404421455E+03 -0.84232915768E+02  0.19010807820E+04  0.20667956348E+04  0.79975975982E+03 0.  0.
         22    1    5    5    0    0 -0.20939130466E+03 -0.83564995910E+02  0.74882168850E+02  0.23756086846E+03  0.00000000000E+00 0. -1.
         22    1    5    5    0    0  0.10534709012E+03 -0.66791985790E+00  0.18261986132E+04  0.18292347663E+04  0.00000000000E+00 0. -1.
          5    1    4    4  502    0  0.11975811870E+03  0.54058824671E+02  0.54405143595E+03  0.55971279999E+03  0.47000000000E+01 0. -1.
         -5    1    4    4    0  502 -0.15713904153E+02  0.30174091097E+02  0.41332134999E+02  0.53738607544E+02  0.47000000000E+01 0. -1.
<mgrwt>
<rscale>  0 0.10006094E+04</rscale>
<asrwt>0</asrwt>
<pdfrwt beam="1">  1        1 0.39743929E+00 0.10006094E+04</pdfrwt>
<pdfrwt beam="2">  1       -1 0.14906363E-01 0.10006094E+04</pdfrwt>
<totfact> 0.40081015E+01</totfact>
</mgrwt>
</event>
<event>
 9    1  0.4388925E-036  0.9995992E+03  0.7818608E-02  0.8681420E-01
         -2   -1    0    0    0  501 -0.00000000000E+00  0.00000000000E+00  0.95635498640E+02  0.95635498640E+02  0.00000000000E+00 0. -1.
          2   -1    0    0  501    0  0.00000000000E+00 -0.00000000000E+00 -0.26119967894E+04  0.26119967894E+04  0.00000000000E+00 0. -1.
         36    2    1    2    0    0 -0.71054273576E-14  0.28421709430E-13 -0.25163612907E+04  0.27076322880E+04  0.99959915046E+03 0.  0.
         25    2    3    3    0    0 -0.26458331608E+02  0.10039769108E+03 -0.73085689943E+03  0.74875336452E+03  0.12529985536E+03 0.  0.
         35    2    3    3    0    0  0.26458331608E+02 -0.10039769108E+03 -0.17855043913E+04  0.19588789235E+04  0.79899997863E+03 0.  0.
         22    1    5    5    0    0  0.18339414771E+02  0.62066634629E+02  0.70533418010E+02  0.95726507951E+02  0.00000000000E+00 0. -1.
         22    1    5    5    0    0  0.81189168371E+01 -0.16246432570E+03 -0.18560378093E+04  0.18631524155E+04  0.00000000000E+00 0. -1.
          5    1    4    4  502    0  0.38439124235E+02  0.58334982985E+02 -0.50820526294E+03  0.51300605824E+03  0.47000000000E+01 0.  1.
         -5    1    4    4    0  502 -0.64897455843E+02  0.42062708091E+02 -0.22265163648E+03  0.23574730628E+03  0.47000000000E+01 0.  1.
<mgrwt>
<rscale>  0 0.99959915E+03</rscale>
<asrwt>0</asrwt>
<pdfrwt beam="1">  1        2 0.40184558E+00 0.99959915E+03</pdfrwt>
<pdfrwt beam="2">  1       -2 0.14713157E-01 0.99959915E+03</pdfrwt>
<totfact> 0.12276142E+02</totfact>
</mgrwt>
</event>
<event>
 9    1  0.4388925E-036  0.1000432E+04  0.7818608E-02  0.8680626E-01
         -2   -1    0    0    0  501 -0.00000000000E+00  0.00000000000E+00  0.87099069538E+02  0.87099069538E+02  0.00000000000E+00 0. -1.
          2   -1    0    0  501    0  0.00000000000E+00 -0.00000000000E+00 -0.28727777276E+04  0.28727777276E+04  0.00000000000E+00 0. -1.
         36    2    1    2    0    0 -0.71054273576E-14  0.00000000000E+00 -0.27856786581E+04  0.29598767972E+04  0.10004324406E+04 0.  0.
         25    2    3    3    0    0  0.50021249308E+02 -0.97641913966E+02 -0.76978757583E+03  0.78823067525E+03  0.12922312785E+03 0.  0.
         35    2    3    3    0    0 -0.50021249308E+02  0.97641913966E+02 -0.20158910823E+04  0.21716461219E+04  0.80012121239E+03 0.  0.
         22    1    5    5    0    0 -0.35450915544E+03  0.27530190026E+03 -0.12608638853E+04  0.13383742431E+04  0.00000000000E+00 0. -1.
         22    1    5    5    0    0  0.30448790614E+03 -0.17765998630E+03 -0.75502719700E+03  0.83327187875E+03  0.00000000000E+00 0. -1.
          5    1    4    4  502    0 -0.25972054519E+02 -0.79105206895E+02 -0.27797623300E+03  0.29021553626E+03  0.47000000000E+01 0.  1.
         -5    1    4    4    0  502  0.75993303826E+02 -0.18536707071E+02 -0.49181134282E+03  0.49801513899E+03  0.47000000000E+01 0.  1.
<mgrwt>
<rscale>  0 0.10004324E+04</rscale>
<asrwt>0</asrwt>
<pdfrwt beam="1">  1        2 0.44196576E+00 0.10004324E+04</pdfrwt>
<pdfrwt beam="2">  1       -2 0.13399858E-01 0.10004324E+04</pdfrwt>
<totfact> 0.97974679E+01</totfact>
</mgrwt>
</event>
<event>
 9    1  0.4388925E-036  0.9992447E+03  0.7818608E-02  0.8681758E-01
         -3   -1    0    0    0  501 -0.00000000000E+00  0.00000000000E+00  0.48573127025E+03  0.48573127025E+03  0.00000000000E+00 0. -1.
          3   -1    0    0  501    0  0.00000000000E+00 -0.00000000000E+00 -0.51391072731E+03  0.51391072731E+03  0.00000000000E+00 0. -1.
         36    2    1    2    0    0 -0.14210854715E-13  0.14210854715E-13 -0.28179457054E+02  0.99964199756E+03  0.99924473553E+03 0.  0.
         25    2    3    3    0    0  0.33424293825E+02  0.10698996094E+03 -0.88289900174E+02  0.18959424577E+03  0.12484725226E+03 0.  0.
         35    2    3    3    0    0 -0.33424293825E+02 -0.10698996094E+03  0.60110443121E+02  0.81004775179E+03  0.80000003728E+03 0.  0.
         22    1    5    5    0    0  0.20979237501E+03  0.27823810774E+03 -0.12626556559E+02  0.34869573433E+03  0.00000000000E+00 0. -1.
         22    1    5    5    0    0 -0.24321666884E+03 -0.38522806867E+03  0.72736999680E+02  0.46135201746E+03  0.00000000000E+00 0. -1.
          5    1    4    4  502    0 -0.14713213816E+02 -0.23270225408E+02 -0.77286975640E+01  0.28979386076E+02  0.47000000000E+01 0.  1.
         -5    1    4    4    0  502  0.48137507642E+02  0.13026018634E+03 -0.80561202610E+02  0.16061485969E+03  0.47000000000E+01 0.  1.
<mgrwt>
<rscale>  0 0.99924474E+03</rscale>
<asrwt>0</asrwt>
<pdfrwt beam="1">  1        3 0.79063189E-01 0.99924474E+03</pdfrwt>
<pdfrwt beam="2">  1       -3 0.74727887E-01 0.99924474E+03</pdfrwt>
<totfact> 0.10113572E+01</totfact>
</mgrwt>
</event>
<event>
 9    1  0.4388925E-036  0.9996624E+03  0.7818608E-02  0.8681359E-01
         -2   -1    0    0    0  501 -0.00000000000E+00  0.00000000000E+00  0.60541885858E+02  0.60541885858E+02  0.00000000000E+00 0. -1.
          2   -1    0    0  501    0  0.00000000000E+00 -0.00000000000E+00 -0.41265851923E+04  0.41265851923E+04  0.00000000000E+00 0. -1.
         36    2    1    2    0    0  0.14210854715E-13  0.00000000000E+00 -0.40660433064E+04  0.41871270782E+04  0.99966244242E+03 0.  0.
         25    2    3    3    0    0  0.83114948819E+02 -0.76487137933E+02 -0.42070465549E+03  0.45326076677E+03  0.12527784545E+03 0.  0.
         35    2    3    3    0    0 -0.83114948819E+02  0.76487137933E+02 -0.36453386510E+04  0.37338663114E+04  0.80031579653E+03 0.  0.
         22    1    5    5    0    0 -0.26036869445E+03  0.33122051089E+03 -0.28350283583E+04  0.28661620115E+04  0.00000000000E+00 0.  1.
         22    1    5    5    0    0  0.17725374563E+03 -0.25473337295E+03 -0.81031029269E+03  0.86770429990E+03  0.00000000000E+00 0.  1.
          5    1    4    4  502    0  0.49041962939E+02 -0.77221549217E+02 -0.12188644095E+03  0.15246860752E+03  0.47000000000E+01 0. -1.
         -5    1    4    4    0  502  0.34072985879E+02  0.73441128356E+00 -0.29881821454E+03  0.30079215925E+03  0.47000000000E+01 0. -1.
<mgrwt>
<rscale>  0 0.99966244E+03</rscale>
<asrwt>0</asrwt>
<pdfrwt beam="1">  1        2 0.63485947E+00 0.99966244E+03</pdfrwt>
<pdfrwt beam="2">  1       -2 0.93141331E-02 0.99966244E+03</pdfrwt>
<totfact> 0.19681990E+01</totfact>
</mgrwt>
</event>
<event>
 9    1  0.4388925E-036  0.9995531E+03  0.7818608E-02  0.8681464E-01
          2   -1    0    0  501    0  0.00000000000E+00  0.00000000000E+00  0.11374655382E+04  0.11374655382E+04  0.00000000000E+00 0.  1.
         -2   -1    0    0    0  501 -0.00000000000E+00 -0.00000000000E+00 -0.21959045733E+03  0.21959045733E+03  0.00000000000E+00 0.  1.
         36    2    1    2    0    0  0.71054273576E-14  0.00000000000E+00  0.91787508090E+03  0.13570559955E+04  0.99955305558E+03 0.  0.
         25    2    3    3    0    0 -0.19725909874E+02 -0.10368352935E+03  0.29511860322E+03  0.33777307622E+03  0.12592170294E+03 0.  0.
         35    2    3    3    0    0  0.19725909874E+02  0.10368352935E+03  0.62275647768E+03  0.10192829193E+04  0.79998290817E+03 0.  0.
         22    1    5    5    0    0 -0.56280746397E+02  0.20589263545E+03  0.78472203390E+03  0.81323303563E+03  0.00000000000E+00 0. -1.
         22    1    5    5    0    0  0.76006656271E+02 -0.10220910610E+03 -0.16196555623E+03  0.20604988370E+03  0.00000000000E+00 0. -1.
          5    1    4    4  502    0 -0.27460936202E+02 -0.15242088485E+02  0.23956198569E+01  0.31847343264E+02  0.47000000000E+01 0.  1.
         -5    1    4    4    0  502  0.77350263276E+01 -0.88441440867E+02  0.29272298336E+03  0.30592573295E+03  0.47000000000E+01 0.  1.
<mgrwt>
<rscale>  0 0.99955306E+03</rscale>
<asrwt>0</asrwt>
<pdfrwt beam="1">  1        2 0.17499469E+00 0.99955306E+03</pdfrwt>
<pdfrwt beam="2">  1       -2 0.33783148E-01 0.99955306E+03</pdfrwt>
<totfact> 0.20422254E+02</totfact>
</mgrwt>
</event>
<event>
 9    1  0.4388925E-036  0.1003712E+04  0.7818608E-02  0.8677511E-01
         -1   -1    0    0    0  501 -0.00000000000E+00  0.00000000000E+00  0.12163188464E+03  0.12163188464E+03  0.00000000000E+00 0. -1.
          1   -1    0    0  501    0  0.00000000000E+00 -0.00000000000E+00 -0.20706695741E+04  0.20706695741E+04  0.00000000000E+00 0. -1.
         36    2    1    2    0    0  0.00000000000E+00  0.00000000000E+00 -0.19490376895E+04  0.21923014588E+04  0.10037119961E+04 0.  0.
         25    2    3    3    0    0 -0.10971144610E+03  0.60293154684E+02 -0.22399824030E+03  0.28580963592E+03  0.12585734154E+03 0.  0.
         35    2    3    3    0    0  0.10971144610E+03 -0.60293154684E+02 -0.17250394492E+04  0.19064918228E+04  0.80204619780E+03 0.  0.
         22    1    5    5    0    0  0.30739963321E+03  0.27818123227E+03 -0.99404349047E+03  0.10770337940E+04  0.00000000000E+00 0.  1.
         22    1    5    5    0    0 -0.19768818710E+03 -0.33847438695E+03 -0.73099595871E+03  0.82945802883E+03  0.00000000000E+00 0.  1.
          5    1    4    4  502    0 -0.27335889333E+02  0.83233452705E+02 -0.14398266607E+03  0.16860651418E+03  0.47000000000E+01 0. -1.
         -5    1    4    4    0  502 -0.82375556767E+02 -0.22940298021E+02 -0.80015574227E+02  0.11720312174E+03  0.47000000000E+01 0. -1.
<mgrwt>
<rscale>  0 0.10037120E+04</rscale>
<asrwt>0</asrwt>
<pdfrwt beam="1">  1        1 0.31856451E+00 0.10037120E+04</pdfrwt>
<pdfrwt beam="2">  1       -1 0.18712600E-01 0.10037120E+04</pdfrwt>
<totfact> 0.63399460E+01</totfact>
</mgrwt>
</event>
<event>
 9    1  0.4388925E-036  0.1000745E+04  0.7818608E-02  0.8680329E-01
         -2   -1    0    0    0  501 -0.00000000000E+00  0.00000000000E+00  0.23651185208E+03  0.23651185208E+03  0.00000000000E+00 0.  1.
          2   -1    0    0  501    0  0.00000000000E+00 -0.00000000000E+00 -0.10586041518E+04  0.10586041518E+04  0.00000000000E+00 0.  1.
         36    2    1    2    0    0 -0.28421709430E-13  0.28421709430E-13 -0.82209229976E+03  0.12951160039E+04  0.10007445799E+04 0.  0.
         25    2    3    3    0    0 -0.91272281418E+02  0.90330591958E+02 -0.23008905883E+03  0.29170690907E+03  0.12514671633E+03 0.  0.
         35    2    3    3    0    0  0.91272281418E+02 -0.90330591958E+02 -0.59200324092E+03  0.10034090948E+04  0.79991982670E+03 0.  0.
         22    1    5    5    0    0  0.19301237141E+03  0.80129783614E+02 -0.73151064072E+03  0.76077748076E+03  0.00000000000E+00 0.  1.
         22    1    5    5    0    0 -0.10174008999E+03 -0.17046037557E+03  0.13950739980E+03  0.24263161408E+03  0.00000000000E+00 0.  1.
          5    1    4    4  502    0 -0.74993212965E+02  0.11756177968E+03 -0.14714001759E+03  0.20277334344E+03  0.47000000000E+01 0.  1.
         -5    1    4    4    0  502 -0.16279068453E+02 -0.27231187719E+02 -0.82949041243E+02  0.88933565639E+02  0.47000000000E+01 0.  1.
<mgrwt>
<rscale>  0 0.10007446E+04</rscale>
<asrwt>0</asrwt>
<pdfrwt beam="1">  1        2 0.16286218E+00 0.10007446E+04</pdfrwt>
<pdfrwt beam="2">  1       -2 0.36386439E-01 0.10007446E+04</pdfrwt>
<totfact> 0.19850762E+02</totfact>
</mgrwt>
</event>
<event>
 9    1  0.4388925E-036  0.1000308E+04  0.7818608E-02  0.8680744E-01
         -1   -1    0    0    0  501 -0.00000000000E+00  0.00000000000E+00  0.14582559613E+03  0.14582559613E+03  0.00000000000E+00 0. -1.
          1   -1    0    0  501    0  0.00000000000E+00 -0.00000000000E+00 -0.17154336898E+04  0.17154336898E+04  0.00000000000E+00 0. -1.
         36    2    1    2    0    0  0.71054273576E-14 -0.14210854715E-13 -0.15696080937E+04  0.18612592859E+04  0.10003082334E+04 0.  0.
         25    2    3    3    0    0 -0.49653585735E+02  0.63181056533E+02 -0.50967130821E+03  0.53090909828E+03  0.12506919583E+03 0.  0.
         35    2    3    3    0    0  0.49653585735E+02 -0.63181056533E+02 -0.10599367855E+04  0.13303501876E+04  0.79994269051E+03 0.  0.
         22    1    5    5    0    0 -0.30382754065E+01  0.34789829401E+03 -0.69888945357E+03  0.78069771513E+03  0.00000000000E+00 0.  1.
         22    1    5    5    0    0  0.52691861141E+02 -0.41107935055E+03 -0.36104733188E+03  0.54965247251E+03  0.00000000000E+00 0.  1.
          5    1    4    4  502    0 -0.79054456468E+02  0.81255408678E+02 -0.37353698774E+03  0.39038957432E+03  0.47000000000E+01 0. -1.
         -5    1    4    4    0  502  0.29400870733E+02 -0.18074352145E+02 -0.13613432047E+03  0.14051952396E+03  0.47000000000E+01 0. -1.
<mgrwt>
<rscale>  0 0.10003082E+04</rscale>
<asrwt>0</asrwt>
<pdfrwt beam="1">  1        1 0.26391289E+00 0.10003082E+04</pdfrwt>
<pdfrwt beam="2">  1       -1 0.22434706E-01 0.10003082E+04</pdfrwt>
<totfact> 0.83374330E+01</totfact>
</mgrwt>
</event>
<event>
 9    1  0.4388925E-036  0.9994785E+03  0.7818608E-02  0.8681535E-01
          1   -1    0    0  501    0  0.00000000000E+00  0.00000000000E+00  0.56005807537E+03  0.56005807537E+03  0.00000000000E+00 0.  1.
         -1   -1    0    0    0  501 -0.00000000000E+00 -0.00000000000E+00 -0.44591683145E+03  0.44591683145E+03  0.00000000000E+00 0.  1.
         36    2    1    2    0    0  0.28421709430E-13  0.71054273576E-14  0.11414124392E+03  0.10059749068E+04  0.99947850882E+03 0.  0.
         25    2    3    3    0    0 -0.93453608497E+02  0.80484520676E+01  0.12308953566E+03  0.19998125626E+03  0.12666141696E+03 0.  0.
         35    2    3    3    0    0  0.93453608497E+02 -0.80484520676E+01 -0.89482917322E+01  0.80599365056E+03  0.80046695016E+03 0.  0.
         22    1    5    5    0    0  0.40331323500E+03 -0.74451772392E+02 -0.17769785150E+03  0.44696885615E+03  0.00000000000E+00 0.  1.
         22    1    5    5    0    0 -0.30985962650E+03  0.66403320324E+02  0.16874955977E+03  0.35902479442E+03  0.00000000000E+00 0.  1.
          5    1    4    4  502    0  0.22653922590E+02  0.31474335891E+02  0.31398680636E+02  0.50117872801E+02  0.47000000000E+01 0.  1.
         -5    1    4    4    0  502 -0.11610753109E+03 -0.23425883823E+02  0.91690855019E+02  0.14986338346E+03  0.47000000000E+01 0.  1.
<mgrwt>
<rscale>  0 0.99947851E+03</rscale>
<asrwt>0</asrwt>
<pdfrwt beam="1">  1        1 0.86162781E-01 0.99947851E+03</pdfrwt>
<pdfrwt beam="2">  1       -1 0.68602589E-01 0.99947851E+03</pdfrwt>
<totfact> 0.95150252E+01</totfact>
</mgrwt>
</event>
<event>
 9    1  0.4388925E-036  0.9996493E+03  0.7818608E-02  0.8681372E-01
         -2   -1    0    0    0  501 -0.00000000000E+00  0.00000000000E+00  0.21796330518E+03  0.21796330518E+03  0.00000000000E+00 0.  1.
          2   -1    0    0  501    0  0.00000000000E+00 -0.00000000000E+00 -0.11461776717E+04  0.11461776717E+04  0.00000000000E+00 0.  1.
         36    2    1    2    0    0 -0.28421709430E-13  0.14210854715E-13 -0.92821436649E+03  0.13641409769E+04  0.99964928578E+03 0.  0.
         25    2    3    3    0    0 -0.37302359975E+02  0.12792581731E+03 -0.20731160762E+03  0.27912632409E+03  0.13106075442E+03 0.  0.
         35    2    3    3    0    0  0.37302359975E+02 -0.12792581731E+03 -0.72090275887E+03  0.10850146528E+04  0.79987469530E+03 0.  0.
         22    1    5    5    0    0 -0.14896535626E+03  0.12185258992E+03  0.92825975344E+02  0.21367122580E+03  0.00000000000E+00 0. -1.
         22    1    5    5    0    0  0.18626771624E+03 -0.24977840723E+03 -0.81372873421E+03  0.87134342697E+03  0.00000000000E+00 0. -1.
          5    1    4    4  502    0 -0.41135695467E+02  0.15411795059E+03 -0.17035862302E+03  0.23342801583E+03  0.47000000000E+01 0. -1.
         -5    1    4    4    0  502  0.38333354913E+01 -0.26192133280E+02 -0.36952984600E+02  0.45698308257E+02  0.47000000000E+01 0. -1.
<mgrwt>
<rscale>  0 0.99964929E+03</rscale>
<asrwt>0</asrwt>
<pdfrwt beam="1">  1        2 0.17633502E+00 0.99964929E+03</pdfrwt>
<pdfrwt beam="2">  1       -2 0.33532817E-01 0.99964929E+03</pdfrwt>
<totfact> 0.20458409E+02</totfact>
</mgrwt>
</event>
<event>
 9    1  0.4388925E-036  0.1000172E+04  0.7818608E-02  0.8680874E-01
         -1   -1    0    0    0  501 -0.00000000000E+00  0.00000000000E+00  0.19875880281E+03  0.19875880281E+03  0.00000000000E+00 0. -1.
          1   -1    0    0  501    0  0.00000000000E+00 -0.00000000000E+00 -0.12582385582E+04  0.12582385582E+04  0.00000000000E+00 0. -1.
         36    2    1    2    0    0  0.10658141036E-13  0.00000000000E+00 -0.10594797554E+04  0.14569973610E+04  0.10001719642E+04 0.  0.
         25    2    3    3    0    0 -0.68402951284E+01  0.42829095803E+02 -0.42427455883E+01  0.13530148651E+03  0.12809125762E+03 0.  0.
         35    2    3    3    0    0  0.68402951284E+01 -0.42829095803E+02 -0.10552370098E+04  0.13216958745E+04  0.79465320533E+03 0.  0.
         22    1    5    5    0    0  0.23556777668E+03 -0.11668720454E+03 -0.10488092157E+04  0.10812533708E+04  0.00000000000E+00 0.  1.
         22    1    5    5    0    0 -0.22872748155E+03  0.73858108739E+02 -0.64277941843E+01  0.24044250369E+03  0.00000000000E+00 0.  1.
          5    1    4    4  502    0 -0.25112706078E+02  0.22588299058E+02 -0.62280009758E+02  0.71005414415E+02  0.47000000000E+01 0. -1.
         -5    1    4    4    0  502  0.18272410949E+02  0.20240796745E+02  0.58037264170E+02  0.64296072097E+02  0.47000000000E+01 0. -1.
<mgrwt>
<rscale>  0 0.10001720E+04</rscale>
<asrwt>0</asrwt>
<pdfrwt beam="1">  1        1 0.19357516E+00 0.10001720E+04</pdfrwt>
<pdfrwt beam="2">  1       -1 0.30578278E-01 0.10001720E+04</pdfrwt>
<totfact> 0.10498594E+02</totfact>
</mgrwt>
</event>
<event>
 9    1  0.4388925E-036  0.1000441E+04  0.7818608E-02  0.8680618E-01
         -2   -1    0    0    0  501 -0.00000000000E+00  0.00000000000E+00  0.15693861582E+03  0.15693861582E+03  0.00000000000E+00 0. -1.
          2   -1    0    0  501    0  0.00000000000E+00 -0.00000000000E+00 -0.15943860569E+04  0.15943860569E+04  0.00000000000E+00 0. -1.
         36    2    1    2    0    0  0.00000000000E+00  0.28421709430E-13 -0.14374474411E+04  0.17513246727E+04  0.10004413843E+04 0.  0.
         25    2    3    3    0    0 -0.68965098089E+02  0.10579873779E+03 -0.19460302335E+03  0.26886991408E+03  0.13590855871E+03 0.  0.
         35    2    3    3    0    0  0.68965098089E+02 -0.10579873779E+03 -0.12428444177E+04  0.14824547586E+04  0.79816057724E+03 0.  0.
         22    1    5    5    0    0 -0.17782751865E+03  0.17248235368E+02 -0.11879094735E+04  0.12012697637E+04  0.00000000000E+00 0.  1.
         22    1    5    5    0    0  0.24679261674E+03 -0.12304697315E+03 -0.54934944247E+02  0.28118499494E+03  0.00000000000E+00 0.  1.
          5    1    4    4  502    0 -0.63308484438E+02 -0.95205975428E+01 -0.10320311443E+03  0.12153838409E+03  0.47000000000E+01 0. -1.
         -5    1    4    4    0  502 -0.56566136515E+01  0.11531933533E+03 -0.91399908916E+02  0.14733152999E+03  0.47000000000E+01 0. -1.
<mgrwt>
<rscale>  0 0.10004414E+04</rscale>
<asrwt>0</asrwt>
<pdfrwt beam="1">  1        2 0.24529015E+00 0.10004414E+04</pdfrwt>
<pdfrwt beam="2">  1       -2 0.24144404E-01 0.10004414E+04</pdfrwt>
<totfact> 0.20444584E+02</totfact>
</mgrwt>
</event>
<event>
 9    1  0.4388925E-036  0.9994046E+03  0.7818608E-02  0.8681605E-01
          2   -1    0    0  501    0  0.00000000000E+00  0.00000000000E+00  0.85146151185E+03  0.85146151185E+03  0.00000000000E+00 0. -1.
         -2   -1    0    0    0  501 -0.00000000000E+00 -0.00000000000E+00 -0.29326324420E+03  0.29326324420E+03  0.00000000000E+00 0. -1.
         36    2    1    2    0    0  0.28421709430E-13 -0.35527136788E-14  0.55819826765E+03  0.11447247560E+04  0.99940455327E+03 0.  0.
         25    2    3    3    0    0 -0.13120008628E+03  0.23983772922E+02  0.15208757898E+03  0.23948435081E+03  0.12819297407E+03 0.  0.
         35    2    3    3    0    0  0.13120008628E+03 -0.23983772922E+02  0.40611068867E+03  0.90524040523E+03  0.79796341759E+03 0.  0.
         22    1    5    5    0    0 -0.33052167949E+02  0.12172614170E+03  0.59951448769E+03  0.61263963334E+03  0.00000000000E+00 0. -1.
         22    1    5    5    0    0  0.16425225423E+03 -0.14570991462E+03 -0.19340379902E+03  0.29260077190E+03  0.00000000000E+00 0. -1.
          5    1    4    4  502    0 -0.14342433046E+03  0.35233702174E+02  0.16224888106E+03  0.21945100077E+03  0.47000000000E+01 0. -1.
         -5    1    4    4    0  502  0.12224244177E+02 -0.11249929251E+02 -0.10161302079E+02  0.20033350039E+02  0.47000000000E+01 0. -1.
<mgrwt>
<rscale>  0 0.99940455E+03</rscale>
<asrwt>0</asrwt>
<pdfrwt beam="1">  1        2 0.13099408E+00 0.99940455E+03</pdfrwt>
<pdfrwt beam="2">  1       -2 0.45117422E-01 0.99940455E+03</pdfrwt>
<totfact> 0.17850299E+02</totfact>
</mgrwt>
</event>
<event>
 9    1  0.4388925E-036  0.9993300E+03  0.7818608E-02  0.8681676E-01
         -2   -1    0    0    0  501 -0.00000000000E+00  0.00000000000E+00  0.22356408258E+03  0.22356408258E+03  0.00000000000E+00 0.  1.
          2   -1    0    0  501    0  0.00000000000E+00 -0.00000000000E+00 -0.11167496828E+04  0.11167496828E+04  0.00000000000E+00 0.  1.
         36    2    1    2    0    0  0.00000000000E+00  0.28421709430E-13 -0.89318560022E+03  0.13403137654E+04  0.99933001217E+03 0.  0.
         25    2    3    3    0    0 -0.11061624028E+03  0.75358464431E+02 -0.21569253450E+03  0.28306766539E+03  0.12525646880E+03 0.  0.
         35    2    3    3    0    0  0.11061624028E+03 -0.75358464431E+02 -0.67749306572E+03  0.10572461000E+04  0.80053582747E+03 0.  0.
         22    1    5    5    0    0  0.33490198707E+02 -0.41219963453E+03 -0.17885965262E+03  0.45057841432E+03  0.00000000000E+00 0. -1.
         22    1    5    5    0    0  0.77126041575E+02  0.33684117010E+03 -0.49863341311E+03  0.60666768567E+03  0.00000000000E+00 0. -1.
          5    1    4    4  502    0  0.17800039182E+02 -0.16836059356E+02 -0.34250222401E+02  0.42372892562E+02  0.47000000000E+01 0. -1.
         -5    1    4    4    0  502 -0.12841627946E+03  0.92194523787E+02 -0.18144231209E+03  0.24069477283E+03  0.47000000000E+01 0. -1.
<mgrwt>
<rscale>  0 0.99933001E+03</rscale>
<asrwt>0</asrwt>
<pdfrwt beam="1">  1        2 0.17180764E+00 0.99933001E+03</pdfrwt>
<pdfrwt beam="2">  1       -2 0.34394474E-01 0.99933001E+03</pdfrwt>
<totfact> 0.20327840E+02</totfact>
</mgrwt>
</event>
<event>
 9    1  0.4388925E-036  0.9992594E+03  0.7818608E-02  0.8681744E-01
         -1   -1    0    0    0  501 -0.00000000000E+00  0.00000000000E+00  0.11860040115E+03  0.11860040115E+03  0.00000000000E+00 0.  1.
          1   -1    0    0  501    0  0.00000000000E+00 -0.00000000000E+00 -0.21047975532E+04  0.21047975532E+04  0.00000000000E+00 0.  1.
         36    2    1    2    0    0  0.00000000000E+00  0.21316282073E-13 -0.19861971520E+04  0.22233979543E+04  0.99925939405E+03 0.  0.
         25    2    3    3    0    0 -0.97732550824E+02  0.27715181676E+02 -0.17542719535E+03  0.23773377456E+03  0.12418882361E+03 0.  0.
         35    2    3    3    0    0  0.97732550824E+02 -0.27715181676E+02 -0.18107699567E+04  0.19856641798E+04  0.80848909457E+03 0.  0.
         22    1    5    5    0    0 -0.14034037341E+03 -0.34762891241E+03 -0.11916798256E+04  0.12492566141E+04  0.00000000000E+00 0.  1.
         22    1    5    5    0    0  0.23807292423E+03  0.31991373073E+03 -0.61909013106E+03  0.73640756565E+03  0.00000000000E+00 0.  1.
          5    1    4    4  502    0 -0.42972923120E+02  0.75470625358E+02 -0.84691848233E+02  0.12139722637E+03  0.47000000000E+01 0.  1.
         -5    1    4    4    0  502 -0.54759627704E+02 -0.47755443681E+02 -0.90735347115E+02  0.11633654818E+03  0.47000000000E+01 0.  1.
<mgrwt>
<rscale>  0 0.99925939E+03</rscale>
<asrwt>0</asrwt>
<pdfrwt beam="1">  1        1 0.32381500E+00 0.99925939E+03</pdfrwt>
<pdfrwt beam="2">  1       -1 0.18246216E-01 0.99925939E+03</pdfrwt>
<totfact> 0.62557758E+01</totfact>
</mgrwt>
</event>
<event>
 9    1  0.4388925E-036  0.9996429E+03  0.7818608E-02  0.8681378E-01
         -2   -1    0    0    0  501 -0.00000000000E+00  0.00000000000E+00  0.56709667945E+03  0.56709667945E+03  0.00000000000E+00 0.  1.
          2   -1    0    0  501    0  0.00000000000E+00 -0.00000000000E+00 -0.44052713419E+03  0.44052713419E+03  0.00000000000E+00 0.  1.
         36    2    1    2    0    0 -0.14210854715E-13  0.14210854715E-13  0.12656954526E+03  0.10076238136E+04  0.99964288624E+03 0.  0.
         25    2    3    3    0    0 -0.68899881639E+02 -0.77647829603E+02 -0.70092677617E+02  0.17744591799E+03  0.12568886674E+03 0.  0.
         35    2    3    3    0    0  0.68899881639E+02  0.77647829603E+02  0.19666222288E+03  0.83017789565E+03  0.79983931473E+03 0.  0.
         22    1    5    5    0    0 -0.12491267869E+03 -0.28100634522E+03 -0.10290125991E+03  0.32427829506E+03  0.00000000000E+00 0. -1.
         22    1    5    5    0    0  0.19381256033E+03  0.35865417483E+03  0.29956348279E+03  0.50589960059E+03  0.00000000000E+00 0. -1.
          5    1    4    4  502    0 -0.49848934230E+01 -0.77588950732E+02 -0.81070247522E+02  0.11242495040E+03  0.47000000000E+01 0.  1.
         -5    1    4    4    0  502 -0.63914988216E+02 -0.58878870442E-01  0.10977569906E+02  0.65020967591E+02  0.47000000000E+01 0.  1.
<mgrwt>
<rscale>  0 0.99964289E+03</rscale>
<asrwt>0</asrwt>
<pdfrwt beam="1">  1        2 0.67773405E-01 0.99964289E+03</pdfrwt>
<pdfrwt beam="2">  1       -2 0.87245643E-01 0.99964289E+03</pdfrwt>
<totfact> 0.96852682E+01</totfact>
</mgrwt>
</event>
<event>
 9    1  0.4388925E-036  0.9980330E+03  0.7818608E-02  0.8682913E-01
          1   -1    0    0  501    0  0.00000000000E+00  0.00000000000E+00  0.36298936688E+03  0.36298936688E+03  0.00000000000E+00 0.  1.
         -1   -1    0    0    0  501 -0.00000000000E+00 -0.00000000000E+00 -0.68601856895E+03  0.68601856895E+03  0.00000000000E+00 0.  1.
         36    2    1    2    0    0 -0.14210854715E-13  0.35527136788E-14 -0.32302920207E+03  0.10490079358E+04  0.99803295740E+03 0.  0.
         25    2    3    3    0    0 -0.58246995285E+02  0.31607337537E+02 -0.18476583930E+03  0.23276864933E+03  0.12510432644E+03 0.  0.
         35    2    3    3    0    0  0.58246995285E+02 -0.31607337537E+02 -0.13826336277E+03  0.81623928651E+03  0.80170947300E+03 0.  0.
         22    1    5    5    0    0 -0.37208741618E+03  0.72291874307E+00 -0.45783923320E+02  0.37489429913E+03  0.00000000000E+00 0. -1.
         22    1    5    5    0    0  0.43033441146E+03 -0.32330256280E+02 -0.92479439449E+02  0.44134498737E+03  0.00000000000E+00 0. -1.
          5    1    4    4  502    0  0.79771680331E+01  0.65512356354E+02 -0.99747604284E+02  0.11969619294E+03  0.47000000000E+01 0. -1.
         -5    1    4    4    0  502 -0.66224163318E+02 -0.33905018817E+02 -0.85018235015E+02  0.11307245639E+03  0.47000000000E+01 0. -1.
<mgrwt>
<rscale>  0 0.99803296E+03</rscale>
<asrwt>0</asrwt>
<pdfrwt beam="1">  1        1 0.55844518E-01 0.99803296E+03</pdfrwt>
<pdfrwt beam="2">  1       -1 0.10554132E+00 0.99803296E+03</pdfrwt>
<totfact> 0.68980086E+01</totfact>
</mgrwt>
</event>
<event>
 9    1  0.4388925E-036  0.1000272E+04  0.7818608E-02  0.8680779E-01
         -2   -1    0    0    0  501 -0.00000000000E+00  0.00000000000E+00  0.20601307919E+03  0.20601307919E+03  0.00000000000E+00 0. -1.
          2   -1    0    0  501    0  0.00000000000E+00 -0.00000000000E+00 -0.12141749238E+04  0.12141749238E+04  0.00000000000E+00 0. -1.
         36    2    1    2    0    0  0.00000000000E+00  0.00000000000E+00 -0.10081618446E+04  0.14201880030E+04  0.10002717925E+04 0.  0.
         25    2    3    3    0    0 -0.12056965316E+03 -0.54014815212E+02 -0.11752772666E+03  0.21638338358E+03  0.12471712245E+03 0.  0.
         35    2    3    3    0    0  0.12056965316E+03  0.54014815212E+02 -0.89063411796E+03  0.12038046194E+04  0.79903803923E+03 0.  0.
         22    1    5    5    0    0  0.43955193332E+03 -0.10701470193E+03 -0.50988100281E+03  0.68164263771E+03  0.00000000000E+00 0. -1.
         22    1    5    5    0    0 -0.31898228016E+03  0.16102951714E+03 -0.38075311514E+03  0.52216198170E+03  0.00000000000E+00 0. -1.
          5    1    4    4  502    0 -0.74163411853E+02 -0.93498023309E+02 -0.66048249130E+02  0.13647913113E+03  0.47000000000E+01 0.  1.
         -5    1    4    4    0  502 -0.46406241308E+02  0.39483208097E+02 -0.51479477526E+02  0.79904252455E+02  0.47000000000E+01 0.  1.
<mgrwt>
<rscale>  0 0.10002718E+04</rscale>
<asrwt>0</asrwt>
<pdfrwt beam="1">  1        2 0.18679614E+00 0.10002718E+04</pdfrwt>
<pdfrwt beam="2">  1       -2 0.31694321E-01 0.10002718E+04</pdfrwt>
<totfact> 0.20685259E+02</totfact>
</mgrwt>
</event>
<event>
 9    1  0.4388925E-036  0.9996515E+03  0.7818608E-02  0.8681370E-01
          1   -1    0    0  501    0  0.00000000000E+00  0.00000000000E+00  0.95917994414E+03  0.95917994414E+03  0.00000000000E+00 0.  1.
         -1   -1    0    0    0  501 -0.00000000000E+00 -0.00000000000E+00 -0.26045769434E+03  0.26045769434E+03  0.00000000000E+00 0.  1.
         36    2    1    2    0    0  0.00000000000E+00  0.14210854715E-13  0.69872224980E+03  0.12196376385E+04  0.99965153271E+03 0.  0.
         25    2    3    3    0    0  0.11800096332E+03  0.58626307699E+02  0.18022049627E+03  0.25549603164E+03  0.12424783141E+03 0.  0.
         35    2    3    3    0    0 -0.11800096332E+03 -0.58626307699E+02  0.51850175353E+03  0.96414160684E+03  0.80209955637E+03 0.  0.
         22    1    5    5    0    0 -0.41362504357E+03 -0.12268058008E+03  0.91786739882E+02  0.44109070157E+03  0.00000000000E+00 0. -1.
         22    1    5    5    0    0  0.29562408025E+03  0.64054272383E+02  0.42671501364E+03  0.52305090527E+03  0.00000000000E+00 0. -1.
          5    1    4    4  502    0  0.54781845025E+02 -0.35951691290E+02  0.50262184392E+02  0.82716091729E+02  0.47000000000E+01 0.  1.
         -5    1    4    4    0  502  0.63219118294E+02  0.94577998990E+02  0.12995831188E+03  0.17277993992E+03  0.47000000000E+01 0.  1.
<mgrwt>
<rscale>  0 0.99965153E+03</rscale>
<asrwt>0</asrwt>
<pdfrwt beam="1">  1        1 0.14756614E+00 0.99965153E+03</pdfrwt>
<pdfrwt beam="2">  1       -1 0.40070415E-01 0.99965153E+03</pdfrwt>
<totfact> 0.11111028E+02</totfact>
</mgrwt>
</event>
<event>
 9    1  0.4388925E-036  0.1000029E+04  0.7818608E-02  0.8681011E-01
          1   -1    0    0  501    0  0.00000000000E+00  0.00000000000E+00  0.12420217836E+04  0.12420217836E+04  0.00000000000E+00 0. -1.
         -1   -1    0    0    0  501 -0.00000000000E+00 -0.00000000000E+00 -0.20129624655E+03  0.20129624655E+03  0.00000000000E+00 0. -1.
         36    2    1    2    0    0 -0.71054273576E-14 -0.14210854715E-13  0.10407255370E+04  0.14433180301E+04  0.10000286459E+04 0.  0.
         25    2    3    3    0    0 -0.52509872648E+02 -0.11717262994E+03  0.11487136161E+03  0.21295877696E+03  0.12517707072E+03 0.  0.
         35    2    3    3    0    0  0.52509872648E+02  0.11717262994E+03  0.92585417539E+03  0.12303592531E+04  0.80005701406E+03 0.  0.
         22    1    5    5    0    0  0.17218910155E+03  0.43622788433E+03  0.51374635047E+03  0.69561423676E+03  0.00000000000E+00 0. -1.
         22    1    5    5    0    0 -0.11967922890E+03 -0.31905525439E+03  0.41210782492E+03  0.53474501638E+03  0.00000000000E+00 0. -1.
          5    1    4    4  502    0 -0.22268177146E+02 -0.10641381300E+03  0.17364594352E+02  0.11019705281E+03  0.47000000000E+01 0.  1.
         -5    1    4    4    0  502 -0.30241695501E+02 -0.10758816941E+02  0.97506767261E+02  0.10276172415E+03  0.47000000000E+01 0.  1.
<mgrwt>
<rscale>  0 0.10000286E+04</rscale>
<asrwt>0</asrwt>
<pdfrwt beam="1">  1        1 0.19108027E+00 0.10000286E+04</pdfrwt>
<pdfrwt beam="2">  1       -1 0.30968654E-01 0.10000286E+04</pdfrwt>
<totfact> 0.10559405E+02</totfact>
</mgrwt>
</event>
<event>
 9    1  0.4388925E-036  0.9996993E+03  0.7818608E-02  0.8681324E-01
          1   -1    0    0  501    0  0.00000000000E+00  0.00000000000E+00  0.31436851725E+04  0.31436851725E+04  0.00000000000E+00 0. -1.
         -1   -1    0    0    0  501 -0.00000000000E+00 -0.00000000000E+00 -0.79476680974E+02  0.79476680974E+02  0.00000000000E+00 0. -1.
         36    2    1    2    0    0 -0.28421709430E-13  0.00000000000E+00  0.30642084915E+04  0.32231618535E+04  0.99969928186E+03 0.  0.
         25    2    3    3    0    0 -0.12565100416E+03  0.47615276955E+02  0.57554870975E+03  0.60412687495E+03  0.12513022938E+03 0.  0.
         35    2    3    3    0    0  0.12565100416E+03 -0.47615276955E+02  0.24886597818E+04  0.26190349785E+04  0.80489832887E+03 0.  0.
         22    1    5    5    0    0 -0.32809994887E+03 -0.12829541040E+03  0.11882550992E+04  0.12393786627E+04  0.00000000000E+00 0.  1.
         22    1    5    5    0    0  0.45375095303E+03  0.80680133448E+02  0.13004046825E+04  0.13796563158E+04  0.00000000000E+00 0.  1.
          5    1    4    4  502    0 -0.70847429353E+02  0.58341423635E+02  0.15758681671E+03  0.18242470983E+03  0.47000000000E+01 0. -1.
         -5    1    4    4    0  502 -0.54803574805E+02 -0.10726146679E+02  0.41796189304E+03  0.42170216512E+03  0.47000000000E+01 0. -1.
<mgrwt>
<rscale>  0 0.99969928E+03</rscale>
<asrwt>0</asrwt>
<pdfrwt beam="1">  1        1 0.48364378E+00 0.99969928E+03</pdfrwt>
<pdfrwt beam="2">  1       -1 0.12227184E-01 0.99969928E+03</pdfrwt>
<totfact> 0.21836631E+01</totfact>
</mgrwt>
</event>
<event>
 9    1  0.4388925E-036  0.1000318E+04  0.7818608E-02  0.8680735E-01
         -3   -1    0    0    0  501 -0.00000000000E+00  0.00000000000E+00  0.42440085854E+03  0.42440085854E+03  0.00000000000E+00 0. -1.
          3   -1    0    0  501    0  0.00000000000E+00 -0.00000000000E+00 -0.58944096546E+03  0.58944096546E+03  0.00000000000E+00 0. -1.
         36    2    1    2    0    0  0.00000000000E+00 -0.56843418861E-13 -0.16504010693E+03  0.10138418240E+04  0.10003184529E+04 0.  0.
         25    2    3    3    0    0  0.18770682855E+02  0.13615674090E+03 -0.25247072441E+00  0.18602096542E+03  0.12535046553E+03 0.  0.
         35    2    3    3    0    0 -0.18770682855E+02 -0.13615674090E+03 -0.16478763620E+03  0.82782085858E+03  0.79952574206E+03 0.  0.
         22    1    5    5    0    0  0.80447258630E+02 -0.46147176486E+03 -0.61984489165E+02  0.47251457976E+03  0.00000000000E+00 0. -1.
         22    1    5    5    0    0 -0.99217941485E+02  0.32531502396E+03 -0.10280314704E+03  0.35530627882E+03  0.00000000000E+00 0. -1.
          5    1    4    4  502    0  0.44802384800E+02  0.11148475043E+03 -0.45083834493E+02  0.12841629723E+03  0.47000000000E+01 0. -1.
         -5    1    4    4    0  502 -0.26031701945E+02  0.24671990466E+02  0.44831363769E+02  0.57604668188E+02  0.47000000000E+01 0. -1.
<mgrwt>
<rscale>  0 0.10003185E+04</rscale>
<asrwt>0</asrwt>
<pdfrwt beam="1">  1        3 0.90683226E-01 0.10003185E+04</pdfrwt>
<pdfrwt beam="2">  1       -3 0.65292440E-01 0.10003185E+04</pdfrwt>
<totfact> 0.10148679E+01</totfact>
</mgrwt>
</event>
<event>
 9    1  0.4388925E-036  0.1000034E+04  0.7818608E-02  0.8681005E-01
         -2   -1    0    0    0  501 -0.00000000000E+00  0.00000000000E+00  0.14614785594E+03  0.14614785594E+03  0.00000000000E+00 0.  1.
          2   -1    0    0  501    0  0.00000000000E+00 -0.00000000000E+00 -0.17107140102E+04  0.17107140102E+04  0.00000000000E+00 0.  1.
         36    2    1    2    0    0 -0.71054273576E-14  0.14210854715E-13 -0.15645661543E+04  0.18568618661E+04  0.10000343688E+04 0.  0.
         25    2    3    3    0    0 -0.53578994752E+02 -0.10526759756E+03 -0.15526151974E+03  0.23217193730E+03  0.12587967739E+03 0.  0.
         35    2    3    3    0    0  0.53578994752E+02  0.10526759756E+03 -0.14093046345E+04  0.16246899289E+04  0.79970359275E+03 0.  0.
         22    1    5    5    0    0  0.11178291391E+00  0.33201929338E+02  0.10377230797E+03  0.10895445154E+03  0.00000000000E+00 0.  1.
         22    1    5    5    0    0  0.53467211838E+02  0.72065668217E+02 -0.15130769425E+04  0.15157354773E+04  0.00000000000E+00 0.  1.
          5    1    4    4  502    0 -0.81950651892E+02 -0.51908730023E+02 -0.46543527422E+02  0.10769779730E+03  0.47000000000E+01 0. -1.
         -5    1    4    4    0  502  0.28371657140E+02 -0.53358867533E+02 -0.10871799232E+03  0.12447414000E+03  0.47000000000E+01 0. -1.
<mgrwt>
<rscale>  0 0.10000344E+04</rscale>
<asrwt>0</asrwt>
<pdfrwt beam="1">  1        2 0.26318677E+00 0.10000344E+04</pdfrwt>
<pdfrwt beam="2">  1       -2 0.22484286E-01 0.10000344E+04</pdfrwt>
<totfact> 0.19927702E+02</totfact>
</mgrwt>
</event>
<event>
 9    1  0.4388925E-036  0.9941726E+03  0.7818608E-02  0.8686607E-01
         -2   -1    0    0    0  501 -0.00000000000E+00  0.00000000000E+00  0.16324100637E+03  0.16324100637E+03  0.00000000000E+00 0.  1.
          2   -1    0    0  501    0  0.00000000000E+00 -0.00000000000E+00 -0.15136809330E+04  0.15136809330E+04  0.00000000000E+00 0.  1.
         36    2    1    2    0    0  0.00000000000E+00  0.00000000000E+00 -0.13504399266E+04  0.16769219393E+04  0.99417261846E+03 0.  0.
         25    2    3    3    0    0 -0.10876052954E+03  0.67425627716E+02 -0.32374285881E+03  0.36925223759E+03  0.12313694927E+03 0.  0.
         35    2    3    3    0    0  0.10876052954E+03 -0.67425627716E+02 -0.10266970678E+04  0.13076697018E+04  0.79969876317E+03 0.  0.
         22    1    5    5    0    0  0.21390929499E+03  0.17648065559E+03 -0.10034319658E+04  0.10410467416E+04  0.00000000000E+00 0. -1.
         22    1    5    5    0    0 -0.10514876545E+03 -0.24390628331E+03 -0.23265102041E+02  0.26662296016E+03  0.00000000000E+00 0. -1.
          5    1    4    4  502    0 -0.51683523448E+02 -0.97168669836E+01 -0.31181167242E+02  0.61318506917E+02  0.47000000000E+01 0.  1.
         -5    1    4    4    0  502 -0.57077006090E+02  0.77142494699E+02 -0.29256169157E+03  0.30793373067E+03  0.47000000000E+01 0.  1.
<mgrwt>
<rscale>  0 0.99417262E+03</rscale>
<asrwt>0</asrwt>
<pdfrwt beam="1">  1        2 0.23287400E+00 0.99417262E+03</pdfrwt>
<pdfrwt beam="2">  1       -2 0.25114000E-01 0.99417262E+03</pdfrwt>
<totfact> 0.21178772E+02</totfact>
</mgrwt>
</event>
<event>
 9    1  0.4388925E-036  0.9996776E+03  0.7818608E-02  0.8681345E-01
         -2   -1    0    0    0  501 -0.00000000000E+00  0.00000000000E+00  0.21890184143E+03  0.21890184143E+03  0.00000000000E+00 0.  1.
          2   -1    0    0  501    0  0.00000000000E+00 -0.00000000000E+00 -0.11413280024E+04  0.11413280024E+04  0.00000000000E+00 0.  1.
         36    2    1    2    0    0 -0.14210854715E-13 -0.28421709430E-13 -0.92242616101E+03  0.13602298439E+04  0.99967755083E+03 0.  0.
         25    2    3    3    0    0  0.23559044028E+02 -0.12428676438E+03 -0.90770792469E+02  0.19946713042E+03  0.12468187917E+03 0.  0.
         35    2    3    3    0    0 -0.23559044028E+02  0.12428676438E+03 -0.83165536854E+03  0.11607627135E+04  0.79982322832E+03 0.  0.
         22    1    5    5    0    0  0.67703574813E+02  0.37904312921E+03 -0.80059674118E+03  0.88837638973E+03  0.00000000000E+00 0.  1.
         22    1    5    5    0    0 -0.91262618841E+02 -0.25475636483E+03 -0.31058627363E+02  0.27238632372E+03  0.00000000000E+00 0.  1.
          5    1    4    4  502    0  0.69339854741E+02 -0.71528483515E+02 -0.81597262063E+02  0.12885861471E+03  0.47000000000E+01 0. -1.
         -5    1    4    4    0  502 -0.45780810713E+02 -0.52758280869E+02 -0.91735304066E+01  0.70608515704E+02  0.47000000000E+01 0. -1.
<mgrwt>
<rscale>  0 0.99967755E+03</rscale>
<asrwt>0</asrwt>
<pdfrwt beam="1">  1        2 0.17558892E+00 0.99967755E+03</pdfrwt>
<pdfrwt beam="2">  1       -2 0.33677206E-01 0.99967755E+03</pdfrwt>
<totfact> 0.20432315E+02</totfact>
</mgrwt>
</event>
<event>
 9    1  0.4388925E-036  0.9998502E+03  0.7818608E-02  0.8681181E-01
         -2   -1    0    0    0  501 -0.00000000000E+00  0.00000000000E+00  0.26987285794E+03  0.26987285794E+03  0.00000000000E+00 0. -1.
          2   -1    0    0  501    0  0.00000000000E+00 -0.00000000000E+00 -0.92608471319E+03  0.92608471319E+03  0.00000000000E+00 0. -1.
         36    2    1    2    0    0 -0.28421709430E-13  0.00000000000E+00 -0.65621185525E+03  0.11959575711E+04  0.99985024527E+03 0.  0.
         25    2    3    3    0    0  0.12009686194E+03 -0.73725202500E+02 -0.12126714789E+03  0.22354911267E+03  0.12413630769E+03 0.  0.
         35    2    3    3    0    0 -0.12009686194E+03  0.73725202500E+02 -0.53494470736E+03  0.97240845846E+03  0.79972101912E+03 0.  0.
         22    1    5    5    0    0 -0.42015246707E+03  0.21992899460E+03 -0.26585896496E+03  0.54367071606E+03  0.00000000000E+00 0. -1.
         22    1    5    5    0    0  0.30005560514E+03 -0.14620379210E+03 -0.26908574240E+03  0.42873774240E+03  0.00000000000E+00 0. -1.
          5    1    4    4  502    0  0.14498331975E+02  0.10321422062E+01 -0.88757515699E+02  0.90062497970E+02  0.47000000000E+01 0.  1.
         -5    1    4    4    0  502  0.10559852996E+03 -0.74757344706E+02 -0.32509632190E+02  0.13348661470E+03  0.47000000000E+01 0.  1.
<mgrwt>
<rscale>  0 0.99985025E+03</rscale>
<asrwt>0</asrwt>
<pdfrwt beam="1">  1        2 0.14247457E+00 0.99985025E+03</pdfrwt>
<pdfrwt beam="2">  1       -2 0.41518900E-01 0.99985025E+03</pdfrwt>
<totfact> 0.18720268E+02</totfact>
</mgrwt>
</event>
<event>
 9    1  0.4388925E-036  0.1000852E+04  0.7818608E-02  0.8680227E-01
         -1   -1    0    0    0  501 -0.00000000000E+00  0.00000000000E+00  0.13885294333E+04  0.13885294333E+04  0.00000000000E+00 0. -1.
          1   -1    0    0  501    0  0.00000000000E+00 -0.00000000000E+00 -0.18035347870E+03  0.18035347870E+03  0.00000000000E+00 0. -1.
         36    2    1    2    0    0  0.14210854715E-13  0.00000000000E+00  0.12081759546E+04  0.15688829120E+04  0.10008518643E+04 0.  0.
         25    2    3    3    0    0  0.12070385252E+03  0.24846133213E+02  0.33648909099E+03  0.37945055556E+03  0.12478407516E+03 0.  0.
         35    2    3    3    0    0 -0.12070385252E+03 -0.24846133213E+02  0.87168686359E+03  0.11894323564E+04  0.79982785146E+03 0.  0.
         22    1    5    5    0    0 -0.13840073648E+03  0.18169137277E+03 -0.59034301659E+02  0.23590584471E+03  0.00000000000E+00 0.  1.
         22    1    5    5    0    0  0.17696883957E+02 -0.20653750598E+03  0.93072116524E+03  0.95352651170E+03  0.00000000000E+00 0.  1.
          5    1    4    4  502    0  0.61054371748E+02  0.69278574217E+02  0.24229904399E+03  0.25934161617E+03  0.47000000000E+01 0.  1.
         -5    1    4    4    0  502  0.59649480776E+02 -0.44432441004E+02  0.94190046997E+02  0.12010893940E+03  0.47000000000E+01 0.  1.
<mgrwt>
<rscale>  0 0.10008519E+04</rscale>
<asrwt>0</asrwt>
<pdfrwt beam="1">  1        1 0.27746690E-01 0.10008519E+04</pdfrwt>
<pdfrwt beam="2">  1       -1 0.21361991E+00 0.10008519E+04</pdfrwt>
<totfact> 0.20269422E+01</totfact>
</mgrwt>
</event>
<event>
 9    1  0.4388925E-036  0.9999706E+03  0.7818608E-02  0.8681066E-01
          1   -1    0    0  501    0  0.00000000000E+00  0.00000000000E+00  0.32514365400E+04  0.32514365400E+04  0.00000000000E+00 0. -1.
         -1   -1    0    0    0  501 -0.00000000000E+00 -0.00000000000E+00 -0.76884571443E+02  0.76884571443E+02  0.00000000000E+00 0. -1.
         36    2    1    2    0    0  0.00000000000E+00  0.28421709430E-13  0.31745519685E+04  0.33283211114E+04  0.99997060946E+03 0.  0.
         25    2    3    3    0    0  0.80018144104E+02  0.49895360994E+02  0.94633304498E+03  0.95903765049E+03  0.12375189938E+03 0.  0.
         35    2    3    3    0    0 -0.80018144104E+02 -0.49895360994E+02  0.22282189235E+04  0.23692834609E+04  0.79978253076E+03 0.  0.
         22    1    5    5    0    0 -0.22000256582E+01  0.35739895577E+03  0.70211114177E+03  0.78784447012E+03  0.00000000000E+00 0.  1.
         22    1    5    5    0    0 -0.77818118445E+02 -0.40729431677E+03  0.15261077818E+04  0.15814389908E+04  0.00000000000E+00 0.  1.
          5    1    4    4  502    0  0.55944178990E+00 -0.10633428059E+02  0.55527066751E+03  0.55539264216E+03  0.47000000000E+01 0. -1.
         -5    1    4    4    0  502  0.79458702314E+02  0.60528789053E+02  0.39106237747E+03  0.40364500834E+03  0.47000000000E+01 0. -1.
<mgrwt>
<rscale>  0 0.99997061E+03</rscale>
<asrwt>0</asrwt>
<pdfrwt beam="1">  1        1 0.50022090E+00 0.99997061E+03</pdfrwt>
<pdfrwt beam="2">  1       -1 0.11828398E-01 0.99997061E+03</pdfrwt>
<totfact> 0.19183078E+01</totfact>
</mgrwt>
</event>
<event>
 9    1  0.4388925E-036  0.1000116E+04  0.7818608E-02  0.8680927E-01
          2   -1    0    0  501    0  0.00000000000E+00  0.00000000000E+00  0.65368060418E+03  0.65368060418E+03  0.00000000000E+00 0.  1.
         -2   -1    0    0    0  501 -0.00000000000E+00 -0.00000000000E+00 -0.38253854386E+03  0.38253854386E+03  0.00000000000E+00 0.  1.
         36    2    1    2    0    0  0.00000000000E+00  0.14210854715E-13  0.27114206032E+03  0.10362191480E+04  0.10001160462E+04 0.  0.
         25    2    3    3    0    0 -0.13333566397E+03 -0.49755189082E+01  0.10351086117E+02  0.18358012715E+03  0.12566369017E+03 0.  0.
         35    2    3    3    0    0  0.13333566397E+03  0.49755189082E+01  0.26079097420E+03  0.85263902089E+03  0.80073604430E+03 0.  0.
         22    1    5    5    0    0 -0.73255683881E+02 -0.32847724016E+03 -0.64952382305E+02  0.34275720924E+03  0.00000000000E+00 0. -1.
         22    1    5    5    0    0  0.20659134785E+03  0.33345275907E+03  0.32574335651E+03  0.50988181164E+03  0.00000000000E+00 0. -1.
          5    1    4    4  502    0 -0.45156447835E+02 -0.50803217779E+02  0.40950532722E+02  0.79492816330E+02  0.47000000000E+01 0. -1.
         -5    1    4    4    0  502 -0.88179216133E+02  0.45827698871E+02 -0.30599446605E+02  0.10408731082E+03  0.47000000000E+01 0. -1.
<mgrwt>
<rscale>  0 0.10001160E+04</rscale>
<asrwt>0</asrwt>
<pdfrwt beam="1">  1        2 0.10056625E+00 0.10001160E+04</pdfrwt>
<pdfrwt beam="2">  1       -2 0.58852084E-01 0.10001160E+04</pdfrwt>
<totfact> 0.14574477E+02</totfact>
</mgrwt>
</event>
<event>
 9    1  0.4388925E-036  0.9999022E+03  0.7818608E-02  0.8681131E-01
         -1   -1    0    0    0  501 -0.00000000000E+00  0.00000000000E+00  0.33892039496E+03  0.33892039496E+03  0.00000000000E+00 0. -1.
          1   -1    0    0  501    0  0.00000000000E+00 -0.00000000000E+00 -0.73749211675E+03  0.73749211675E+03  0.00000000000E+00 0. -1.
         36    2    1    2    0    0  0.00000000000E+00 -0.24868995752E-13 -0.39857172179E+03  0.10764125117E+04  0.99990223420E+03 0.  0.
         25    2    3    3    0    0  0.62901770242E+02  0.31636595072E+02 -0.20471306510E+03  0.24994687042E+03  0.12493395119E+03 0.  0.
         35    2    3    3    0    0 -0.62901770242E+02 -0.31636595072E+02 -0.19385865669E+03  0.82646564129E+03  0.80031666896E+03 0.  0.
         22    1    5    5    0    0  0.10279056381E+03 -0.37267742247E+03 -0.22280403199E+03  0.44620174574E+03  0.00000000000E+00 0.  1.
         22    1    5    5    0    0 -0.16569233405E+03  0.34104082740E+03  0.28945375303E+02  0.38026389556E+03  0.00000000000E+00 0.  1.
          5    1    4    4  502    0  0.43286729197E+02  0.48487784854E+02 -0.21271411291E+03  0.22247289731E+03  0.47000000000E+01 0.  1.
         -5    1    4    4    0  502  0.19615041045E+02 -0.16851189782E+02  0.80010478107E+01  0.27473973108E+02  0.47000000000E+01 0.  1.
<mgrwt>
<rscale>  0 0.99990223E+03</rscale>
<asrwt>0</asrwt>
<pdfrwt beam="1">  1        1 0.11346032E+00 0.99990223E+03</pdfrwt>
<pdfrwt beam="2">  1       -1 0.52141600E-01 0.99990223E+03</pdfrwt>
<totfact> 0.10671388E+02</totfact>
</mgrwt>
</event>
<event>
 9    1  0.4388925E-036  0.9990587E+03  0.7818608E-02  0.8681935E-01
          1   -1    0    0  501    0  0.00000000000E+00  0.00000000000E+00  0.18058575609E+03  0.18058575609E+03  0.00000000000E+00 0. -1.
         -1   -1    0    0    0  501 -0.00000000000E+00 -0.00000000000E+00 -0.13817789290E+04  0.13817789290E+04  0.00000000000E+00 0. -1.
         36    2    1    2    0    0  0.00000000000E+00  0.28421709430E-13 -0.12011931729E+04  0.15623646851E+04  0.99905874231E+03 0.  0.
         25    2    3    3    0    0  0.16194377306E+02 -0.13637474591E+03 -0.23578241314E+03  0.30076676113E+03  0.12651865111E+03 0.  0.
         35    2    3    3    0    0 -0.16194377306E+02  0.13637474591E+03 -0.96541075976E+03  0.12615979240E+04  0.80046927330E+03 0.  0.
         22    1    5    5    0    0  0.10206142187E+03 -0.55264593621E+02  0.11176964634E+03  0.16113088774E+03  0.00000000000E+00 0. -1.
         22    1    5    5    0    0 -0.11825579917E+03  0.19163933953E+03 -0.10771804061E+04  0.11004670362E+04  0.00000000000E+00 0. -1.
          5    1    4    4  502    0 -0.16045569655E+02  0.19245285005E+02 -0.18378765592E+02  0.31427859061E+02  0.47000000000E+01 0. -1.
         -5    1    4    4    0  502  0.32239946962E+02 -0.15562003091E+03 -0.21740364755E+03  0.26933890207E+03  0.47000000000E+01 0. -1.
<mgrwt>
<rscale>  0 0.99905874E+03</rscale>
<asrwt>0</asrwt>
<pdfrwt beam="1">  1        1 0.27782422E-01 0.99905874E+03</pdfrwt>
<pdfrwt beam="2">  1       -1 0.21258139E+00 0.99905874E+03</pdfrwt>
<totfact> 0.20662574E+01</totfact>
</mgrwt>
</event>
<event>
 9    1  0.4388925E-036  0.9992898E+03  0.7818608E-02  0.8681715E-01
          1   -1    0    0  501    0  0.00000000000E+00  0.00000000000E+00  0.12183009079E+04  0.12183009079E+04  0.00000000000E+00 0. -1.
         -1   -1    0    0    0  501 -0.00000000000E+00 -0.00000000000E+00 -0.20491243787E+03  0.20491243787E+03  0.00000000000E+00 0. -1.
         36    2    1    2    0    0  0.14210854715E-13  0.28421709430E-13  0.10133884700E+04  0.14232133458E+04  0.99928976600E+03 0.  0.
         25    2    3    3    0    0 -0.11756101229E+03 -0.44992382140E+02  0.10480076462E+03  0.20611710573E+03  0.12512455772E+03 0.  0.
         35    2    3    3    0    0  0.11756101229E+03  0.44992382140E+02  0.90858770543E+03  0.12170962401E+04  0.79996670749E+03 0.  0.
         22    1    5    5    0    0  0.18591489148E+03 -0.29050591167E+03  0.77732424129E+03  0.85040637797E+03  0.00000000000E+00 0. -1.
         22    1    5    5    0    0 -0.68353879192E+02  0.33549829381E+03  0.13126346413E+03  0.36668986210E+03  0.00000000000E+00 0. -1.
          5    1    4    4  502    0 -0.41151590678E+02  0.13678588061E+02  0.10051449459E+03  0.10957103089E+03  0.47000000000E+01 0.  1.
         -5    1    4    4    0  502 -0.76409421614E+02 -0.58670970201E+02  0.42862700293E+01  0.96546074837E+02  0.47000000000E+01 0.  1.
<mgrwt>
<rscale>  0 0.99928977E+03</rscale>
<asrwt>0</asrwt>
<pdfrwt beam="1">  1        1 0.18743090E+00 0.99928977E+03</pdfrwt>
<pdfrwt beam="2">  1       -1 0.31524991E-01 0.99928977E+03</pdfrwt>
<totfact> 0.10664823E+02</totfact>
</mgrwt>
</event>
<event>
 9    1  0.4388925E-036  0.1000042E+04  0.7818608E-02  0.8680998E-01
          2   -1    0    0  501    0  0.00000000000E+00  0.00000000000E+00  0.28828072395E+04  0.28828072395E+04  0.00000000000E+00 0.  1.
         -2   -1    0    0    0  501 -0.00000000000E+00 -0.00000000000E+00 -0.86728363105E+02  0.86728363105E+02  0.00000000000E+00 0.  1.
         36    2    1    2    0    0 -0.28421709430E-13 -0.71054273576E-14  0.27960788764E+04  0.29695356026E+04  0.10000423052E+04 0.  0.
         25    2    3    3    0    0  0.13312980238E+03  0.96067714013E+01  0.39234147472E+03  0.43279989688E+03  0.12477212674E+03 0.  0.
         35    2    3    3    0    0 -0.13312980238E+03 -0.96067714013E+01  0.24037374017E+04  0.25367357058E+04  0.79953655963E+03 0.  0.
         22    1    5    5    0    0 -0.31664018441E+03 -0.97765650491E+02  0.22679172500E+04  0.22920008249E+04  0.00000000000E+00 0. -1.
         22    1    5    5    0    0  0.18351038202E+03  0.88158879090E+02  0.13582015173E+03  0.24473488082E+03  0.00000000000E+00 0. -1.
          5    1    4    4  502    0  0.48746982294E+02 -0.37706151567E+02  0.26881536293E+03  0.27582931587E+03  0.47000000000E+01 0.  1.
         -5    1    4    4    0  502  0.84382820091E+02  0.47312922969E+02  0.12352611179E+03  0.15697058101E+03  0.47000000000E+01 0.  1.
<mgrwt>
<rscale>  0 0.10000423E+04</rscale>
<asrwt>0</asrwt>
<pdfrwt beam="1">  1        2 0.44350873E+00 0.10000423E+04</pdfrwt>
<pdfrwt beam="2">  1       -2 0.13342827E-01 0.10000423E+04</pdfrwt>
<totfact> 0.97199050E+01</totfact>
</mgrwt>
</event>
<event>
 9    1  0.4388925E-036  0.9977852E+03  0.7818608E-02  0.8683150E-01
          2   -1    0    0  501    0  0.00000000000E+00  0.00000000000E+00  0.18316630796E+04  0.18316630796E+04  0.00000000000E+00 0. -1.
         -2   -1    0    0    0  501 -0.00000000000E+00 -0.00000000000E+00 -0.13588406863E+03  0.13588406863E+03  0.00000000000E+00 0. -1.
         36    2    1    2    0    0  0.00000000000E+00  0.00000000000E+00  0.16957790110E+04  0.19675471482E+04  0.99778521059E+03 0.  0.
         25    2    3    3    0    0  0.55903624553E+02  0.41232494337E+02  0.80755814421E+02  0.16433849744E+03  0.12514114572E+03 0.  0.
         35    2    3    3    0    0 -0.55903624553E+02 -0.41232494337E+02  0.16150231966E+04  0.18032086508E+04  0.79902201413E+03 0.  0.
         22    1    5    5    0    0  0.15351930083E+03 -0.10931311138E+03  0.15663958570E+04  0.15776924646E+04  0.00000000000E+00 0. -1.
         22    1    5    5    0    0 -0.20942292538E+03  0.68080617046E+02  0.48627339593E+02  0.22551618623E+03  0.00000000000E+00 0. -1.
          5    1    4    4  502    0  0.72764253150E+02 -0.13079042754E+02  0.77459532714E+02  0.10718100160E+03  0.47000000000E+01 0.  1.
         -5    1    4    4    0  502 -0.16860628597E+02  0.54311537090E+02  0.32962817073E+01  0.57157495842E+02  0.47000000000E+01 0.  1.
<mgrwt>
<rscale>  0 0.99778521E+03</rscale>
<asrwt>0</asrwt>
<pdfrwt beam="1">  1        2 0.28179430E+00 0.99778521E+03</pdfrwt>
<pdfrwt beam="2">  1       -2 0.20905243E-01 0.99778521E+03</pdfrwt>
<totfact> 0.19339813E+02</totfact>
</mgrwt>
</event>
<event>
 9    1  0.4388925E-036  0.1000099E+04  0.7818608E-02  0.8680944E-01
         -2   -1    0    0    0  501 -0.00000000000E+00  0.00000000000E+00  0.25253365258E+03  0.25253365258E+03  0.00000000000E+00 0. -1.
          2   -1    0    0  501    0  0.00000000000E+00 -0.00000000000E+00 -0.99016241631E+03  0.99016241631E+03  0.00000000000E+00 0. -1.
         36    2    1    2    0    0 -0.71054273576E-14  0.00000000000E+00 -0.73762876373E+03  0.12426960689E+04  0.10000986584E+04 0.  0.
         25    2    3    3    0    0 -0.18612099961E+02 -0.13666511794E+03 -0.17265212879E+03  0.25387103401E+03  0.12497191527E+03 0.  0.
         35    2    3    3    0    0  0.18612099961E+02  0.13666511794E+03 -0.56497663493E+03  0.98882503487E+03  0.79972031789E+03 0.  0.
         22    1    5    5    0    0  0.10802918569E+03 -0.23990659923E+02 -0.73206486480E+03  0.74038153880E+03  0.00000000000E+00 0. -1.
         22    1    5    5    0    0 -0.89417085734E+02  0.16065577786E+03  0.16708822987E+03  0.24844349607E+03  0.00000000000E+00 0. -1.
          5    1    4    4  502    0 -0.16784172843E+02 -0.14980028259E+03 -0.10255844890E+03  0.18237916154E+03  0.47000000000E+01 0. -1.
         -5    1    4    4    0  502 -0.18279271180E+01  0.13135164656E+02 -0.70093679897E+02  0.71491872473E+02  0.47000000000E+01 0. -1.
<mgrwt>
<rscale>  0 0.10000987E+04</rscale>
<asrwt>0</asrwt>
<pdfrwt beam="1">  1        2 0.15233268E+00 0.10000987E+04</pdfrwt>
<pdfrwt beam="2">  1       -2 0.38851331E-01 0.10000987E+04</pdfrwt>
<totfact> 0.19344169E+02</totfact>
</mgrwt>
</event>
<event>
 9    1  0.4388925E-036  0.9995025E+03  0.7818608E-02  0.8681512E-01
         -2   -1    0    0    0  501 -0.00000000000E+00  0.00000000000E+00  0.68991531790E+02  0.68991531790E+02  0.00000000000E+00 0. -1.
          2   -1    0    0  501    0  0.00000000000E+00 -0.00000000000E+00 -0.36200283593E+04  0.36200283593E+04  0.00000000000E+00 0. -1.
         36    2    1    2    0    0  0.00000000000E+00 -0.21316282073E-13 -0.35510368275E+04  0.36890198911E+04  0.99950247950E+03 0.  0.
         25    2    3    3    0    0 -0.10775557069E+03  0.36833677221E+02 -0.37048978337E+03  0.40722378472E+03  0.12490215557E+03 0.  0.
         35    2    3    3    0    0  0.10775557069E+03 -0.36833677221E+02 -0.31805470441E+04  0.32817961064E+04  0.80083593889E+03 0.  0.
         22    1    5    5    0    0  0.12649324033E+03  0.33970100892E+03 -0.22290813548E+04  0.22583624602E+04  0.00000000000E+00 0.  1.
         22    1    5    5    0    0 -0.18737669642E+02 -0.37653468614E+03 -0.95146568937E+03  0.10234336462E+04  0.00000000000E+00 0.  1.
          5    1    4    4  502    0 -0.13282092543E+03  0.13790898353E+02 -0.27514853388E+03  0.30587643389E+03  0.47000000000E+01 0. -1.
         -5    1    4    4    0  502  0.25065354746E+02  0.23042778868E+02 -0.95341249493E+02  0.10134735084E+03  0.47000000000E+01 0. -1.
<mgrwt>
<rscale>  0 0.99950248E+03</rscale>
<asrwt>0</asrwt>
<pdfrwt beam="1">  1        2 0.55692749E+00 0.99950248E+03</pdfrwt>
<pdfrwt beam="2">  1       -2 0.10614081E-01 0.99950248E+03</pdfrwt>
<totfact> 0.42352066E+01</totfact>
</mgrwt>
</event>
<event>
 9    1  0.4388925E-036  0.1000651E+04  0.7818608E-02  0.8680418E-01
         -1   -1    0    0    0  501 -0.00000000000E+00  0.00000000000E+00  0.45627535830E+03  0.45627535830E+03  0.00000000000E+00 0.  1.
          1   -1    0    0  501    0  0.00000000000E+00 -0.00000000000E+00 -0.54862870151E+03  0.54862870151E+03  0.00000000000E+00 0.  1.
         36    2    1    2    0    0 -0.28421709430E-13 -0.14210854715E-13 -0.92353343215E+02  0.10049040598E+04  0.10006513026E+04 0.  0.
         25    2    3    3    0    0  0.33272177892E+02  0.84517014940E+02  0.93765755104E+02  0.18041588840E+03  0.12452996556E+03 0.  0.
         35    2    3    3    0    0 -0.33272177892E+02 -0.84517014940E+02 -0.18611909832E+03  0.82448817141E+03  0.79805404729E+03 0.  0.
         22    1    5    5    0    0 -0.38316018687E+03  0.84311937830E+02 -0.19014619819E+03  0.43597684383E+03  0.00000000000E+00 0. -1.
         22    1    5    5    0    0  0.34988800898E+03 -0.16882895277E+03  0.40270998727E+01  0.38851132758E+03  0.00000000000E+00 0. -1.
          5    1    4    4  502    0  0.66023823690E+02  0.35903129905E+01  0.33890940774E+02  0.74449456066E+02  0.47000000000E+01 0. -1.
         -5    1    4    4    0  502 -0.32751645798E+02  0.80926701950E+02  0.59874814330E+02  0.10596643234E+03  0.47000000000E+01 0. -1.
<mgrwt>
<rscale>  0 0.10006513E+04</rscale>
<asrwt>0</asrwt>
<pdfrwt beam="1">  1        1 0.84404416E-01 0.10006513E+04</pdfrwt>
<pdfrwt beam="2">  1       -1 0.70196209E-01 0.10006513E+04</pdfrwt>
<totfact> 0.93621263E+01</totfact>
</mgrwt>
</event>
<event>
 9    1  0.4388925E-036  0.1000121E+04  0.7818608E-02  0.8680923E-01
         -2   -1    0    0    0  501 -0.00000000000E+00  0.00000000000E+00  0.42851793069E+03  0.42851793069E+03  0.00000000000E+00 0. -1.
          2   -1    0    0  501    0  0.00000000000E+00 -0.00000000000E+00 -0.58354756325E+03  0.58354756325E+03  0.00000000000E+00 0. -1.
         36    2    1    2    0    0  0.00000000000E+00 -0.28421709430E-13 -0.15502963257E+03  0.10120654939E+04  0.10001211812E+04 0.  0.
         25    2    3    3    0    0  0.10178615634E+02  0.71567589045E+02  0.92394558887E+02  0.17153246398E+03  0.12514434733E+03 0.  0.
         35    2    3    3    0    0 -0.10178615634E+02 -0.71567589045E+02 -0.24742419145E+03  0.84053302996E+03  0.80003219930E+03 0.  0.
         22    1    5    5    0    0  0.17641267554E+03  0.32230483267E+03 -0.11684545447E+03  0.38555764483E+03  0.00000000000E+00 0. -1.
         22    1    5    5    0    0 -0.18659129118E+03 -0.39387242171E+03 -0.13057873698E+03  0.45497538513E+03  0.00000000000E+00 0. -1.
          5    1    4    4  502    0  0.54386833651E+02  0.55198590692E+02  0.96648136727E+02  0.12396678758E+03  0.47000000000E+01 0. -1.
         -5    1    4    4    0  502 -0.44208218017E+02  0.16368998352E+02 -0.42535778403E+01  0.47565676403E+02  0.47000000000E+01 0. -1.
<mgrwt>
<rscale>  0 0.10001212E+04</rscale>
<asrwt>0</asrwt>
<pdfrwt beam="1">  1        2 0.89776548E-01 0.10001212E+04</pdfrwt>
<pdfrwt beam="2">  1       -2 0.65925835E-01 0.10001212E+04</pdfrwt>
<totfact> 0.13140776E+02</totfact>
</mgrwt>
</event>
<event>
 9    1  0.4388925E-036  0.1002637E+04  0.7818608E-02  0.8678531E-01
         -2   -1    0    0    0  501 -0.00000000000E+00  0.00000000000E+00  0.48921699390E+03  0.48921699390E+03  0.00000000000E+00 0. -1.
          2   -1    0    0  501    0  0.00000000000E+00 -0.00000000000E+00 -0.51371902478E+03  0.51371902478E+03  0.00000000000E+00 0. -1.
         36    2    1    2    0    0  0.42632564146E-13  0.00000000000E+00 -0.24502030883E+02  0.10029360187E+04  0.10026366780E+04 0.  0.
         25    2    3    3    0    0  0.35076985252E+02  0.12659430826E+03  0.50255176713E+02  0.18773666643E+03  0.12435014820E+03 0.  0.
         35    2    3    3    0    0 -0.35076985252E+02 -0.12659430826E+03 -0.74757207596E+02  0.81519935225E+03  0.80106481014E+03 0.  0.
         22    1    5    5    0    0  0.32144101811E+03 -0.29167545588E+02  0.17690488393E+03  0.36806305411E+03  0.00000000000E+00 0. -1.
         22    1    5    5    0    0 -0.35651800336E+03 -0.97426762671E+02 -0.25166209153E+03  0.44713629814E+03  0.00000000000E+00 0. -1.
          5    1    4    4  502    0  0.73929154244E+02  0.53455673482E+02  0.51317883785E+02  0.10477902496E+03  0.47000000000E+01 0. -1.
         -5    1    4    4    0  502 -0.38852168992E+02  0.73138634777E+02 -0.10627070718E+01  0.82957641473E+02  0.47000000000E+01 0. -1.
<mgrwt>
<rscale>  0 0.10026367E+04</rscale>
<asrwt>0</asrwt>
<pdfrwt beam="1">  1        2 0.79033696E-01 0.10026367E+04</pdfrwt>
<pdfrwt beam="2">  1       -2 0.75264153E-01 0.10026367E+04</pdfrwt>
<totfact> 0.11418748E+02</totfact>
</mgrwt>
</event>
<event>
 9    1  0.4388925E-036  0.1002290E+04  0.7818608E-02  0.8678861E-01
          1   -1    0    0  501    0  0.00000000000E+00  0.00000000000E+00  0.23470213362E+03  0.23470213362E+03  0.00000000000E+00 0. -1.
         -1   -1    0    0    0  501 -0.00000000000E+00 -0.00000000000E+00 -0.10700630846E+04  0.10700630846E+04  0.00000000000E+00 0. -1.
         36    2    1    2    0    0  0.00000000000E+00  0.00000000000E+00 -0.83536095099E+03  0.13047652182E+04  0.10022895571E+04 0.  0.
         25    2    3    3    0    0 -0.22503482681E+02  0.55468506241E+02  0.14806398735E+02  0.13881487770E+03  0.12436711345E+03 0.  0.
         35    2    3    3    0    0  0.22503482681E+02 -0.55468506241E+02 -0.85016734972E+03  0.11659503405E+04  0.79565853991E+03 0.  0.
         22    1    5    5    0    0 -0.34272952865E+03  0.14693830689E+03 -0.32221617075E+03  0.49282619303E+03  0.00000000000E+00 0. -1.
         22    1    5    5    0    0  0.36523301134E+03 -0.20240681313E+03 -0.52795117898E+03  0.67312414751E+03  0.00000000000E+00 0. -1.
          5    1    4    4  502    0 -0.58286314922E+02  0.25213554263E+02  0.49222152483E+02  0.80485577098E+02  0.47000000000E+01 0. -1.
         -5    1    4    4    0  502  0.35782832240E+02  0.30254951979E+02 -0.34415753748E+02  0.58329300599E+02  0.47000000000E+01 0. -1.
<mgrwt>
<rscale>  0 0.10022896E+04</rscale>
<asrwt>0</asrwt>
<pdfrwt beam="1">  1        1 0.36108021E-01 0.10022896E+04</pdfrwt>
<pdfrwt beam="2">  1       -1 0.16462509E+00 0.10022896E+04</pdfrwt>
<totfact> 0.37302015E+01</totfact>
</mgrwt>
</event>
<event>
 9    1  0.4388925E-036  0.1000841E+04  0.7818608E-02  0.8680238E-01
          1   -1    0    0  501    0  0.00000000000E+00  0.00000000000E+00  0.59054206977E+03  0.59054206977E+03  0.00000000000E+00 0. -1.
         -1   -1    0    0    0  501 -0.00000000000E+00 -0.00000000000E+00 -0.42405185772E+03  0.42405185772E+03  0.00000000000E+00 0. -1.
         36    2    1    2    0    0 -0.14210854715E-13  0.00000000000E+00  0.16649021205E+03  0.10145939275E+04  0.10008405702E+04 0.  0.
         25    2    3    3    0    0 -0.87664572368E+02 -0.10434838162E+03  0.62351347994E+02  0.19536170848E+03  0.12531897122E+03 0.  0.
         35    2    3    3    0    0  0.87664572368E+02  0.10434838162E+03  0.10413886405E+03  0.81923221901E+03  0.80107606609E+03 0.  0.
         22    1    5    5    0    0  0.62014396430E+02  0.40501378773E+03  0.25424089552E+03  0.48220367748E+03  0.00000000000E+00 0. -1.
         22    1    5    5    0    0  0.25650175938E+02 -0.30066540611E+03 -0.15010203147E+03  0.33702854153E+03  0.00000000000E+00 0. -1.
          5    1    4    4  502    0 -0.60665881416E+02 -0.10561946598E+03  0.93669638030E+02  0.15372674409E+03  0.47000000000E+01 0. -1.
         -5    1    4    4    0  502 -0.26998690953E+02  0.12710843545E+01 -0.31318290035E+02  0.41634964385E+02  0.47000000000E+01 0. -1.
<mgrwt>
<rscale>  0 0.10008406E+04</rscale>
<asrwt>0</asrwt>
<pdfrwt beam="1">  1        1 0.90852626E-01 0.10008406E+04</pdfrwt>
<pdfrwt beam="2">  1       -1 0.65238748E-01 0.10008406E+04</pdfrwt>
<totfact> 0.97280209E+01</totfact>
</mgrwt>
</event>
<event>
 9    1  0.4388925E-036  0.1004295E+04  0.7818608E-02  0.8676959E-01
         -2   -1    0    0    0  501 -0.00000000000E+00  0.00000000000E+00  0.13063053921E+03  0.13063053921E+03  0.00000000000E+00 0. -1.
          2   -1    0    0  501    0  0.00000000000E+00 -0.00000000000E+00 -0.19302690486E+04  0.19302690486E+04  0.00000000000E+00 0. -1.
         36    2    1    2    0    0  0.00000000000E+00  0.00000000000E+00 -0.17996385094E+04  0.20608995878E+04  0.10042949500E+04 0.  0.
         25    2    3    3    0    0 -0.62485648925E+02  0.83592815554E+02 -0.54587479335E+03  0.56961057729E+03  0.12483871440E+03 0.  0.
         35    2    3    3    0    0  0.62485648925E+02 -0.83592815554E+02 -0.12537637160E+04  0.14912890105E+04  0.80070421636E+03 0.  0.
         22    1    5    5    0    0 -0.30364750749E+03 -0.38557843356E+02 -0.99414262986E+03  0.10401961760E+04  0.00000000000E+00 0. -1.
         22    1    5    5    0    0  0.36613315641E+03 -0.45034972197E+02 -0.25962108615E+03  0.45109283448E+03  0.00000000000E+00 0. -1.
          5    1    4    4  502    0 -0.81387270135E+02  0.48352905144E+02 -0.19914696481E+03  0.22055270293E+03  0.47000000000E+01 0.  1.
         -5    1    4    4    0  502  0.18901621210E+02  0.35239910409E+02 -0.34672782854E+03  0.34905787437E+03  0.47000000000E+01 0.  1.
<mgrwt>
<rscale>  0 0.10042949E+04</rscale>
<asrwt>0</asrwt>
<pdfrwt beam="1">  1        2 0.29696448E+00 0.10042949E+04</pdfrwt>
<pdfrwt beam="2">  1       -2 0.20097005E-01 0.10042949E+04</pdfrwt>
<totfact> 0.18211358E+02</totfact>
</mgrwt>
</event>
<event>
 9    1  0.4388925E-036  0.1002858E+04  0.7818608E-02  0.8678322E-01
         -2   -1    0    0    0  501 -0.00000000000E+00  0.00000000000E+00  0.10602909830E+03  0.10602909830E+03  0.00000000000E+00 0. -1.
          2   -1    0    0  501    0  0.00000000000E+00 -0.00000000000E+00 -0.23713376409E+04  0.23713376409E+04  0.00000000000E+00 0. -1.
         36    2    1    2    0    0  0.14210854715E-13  0.28421709430E-13 -0.22653085426E+04  0.24773667392E+04  0.10028575010E+04 0.  0.
         25    2    3    3    0    0  0.95136484424E+02 -0.11256287148E+03 -0.32510350837E+03  0.37631080409E+03  0.11914772100E+03 0.  0.
         35    2    3    3    0    0 -0.95136484424E+02  0.11256287148E+03 -0.19402050342E+04  0.21010559351E+04  0.79266582924E+03 0.  0.
         22    1    5    5    0    0  0.32386263020E+03  0.60646663890E+01 -0.12086811471E+04  0.12513328489E+04  0.00000000000E+00 0. -1.
         22    1    5    5    0    0 -0.41899911463E+03  0.10649820509E+03 -0.73152388712E+03  0.84972308617E+03  0.00000000000E+00 0. -1.
          5    1    4    4  502    0  0.64912062076E+02  0.21422514579E+01 -0.16184747309E+03  0.17445589583E+03  0.47000000000E+01 0.  1.
         -5    1    4    4    0  502  0.30224422347E+02 -0.11470512294E+03 -0.16325603528E+03  0.20185490826E+03  0.47000000000E+01 0.  1.
<mgrwt>
<rscale>  0 0.10028575E+04</rscale>
<asrwt>0</asrwt>
<pdfrwt beam="1">  1        2 0.36482118E+00 0.10028575E+04</pdfrwt>
<pdfrwt beam="2">  1       -2 0.16312169E-01 0.10028575E+04</pdfrwt>
<totfact> 0.14451882E+02</totfact>
</mgrwt>
</event>
<event>
 9    1  0.4388925E-036  0.9993343E+03  0.7818608E-02  0.8681672E-01
          2   -1    0    0  501    0  0.00000000000E+00  0.00000000000E+00  0.81462104743E+03  0.81462104743E+03  0.00000000000E+00 0. -1.
         -2   -1    0    0    0  501 -0.00000000000E+00 -0.00000000000E+00 -0.30648267920E+03  0.30648267920E+03  0.00000000000E+00 0. -1.
         36    2    1    2    0    0 -0.53290705182E-14  0.00000000000E+00  0.50813836823E+03  0.11211037266E+04  0.99933426070E+03 0.  0.
         25    2    3    3    0    0  0.11089519969E+02  0.14113395607E+03  0.92729631348E+02  0.21038198156E+03  0.12498008892E+03 0.  0.
         35    2    3    3    0    0 -0.11089519969E+02 -0.14113395607E+03  0.41540873688E+03  0.91072174507E+03  0.79800244815E+03 0.  0.
         22    1    5    5    0    0  0.44733615672E+02 -0.46023115979E+03  0.13348953790E+03  0.48128294541E+03  0.00000000000E+00 0. -1.
         22    1    5    5    0    0 -0.55823135642E+02  0.31909720372E+03  0.28191919898E+03  0.42943879966E+03  0.00000000000E+00 0. -1.
          5    1    4    4  502    0 -0.55252812859E+01  0.31591679629E+02 -0.30565836155E+02  0.44552477989E+02  0.47000000000E+01 0.  1.
         -5    1    4    4    0  502  0.16614801255E+02  0.10954227644E+03  0.12329546750E+03  0.16582950357E+03  0.47000000000E+01 0.  1.
<mgrwt>
<rscale>  0 0.99933426E+03</rscale>
<asrwt>0</asrwt>
<pdfrwt beam="1">  1        2 0.12532631E+00 0.99933426E+03</pdfrwt>
<pdfrwt beam="2">  1       -2 0.47151182E-01 0.99933426E+03</pdfrwt>
<totfact> 0.17346840E+02</totfact>
</mgrwt>
</event>
<event>
 9    1  0.4388925E-036  0.1001236E+04  0.7818608E-02  0.8679862E-01
         -2   -1    0    0    0  501 -0.00000000000E+00  0.00000000000E+00  0.17616954900E+03  0.17616954900E+03  0.00000000000E+00 0. -1.
          2   -1    0    0  501    0  0.00000000000E+00 -0.00000000000E+00 -0.14225974574E+04  0.14225974574E+04  0.00000000000E+00 0. -1.
         36    2    1    2    0    0  0.28421709430E-13  0.00000000000E+00 -0.12464279084E+04  0.15987670064E+04  0.10012359412E+04 0.  0.
         25    2    3    3    0    0  0.13624704389E+03  0.25336046226E+01 -0.30439596999E+03  0.35566142435E+03  0.12356563480E+03 0.  0.
         35    2    3    3    0    0 -0.13624704389E+03 -0.25336046226E+01 -0.94203193844E+03  0.12431055821E+04  0.79957341066E+03 0.  0.
         22    1    5    5    0    0 -0.38375107006E+03 -0.12969844762E+03 -0.86378908358E+03  0.95405353728E+03  0.00000000000E+00 0.  1.
         22    1    5    5    0    0  0.24750402617E+03  0.12716484300E+03 -0.78242854855E+02  0.28905204480E+03  0.00000000000E+00 0.  1.
          5    1    4    4  502    0  0.10801471136E+03 -0.19236834144E+02 -0.29995922807E+03  0.31942896262E+03  0.47000000000E+01 0.  1.
         -5    1    4    4    0  502  0.28232332528E+02  0.21770438767E+02 -0.44367419224E+01  0.36232461729E+02  0.47000000000E+01 0.  1.
<mgrwt>
<rscale>  0 0.10012359E+04</rscale>
<asrwt>0</asrwt>
<pdfrwt beam="1">  1        2 0.21886115E+00 0.10012359E+04</pdfrwt>
<pdfrwt beam="2">  1       -2 0.27103008E-01 0.10012359E+04</pdfrwt>
<totfact> 0.20821625E+02</totfact>
</mgrwt>
</event>
<event>
 9    1  0.4388925E-036  0.1000002E+04  0.7818608E-02  0.8681036E-01
          2   -1    0    0  501    0  0.00000000000E+00  0.00000000000E+00  0.26920459912E+03  0.26920459912E+03  0.00000000000E+00 0.  1.
         -2   -1    0    0    0  501 -0.00000000000E+00 -0.00000000000E+00 -0.92866545955E+03  0.92866545955E+03  0.00000000000E+00 0.  1.
         36    2    1    2    0    0 -0.14210854715E-13  0.71054273576E-14 -0.65946086043E+03  0.11978700587E+04  0.10000020255E+04 0.  0.
         25    2    3    3    0    0 -0.86548033687E+02  0.22397360239E+02  0.12944084210E+02  0.15428489557E+03  0.12507627995E+03 0.  0.
         35    2    3    3    0    0  0.86548033687E+02 -0.22397360239E+02 -0.67240494464E+03  0.10435851631E+04  0.79306328826E+03 0.  0.
         22    1    5    5    0    0 -0.32348807390E+03 -0.14350599982E+03 -0.20025194809E+03  0.40661941499E+03  0.00000000000E+00 0. -1.
         22    1    5    5    0    0  0.41003610758E+03  0.12110863958E+03 -0.47215299656E+03  0.63696574811E+03  0.00000000000E+00 0. -1.
          5    1    4    4  502    0 -0.17655264286E+02 -0.41034409294E+02 -0.26953641826E+02  0.52384347956E+02  0.47000000000E+01 0.  1.
         -5    1    4    4    0  502 -0.68892769401E+02  0.63431769533E+02  0.39897726036E+02  0.10190054762E+03  0.47000000000E+01 0.  1.
<mgrwt>
<rscale>  0 0.10000020E+04</rscale>
<asrwt>0</asrwt>
<pdfrwt beam="1">  1        2 0.41416093E-01 0.10000020E+04</pdfrwt>
<pdfrwt beam="2">  1       -2 0.14287161E+00 0.10000020E+04</pdfrwt>
<totfact> 0.48099475E+01</totfact>
</mgrwt>
</event>
<event>
 9    1  0.4388925E-036  0.9999123E+03  0.7818608E-02  0.8681121E-01
          2   -1    0    0  501    0  0.00000000000E+00  0.00000000000E+00  0.13475597338E+04  0.13475597338E+04  0.00000000000E+00 0. -1.
         -2   -1    0    0    0  501 -0.00000000000E+00 -0.00000000000E+00 -0.18548799467E+03  0.18548799467E+03  0.00000000000E+00 0. -1.
         36    2    1    2    0    0  0.00000000000E+00  0.14210854715E-13  0.11620717392E+04  0.15330477285E+04  0.99991230161E+03 0.  0.
         25    2    3    3    0    0  0.30640384683E+02  0.80129893086E+02  0.48175368899E+02  0.15935619650E+03  0.12535508866E+03 0.  0.
         35    2    3    3    0    0 -0.30640384683E+02 -0.80129893086E+02  0.11138963703E+04  0.13736915320E+04  0.79931449911E+03 0.  0.
         22    1    5    5    0    0 -0.88069489008E+02  0.10733038643E+03  0.11632573930E+04  0.11715134694E+04  0.00000000000E+00 0. -1.
         22    1    5    5    0    0  0.57429104324E+02 -0.18746027951E+03 -0.49361022723E+02  0.20217806257E+03  0.00000000000E+00 0. -1.
          5    1    4    4  502    0  0.45391290596E+02  0.43724212295E+02 -0.31339379688E+02  0.70543764586E+02  0.47000000000E+01 0. -1.
         -5    1    4    4    0  502 -0.14750905913E+02  0.36405680791E+02  0.79514748586E+02  0.88812431910E+02  0.47000000000E+01 0. -1.
<mgrwt>
<rscale>  0 0.99991230E+03</rscale>
<asrwt>0</asrwt>
<pdfrwt beam="1">  1        2 0.20731688E+00 0.99991230E+03</pdfrwt>
<pdfrwt beam="2">  1       -2 0.28536615E-01 0.99991230E+03</pdfrwt>
<totfact> 0.20947636E+02</totfact>
</mgrwt>
</event>
<event>
 9    1  0.4388925E-036  0.9995114E+03  0.7818608E-02  0.8681503E-01
         -2   -1    0    0    0  501 -0.00000000000E+00  0.00000000000E+00  0.35021599721E+03  0.35021599721E+03  0.00000000000E+00 0.  1.
          2   -1    0    0  501    0  0.00000000000E+00 -0.00000000000E+00 -0.71314771956E+03  0.71314771956E+03  0.00000000000E+00 0.  1.
         36    2    1    2    0    0 -0.71054273576E-14  0.28421709430E-13 -0.36293172235E+03  0.10633637168E+04  0.99951136015E+03 0.  0.
         25    2    3    3    0    0  0.46628503318E+02  0.10918805942E+03  0.10213050364E+02  0.17271578549E+03  0.12502074436E+03 0.  0.
         35    2    3    3    0    0 -0.46628503318E+02 -0.10918805942E+03 -0.37314477272E+03  0.89064793128E+03  0.79995028999E+03 0.  0.
         22    1    5    5    0    0 -0.17079973503E+03  0.16782713907E+03 -0.50560036930E+03  0.55943742414E+03  0.00000000000E+00 0.  1.
         22    1    5    5    0    0  0.12417123171E+03 -0.27701519848E+03  0.13245559658E+03  0.33121050714E+03  0.00000000000E+00 0.  1.
          5    1    4    4  502    0  0.60503851005E+02  0.41057216359E+02 -0.43070357426E+02  0.84991509519E+02  0.47000000000E+01 0.  1.
         -5    1    4    4    0  502 -0.13875347687E+02  0.68130843057E+02  0.53283407790E+02  0.87724275972E+02  0.47000000000E+01 0.  1.
<mgrwt>
<rscale>  0 0.99951136E+03</rscale>
<asrwt>0</asrwt>
<pdfrwt beam="1">  1        2 0.10971503E+00 0.99951136E+03</pdfrwt>
<pdfrwt beam="2">  1       -2 0.53879385E-01 0.99951136E+03</pdfrwt>
<totfact> 0.15714060E+02</totfact>
</mgrwt>
</event>
<event>
 9    1  0.4388925E-036  0.9990691E+03  0.7818608E-02  0.8681925E-01
         -2   -1    0    0    0  501 -0.00000000000E+00  0.00000000000E+00  0.94343645248E+02  0.94343645248E+02  0.00000000000E+00 0. -1.
          2   -1    0    0  501    0  0.00000000000E+00 -0.00000000000E+00 -0.26449556177E+04  0.26449556177E+04  0.00000000000E+00 0. -1.
         36    2    1    2    0    0  0.21316282073E-13 -0.71054273576E-14 -0.25506119725E+04  0.27392992629E+04  0.99906907568E+03 0.  0.
         25    2    3    3    0    0 -0.18472781355E+01  0.23168336097E+02 -0.10248875734E+03  0.16363815786E+03  0.12543252008E+03 0.  0.
         35    2    3    3    0    0  0.18472781355E+01 -0.23168336097E+02 -0.24481232151E+04  0.25756611051E+04  0.80011415913E+03 0.  0.
         22    1    5    5    0    0  0.38484961701E+03  0.61958798015E+02 -0.94647752939E+03  0.10236053116E+04  0.00000000000E+00 0.  1.
         22    1    5    5    0    0 -0.38300233887E+03 -0.85127134112E+02 -0.15016456857E+04  0.15520557935E+04  0.00000000000E+00 0.  1.
          5    1    4    4  502    0  0.24439384112E+02 -0.58789003464E+01  0.21570969637E+02  0.33455069812E+02  0.47000000000E+01 0.  1.
         -5    1    4    4    0  502 -0.26286662248E+02  0.29047236443E+02 -0.12405972698E+03  0.13018308805E+03  0.47000000000E+01 0.  1.
<mgrwt>
<rscale>  0 0.99906908E+03</rscale>
<asrwt>0</asrwt>
<pdfrwt beam="1">  1        2 0.40691622E+00 0.99906908E+03</pdfrwt>
<pdfrwt beam="2">  1       -2 0.14514408E-01 0.99906908E+03</pdfrwt>
<totfact> 0.11979242E+02</totfact>
</mgrwt>
</event>
<event>
 9    1  0.4388925E-036  0.9957338E+03  0.7818608E-02  0.8685111E-01
         -2   -1    0    0    0  501 -0.00000000000E+00  0.00000000000E+00  0.30326260257E+03  0.30326260257E+03  0.00000000000E+00 0. -1.
          2   -1    0    0  501    0  0.00000000000E+00 -0.00000000000E+00 -0.81734920457E+03  0.81734920457E+03  0.00000000000E+00 0. -1.
         36    2    1    2    0    0  0.00000000000E+00  0.35527136788E-14 -0.51408660200E+03  0.11206118071E+04  0.99573379371E+03 0.  0.
         25    2    3    3    0    0  0.37268208647E+02  0.61914740683E+00 -0.24182908086E+03  0.27471351461E+03  0.12488758162E+03 0.  0.
         35    2    3    3    0    0 -0.37268208647E+02 -0.61914740683E+00 -0.27225752115E+03  0.84589829253E+03  0.80001903775E+03 0.  0.
         22    1    5    5    0    0  0.12250832126E+03 -0.23266024939E+03  0.17603485513E+03  0.31642906099E+03  0.00000000000E+00 0. -1.
         22    1    5    5    0    0 -0.15977652990E+03  0.23204110198E+03 -0.44829237627E+03  0.52946923153E+03  0.00000000000E+00 0. -1.
          5    1    4    4  502    0 -0.11178788642E+02 -0.22010201634E+02  0.18449068979E+01  0.25197380279E+02  0.47000000000E+01 0. -1.
         -5    1    4    4    0  502  0.48446997289E+02  0.22629349041E+02 -0.24367398776E+03  0.24951613433E+03  0.47000000000E+01 0. -1.
<mgrwt>
<rscale>  0 0.99573379E+03</rscale>
<asrwt>0</asrwt>
<pdfrwt beam="1">  1        2 0.12574603E+00 0.99573379E+03</pdfrwt>
<pdfrwt beam="2">  1       -2 0.46655785E-01 0.99573379E+03</pdfrwt>
<totfact> 0.17636628E+02</totfact>
</mgrwt>
</event>
<event>
 9    1  0.4388925E-036  0.1003703E+04  0.7818608E-02  0.8677520E-01
          2   -1    0    0  501    0  0.00000000000E+00  0.00000000000E+00  0.67714171738E+03  0.67714171738E+03  0.00000000000E+00 0. -1.
         -2   -1    0    0    0  501 -0.00000000000E+00 -0.00000000000E+00 -0.37193794504E+03  0.37193794504E+03  0.00000000000E+00 0. -1.
         36    2    1    2    0    0 -0.14210854715E-13  0.71054273576E-14  0.30520377234E+03  0.10490796624E+04  0.10037025433E+04 0.  0.
         25    2    3    3    0    0  0.84542776591E+02  0.36282930065E+02 -0.60882752756E+02  0.16534848303E+03  0.12316443955E+03 0.  0.
         35    2    3    3    0    0 -0.84542776591E+02 -0.36282930065E+02  0.36608652509E+03  0.88373117940E+03  0.79906039915E+03 0.  0.
         22    1    5    5    0    0  0.72261158838E+02 -0.39055101200E+03  0.87923668526E+02  0.40679520590E+03  0.00000000000E+00 0. -1.
         22    1    5    5    0    0 -0.15680393543E+03  0.35426808194E+03  0.27816285657E+03  0.47693597350E+03  0.00000000000E+00 0. -1.
          5    1    4    4  502    0  0.74586093757E+01 -0.19241266708E+02 -0.66776537442E+02  0.70050361535E+02  0.47000000000E+01 0.  1.
         -5    1    4    4    0  502  0.77084167216E+02  0.55524196773E+02  0.58937846866E+01  0.95298121496E+02  0.47000000000E+01 0.  1.
<mgrwt>
<rscale>  0 0.10037025E+04</rscale>
<asrwt>0</asrwt>
<pdfrwt beam="1">  1        2 0.10417565E+00 0.10037025E+04</pdfrwt>
<pdfrwt beam="2">  1       -2 0.57221223E-01 0.10037025E+04</pdfrwt>
<totfact> 0.14799564E+02</totfact>
</mgrwt>
</event>
<event>
 9    1  0.4388925E-036  0.9996115E+03  0.7818608E-02  0.8681408E-01
         -1   -1    0    0    0  501 -0.00000000000E+00  0.00000000000E+00  0.23476851648E+03  0.23476851648E+03  0.00000000000E+00 0.  1.
          1   -1    0    0  501    0  0.00000000000E+00 -0.00000000000E+00 -0.10640514094E+04  0.10640514094E+04  0.00000000000E+00 0.  1.
         36    2    1    2    0    0  0.00000000000E+00  0.00000000000E+00 -0.82928289289E+03  0.12988199259E+04  0.99961146620E+03 0.  0.
         25    2    3    3    0    0 -0.65410574296E+02 -0.96816781221E+02 -0.55596961890E+02  0.18041555739E+03  0.12572477409E+03 0.  0.
         35    2    3    3    0    0  0.65410574296E+02  0.96816781221E+02 -0.77368593100E+03  0.11184043685E+04  0.79911599860E+03 0.  0.
         22    1    5    5    0    0  0.90281133656E+02  0.32704753680E+03 -0.31277219127E+02  0.34071841578E+03  0.00000000000E+00 0. -1.
         22    1    5    5    0    0 -0.24870559360E+02 -0.23023075557E+03 -0.74240871187E+03  0.77768595268E+03  0.00000000000E+00 0. -1.
          5    1    4    4  502    0 -0.45826513384E+02 -0.96381060319E+02 -0.90572758644E+02  0.14005317821E+03  0.47000000000E+01 0. -1.
         -5    1    4    4    0  502 -0.19584060912E+02 -0.43572090273E+00  0.34975796755E+02  0.40362379181E+02  0.47000000000E+01 0. -1.
<mgrwt>
<rscale>  0 0.99961147E+03</rscale>
<asrwt>0</asrwt>
<pdfrwt beam="1">  1        1 0.16370022E+00 0.99961147E+03</pdfrwt>
<pdfrwt beam="2">  1       -1 0.36118233E-01 0.99961147E+03</pdfrwt>
<totfact> 0.11026125E+02</totfact>
</mgrwt>
</event>
<event>
 9    1  0.4388925E-036  0.1000299E+04  0.7818608E-02  0.8680753E-01
          1   -1    0    0  501    0  0.00000000000E+00  0.00000000000E+00  0.23102546095E+04  0.23102546095E+04  0.00000000000E+00 0. -1.
         -1   -1    0    0    0  501 -0.00000000000E+00 -0.00000000000E+00 -0.10827800667E+03  0.10827800667E+03  0.00000000000E+00 0. -1.
         36    2    1    2    0    0  0.00000000000E+00  0.71054273576E-14  0.22019766028E+04  0.24185326162E+04  0.10002994832E+04 0.  0.
         25    2    3    3    0    0  0.12241025234E+03  0.30509382038E+02  0.55306942222E+03  0.58133149816E+03  0.12706467912E+03 0.  0.
         35    2    3    3    0    0 -0.12241025234E+03 -0.30509382038E+02  0.16489071806E+04  0.18372011180E+04  0.80031116792E+03 0.  0.
         22    1    5    5    0    0  0.15575147975E+03 -0.33761196089E+03  0.10042332282E+04  0.10708523410E+04  0.00000000000E+00 0.  1.
         22    1    5    5    0    0 -0.27816173209E+03  0.30710257885E+03  0.64467395244E+03  0.76634877706E+03  0.00000000000E+00 0.  1.
          5    1    4    4  502    0  0.66379196383E+02  0.33786914566E+02  0.10002404702E+03  0.12479845067E+03  0.47000000000E+01 0.  1.
         -5    1    4    4    0  502  0.56031055958E+02 -0.32775325280E+01  0.45304537520E+03  0.45653304748E+03  0.47000000000E+01 0.  1.
<mgrwt>
<rscale>  0 0.10002995E+04</rscale>
<asrwt>0</asrwt>
<pdfrwt beam="1">  1        1 0.35542375E+00 0.10002995E+04</pdfrwt>
<pdfrwt beam="2">  1       -1 0.16658157E-01 0.10002995E+04</pdfrwt>
<totfact> 0.52068797E+01</totfact>
</mgrwt>
</event>
<event>
 9    1  0.4388925E-036  0.9998007E+03  0.7818608E-02  0.8681228E-01
         -2   -1    0    0    0  501 -0.00000000000E+00  0.00000000000E+00  0.73147145430E+02  0.73147145430E+02  0.00000000000E+00 0.  1.
          2   -1    0    0  501    0  0.00000000000E+00 -0.00000000000E+00 -0.34164058714E+04  0.34164058714E+04  0.00000000000E+00 0.  1.
         36    2    1    2    0    0  0.00000000000E+00 -0.56843418861E-13 -0.33432587260E+04  0.34895530168E+04  0.99980065438E+03 0.  0.
         25    2    3    3    0    0 -0.57274485002E+02  0.82347498304E+02 -0.28490496565E+03  0.32688173171E+03  0.12497739781E+03 0.  0.
         35    2    3    3    0    0  0.57274485002E+02 -0.82347498304E+02 -0.30583537603E+04  0.31626712851E+04  0.79931249044E+03 0.  0.
         22    1    5    5    0    0  0.23245484672E+03 -0.38125329325E+03 -0.14398032396E+04  0.15074557036E+04  0.00000000000E+00 0. -1.
         22    1    5    5    0    0 -0.17518036172E+03  0.29890579495E+03 -0.16185505207E+04  0.16552155816E+04  0.00000000000E+00 0. -1.
          5    1    4    4  502    0 -0.56875474735E+02  0.48520381264E+02 -0.51292540160E+02  0.90785801204E+02  0.47000000000E+01 0.  1.
         -5    1    4    4    0  502 -0.39901026754E+00  0.33827117040E+02 -0.23361242549E+03  0.23609593050E+03  0.47000000000E+01 0.  1.
<mgrwt>
<rscale>  0 0.99980065E+03</rscale>
<asrwt>0</asrwt>
<pdfrwt beam="1">  1        2 0.52560083E+00 0.99980065E+03</pdfrwt>
<pdfrwt beam="2">  1       -2 0.11253409E-01 0.99980065E+03</pdfrwt>
<totfact> 0.54972394E+01</totfact>
</mgrwt>
</event>
<event>
 9    1  0.4388925E-036  0.1000684E+04  0.7818608E-02  0.8680387E-01
         -2   -1    0    0    0  501 -0.00000000000E+00  0.00000000000E+00  0.31876871138E+03  0.31876871138E+03  0.00000000000E+00 0.  1.
          2   -1    0    0  501    0  0.00000000000E+00 -0.00000000000E+00 -0.78534063376E+03  0.78534063376E+03  0.00000000000E+00 0.  1.
         36    2    1    2    0    0  0.00000000000E+00 -0.71054273576E-14 -0.46657192237E+03  0.11041093451E+04  0.10006838098E+04 0.  0.
         25    2    3    3    0    0  0.74397294214E+02  0.33056563043E+02 -0.21570240521E+03  0.26217193754E+03  0.12481547771E+03 0.  0.
         35    2    3    3    0    0 -0.74397294214E+02 -0.33056563043E+02 -0.25086951717E+03  0.84193740760E+03  0.79955949742E+03 0.  0.
         22    1    5    5    0    0 -0.38026368535E+02 -0.82682551487E+02  0.28673110908E+03  0.30082742219E+03  0.00000000000E+00 0.  1.
         22    1    5    5    0    0 -0.36370925679E+02  0.49625988444E+02 -0.53760062625E+03  0.54110998541E+03  0.00000000000E+00 0.  1.
          5    1    4    4  502    0 -0.12712268679E+02  0.56973435326E+02 -0.84689902359E+02  0.10296622587E+03  0.47000000000E+01 0. -1.
         -5    1    4    4    0  502  0.87109562893E+02 -0.23916872282E+02 -0.13101250285E+03  0.15920571167E+03  0.47000000000E+01 0. -1.
<mgrwt>
<rscale>  0 0.10006838E+04</rscale>
<asrwt>0</asrwt>
<pdfrwt beam="1">  1        2 0.12082164E+00 0.10006838E+04</pdfrwt>
<pdfrwt beam="2">  1       -2 0.49041341E-01 0.10006838E+04</pdfrwt>
<totfact> 0.16821538E+02</totfact>
</mgrwt>
</event>
<event>
 9    1  0.4388925E-036  0.9998264E+03  0.7818608E-02  0.8681203E-01
         -2   -1    0    0    0  501 -0.00000000000E+00  0.00000000000E+00  0.27607551484E+03  0.27607551484E+03  0.00000000000E+00 0. -1.
          2   -1    0    0  501    0  0.00000000000E+00 -0.00000000000E+00 -0.90523503216E+03  0.90523503216E+03  0.00000000000E+00 0. -1.
         36    2    1    2    0    0 -0.14210854715E-13  0.00000000000E+00 -0.62915951732E+03  0.11813105470E+04  0.99982644004E+03 0.  0.
         25    2    3    3    0    0  0.63039987034E+02 -0.10701613652E+03 -0.18896264914E+03  0.25515279459E+03  0.11819294553E+03 0.  0.
         35    2    3    3    0    0 -0.63039987034E+02  0.10701613652E+03 -0.44019686818E+03  0.92615775241E+03  0.80533744862E+03 0.  0.
         22    1    5    5    0    0 -0.39294399210E+03  0.12641621885E+03 -0.42922766445E+03  0.59550182976E+03  0.00000000000E+00 0.  1.
         22    1    5    5    0    0  0.32990400507E+03 -0.19400082331E+02 -0.10969203733E+02  0.33065592265E+03  0.00000000000E+00 0.  1.
          5    1    4    4  502    0  0.13641291820E+01 -0.10319862668E+03 -0.14934916107E+03  0.18160142981E+03  0.47000000000E+01 0.  1.
         -5    1    4    4    0  502  0.61675857852E+02 -0.38175098415E+01 -0.39613488068E+02  0.73551364774E+02  0.47000000000E+01 0.  1.
<mgrwt>
<rscale>  0 0.99982644E+03</rscale>
<asrwt>0</asrwt>
<pdfrwt beam="1">  1        2 0.13926693E+00 0.99982644E+03</pdfrwt>
<pdfrwt beam="2">  1       -2 0.42473156E-01 0.99982644E+03</pdfrwt>
<totfact> 0.18487080E+02</totfact>
</mgrwt>
</event>
<event>
 9    1  0.4388925E-036  0.9998848E+03  0.7818608E-02  0.8681148E-01
         -1   -1    0    0    0  501 -0.00000000000E+00  0.00000000000E+00  0.15339653889E+03  0.15339653889E+03  0.00000000000E+00 0.  1.
          1   -1    0    0  501    0  0.00000000000E+00 -0.00000000000E+00 -0.16293876577E+04  0.16293876577E+04  0.00000000000E+00 0.  1.
         36    2    1    2    0    0 -0.28421709430E-13  0.71054273576E-14 -0.14759911188E+04  0.17827841966E+04  0.99988484776E+03 0.  0.
         25    2    3    3    0    0  0.29961149766E+02 -0.63054947611E+02 -0.49615142064E+03  0.51643184705E+03  0.12514800651E+03 0.  0.
         35    2    3    3    0    0 -0.29961149766E+02  0.63054947611E+02 -0.97983969815E+03  0.12663523495E+04  0.79918010619E+03 0.  0.
         22    1    5    5    0    0 -0.40878854976E+03  0.91148285935E+02 -0.45435470012E+03  0.61794359125E+03  0.00000000000E+00 0.  1.
         22    1    5    5    0    0  0.37882739999E+03 -0.28093338324E+02 -0.52548499803E+03  0.64840875827E+03  0.00000000000E+00 0.  1.
          5    1    4    4  502    0 -0.29384027167E+02  0.75650060850E+01 -0.27582123979E+03  0.27752494786E+03  0.47000000000E+01 0. -1.
         -5    1    4    4    0  502  0.59345176933E+02 -0.70619953696E+02 -0.22033018085E+03  0.23890689919E+03  0.47000000000E+01 0. -1.
<mgrwt>
<rscale>  0 0.99988485E+03</rscale>
<asrwt>0</asrwt>
<pdfrwt beam="1">  1        1 0.25067501E+00 0.99988485E+03</pdfrwt>
<pdfrwt beam="2">  1       -1 0.23599469E-01 0.99988485E+03</pdfrwt>
<totfact> 0.88122157E+01</totfact>
</mgrwt>
</event>
<event>
 9    1  0.4388925E-036  0.1001021E+04  0.7818608E-02  0.8680066E-01
         -1   -1    0    0    0  501 -0.00000000000E+00  0.00000000000E+00  0.91054848127E+03  0.91054848127E+03  0.00000000000E+00 0.  1.
          1   -1    0    0  501    0  0.00000000000E+00 -0.00000000000E+00 -0.27512080007E+03  0.27512080007E+03  0.00000000000E+00 0.  1.
         36    2    1    2    0    0  0.71054273576E-14  0.00000000000E+00  0.63542768120E+03  0.11856692813E+04  0.10010211320E+04 0.  0.
         25    2    3    3    0    0  0.47371479026E+02 -0.44909198896E+02 -0.28874316356E+02  0.14380650846E+03  0.12484267123E+03 0.  0.
         35    2    3    3    0    0 -0.47371479026E+02  0.44909198896E+02  0.66430199755E+03  0.10418627729E+04  0.79994999868E+03 0.  0.
         22    1    5    5    0    0  0.26736332744E+03  0.20799703558E+03  0.58901924153E+03  0.67947743345E+03  0.00000000000E+00 0.  1.
         22    1    5    5    0    0 -0.31473480647E+03 -0.16308783669E+03  0.75282756017E+02  0.36238533943E+03  0.00000000000E+00 0.  1.
          5    1    4    4  502    0 -0.10120766613E+02  0.14021018985E+02  0.35118400379E+02  0.39426018508E+02  0.47000000000E+01 0. -1.
         -5    1    4    4    0  502  0.57492245639E+02 -0.58930217881E+02 -0.63992716734E+02  0.10438048995E+03  0.47000000000E+01 0. -1.
<mgrwt>
<rscale>  0 0.10010211E+04</rscale>
<asrwt>0</asrwt>
<pdfrwt beam="1">  1        1 0.42326277E-01 0.10010211E+04</pdfrwt>
<pdfrwt beam="2">  1       -1 0.14008438E+00 0.10010211E+04</pdfrwt>
<totfact> 0.48803142E+01</totfact>
</mgrwt>
</event>
<event>
 9    1  0.4388925E-036  0.1000433E+04  0.7818608E-02  0.8680626E-01
          2   -1    0    0  501    0  0.00000000000E+00  0.00000000000E+00  0.90110631841E+03  0.90110631841E+03  0.00000000000E+00 0. -1.
         -2   -1    0    0    0  501 -0.00000000000E+00 -0.00000000000E+00 -0.27767710116E+03  0.27767710116E+03  0.00000000000E+00 0. -1.
         36    2    1    2    0    0 -0.14210854715E-13  0.71054273576E-14  0.62342921725E+03  0.11787834196E+04  0.10004330869E+04 0.  0.
         25    2    3    3    0    0  0.34311252374E+02  0.31883036931E+02  0.27308047819E+03  0.30412082193E+03  0.12539033726E+03 0.  0.
         35    2    3    3    0    0 -0.34311252374E+02 -0.31883036931E+02  0.35034873906E+03  0.87466259765E+03  0.80006039189E+03 0.  0.
         22    1    5    5    0    0 -0.40650104676E+03 -0.90896308059E+02  0.12200563700E+03  0.43403987754E+03  0.00000000000E+00 0. -1.
         22    1    5    5    0    0  0.37218979439E+03  0.59013271128E+02  0.22834310206E+03  0.44062272011E+03  0.00000000000E+00 0. -1.
          5    1    4    4  502    0  0.19509190518E+02 -0.47196973596E+02  0.13248922597E+03  0.14206916566E+03  0.47000000000E+01 0.  1.
         -5    1    4    4    0  502  0.14802061856E+02  0.79080010526E+02  0.14059125222E+03  0.16205165627E+03  0.47000000000E+01 0.  1.
<mgrwt>
<rscale>  0 0.10004331E+04</rscale>
<asrwt>0</asrwt>
<pdfrwt beam="1">  1        2 0.13863174E+00 0.10004331E+04</pdfrwt>
<pdfrwt beam="2">  1       -2 0.42719555E-01 0.10004331E+04</pdfrwt>
<totfact> 0.18395571E+02</totfact>
</mgrwt>
</event>
<event>
 9    1  0.4388925E-036  0.9978197E+03  0.7818608E-02  0.8683117E-01
          2   -1    0    0  501    0  0.00000000000E+00  0.00000000000E+00  0.19602008252E+04  0.19602008252E+04  0.00000000000E+00 0.  1.
         -2   -1    0    0    0  501 -0.00000000000E+00 -0.00000000000E+00 -0.12698241085E+03  0.12698241085E+03  0.00000000000E+00 0.  1.
         36    2    1    2    0    0  0.00000000000E+00 -0.56843418861E-13  0.18332184144E+04  0.20871832361E+04  0.99781967617E+03 0.  0.
         25    2    3    3    0    0  0.98340024734E+01 -0.13381410196E+03  0.40192951076E+03  0.44178822380E+03  0.12500632615E+03 0.  0.
         35    2    3    3    0    0 -0.98340024734E+01  0.13381410196E+03  0.14312889036E+04  0.16453950123E+04  0.80045855566E+03 0.  0.
         22    1    5    5    0    0 -0.36985299203E+03  0.16326688076E+03  0.10244456531E+04  0.11013338305E+04  0.00000000000E+00 0.  1.
         22    1    5    5    0    0  0.36001898955E+03 -0.29452778802E+02  0.40684325048E+03  0.54406118175E+03  0.00000000000E+00 0.  1.
          5    1    4    4  502    0  0.59456897743E+02 -0.31951404523E+02  0.18537060303E+03  0.19733313308E+03  0.47000000000E+01 0. -1.
         -5    1    4    4    0  502 -0.49622895270E+02 -0.10186269743E+03  0.21655890773E+03  0.24445509072E+03  0.47000000000E+01 0. -1.
<mgrwt>
<rscale>  0 0.99781968E+03</rscale>
<asrwt>0</asrwt>
<pdfrwt beam="1">  1        2 0.30156933E+00 0.99781968E+03</pdfrwt>
<pdfrwt beam="2">  1       -2 0.19535757E-01 0.99781968E+03</pdfrwt>
<totfact> 0.18391826E+02</totfact>
</mgrwt>
</event>
<event>
 9    1  0.4388925E-036  0.9998341E+03  0.7818608E-02  0.8681196E-01
         -2   -1    0    0    0  501 -0.00000000000E+00  0.00000000000E+00  0.29998011649E+03  0.29998011649E+03  0.00000000000E+00 0.  1.
          2   -1    0    0  501    0  0.00000000000E+00 -0.00000000000E+00 -0.83311208135E+03  0.83311208135E+03  0.00000000000E+00 0.  1.
         36    2    1    2    0    0  0.00000000000E+00  0.10658141036E-13 -0.53313196486E+03  0.11330921978E+04  0.99983410467E+03 0.  0.
         25    2    3    3    0    0 -0.64737934092E+02 -0.26685364053E+02  0.38668217894E+02  0.14693825200E+03  0.12325790060E+03 0.  0.
         35    2    3    3    0    0  0.64737934092E+02  0.26685364053E+02 -0.57180018276E+03  0.98615394585E+03  0.80040055419E+03 0.  0.
         22    1    5    5    0    0 -0.90343825818E+02 -0.34419195131E+03 -0.43391045880E+03  0.56116699160E+03  0.00000000000E+00 0.  1.
         22    1    5    5    0    0  0.15508175991E+03  0.37087731536E+03 -0.13788972396E+03  0.42498695425E+03  0.00000000000E+00 0.  1.
          5    1    4    4  502    0 -0.99897085772E+01  0.14218066524E+02 -0.39255127961E+02  0.43185677769E+02  0.47000000000E+01 0. -1.
         -5    1    4    4    0  502 -0.54748225515E+02 -0.40903430577E+02  0.77923345855E+02  0.10375257423E+03  0.47000000000E+01 0. -1.
<mgrwt>
<rscale>  0 0.99983410E+03</rscale>
<asrwt>0</asrwt>
<pdfrwt beam="1">  1        2 0.12817109E+00 0.99983410E+03</pdfrwt>
<pdfrwt beam="2">  1       -2 0.46150787E-01 0.99983410E+03</pdfrwt>
<totfact> 0.17572484E+02</totfact>
</mgrwt>
</event>
<event>
 9    1  0.4388925E-036  0.9961921E+03  0.7818608E-02  0.8684673E-01
         -2   -1    0    0    0  501 -0.00000000000E+00  0.00000000000E+00  0.31431455783E+03  0.31431455783E+03  0.00000000000E+00 0. -1.
          2   -1    0    0  501    0  0.00000000000E+00 -0.00000000000E+00 -0.78933557359E+03  0.78933557359E+03  0.00000000000E+00 0. -1.
         36    2    1    2    0    0  0.35527136788E-13  0.14210854715E-13 -0.47502101576E+03  0.11036501314E+04  0.99619207344E+03 0.  0.
         25    2    3    3    0    0  0.19216208373E+02 -0.12242095875E+03 -0.14838277051E+03  0.23074991332E+03  0.12598381684E+03 0.  0.
         35    2    3    3    0    0 -0.19216208373E+02  0.12242095875E+03 -0.32663824525E+03  0.87290021811E+03  0.79994130641E+03 0.  0.
         22    1    5    5    0    0 -0.39105416396E+03  0.17611595563E+03 -0.22185727143E+03  0.48286730875E+03  0.00000000000E+00 0.  1.
         22    1    5    5    0    0  0.37183795559E+03 -0.53694996879E+02 -0.10478097382E+03  0.39003290935E+03  0.00000000000E+00 0.  1.
          5    1    4    4  502    0  0.20539210723E+02 -0.10755309412E+03 -0.17108360485E+03  0.20317779672E+03  0.47000000000E+01 0. -1.
         -5    1    4    4    0  502 -0.13230023499E+01 -0.14867864628E+02  0.22700834341E+02  0.27572116596E+02  0.47000000000E+01 0. -1.
<mgrwt>
<rscale>  0 0.99619207E+03</rscale>
<asrwt>0</asrwt>
<pdfrwt beam="1">  1        2 0.12143624E+00 0.99619207E+03</pdfrwt>
<pdfrwt beam="2">  1       -2 0.48356086E-01 0.99619207E+03</pdfrwt>
<totfact> 0.17188606E+02</totfact>
</mgrwt>
</event>
<event>
 9    1  0.4388925E-036  0.1003226E+04  0.7818608E-02  0.8677972E-01
         -1   -1    0    0    0  501 -0.00000000000E+00  0.00000000000E+00  0.90304226575E+02  0.90304226575E+02  0.00000000000E+00 0.  1.
          1   -1    0    0  501    0  0.00000000000E+00 -0.00000000000E+00 -0.27863084040E+04  0.27863084040E+04  0.00000000000E+00 0.  1.
         36    2    1    2    0    0  0.00000000000E+00  0.00000000000E+00 -0.26960041774E+04  0.28766126306E+04  0.10032256484E+04 0.  0.
         25    2    3    3    0    0  0.59340829839E+02 -0.13180644001E+03 -0.51259366181E+03  0.54722355463E+03  0.12572622999E+03 0.  0.
         35    2    3    3    0    0 -0.59340829839E+02  0.13180644001E+03 -0.21834105156E+04  0.23293890760E+04  0.79867247085E+03 0.  0.
         22    1    5    5    0    0 -0.31043199488E+03 -0.12189685346E+03 -0.16768825066E+04  0.17097256526E+04  0.00000000000E+00 0. -1.
         22    1    5    5    0    0  0.25109116504E+03  0.25370329347E+03 -0.50652800907E+03  0.61966342336E+03  0.00000000000E+00 0. -1.
          5    1    4    4  502    0 -0.14720634199E+02 -0.40041137127E+02 -0.30844682777E+03  0.31141856928E+03  0.47000000000E+01 0.  1.
         -5    1    4    4    0  502  0.74061464038E+02 -0.91765302885E+02 -0.20414683404E+03  0.23580498536E+03  0.47000000000E+01 0.  1.
<mgrwt>
<rscale>  0 0.10032256E+04</rscale>
<asrwt>0</asrwt>
<pdfrwt beam="1">  1        1 0.42866275E+00 0.10032256E+04</pdfrwt>
<pdfrwt beam="2">  1       -1 0.13892961E-01 0.10032256E+04</pdfrwt>
<totfact> 0.32268477E+01</totfact>
</mgrwt>
</event>
<event>
 9    1  0.4388925E-036  0.9988805E+03  0.7818608E-02  0.8682105E-01
         -3   -1    0    0    0  501 -0.00000000000E+00  0.00000000000E+00  0.81150829037E+03  0.81150829037E+03  0.00000000000E+00 0.  1.
          3   -1    0    0  501    0  0.00000000000E+00 -0.00000000000E+00 -0.30737892415E+03  0.30737892415E+03  0.00000000000E+00 0.  1.
         36    2    1    2    0    0  0.00000000000E+00  0.14210854715E-13  0.50412936621E+03  0.11188872145E+04  0.99888046379E+03 0.  0.
         25    2    3    3    0    0  0.78968570237E+02 -0.31176410570E+02  0.21944155263E+03  0.26526036029E+03  0.12247636532E+03 0.  0.
         35    2    3    3    0    0 -0.78968570237E+02  0.31176410570E+02  0.28468781359E+03  0.85362685423E+03  0.80026473832E+03 0.  0.
         22    1    5    5    0    0 -0.20483310776E+03 -0.19200314886E+03  0.46299445540E+03  0.54146622880E+03  0.00000000000E+00 0. -1.
         22    1    5    5    0    0  0.12586453752E+03  0.22317955943E+03 -0.17830664181E+03  0.31216062542E+03  0.00000000000E+00 0. -1.
          5    1    4    4  502    0  0.42242749344E+02 -0.66016102393E+02  0.62696074161E+02  0.10047618306E+03  0.47000000000E+01 0. -1.
         -5    1    4    4    0  502  0.36725820894E+02  0.34839691823E+02  0.15674547847E+03  0.16478417723E+03  0.47000000000E+01 0. -1.
<mgrwt>
<rscale>  0 0.99888046E+03</rscale>
<asrwt>0</asrwt>
<pdfrwt beam="1">  1        3 0.47289066E-01 0.99888046E+03</pdfrwt>
<pdfrwt beam="2">  1       -3 0.12484743E+00 0.99888046E+03</pdfrwt>
<totfact> 0.78800853E+00</totfact>
</mgrwt>
</event>
<event>
 9    1  0.4388925E-036  0.1000961E+04  0.7818608E-02  0.8680123E-01
          2   -1    0    0  501    0  0.00000000000E+00  0.00000000000E+00  0.59305722470E+03  0.59305722470E+03  0.00000000000E+00 0.  1.
         -2   -1    0    0    0  501 -0.00000000000E+00 -0.00000000000E+00 -0.42235514965E+03  0.42235514965E+03  0.00000000000E+00 0.  1.
         36    2    1    2    0    0  0.71054273576E-14 -0.14210854715E-13  0.17070207505E+03  0.10154123743E+04  0.10009610839E+04 0.  0.
         25    2    3    3    0    0  0.22644570507E+02 -0.22359672322E+02 -0.10967044858E+03  0.16699231130E+03  0.12184454531E+03 0.  0.
         35    2    3    3    0    0 -0.22644570507E+02  0.22359672322E+02  0.28037252363E+03  0.84842006305E+03  0.80012194062E+03 0.  0.
         22    1    5    5    0    0  0.16101023777E+03 -0.30323090368E+03 -0.53185371704E+02  0.34742187809E+03  0.00000000000E+00 0. -1.
         22    1    5    5    0    0 -0.18365480828E+03  0.32559057600E+03  0.33355789534E+03  0.50099818495E+03  0.00000000000E+00 0. -1.
          5    1    4    4  502    0 -0.52067417320E+01  0.45698023263E+02 -0.18573521130E+02  0.49824543919E+02  0.47000000000E+01 0. -1.
         -5    1    4    4    0  502  0.27851312239E+02 -0.68057695584E+02 -0.91096927451E+02  0.11716776738E+03  0.47000000000E+01 0. -1.
<mgrwt>
<rscale>  0 0.10009611E+04</rscale>
<asrwt>0</asrwt>
<pdfrwt beam="1">  1        2 0.91239573E-01 0.10009611E+04</pdfrwt>
<pdfrwt beam="2">  1       -2 0.64977716E-01 0.10009611E+04</pdfrwt>
<totfact> 0.13296483E+02</totfact>
</mgrwt>
</event>
<event>
 9    1  0.4388925E-036  0.9995202E+03  0.7818608E-02  0.8681495E-01
          2   -1    0    0  501    0  0.00000000000E+00  0.00000000000E+00  0.16071613182E+04  0.16071613182E+04  0.00000000000E+00 0. -1.
         -2   -1    0    0    0  501 -0.00000000000E+00 -0.00000000000E+00 -0.15540452993E+03  0.15540452993E+03  0.00000000000E+00 0. -1.
         36    2    1    2    0    0 -0.71054273576E-14 -0.42632564146E-13  0.14517567883E+04  0.17625658481E+04  0.99952018323E+03 0.  0.
         25    2    3    3    0    0 -0.55731907134E+02 -0.42780903796E+02  0.61230027693E+02  0.15595137610E+03  0.12504184986E+03 0.  0.
         35    2    3    3    0    0  0.55731907134E+02  0.42780903796E+02  0.13905267606E+04  0.16066144720E+04  0.80169142357E+03 0.  0.
         22    1    5    5    0    0  0.19328728775E+03  0.35252954948E+03  0.10579843708E+04  0.11317985632E+04  0.00000000000E+00 0. -1.
         22    1    5    5    0    0 -0.13755538062E+03 -0.30974864569E+03  0.33254238976E+03  0.47481590878E+03  0.00000000000E+00 0. -1.
          5    1    4    4  502    0 -0.86640231235E+02 -0.67712717723E+01  0.64234769036E+02  0.10816919776E+03  0.47000000000E+01 0.  1.
         -5    1    4    4    0  502  0.30908324101E+02 -0.36009632024E+02 -0.30047413436E+01  0.47782178349E+02  0.47000000000E+01 0.  1.
<mgrwt>
<rscale>  0 0.99952018E+03</rscale>
<asrwt>0</asrwt>
<pdfrwt beam="1">  1        2 0.24725558E+00 0.99952018E+03</pdfrwt>
<pdfrwt beam="2">  1       -2 0.23908390E-01 0.99952018E+03</pdfrwt>
<totfact> 0.20460385E+02</totfact>
</mgrwt>
</event>
<event>
 9    1  0.4388925E-036  0.1000701E+04  0.7818608E-02  0.8680370E-01
          1   -1    0    0  501    0  0.00000000000E+00  0.00000000000E+00  0.50108040320E+03  0.50108040320E+03  0.00000000000E+00 0.  1.
         -1   -1    0    0    0  501 -0.00000000000E+00 -0.00000000000E+00 -0.49962189082E+03  0.49962189082E+03  0.00000000000E+00 0.  1.
         36    2    1    2    0    0  0.00000000000E+00  0.14210854715E-13  0.14585123781E+01  0.10007022940E+04  0.10007012311E+04 0.  0.
         25    2    3    3    0    0  0.84682394648E+02  0.52219221369E+02  0.95222374831E+02  0.18634473910E+03  0.12553527822E+03 0.  0.
         35    2    3    3    0    0 -0.84682394648E+02 -0.52219221369E+02 -0.93763862453E+02  0.81435755492E+03  0.80280047976E+03 0.  0.
         22    1    5    5    0    0  0.31820081527E+03  0.10077611546E+03  0.90244279711E+02  0.34576236682E+03  0.00000000000E+00 0.  1.
         22    1    5    5    0    0 -0.40288320992E+03 -0.15299533683E+03 -0.18400814216E+03  0.46859518810E+03  0.00000000000E+00 0.  1.
          5    1    4    4  502    0  0.65529956297E+02  0.78704230961E+02  0.10982416167E+03  0.15023970058E+03  0.47000000000E+01 0. -1.
         -5    1    4    4    0  502  0.19152438351E+02 -0.26485009592E+02 -0.14601786837E+02  0.36105038522E+02  0.47000000000E+01 0. -1.
<mgrwt>
<rscale>  0 0.10007012E+04</rscale>
<asrwt>0</asrwt>
<pdfrwt beam="1">  1        1 0.77089293E-01 0.10007012E+04</pdfrwt>
<pdfrwt beam="2">  1       -1 0.76864906E-01 0.10007012E+04</pdfrwt>
<totfact> 0.88548546E+01</totfact>
</mgrwt>
</event>
<event>
 9    1  0.4388925E-036  0.1000692E+04  0.7818608E-02  0.8680380E-01
          1   -1    0    0  501    0  0.00000000000E+00  0.00000000000E+00  0.24765512253E+04  0.24765512253E+04  0.00000000000E+00 0.  1.
         -1   -1    0    0    0  501 -0.00000000000E+00 -0.00000000000E+00 -0.10108651356E+03  0.10108651356E+03  0.00000000000E+00 0.  1.
         36    2    1    2    0    0 -0.56843418861E-13 -0.21316282073E-13  0.23754647117E+04  0.25776377388E+04  0.10006916189E+04 0.  0.
         25    2    3    3    0    0 -0.14154861138E+03 -0.42143062823E+02  0.38151322910E+03  0.42380955201E+03  0.11068037437E+03 0.  0.
         35    2    3    3    0    0  0.14154861138E+03  0.42143062823E+02  0.19939514826E+04  0.21538281868E+04  0.80082538437E+03 0.  0.
         22    1    5    5    0    0 -0.19828477549E+03  0.20132609530E+03  0.27468276159E+03  0.39408078912E+03  0.00000000000E+00 0. -1.
         22    1    5    5    0    0  0.33983338687E+03 -0.15918303247E+03  0.17192687210E+04  0.17597473977E+04  0.00000000000E+00 0. -1.
          5    1    4    4  502    0  0.44942217249E+01  0.76184915907E+01  0.11792742371E+03  0.11835204564E+03  0.47000000000E+01 0. -1.
         -5    1    4    4    0  502 -0.14604283310E+03 -0.49761554414E+02  0.26358580538E+03  0.30545750637E+03  0.47000000000E+01 0. -1.
<mgrwt>
<rscale>  0 0.10006916E+04</rscale>
<asrwt>0</asrwt>
<pdfrwt beam="1">  1        1 0.38100784E+00 0.10006916E+04</pdfrwt>
<pdfrwt beam="2">  1       -1 0.15551773E-01 0.10006916E+04</pdfrwt>
<totfact> 0.44480172E+01</totfact>
</mgrwt>
</event>
<event>
 9    1  0.4388925E-036  0.9991015E+03  0.7818608E-02  0.8681894E-01
         -2   -1    0    0    0  501 -0.00000000000E+00  0.00000000000E+00  0.89308735261E+02  0.89308735261E+02  0.00000000000E+00 0. -1.
          2   -1    0    0  501    0  0.00000000000E+00 -0.00000000000E+00 -0.27942502523E+04  0.27942502523E+04  0.00000000000E+00 0. -1.
         36    2    1    2    0    0 -0.42632564146E-13 -0.28421709430E-13 -0.27049415171E+04  0.28835589876E+04  0.99910150843E+03 0.  0.
         25    2    3    3    0    0 -0.29805115053E+02  0.11649258303E+03 -0.32517478161E+03  0.36989511619E+03  0.12893754922E+03 0.  0.
         35    2    3    3    0    0  0.29805115053E+02 -0.11649258303E+03 -0.23797667355E+04  0.25136638714E+04  0.80047328277E+03 0.  0.
         22    1    5    5    0    0  0.32863654105E+03  0.40919332060E+02 -0.18895743345E+04  0.19183762753E+04  0.00000000000E+00 0.  1.
         22    1    5    5    0    0 -0.29883142600E+03 -0.15741191509E+03 -0.49019240095E+03  0.59528759614E+03  0.00000000000E+00 0.  1.
          5    1    4    4  502    0 -0.70849170881E+02  0.11398321782E+03 -0.23470865877E+03  0.27041084198E+03  0.47000000000E+01 0. -1.
         -5    1    4    4    0  502  0.41044055828E+02  0.25093652112E+01 -0.90466122840E+02  0.99484274206E+02  0.47000000000E+01 0. -1.
<mgrwt>
<rscale>  0 0.99910151E+03</rscale>
<asrwt>0</asrwt>
<pdfrwt beam="1">  1        2 0.42988472E+00 0.99910151E+03</pdfrwt>
<pdfrwt beam="2">  1       -2 0.13739803E-01 0.99910151E+03</pdfrwt>
<totfact> 0.10562216E+02</totfact>
</mgrwt>
</event>
<event>
 9    1  0.4388925E-036  0.1000042E+04  0.7818608E-02  0.8680998E-01
         -1   -1    0    0    0  501 -0.00000000000E+00  0.00000000000E+00  0.71724165295E+03  0.71724165295E+03  0.00000000000E+00 0.  1.
          1   -1    0    0  501    0  0.00000000000E+00 -0.00000000000E+00 -0.34858657056E+03  0.34858657056E+03  0.00000000000E+00 0.  1.
         36    2    1    2    0    0  0.00000000000E+00 -0.21316282073E-13  0.36865508239E+03  0.10658282235E+04  0.10000416153E+04 0.  0.
         25    2    3    3    0    0  0.87489129566E+02  0.33169343871E+02  0.18359234664E+03  0.24084773718E+03  0.12468732732E+03 0.  0.
         35    2    3    3    0    0 -0.87489129566E+02 -0.33169343871E+02  0.18506273575E+03  0.82498048633E+03  0.79849235030E+03 0.  0.
         22    1    5    5    0    0  0.14477775685E+03  0.23180112105E+03 -0.17233226224E+03  0.32309560073E+03  0.00000000000E+00 0. -1.
         22    1    5    5    0    0 -0.23226688641E+03 -0.26497046492E+03  0.35739499799E+03  0.50188488560E+03  0.00000000000E+00 0. -1.
          5    1    4    4  502    0  0.10227882861E+03  0.31655462865E+02  0.19432594492E+03  0.22191820561E+03  0.47000000000E+01 0. -1.
         -5    1    4    4    0  502 -0.14789699046E+02  0.15138810064E+01 -0.10733598276E+02  0.18929531571E+02  0.47000000000E+01 0. -1.
<mgrwt>
<rscale>  0 0.10000416E+04</rscale>
<asrwt>0</asrwt>
<pdfrwt beam="1">  1        1 0.53628703E-01 0.10000416E+04</pdfrwt>
<pdfrwt beam="2">  1       -1 0.11034487E+00 0.10000416E+04</pdfrwt>
<totfact> 0.65601147E+01</totfact>
</mgrwt>
</event>
<event>
 9    1  0.4388925E-036  0.9985321E+03  0.7818608E-02  0.8682437E-01
          2   -1    0    0  501    0  0.00000000000E+00  0.00000000000E+00  0.47201583385E+03  0.47201583385E+03  0.00000000000E+00 0. -1.
         -2   -1    0    0    0  501 -0.00000000000E+00 -0.00000000000E+00 -0.52808949445E+03  0.52808949445E+03  0.00000000000E+00 0. -1.
         36    2    1    2    0    0  0.00000000000E+00 -0.14210854715E-13 -0.56073660598E+02  0.10001053283E+04  0.99853212882E+03 0.  0.
         25    2    3    3    0    0 -0.69173318744E+02 -0.11624960934E+03 -0.35523806075E+02  0.18753206368E+03  0.12492963785E+03 0.  0.
         35    2    3    3    0    0  0.69173318744E+02  0.11624960934E+03 -0.20549854523E+02  0.81257326462E+03  0.80097071991E+03 0.  0.
         22    1    5    5    0    0  0.22120552016E+02  0.40896926352E+03  0.18743420399E+03  0.45041842564E+03  0.00000000000E+00 0.  1.
         22    1    5    5    0    0  0.47052766728E+02 -0.29271965418E+03 -0.20798405851E+03  0.36215483898E+03  0.00000000000E+00 0.  1.
          5    1    4    4  502    0 -0.23161692158E+02 -0.69754343590E+01  0.39925088460E+02  0.46917196811E+02  0.47000000000E+01 0.  1.
         -5    1    4    4    0  502 -0.46011626587E+02 -0.10927417498E+03 -0.75448894535E+02  0.14061486687E+03  0.47000000000E+01 0.  1.
<mgrwt>
<rscale>  0 0.99853213E+03</rscale>
<asrwt>0</asrwt>
<pdfrwt beam="1">  1        2 0.72617820E-01 0.99853213E+03</pdfrwt>
<pdfrwt beam="2">  1       -2 0.81244538E-01 0.99853213E+03</pdfrwt>
<totfact> 0.10577782E+02</totfact>
</mgrwt>
</event>
<event>
 9    1  0.4388925E-036  0.9999564E+03  0.7818608E-02  0.8681079E-01
          2   -1    0    0  501    0  0.00000000000E+00  0.00000000000E+00  0.19003822085E+04  0.19003822085E+04  0.00000000000E+00 0. -1.
         -2   -1    0    0    0  501 -0.00000000000E+00 -0.00000000000E+00 -0.13154101784E+03  0.13154101784E+03  0.00000000000E+00 0. -1.
         36    2    1    2    0    0  0.14210854715E-13  0.28421709430E-13  0.17688411907E+04  0.20319232264E+04  0.99995641905E+03 0.  0.
         25    2    3    3    0    0 -0.11220531584E+03  0.60322069030E+02  0.45469118977E+03  0.48936157629E+03  0.12845967999E+03 0.  0.
         35    2    3    3    0    0  0.11220531584E+03 -0.60322069030E+02  0.13141500009E+04  0.15425616501E+04  0.79767000349E+03 0.  0.
         22    1    5    5    0    0 -0.17332186545E+03  0.26343114929E+03  0.27912673406E+03  0.42112726476E+03  0.00000000000E+00 0.  1.
         22    1    5    5    0    0  0.28552718129E+03 -0.32375321832E+03  0.10350232669E+04  0.11214343853E+04  0.00000000000E+00 0.  1.
          5    1    4    4  502    0 -0.49067218221E+02 -0.39087360642E+02  0.14890588075E+03  0.16164920348E+03  0.47000000000E+01 0. -1.
         -5    1    4    4    0  502 -0.63138097617E+02  0.99409429672E+02  0.30578530902E+03  0.32771237281E+03  0.47000000000E+01 0. -1.
<mgrwt>
<rscale>  0 0.99995642E+03</rscale>
<asrwt>0</asrwt>
<pdfrwt beam="1">  1        2 0.29236647E+00 0.99995642E+03</pdfrwt>
<pdfrwt beam="2">  1       -2 0.20237081E-01 0.99995642E+03</pdfrwt>
<totfact> 0.18710096E+02</totfact>
</mgrwt>
</event>
<event>
 9    1  0.4388925E-036  0.1000002E+04  0.7818608E-02  0.8681036E-01
          3   -1    0    0  501    0  0.00000000000E+00  0.00000000000E+00  0.12273977597E+04  0.12273977597E+04  0.00000000000E+00 0.  1.
         -3   -1    0    0    0  501 -0.00000000000E+00 -0.00000000000E+00 -0.20368366164E+03  0.20368366164E+03  0.00000000000E+00 0.  1.
         36    2    1    2    0    0 -0.17763568394E-13  0.00000000000E+00  0.10237140981E+04  0.14310814214E+04  0.10000017400E+04 0.  0.
         25    2    3    3    0    0 -0.21295420929E+02  0.13067994718E+03  0.27407943210E+03  0.32926947526E+03  0.12557113000E+03 0.  0.
         35    2    3    3    0    0  0.21295420929E+02 -0.13067994718E+03  0.74963466601E+03  0.11018119461E+04  0.79655928129E+03 0.  0.
         22    1    5    5    0    0  0.36650010514E+03 -0.11205670206E+03  0.15381605121E+03  0.41296296341E+03  0.00000000000E+00 0. -1.
         22    1    5    5    0    0 -0.34520468421E+03 -0.18623245121E+02  0.59581861479E+03  0.68884898272E+03  0.00000000000E+00 0. -1.
          5    1    4    4  502    0 -0.23646815501E+02  0.93994163783E+02  0.27559383799E+03  0.29217824738E+03  0.47000000000E+01 0.  1.
         -5    1    4    4    0  502  0.23513945721E+01  0.36685783398E+02 -0.15144058871E+01  0.37091227873E+02  0.47000000000E+01 0.  1.
<mgrwt>
<rscale>  0 0.10000017E+04</rscale>
<asrwt>0</asrwt>
<pdfrwt beam="1">  1        3 0.18883042E+00 0.10000017E+04</pdfrwt>
<pdfrwt beam="2">  1       -3 0.31335949E-01 0.10000017E+04</pdfrwt>
<totfact> 0.70031563E+00</totfact>
</mgrwt>
</event>
<event>
 9    1  0.4388925E-036  0.1000647E+04  0.7818608E-02  0.8680422E-01
          2   -1    0    0  501    0  0.00000000000E+00  0.00000000000E+00  0.14919000599E+03  0.14919000599E+03  0.00000000000E+00 0.  1.
         -2   -1    0    0    0  501 -0.00000000000E+00 -0.00000000000E+00 -0.16778855476E+04  0.16778855476E+04  0.00000000000E+00 0.  1.
         36    2    1    2    0    0  0.56843418861E-13 -0.14210854715E-13 -0.15286955416E+04  0.18270755536E+04  0.10006473003E+04 0.  0.
         25    2    3    3    0    0  0.12823603297E+03  0.41488797339E+02 -0.27164961300E+03  0.33044455847E+03  0.13127944820E+03 0.  0.
         35    2    3    3    0    0 -0.12823603297E+03 -0.41488797339E+02 -0.12570459286E+04  0.14966309952E+04  0.80098318865E+03 0.  0.
         22    1    5    5    0    0  0.32419322103E+03  0.83629268469E+02 -0.62888369181E+03  0.71245336474E+03  0.00000000000E+00 0. -1.
         22    1    5    5    0    0 -0.45242925400E+03 -0.12511806581E+03 -0.62816223683E+03  0.78417763041E+03  0.00000000000E+00 0. -1.
          5    1    4    4  502    0  0.12746540659E+03  0.51971297162E+01 -0.12270350496E+03  0.17706688048E+03  0.47000000000E+01 0.  1.
         -5    1    4    4    0  502  0.77062638428E+00  0.36291667623E+02 -0.14894610804E+03  0.15337767798E+03  0.47000000000E+01 0.  1.
<mgrwt>
<rscale>  0 0.10006473E+04</rscale>
<asrwt>0</asrwt>
<pdfrwt beam="1">  1        2 0.22952309E-01 0.10006473E+04</pdfrwt>
<pdfrwt beam="2">  1       -2 0.25813624E+00 0.10006473E+04</pdfrwt>
<totfact> 0.14851106E+01</totfact>
</mgrwt>
</event>
<event>
 9    1  0.4388925E-036  0.9993698E+03  0.7818608E-02  0.8681638E-01
         -2   -1    0    0    0  501 -0.00000000000E+00  0.00000000000E+00  0.12006052556E+03  0.12006052556E+03  0.00000000000E+00 0.  1.
          2   -1    0    0  501    0  0.00000000000E+00 -0.00000000000E+00 -0.20796594499E+04  0.20796594499E+04  0.00000000000E+00 0.  1.
         36    2    1    2    0    0 -0.71054273576E-14  0.71054273576E-14 -0.19595989243E+04  0.21997199754E+04  0.99936981449E+03 0.  0.
         25    2    3    3    0    0 -0.47216172102E+02 -0.53134937669E+01 -0.64889890533E+03  0.66214204938E+03  0.12290119651E+03 0.  0.
         35    2    3    3    0    0  0.47216172102E+02  0.53134937669E+01 -0.13107000190E+04  0.15375779260E+04  0.80246728204E+03 0.  0.
         22    1    5    5    0    0 -0.66650973137E+02 -0.32997167999E+03 -0.10363051223E+04  0.10896109252E+04  0.00000000000E+00 0.  1.
         22    1    5    5    0    0  0.11386714524E+03  0.33528517376E+03 -0.27439489668E+03  0.44796700083E+03  0.00000000000E+00 0.  1.
          5    1    4    4  502    0 -0.20283872603E+02  0.40312054270E+02 -0.90706506098E+02  0.10142118840E+03  0.47000000000E+01 0. -1.
         -5    1    4    4    0  502 -0.26932299499E+02 -0.45625548037E+02 -0.55819239923E+03  0.56072086099E+03  0.47000000000E+01 0. -1.
<mgrwt>
<rscale>  0 0.99936981E+03</rscale>
<asrwt>0</asrwt>
<pdfrwt beam="1">  1        2 0.31994762E+00 0.99936981E+03</pdfrwt>
<pdfrwt beam="2">  1       -2 0.18470849E-01 0.99936981E+03</pdfrwt>
<totfact> 0.17311291E+02</totfact>
</mgrwt>
</event>
<event>
 9    1  0.4388925E-036  0.1000398E+04  0.7818608E-02  0.8680659E-01
          2   -1    0    0  501    0  0.00000000000E+00  0.00000000000E+00  0.34776771215E+04  0.34776771215E+04  0.00000000000E+00 0. -1.
         -2   -1    0    0    0  501 -0.00000000000E+00 -0.00000000000E+00 -0.71944341510E+02  0.71944341510E+02  0.00000000000E+00 0. -1.
         36    2    1    2    0    0  0.00000000000E+00 -0.71054273576E-14  0.34057327800E+04  0.35496214630E+04  0.10003983017E+04 0.  0.
         25    2    3    3    0    0  0.76750131350E+02  0.28477852608E+02  0.10512362288E+04  0.10618212954E+04  0.12516103244E+03 0.  0.
         35    2    3    3    0    0 -0.76750131350E+02 -0.28477852608E+02  0.23544965513E+04  0.24878001676E+04  0.79924595293E+03 0.  0.
         22    1    5    5    0    0 -0.81016462561E+02  0.17836593490E+03  0.22453627465E+04  0.22538926189E+04  0.00000000000E+00 0. -1.
         22    1    5    5    0    0  0.42663312115E+01 -0.20684378751E+03  0.10913380473E+03  0.23390754872E+03  0.00000000000E+00 0. -1.
          5    1    4    4  502    0  0.36413928386E+02  0.76397460243E+01  0.95035700321E+03  0.95109666357E+03  0.47000000000E+01 0. -1.
         -5    1    4    4    0  502  0.40336202963E+02  0.20838106584E+02  0.10087922555E+03  0.11072463187E+03  0.47000000000E+01 0. -1.
<mgrwt>
<rscale>  0 0.10003983E+04</rscale>
<asrwt>0</asrwt>
<pdfrwt beam="1">  1        2 0.53502712E+00 0.10003983E+04</pdfrwt>
<pdfrwt beam="2">  1       -2 0.11068363E-01 0.10003983E+04</pdfrwt>
<totfact> 0.50844706E+01</totfact>
</mgrwt>
</event>
<event>
 9    1  0.4388925E-036  0.1000397E+04  0.7818608E-02  0.8680660E-01
         -2   -1    0    0    0  501 -0.00000000000E+00  0.00000000000E+00  0.46716445040E+03  0.46716445040E+03  0.00000000000E+00 0. -1.
          2   -1    0    0  501    0  0.00000000000E+00 -0.00000000000E+00 -0.53556795259E+03  0.53556795259E+03  0.00000000000E+00 0. -1.
         36    2    1    2    0    0  0.71054273576E-14  0.42632564146E-13 -0.68403502192E+02  0.10027324030E+04  0.10003965378E+04 0.  0.
         25    2    3    3    0    0  0.52462685689E+02  0.12661133206E+03  0.23066023741E+02  0.18669822837E+03  0.12466524869E+03 0.  0.
         35    2    3    3    0    0 -0.52462685689E+02 -0.12661133206E+03 -0.91469525933E+02  0.81603417462E+03  0.79922608639E+03 0.  0.
         22    1    5    5    0    0  0.22666270977E+02 -0.60146868803E+02 -0.44445200611E+03  0.44907570787E+03  0.00000000000E+00 0.  1.
         22    1    5    5    0    0 -0.75128956666E+02 -0.66464463255E+02  0.35298248018E+03  0.36695846675E+03  0.00000000000E+00 0.  1.
          5    1    4    4  502    0  0.17496174389E+02 -0.31957133352E+01 -0.35501744669E+02  0.39984904358E+02  0.47000000000E+01 0. -1.
         -5    1    4    4    0  502  0.34966511300E+02  0.12980704539E+03  0.58567768410E+02  0.14671332401E+03  0.47000000000E+01 0. -1.
<mgrwt>
<rscale>  0 0.10003965E+04</rscale>
<asrwt>0</asrwt>
<pdfrwt beam="1">  1        2 0.82395069E-01 0.10003965E+04</pdfrwt>
<pdfrwt beam="2">  1       -2 0.71871455E-01 0.10003965E+04</pdfrwt>
<totfact> 0.12051863E+02</totfact>
</mgrwt>
</event>
<event>
 9    1  0.4388925E-036  0.1000379E+04  0.7818608E-02  0.8680677E-01
         -1   -1    0    0    0  501 -0.00000000000E+00  0.00000000000E+00  0.44485794210E+03  0.44485794210E+03  0.00000000000E+00 0.  1.
          1   -1    0    0  501    0  0.00000000000E+00 -0.00000000000E+00 -0.56240279637E+03  0.56240279637E+03  0.00000000000E+00 0.  1.
         36    2    1    2    0    0  0.14210854715E-13  0.00000000000E+00 -0.11754485427E+03  0.10072607385E+04  0.10003786296E+04 0.  0.
         25    2    3    3    0    0 -0.93295502017E+02 -0.65183915626E+02 -0.10576470295E+03  0.19937219960E+03  0.12494041793E+03 0.  0.
         35    2    3    3    0    0  0.93295502017E+02  0.65183915626E+02 -0.11780151317E+02  0.80788853887E+03  0.79974503795E+03 0.  0.
         22    1    5    5    0    0 -0.26124534659E+03 -0.22013576004E+03  0.60957812263E+02  0.34702267770E+03  0.00000000000E+00 0. -1.
         22    1    5    5    0    0  0.35454084860E+03  0.28531967566E+03 -0.72737963580E+02  0.46086586117E+03  0.00000000000E+00 0. -1.
          5    1    4    4  502    0 -0.62113489540E+02 -0.10169979193E+03 -0.62886291038E+02  0.13482473387E+03  0.47000000000E+01 0.  1.
         -5    1    4    4    0  502 -0.31182012477E+02  0.36515876309E+02 -0.42878411911E+02  0.64547465735E+02  0.47000000000E+01 0.  1.
<mgrwt>
<rscale>  0 0.10003786E+04</rscale>
<asrwt>0</asrwt>
<pdfrwt beam="1">  1        1 0.86523507E-01 0.10003786E+04</pdfrwt>
<pdfrwt beam="2">  1       -1 0.68439684E-01 0.10003786E+04</pdfrwt>
<totfact> 0.95020198E+01</totfact>
</mgrwt>
</event>
<event>
 9    1  0.4388925E-036  0.9965088E+03  0.7818608E-02  0.8684370E-01
         -1   -1    0    0    0  501 -0.00000000000E+00  0.00000000000E+00  0.15079555185E+03  0.15079555185E+03  0.00000000000E+00 0. -1.
          1   -1    0    0  501    0  0.00000000000E+00 -0.00000000000E+00 -0.16463181801E+04  0.16463181801E+04  0.00000000000E+00 0. -1.
         36    2    1    2    0    0 -0.71054273576E-14 -0.28421709430E-13 -0.14955226283E+04  0.17971137320E+04  0.99650882283E+03 0.  0.
         25    2    3    3    0    0 -0.48470276365E+02  0.69733812107E+02 -0.85175891487E+02  0.17348075755E+03  0.12501387326E+03 0.  0.
         35    2    3    3    0    0  0.48470276365E+02 -0.69733812107E+02 -0.14103467368E+04  0.16236329744E+04  0.79993371315E+03 0.  0.
         22    1    5    5    0    0  0.82944998626E+02 -0.38614456083E+03 -0.11384934034E+04  0.12050538263E+04  0.00000000000E+00 0. -1.
         22    1    5    5    0    0 -0.34474722261E+02  0.31641074873E+03 -0.27185333339E+03  0.41857914814E+03  0.00000000000E+00 0. -1.
          5    1    4    4  502    0  0.26848021125E+02  0.37527115551E+02 -0.78476295542E+02  0.91157663429E+02  0.47000000000E+01 0.  1.
         -5    1    4    4    0  502 -0.75318297490E+02  0.32206696556E+02 -0.66995959454E+01  0.82323094121E+02  0.47000000000E+01 0.  1.
<mgrwt>
<rscale>  0 0.99650882E+03</rscale>
<asrwt>0</asrwt>
<pdfrwt beam="1">  1        1 0.25327972E+00 0.99650882E+03</pdfrwt>
<pdfrwt beam="2">  1       -1 0.23199315E-01 0.99650882E+03</pdfrwt>
<totfact> 0.88233607E+01</totfact>
</mgrwt>
</event>
<event>
 9    1  0.4388925E-036  0.1001656E+04  0.7818608E-02  0.8679463E-01
          1   -1    0    0  501    0  0.00000000000E+00  0.00000000000E+00  0.15615202908E+04  0.15615202908E+04  0.00000000000E+00 0.  1.
         -1   -1    0    0    0  501 -0.00000000000E+00 -0.00000000000E+00 -0.16063094843E+03  0.16063094843E+03  0.00000000000E+00 0.  1.
         36    2    1    2    0    0 -0.14210854715E-13 -0.28421709430E-13  0.14008893424E+04  0.17221512393E+04  0.10016556001E+04 0.  0.
         25    2    3    3    0    0  0.11445597028E+03 -0.59949498401E+02  0.41244327107E+03  0.44954362767E+03  0.12363619954E+03 0.  0.
         35    2    3    3    0    0 -0.11445597028E+03  0.59949498401E+02  0.98844607133E+03  0.12726076116E+04  0.79108178190E+03 0.  0.
         22    1    5    5    0    0 -0.34512461591E+03  0.30814290425E+03  0.57832840528E+03  0.74062594763E+03  0.00000000000E+00 0. -1.
         22    1    5    5    0    0  0.23066864564E+03 -0.24819340584E+03  0.41011766604E+03  0.53198166396E+03  0.00000000000E+00 0. -1.
          5    1    4    4  502    0  0.17170763505E+02  0.27260412767E+01 -0.29993960285E+01  0.18257951608E+02  0.47000000000E+01 0.  1.
         -5    1    4    4    0  502  0.97285206772E+02 -0.62675539678E+02  0.41544266710E+03  0.43128567606E+03  0.47000000000E+01 0.  1.
<mgrwt>
<rscale>  0 0.10016556E+04</rscale>
<asrwt>0</asrwt>
<pdfrwt beam="1">  1        1 0.24023388E+00 0.10016556E+04</pdfrwt>
<pdfrwt beam="2">  1       -1 0.24712455E-01 0.10016556E+04</pdfrwt>
<totfact> 0.91104128E+01</totfact>
</mgrwt>
</event>
<event>
 9    1  0.4388925E-036  0.1000414E+04  0.7818608E-02  0.8680644E-01
          2   -1    0    0  501    0  0.00000000000E+00  0.00000000000E+00  0.19480328652E+04  0.19480328652E+04  0.00000000000E+00 0. -1.
         -2   -1    0    0    0  501 -0.00000000000E+00 -0.00000000000E+00 -0.12844084694E+03  0.12844084694E+03  0.00000000000E+00 0. -1.
         36    2    1    2    0    0  0.71054273576E-14  0.00000000000E+00  0.18195920183E+04  0.20764737122E+04  0.10004138965E+04 0.  0.
         25    2    3    3    0    0 -0.47015568423E+01  0.77409939468E+02  0.56951362961E+03  0.58986355414E+03  0.13258519836E+03 0.  0.
         35    2    3    3    0    0  0.47015568423E+01 -0.77409939468E+02  0.12500783887E+04  0.14866101580E+04  0.80081170119E+03 0.  0.
         22    1    5    5    0    0 -0.27476502268E+03 -0.90193619156E+02  0.11557432291E+04  0.11913744660E+04  0.00000000000E+00 0.  1.
         22    1    5    5    0    0  0.27946657952E+03  0.12783679688E+02  0.94335159623E+02  0.29523569208E+03  0.00000000000E+00 0.  1.
          5    1    4    4  502    0  0.36000374813E+02  0.44668409191E+02  0.49726371168E+03  0.50058424138E+03  0.47000000000E+01 0.  1.
         -5    1    4    4    0  502 -0.40701931655E+02  0.32741530277E+02  0.72249917929E+02  0.89279312756E+02  0.47000000000E+01 0.  1.
<mgrwt>
<rscale>  0 0.10004139E+04</rscale>
<asrwt>0</asrwt>
<pdfrwt beam="1">  1        2 0.29969734E+00 0.10004139E+04</pdfrwt>
<pdfrwt beam="2">  1       -2 0.19760132E-01 0.10004139E+04</pdfrwt>
<totfact> 0.18321594E+02</totfact>
</mgrwt>
</event>
<event>
 9    1  0.4388925E-036  0.1000412E+04  0.7818608E-02  0.8680646E-01
          1   -1    0    0  501    0  0.00000000000E+00  0.00000000000E+00  0.33153361036E+03  0.33153361036E+03  0.00000000000E+00 0. -1.
         -1   -1    0    0    0  501 -0.00000000000E+00 -0.00000000000E+00 -0.75469285699E+03  0.75469285699E+03  0.00000000000E+00 0. -1.
         36    2    1    2    0    0  0.00000000000E+00  0.14210854715E-13 -0.42315924663E+03  0.10862264673E+04  0.10004120103E+04 0.  0.
         25    2    3    3    0    0  0.12379741337E+03 -0.62460491640E+02 -0.10966674440E+03  0.21632110114E+03  0.12466319183E+03 0.  0.
         35    2    3    3    0    0 -0.12379741337E+03  0.62460491640E+02 -0.31349250223E+03  0.86990536621E+03  0.79951903331E+03 0.  0.
         22    1    5    5    0    0 -0.37409919387E+03  0.24432397960E+03 -0.26021888736E+02  0.44757295780E+03  0.00000000000E+00 0.  1.
         22    1    5    5    0    0  0.25030178050E+03 -0.18186348796E+03 -0.28747061349E+03  0.42233240841E+03  0.00000000000E+00 0.  1.
          5    1    4    4  502    0  0.40093977151E+02 -0.79090301232E+02 -0.94217137978E+02  0.12946722304E+03  0.47000000000E+01 0.  1.
         -5    1    4    4    0  502  0.83703436221E+02  0.16629809592E+02 -0.15449606420E+02  0.86853878099E+02  0.47000000000E+01 0.  1.
<mgrwt>
<rscale>  0 0.10004120E+04</rscale>
<asrwt>0</asrwt>
<pdfrwt beam="1">  1        1 0.51005171E-01 0.10004120E+04</pdfrwt>
<pdfrwt beam="2">  1       -1 0.11610659E+00 0.10004120E+04</pdfrwt>
<totfact> 0.62053470E+01</totfact>
</mgrwt>
</event>
<event>
 9    1  0.4388925E-036  0.1000726E+04  0.7818608E-02  0.8680347E-01
          2   -1    0    0  501    0  0.00000000000E+00  0.00000000000E+00  0.57148725961E+03  0.57148725961E+03  0.00000000000E+00 0. -1.
         -2   -1    0    0    0  501 -0.00000000000E+00 -0.00000000000E+00 -0.43809011939E+03  0.43809011939E+03  0.00000000000E+00 0. -1.
         36    2    1    2    0    0 -0.71054273576E-14  0.28421709430E-13  0.13339714021E+03  0.10095773790E+04  0.10007255804E+04 0.  0.
         25    2    3    3    0    0 -0.61782778473E+01  0.13847157464E+03  0.83062563875E+01  0.18677961058E+03  0.12492029832E+03 0.  0.
         35    2    3    3    0    0  0.61782778473E+01 -0.13847157464E+03  0.12509088383E+03  0.82279776842E+03  0.80133381958E+03 0.  0.
         22    1    5    5    0    0  0.15084209408E+03 -0.44336547420E+03  0.17727499237E+02  0.46865823933E+03  0.00000000000E+00 0.  1.
         22    1    5    5    0    0 -0.14466381624E+03  0.30489389956E+03  0.10736338459E+03  0.35413952909E+03  0.00000000000E+00 0.  1.
          5    1    4    4  502    0 -0.45101431688E+02  0.25904753226E+02  0.37213074761E+02  0.64125644739E+02  0.47000000000E+01 0. -1.
         -5    1    4    4    0  502  0.38923153841E+02  0.11256682142E+03 -0.28906818374E+02  0.12265396584E+03  0.47000000000E+01 0. -1.
<mgrwt>
<rscale>  0 0.10007256E+04</rscale>
<asrwt>0</asrwt>
<pdfrwt beam="1">  1        2 0.87921117E-01 0.10007256E+04</pdfrwt>
<pdfrwt beam="2">  1       -2 0.67398480E-01 0.10007256E+04</pdfrwt>
<totfact> 0.12844669E+02</totfact>
</mgrwt>
</event>
<event>
 9    1  0.4388925E-036  0.1000093E+04  0.7818608E-02  0.8680949E-01
          2   -1    0    0  501    0  0.00000000000E+00  0.00000000000E+00  0.80527690042E+03  0.80527690042E+03  0.00000000000E+00 0. -1.
         -2   -1    0    0    0  501 -0.00000000000E+00 -0.00000000000E+00 -0.31051007432E+03  0.31051007432E+03  0.00000000000E+00 0. -1.
         36    2    1    2    0    0  0.00000000000E+00  0.28421709430E-13  0.49476682610E+03  0.11157869747E+04  0.10000931761E+04 0.  0.
         25    2    3    3    0    0  0.62438516725E+02  0.12299029588E+03  0.68136564313E+02  0.19821605935E+03  0.12498733351E+03 0.  0.
         35    2    3    3    0    0 -0.62438516725E+02 -0.12299029588E+03  0.42663026179E+03  0.91757091539E+03  0.80056094287E+03 0.  0.
         22    1    5    5    0    0 -0.12189147968E+03  0.30336350639E+03  0.35246836641E+03  0.48075035013E+03  0.00000000000E+00 0. -1.
         22    1    5    5    0    0  0.59452962952E+02 -0.42635380227E+03  0.74161895378E+02  0.43682056527E+03  0.00000000000E+00 0. -1.
          5    1    4    4  502    0 -0.37625168698E+00  0.11335785421E+03  0.13460550129E+02  0.11425156930E+03  0.47000000000E+01 0. -1.
         -5    1    4    4    0  502  0.62814768411E+02  0.96324416668E+01  0.54676014184E+02  0.83964490054E+02  0.47000000000E+01 0. -1.
<mgrwt>
<rscale>  0 0.10000932E+04</rscale>
<asrwt>0</asrwt>
<pdfrwt beam="1">  1        2 0.12388875E+00 0.10000932E+04</pdfrwt>
<pdfrwt beam="2">  1       -2 0.47770781E-01 0.10000932E+04</pdfrwt>
<totfact> 0.17159234E+02</totfact>
</mgrwt>
</event>
<event>
 9    1  0.4388925E-036  0.1000926E+04  0.7818608E-02  0.8680156E-01
         -2   -1    0    0    0  501 -0.00000000000E+00  0.00000000000E+00  0.28452309288E+03  0.28452309288E+03  0.00000000000E+00 0.  1.
          2   -1    0    0  501    0  0.00000000000E+00 -0.00000000000E+00 -0.88029209272E+03  0.88029209272E+03  0.00000000000E+00 0.  1.
         36    2    1    2    0    0  0.00000000000E+00  0.00000000000E+00 -0.59576899984E+03  0.11648151856E+04  0.10009264286E+04 0.  0.
         25    2    3    3    0    0  0.72719996204E+02  0.11984842405E+03 -0.12783547270E+03  0.22694990266E+03  0.12454921774E+03 0.  0.
         35    2    3    3    0    0 -0.72719996204E+02 -0.11984842405E+03 -0.46793352713E+03  0.93786528294E+03  0.80061080466E+03 0.  0.
         22    1    5    5    0    0  0.16747352528E+03  0.26741314095E+03 -0.49863981683E+02  0.31944261815E+03  0.00000000000E+00 0.  1.
         22    1    5    5    0    0 -0.24019352148E+03 -0.38726156500E+03 -0.41806954545E+03  0.61842266479E+03  0.00000000000E+00 0.  1.
          5    1    4    4  502    0  0.24588580749E+02 -0.16610517566E+02  0.50140292637E+01  0.30458793254E+02  0.47000000000E+01 0.  1.
         -5    1    4    4    0  502  0.48131415455E+02  0.13645894162E+03 -0.13284950197E+03  0.19649110940E+03  0.47000000000E+01 0.  1.
<mgrwt>
<rscale>  0 0.10009264E+04</rscale>
<asrwt>0</asrwt>
<pdfrwt beam="1">  1        2 0.13542955E+00 0.10009264E+04</pdfrwt>
<pdfrwt beam="2">  1       -2 0.43772784E-01 0.10009264E+04</pdfrwt>
<totfact> 0.18110908E+02</totfact>
</mgrwt>
</event>
<event>
 9    1  0.4388925E-036  0.1000011E+04  0.7818608E-02  0.8681027E-01
         -1   -1    0    0    0  501 -0.00000000000E+00  0.00000000000E+00  0.37831630307E+03  0.37831630307E+03  0.00000000000E+00 0.  1.
          1   -1    0    0  501    0  0.00000000000E+00 -0.00000000000E+00 -0.66083728616E+03  0.66083728616E+03  0.00000000000E+00 0.  1.
         36    2    1    2    0    0  0.21316282073E-13  0.14210854715E-13 -0.28252098309E+03  0.10391535892E+04  0.10000110380E+04 0.  0.
         25    2    3    3    0    0 -0.25901086034E+02  0.32269331892E+02 -0.19286079701E+03  0.23370512583E+03  0.12534202320E+03 0.  0.
         35    2    3    3    0    0  0.25901086034E+02 -0.32269331892E+02 -0.89660186088E+02  0.80544846340E+03  0.79937231763E+03 0.  0.
         22    1    5    5    0    0  0.27062922245E+03 -0.26604581260E+03  0.13094462218E+03  0.40145615517E+03  0.00000000000E+00 0.  1.
         22    1    5    5    0    0 -0.24472813641E+03  0.23377648070E+03 -0.22060480827E+03  0.40399230824E+03  0.00000000000E+00 0.  1.
          5    1    4    4  502    0 -0.37914556164E+01  0.63471506987E+02 -0.18320786222E+03  0.19398509766E+03  0.47000000000E+01 0. -1.
         -5    1    4    4    0  502 -0.22109630418E+02 -0.31202175095E+02 -0.96529347822E+01  0.39720028169E+02  0.47000000000E+01 0. -1.
<mgrwt>
<rscale>  0 0.10000110E+04</rscale>
<asrwt>0</asrwt>
<pdfrwt beam="1">  1        1 0.10166727E+00 0.10000110E+04</pdfrwt>
<pdfrwt beam="2">  1       -1 0.58202508E-01 0.10000110E+04</pdfrwt>
<totfact> 0.10265355E+02</totfact>
</mgrwt>
</event>
<event>
 9    1  0.4388925E-036  0.9996085E+03  0.7818608E-02  0.8681411E-01
         -1   -1    0    0    0  501 -0.00000000000E+00  0.00000000000E+00  0.54466784817E+03  0.54466784817E+03  0.00000000000E+00 0. -1.
          1   -1    0    0  501    0  0.00000000000E+00 -0.00000000000E+00 -0.45863596958E+03  0.45863596958E+03  0.00000000000E+00 0. -1.
         36    2    1    2    0    0 -0.26645352591E-14  0.00000000000E+00  0.86031878593E+02  0.10033038177E+04  0.99960845663E+03 0.  0.
         25    2    3    3    0    0  0.23553252440E+01 -0.12145290773E+03  0.85301189393E+02  0.19368285704E+03  0.12442025497E+03 0.  0.
         35    2    3    3    0    0 -0.23553252440E+01  0.12145290773E+03  0.73068920025E+00  0.80962096070E+03  0.80045562634E+03 0.  0.
         22    1    5    5    0    0 -0.30317128909E+03  0.25375647333E+03  0.18097948258E+03  0.43480886766E+03  0.00000000000E+00 0. -1.
         22    1    5    5    0    0  0.30081596384E+03 -0.13230356560E+03 -0.18024879338E+03  0.37481209304E+03  0.00000000000E+00 0. -1.
          5    1    4    4  502    0  0.24874712559E+00 -0.14735933181E+03  0.73805323591E+02  0.16487616667E+03  0.47000000000E+01 0. -1.
         -5    1    4    4    0  502  0.21065781184E+01  0.25906424076E+02  0.11495865802E+02  0.28806690374E+02  0.47000000000E+01 0. -1.
<mgrwt>
<rscale>  0 0.99960846E+03</rscale>
<asrwt>0</asrwt>
<pdfrwt beam="1">  1        1 0.70559380E-01 0.99960846E+03</pdfrwt>
<pdfrwt beam="2">  1       -1 0.83795053E-01 0.99960846E+03</pdfrwt>
<totfact> 0.83527695E+01</totfact>
</mgrwt>
</event>
<event>
 9    1  0.4388925E-036  0.9987333E+03  0.7818608E-02  0.8682245E-01
          2   -1    0    0  501    0  0.00000000000E+00  0.00000000000E+00  0.20468012846E+04  0.20468012846E+04  0.00000000000E+00 0. -1.
         -2   -1    0    0    0  501 -0.00000000000E+00 -0.00000000000E+00 -0.12183256736E+03  0.12183256736E+03  0.00000000000E+00 0. -1.
         36    2    1    2    0    0  0.28421709430E-13  0.00000000000E+00  0.19249687172E+04  0.21686338520E+04  0.99873330850E+03 0.  0.
         25    2    3    3    0    0  0.65890665193E+02  0.94283864473E+02  0.19191369060E+03  0.25627286462E+03  0.12495555067E+03 0.  0.
         35    2    3    3    0    0 -0.65890665193E+02 -0.94283864473E+02  0.17330550266E+04  0.19123609873E+04  0.80025857925E+03 0.  0.
         22    1    5    5    0    0 -0.35315824373E+03  0.58058171929E+02  0.38505772097E+03  0.52570043268E+03  0.00000000000E+00 0. -1.
         22    1    5    5    0    0  0.28726757854E+03 -0.15234203640E+03  0.13479973057E+04  0.13866605546E+04  0.00000000000E+00 0. -1.
          5    1    4    4  502    0  0.51489253229E+02  0.62716715653E+02  0.24004213160E+02  0.84751530191E+02  0.47000000000E+01 0.  1.
         -5    1    4    4    0  502  0.14401411964E+02  0.31567148820E+02  0.16790947744E+03  0.17152133443E+03  0.47000000000E+01 0.  1.
<mgrwt>
<rscale>  0 0.99873331E+03</rscale>
<asrwt>0</asrwt>
<pdfrwt beam="1">  1        2 0.31489248E+00 0.99873331E+03</pdfrwt>
<pdfrwt beam="2">  1       -2 0.18743473E-01 0.99873331E+03</pdfrwt>
<totfact> 0.17628812E+02</totfact>
</mgrwt>
</event>
<event>
 9    1  0.4388925E-036  0.9995176E+03  0.7818608E-02  0.8681497E-01
          2   -1    0    0  501    0  0.00000000000E+00  0.00000000000E+00  0.33323032908E+04  0.33323032908E+04  0.00000000000E+00 0. -1.
         -2   -1    0    0    0  501 -0.00000000000E+00 -0.00000000000E+00 -0.74950823753E+02  0.74950823753E+02  0.00000000000E+00 0. -1.
         36    2    1    2    0    0 -0.42632564146E-13  0.00000000000E+00  0.32573524671E+04  0.34072541146E+04  0.99951763695E+03 0.  0.
         25    2    3    3    0    0  0.32570827274E+02 -0.13885616712E+03  0.61510885715E+03  0.64367040777E+03  0.12494316207E+03 0.  0.
         35    2    3    3    0    0 -0.32570827274E+02  0.13885616712E+03  0.26422436099E+04  0.27635837068E+04  0.79724633361E+03 0.  0.
         22    1    5    5    0    0  0.15431606899E+03  0.12308646886E+03  0.25443988527E+04  0.25520441315E+04  0.00000000000E+00 0.  1.
         22    1    5    5    0    0 -0.18688689626E+03  0.15769698261E+02  0.97844757253E+02  0.21153957526E+03  0.00000000000E+00 0.  1.
          5    1    4    4  502    0  0.65414705371E+02 -0.96708611461E+02  0.53253467650E+03  0.54520354995E+03  0.47000000000E+01 0.  1.
         -5    1    4    4    0  502 -0.32843878098E+02 -0.42147555661E+02  0.82574180658E+02  0.98466857815E+02  0.47000000000E+01 0.  1.
<mgrwt>
<rscale>  0 0.99951764E+03</rscale>
<asrwt>0</asrwt>
<pdfrwt beam="1">  1        2 0.51266193E+00 0.99951764E+03</pdfrwt>
<pdfrwt beam="2">  1       -2 0.11530899E-01 0.99951764E+03</pdfrwt>
<totfact> 0.60853754E+01</totfact>
</mgrwt>
</event>
<event>
 9    1  0.4388925E-036  0.1000116E+04  0.7818608E-02  0.8680927E-01
          2   -1    0    0  501    0  0.00000000000E+00  0.00000000000E+00  0.97433063819E+03  0.97433063819E+03  0.00000000000E+00 0.  1.
         -2   -1    0    0    0  501 -0.00000000000E+00 -0.00000000000E+00 -0.25664615918E+03  0.25664615918E+03  0.00000000000E+00 0.  1.
         36    2    1    2    0    0  0.00000000000E+00  0.14210854715E-13  0.71768447901E+03  0.12309767974E+04  0.10001164254E+04 0.  0.
         25    2    3    3    0    0 -0.10251420041E+03  0.92615475904E+02  0.16584392140E+03  0.24962842911E+03  0.12539281755E+03 0.  0.
         35    2    3    3    0    0  0.10251420041E+03 -0.92615475904E+02  0.55184055761E+03  0.98134836826E+03  0.79964356510E+03 0.  0.
         22    1    5    5    0    0  0.42413996652E+03  0.67902556030E+02  0.18479381528E+03  0.46760477166E+03  0.00000000000E+00 0. -1.
         22    1    5    5    0    0 -0.32162576610E+03 -0.16051803193E+03  0.36704674233E+03  0.51374359660E+03  0.00000000000E+00 0. -1.
          5    1    4    4  502    0 -0.85489921574E+01 -0.21283578992E+02 -0.48219088359E+01  0.23904326103E+02  0.47000000000E+01 0.  1.
         -5    1    4    4    0  502 -0.93965208257E+02  0.11389905490E+03  0.17066583023E+03  0.22572410301E+03  0.47000000000E+01 0.  1.
<mgrwt>
<rscale>  0 0.10001164E+04</rscale>
<asrwt>0</asrwt>
<pdfrwt beam="1">  1        2 0.14989702E+00 0.10001164E+04</pdfrwt>
<pdfrwt beam="2">  1       -2 0.39484025E-01 0.10001164E+04</pdfrwt>
<totfact> 0.19195310E+02</totfact>
</mgrwt>
</event>
<event>
 9    1  0.4388925E-036  0.9999348E+03  0.7818608E-02  0.8681100E-01
         -2   -1    0    0    0  501 -0.00000000000E+00  0.00000000000E+00  0.58073898056E+03  0.58073898056E+03  0.00000000000E+00 0.  1.
          2   -1    0    0  501    0  0.00000000000E+00 -0.00000000000E+00 -0.43042985456E+03  0.43042985456E+03  0.00000000000E+00 0.  1.
         36    2    1    2    0    0  0.14210854715E-13  0.00000000000E+00  0.15030912600E+03  0.10111688351E+04  0.99993478775E+03 0.  0.
         25    2    3    3    0    0  0.10798329666E+02  0.13546348474E+03 -0.13023563950E+01  0.18509420067E+03  0.12566307082E+03 0.  0.
         35    2    3    3    0    0 -0.10798329666E+02 -0.13546348474E+03  0.15161148239E+03  0.82607463445E+03  0.80059121933E+03 0.  0.
         22    1    5    5    0    0  0.23243084018E+03  0.21462210867E+03  0.23194820194E+03  0.39228397033E+03  0.00000000000E+00 0. -1.
         22    1    5    5    0    0 -0.24322916985E+03 -0.35008559340E+03 -0.80336719548E+02  0.43379066412E+03  0.00000000000E+00 0. -1.
          5    1    4    4  502    0 -0.50724989373E+02  0.29181731811E+02  0.16339931052E+02  0.60939981664E+02  0.47000000000E+01 0.  1.
         -5    1    4    4    0  502  0.61523319039E+02  0.10628175292E+03 -0.17642287447E+02  0.12415421900E+03  0.47000000000E+01 0.  1.
<mgrwt>
<rscale>  0 0.99993479E+03</rscale>
<asrwt>0</asrwt>
<pdfrwt beam="1">  1        2 0.66219978E-01 0.99993479E+03</pdfrwt>
<pdfrwt beam="2">  1       -2 0.89344458E-01 0.99993479E+03</pdfrwt>
<totfact> 0.94030836E+01</totfact>
</mgrwt>
</event>
<event>
 9    1  0.4388925E-036  0.1000332E+04  0.7818608E-02  0.8680722E-01
          2   -1    0    0  501    0  0.00000000000E+00  0.00000000000E+00  0.18110585618E+04  0.18110585618E+04  0.00000000000E+00 0.  1.
         -2   -1    0    0    0  501 -0.00000000000E+00 -0.00000000000E+00 -0.13813241180E+03  0.13813241180E+03  0.00000000000E+00 0.  1.
         36    2    1    2    0    0  0.00000000000E+00  0.14210854715E-13  0.16729261500E+04  0.19491909736E+04  0.10003317191E+04 0.  0.
         25    2    3    3    0    0 -0.11784152302E+03  0.76522371393E+02  0.33533354430E+03  0.38356949644E+03  0.12220750710E+03 0.  0.
         35    2    3    3    0    0  0.11784152302E+03 -0.76522371393E+02  0.13375926057E+04  0.15656214771E+04  0.80142019757E+03 0.  0.
         22    1    5    5    0    0 -0.33034374436E+03  0.78143390168E+02  0.56762872779E+03  0.66138925867E+03  0.00000000000E+00 0.  1.
         22    1    5    5    0    0  0.44818526738E+03 -0.15466576156E+03  0.76996387787E+03  0.90423221847E+03  0.00000000000E+00 0.  1.
          5    1    4    4  502    0  0.48304478263E+01  0.61149012324E+02  0.13045248604E+03  0.14423063491E+03  0.47000000000E+01 0.  1.
         -5    1    4    4    0  502 -0.12267197084E+03  0.15373359069E+02  0.20488105827E+03  0.23933886153E+03  0.47000000000E+01 0.  1.
<mgrwt>
<rscale>  0 0.10003317E+04</rscale>
<asrwt>0</asrwt>
<pdfrwt beam="1">  1        2 0.27862438E+00 0.10003317E+04</pdfrwt>
<pdfrwt beam="2">  1       -2 0.21251142E-01 0.10003317E+04</pdfrwt>
<totfact> 0.19305529E+02</totfact>
</mgrwt>
</event>
<event>
 9    1  0.4388925E-036  0.9971848E+03  0.7818608E-02  0.8683723E-01
          2   -1    0    0  501    0  0.00000000000E+00  0.00000000000E+00  0.37402698463E+04  0.37402698463E+04  0.00000000000E+00 0.  1.
         -2   -1    0    0    0  501 -0.00000000000E+00 -0.00000000000E+00 -0.66464295375E+02  0.66464295375E+02  0.00000000000E+00 0.  1.
         36    2    1    2    0    0 -0.14210854715E-13 -0.28421709430E-13  0.36738055509E+04  0.38067341417E+04  0.99718483713E+03 0.  0.
         25    2    3    3    0    0 -0.79002286441E+02 -0.10192788688E+03  0.59646244733E+03  0.62461637324E+03  0.13321977053E+03 0.  0.
         35    2    3    3    0    0  0.79002286441E+02  0.10192788688E+03  0.30773431036E+04  0.31821177685E+04  0.79950125676E+03 0.  0.
         22    1    5    5    0    0 -0.30916826956E+03  0.17700574654E+03  0.87803841174E+03  0.94755870831E+03  0.00000000000E+00 0. -1.
         22    1    5    5    0    0  0.38817055600E+03 -0.75077859664E+02  0.21993046919E+04  0.22345590601E+04  0.00000000000E+00 0. -1.
          5    1    4    4  502    0 -0.19042424699E+02 -0.11760759321E+03  0.32644841136E+03  0.34754109858E+03  0.47000000000E+01 0. -1.
         -5    1    4    4    0  502 -0.59959861743E+02  0.15679706331E+02  0.27001403597E+03  0.27707527467E+03  0.47000000000E+01 0. -1.
<mgrwt>
<rscale>  0 0.99718484E+03</rscale>
<asrwt>0</asrwt>
<pdfrwt beam="1">  1        2 0.57542597E+00 0.99718484E+03</pdfrwt>
<pdfrwt beam="2">  1       -2 0.10225279E-01 0.99718484E+03</pdfrwt>
<totfact> 0.36128111E+01</totfact>
</mgrwt>
</event>
<event>
 9    1  0.4388925E-036  0.9997052E+03  0.7818608E-02  0.8681319E-01
          2   -1    0    0  501    0  0.00000000000E+00  0.00000000000E+00  0.14176336844E+04  0.14176336844E+04  0.00000000000E+00 0.  1.
         -2   -1    0    0    0  501 -0.00000000000E+00 -0.00000000000E+00 -0.17624624124E+03  0.17624624124E+03  0.00000000000E+00 0.  1.
         36    2    1    2    0    0  0.14210854715E-13 -0.14210854715E-13  0.12413874432E+04  0.15938799256E+04  0.99970517319E+03 0.  0.
         25    2    3    3    0    0 -0.91389333101E+02  0.87595258689E+02  0.16136724163E+03  0.24071302828E+03  0.12600966536E+03 0.  0.
         35    2    3    3    0    0  0.91389333101E+02 -0.87595258689E+02  0.10800202015E+04  0.13531668974E+04  0.80535214461E+03 0.  0.
         22    1    5    5    0    0  0.66892138938E+02 -0.82278133821E+01 -0.12674322480E+03  0.14354825041E+03  0.00000000000E+00 0.  1.
         22    1    5    5    0    0  0.24497194163E+02 -0.79367445307E+02  0.12067634263E+04  0.12096186469E+04  0.00000000000E+00 0.  1.
          5    1    4    4  502    0  0.23500399230E+02  0.27773343256E+02  0.40951832167E+01  0.36911893547E+02  0.47000000000E+01 0.  1.
         -5    1    4    4    0  502 -0.11488973233E+03  0.59821915432E+02  0.15727205841E+03  0.20380113473E+03  0.47000000000E+01 0.  1.
<mgrwt>
<rscale>  0 0.99970517E+03</rscale>
<asrwt>0</asrwt>
<pdfrwt beam="1">  1        2 0.21809748E+00 0.99970517E+03</pdfrwt>
<pdfrwt beam="2">  1       -2 0.27114807E-01 0.99970517E+03</pdfrwt>
<totfact> 0.20941649E+02</totfact>
</mgrwt>
</event>
<event>
 9    1  0.4388925E-036  0.1005062E+04  0.7818608E-02  0.8676232E-01
          1   -1    0    0  501    0  0.00000000000E+00  0.00000000000E+00  0.68015161891E+03  0.68015161891E+03  0.00000000000E+00 0.  1.
         -1   -1    0    0    0  501 -0.00000000000E+00 -0.00000000000E+00 -0.37129580819E+03  0.37129580819E+03  0.00000000000E+00 0.  1.
         36    2    1    2    0    0  0.00000000000E+00  0.14210854715E-13  0.30885581073E+03  0.10514474271E+04  0.10050620778E+04 0.  0.
         25    2    3    3    0    0 -0.89098811155E+02 -0.90355401953E+02 -0.15082584481E+02  0.17922472721E+03  0.12566352564E+03 0.  0.
         35    2    3    3    0    0  0.89098811155E+02  0.90355401953E+02  0.32393839521E+03  0.87222269989E+03  0.79983351862E+03 0.  0.
         22    1    5    5    0    0  0.19062809529E+03 -0.32431434094E+03  0.20790063513E+03  0.42981570066E+03  0.00000000000E+00 0.  1.
         22    1    5    5    0    0 -0.10152928413E+03  0.41466974289E+03  0.11603776008E+03  0.44240699923E+03  0.00000000000E+00 0.  1.
          5    1    4    4  502    0 -0.11916307897E+03 -0.58370406094E+02 -0.21854599778E+02  0.13456097960E+03  0.47000000000E+01 0.  1.
         -5    1    4    4    0  502  0.30064267819E+02 -0.31984995859E+02  0.67720152977E+01  0.44663747612E+02  0.47000000000E+01 0.  1.
<mgrwt>
<rscale>  0 0.10050621E+04</rscale>
<asrwt>0</asrwt>
<pdfrwt beam="1">  1        1 0.10463871E+00 0.10050621E+04</pdfrwt>
<pdfrwt beam="2">  1       -1 0.57122432E-01 0.10050621E+04</pdfrwt>
<totfact> 0.10179690E+02</totfact>
</mgrwt>
</event>
<event>
 9    1  0.4388925E-036  0.1008157E+04  0.7818608E-02  0.8673309E-01
          2   -1    0    0  501    0  0.00000000000E+00  0.00000000000E+00  0.74672847395E+03  0.74672847395E+03  0.00000000000E+00 0.  1.
         -2   -1    0    0    0  501 -0.00000000000E+00 -0.00000000000E+00 -0.34027766520E+03  0.34027766520E+03  0.00000000000E+00 0.  1.
         36    2    1    2    0    0 -0.28421709430E-13 -0.71054273576E-14  0.40645080875E+03  0.10870061392E+04  0.10081567768E+04 0.  0.
         25    2    3    3    0    0  0.10619284282E+03 -0.48922164124E+02  0.17949895069E+03  0.24806939592E+03  0.12509298095E+03 0.  0.
         35    2    3    3    0    0 -0.10619284282E+03  0.48922164124E+02  0.22695185807E+03  0.83893674324E+03  0.79914793078E+03 0.  0.
         22    1    5    5    0    0 -0.32496918058E+03 -0.27108305785E+02 -0.17867738501E+03  0.37184060628E+03  0.00000000000E+00 0. -1.
         22    1    5    5    0    0  0.21877633776E+03  0.76030469909E+02  0.40562924308E+03  0.46709613695E+03  0.00000000000E+00 0. -1.
          5    1    4    4  502    0 -0.37172370254E+01 -0.12322702920E+02  0.11417446260E+03  0.11499375969E+03  0.47000000000E+01 0. -1.
         -5    1    4    4    0  502  0.10991007985E+03 -0.36599461204E+02  0.65324488084E+02  0.13307563622E+03  0.47000000000E+01 0. -1.
<mgrwt>
<rscale>  0 0.10081568E+04</rscale>
<asrwt>0</asrwt>
<pdfrwt beam="1">  1        2 0.11488130E+00 0.10081568E+04</pdfrwt>
<pdfrwt beam="2">  1       -2 0.52350410E-01 0.10081568E+04</pdfrwt>
<totfact> 0.15727295E+02</totfact>
</mgrwt>
</event>
<event>
 9    1  0.4388925E-036  0.1000610E+04  0.7818608E-02  0.8680458E-01
          1   -1    0    0  501    0  0.00000000000E+00  0.00000000000E+00  0.27072523552E+03  0.27072523552E+03  0.00000000000E+00 0. -1.
         -1   -1    0    0    0  501 -0.00000000000E+00 -0.00000000000E+00 -0.92457178011E+03  0.92457178011E+03  0.00000000000E+00 0. -1.
         36    2    1    2    0    0  0.00000000000E+00  0.00000000000E+00 -0.65384654459E+03  0.11952970156E+04  0.10006096400E+04 0.  0.
         25    2    3    3    0    0  0.31840465516E+02 -0.12234103395E+03 -0.56599947699E+02  0.18665440055E+03  0.12512061115E+03 0.  0.
         35    2    3    3    0    0 -0.31840465516E+02  0.12234103395E+03 -0.59724659689E+03  0.10086426151E+04  0.80291673517E+03 0.  0.
         22    1    5    5    0    0 -0.41398578926E+03  0.91120777260E+02 -0.37185880199E+03  0.56388491590E+03  0.00000000000E+00 0. -1.
         22    1    5    5    0    0  0.38214532375E+03  0.31220256689E+02 -0.22538779490E+03  0.44475769918E+03  0.00000000000E+00 0. -1.
          5    1    4    4  502    0 -0.53361182307E+01 -0.48457675905E+02  0.37204847345E+02  0.61505375195E+02  0.47000000000E+01 0.  1.
         -5    1    4    4    0  502  0.37176583747E+02 -0.73883358044E+02 -0.93804795044E+02  0.12514902536E+03  0.47000000000E+01 0.  1.
<mgrwt>
<rscale>  0 0.10006096E+04</rscale>
<asrwt>0</asrwt>
<pdfrwt beam="1">  1        1 0.41650036E-01 0.10006096E+04</pdfrwt>
<pdfrwt beam="2">  1       -1 0.14224181E+00 0.10006096E+04</pdfrwt>
<totfact> 0.47776883E+01</totfact>
</mgrwt>
</event>
<event>
 9    1  0.4388925E-036  0.9993943E+03  0.7818608E-02  0.8681615E-01
         -4   -1    0    0    0  501 -0.00000000000E+00  0.00000000000E+00  0.67346218337E+03  0.67346218337E+03  0.00000000000E+00 0.  1.
          4   -1    0    0  501    0  0.00000000000E+00 -0.00000000000E+00 -0.37076650823E+03  0.37076650823E+03  0.00000000000E+00 0.  1.
         36    2    1    2    0    0  0.14210854715E-13  0.28421709430E-13  0.30269567515E+03  0.10442286916E+04  0.99939426084E+03 0.  0.
         25    2    3    3    0    0  0.22496856653E+01 -0.80331009786E+02 -0.67158080177E+02  0.16169335062E+03  0.12319253095E+03 0.  0.
         35    2    3    3    0    0 -0.22496856653E+01  0.80331009786E+02  0.36985375532E+03  0.88253534098E+03  0.79725698211E+03 0.  0.
         22    1    5    5    0    0  0.18245159178E+03  0.21635394673E+03  0.53133768029E+03  0.60201108305E+03  0.00000000000E+00 0.  1.
         22    1    5    5    0    0 -0.18470127744E+03 -0.13602293694E+03 -0.16148392497E+03  0.28052425793E+03  0.00000000000E+00 0.  1.
          5    1    4    4  502    0  0.52624741493E+02 -0.73106285349E+02 -0.20518787470E+02  0.92504070256E+02  0.47000000000E+01 0.  1.
         -5    1    4    4    0  502 -0.50375055828E+02 -0.72247244366E+01 -0.46639292707E+02  0.69189280362E+02  0.47000000000E+01 0.  1.
<mgrwt>
<rscale>  0 0.99939426E+03</rscale>
<asrwt>0</asrwt>
<pdfrwt beam="1">  1        4 0.57041001E-01 0.99939426E+03</pdfrwt>
<pdfrwt beam="2">  1       -4 0.10360957E+00 0.99939426E+03</pdfrwt>
<totfact> 0.49450300E+00</totfact>
</mgrwt>
</event>
<event>
 9    1  0.4388925E-036  0.9996702E+03  0.7818608E-02  0.8681352E-01
          2   -1    0    0  501    0  0.00000000000E+00  0.00000000000E+00  0.96422714557E+03  0.96422714557E+03  0.00000000000E+00 0.  1.
         -2   -1    0    0    0  501 -0.00000000000E+00 -0.00000000000E+00 -0.25910401833E+03  0.25910401833E+03  0.00000000000E+00 0.  1.
         36    2    1    2    0    0 -0.10658141036E-13  0.42632564146E-13  0.70512312724E+03  0.12233311639E+04  0.99967020162E+03 0.  0.
         25    2    3    3    0    0  0.59007080533E+01  0.46923689311E+02 -0.28961147133E+02  0.13595826718E+03  0.12413400581E+03 0.  0.
         35    2    3    3    0    0 -0.59007080533E+01 -0.46923689311E+02  0.73408427437E+03  0.10873728967E+04  0.80078926296E+03 0.  0.
         22    1    5    5    0    0  0.17832346261E+03 -0.36976170267E+03  0.26395325987E+03  0.48805153157E+03  0.00000000000E+00 0. -1.
         22    1    5    5    0    0 -0.18422417066E+03  0.32283801336E+03  0.47013101450E+03  0.59932136515E+03  0.00000000000E+00 0. -1.
          5    1    4    4  502    0 -0.12748693871E+02  0.19082512969E+02 -0.75141029748E+02  0.78707914775E+02  0.47000000000E+01 0.  1.
         -5    1    4    4    0  502  0.18649401924E+02  0.27841176342E+02  0.46179882616E+02  0.57250352406E+02  0.47000000000E+01 0.  1.
<mgrwt>
<rscale>  0 0.99967020E+03</rscale>
<asrwt>0</asrwt>
<pdfrwt beam="1">  1        2 0.14834264E+00 0.99967020E+03</pdfrwt>
<pdfrwt beam="2">  1       -2 0.39862157E-01 0.99967020E+03</pdfrwt>
<totfact> 0.19130095E+02</totfact>
</mgrwt>
</event>
<event>
 9    1  0.4388925E-036  0.9950575E+03  0.7818608E-02  0.8685759E-01
          2   -1    0    0  501    0  0.00000000000E+00  0.00000000000E+00  0.71650216517E+03  0.71650216517E+03  0.00000000000E+00 0. -1.
         -2   -1    0    0    0  501 -0.00000000000E+00 -0.00000000000E+00 -0.34547679977E+03  0.34547679977E+03  0.00000000000E+00 0. -1.
         36    2    1    2    0    0 -0.71054273576E-14  0.28421709430E-13  0.37102536540E+03  0.10619789649E+04  0.99505753613E+03 0.  0.
         25    2    3    3    0    0  0.28343578738E+02  0.13050540065E+03  0.66097363783E+02  0.19472618311E+03  0.12535711720E+03 0.  0.
         35    2    3    3    0    0 -0.28343578738E+02 -0.13050540065E+03  0.30492800162E+03  0.86725278183E+03  0.80081913275E+03 0.  0.
         22    1    5    5    0    0  0.28347254273E+03 -0.17475522588E+03 -0.10604023741E+03  0.34948619916E+03  0.00000000000E+00 0. -1.
         22    1    5    5    0    0 -0.31181612146E+03  0.44249825232E+02  0.41096823903E+03  0.51776658267E+03  0.00000000000E+00 0. -1.
          5    1    4    4  502    0  0.53138453473E+02  0.13991123905E+03  0.73489036944E+02  0.16679801737E+03  0.47000000000E+01 0. -1.
         -5    1    4    4    0  502 -0.24794874736E+02 -0.94058383932E+01 -0.73916731606E+01  0.27928165732E+02  0.47000000000E+01 0. -1.
<mgrwt>
<rscale>  0 0.99505754E+03</rscale>
<asrwt>0</asrwt>
<pdfrwt beam="1">  1        2 0.11023110E+00 0.99505754E+03</pdfrwt>
<pdfrwt beam="2">  1       -2 0.53150277E-01 0.99505754E+03</pdfrwt>
<totfact> 0.16063626E+02</totfact>
</mgrwt>
</event>
<event>
 9    1  0.4388925E-036  0.9998279E+03  0.7818608E-02  0.8681202E-01
          1   -1    0    0  501    0  0.00000000000E+00  0.00000000000E+00  0.17619991828E+04  0.17619991828E+04  0.00000000000E+00 0. -1.
         -1   -1    0    0    0  501 -0.00000000000E+00 -0.00000000000E+00 -0.14183546402E+03  0.14183546402E+03  0.00000000000E+00 0. -1.
         36    2    1    2    0    0  0.14210854715E-13  0.14210854715E-13  0.16201637188E+04  0.19038346468E+04  0.99982792857E+03 0.  0.
         25    2    3    3    0    0 -0.14460920578E+02  0.10834986872E+03  0.47156414542E+03  0.49964993269E+03  0.12380831844E+03 0.  0.
         35    2    3    3    0    0  0.14460920578E+02 -0.10834986872E+03  0.11485995733E+04  0.14041847141E+04  0.80031551226E+03 0.  0.
         22    1    5    5    0    0  0.18072773003E+03  0.28806991154E+03  0.30248420890E+03  0.45513018244E+03  0.00000000000E+00 0.  1.
         22    1    5    5    0    0 -0.16626680946E+03 -0.39641978026E+03  0.84611536444E+03  0.94905453165E+03  0.00000000000E+00 0.  1.
          5    1    4    4  502    0 -0.31009776386E+02 -0.13658448603E+02  0.51021061563E+02  0.61427991769E+02  0.47000000000E+01 0. -1.
         -5    1    4    4    0  502  0.16548855808E+02  0.12200831732E+03  0.42054308386E+03  0.43822194092E+03  0.47000000000E+01 0. -1.
<mgrwt>
<rscale>  0 0.99982793E+03</rscale>
<asrwt>0</asrwt>
<pdfrwt beam="1">  1        1 0.27107678E+00 0.99982793E+03</pdfrwt>
<pdfrwt beam="2">  1       -1 0.21820842E-01 0.99982793E+03</pdfrwt>
<totfact> 0.80974646E+01</totfact>
</mgrwt>
</event>
<event>
 9    1  0.4388925E-036  0.9985605E+03  0.7818608E-02  0.8682410E-01
          2   -1    0    0  501    0  0.00000000000E+00  0.00000000000E+00  0.13917366082E+04  0.13917366082E+04  0.00000000000E+00 0. -1.
         -2   -1    0    0    0  501 -0.00000000000E+00 -0.00000000000E+00 -0.17911489971E+03  0.17911489971E+03  0.00000000000E+00 0. -1.
         36    2    1    2    0    0  0.42632564146E-13  0.00000000000E+00  0.12126217085E+04  0.15708515079E+04  0.99856048992E+03 0.  0.
         25    2    3    3    0    0  0.10049763340E+03 -0.67683611029E+02  0.33152720382E+03  0.37455670761E+03  0.12530600473E+03 0.  0.
         35    2    3    3    0    0 -0.10049763340E+03  0.67683611029E+02  0.88109450470E+03  0.11962948003E+04  0.80007054538E+03 0.  0.
         22    1    5    5    0    0 -0.44558806583E+03 -0.10011884570E+02  0.39797564915E+03  0.59752286949E+03  0.00000000000E+00 0.  1.
         22    1    5    5    0    0  0.34509043243E+03  0.77695495599E+02  0.48311885555E+03  0.59877193085E+03  0.00000000000E+00 0.  1.
          5    1    4    4  502    0  0.75392838579E+02 -0.16194429054E+02  0.62251495961E+02  0.99215313288E+02  0.47000000000E+01 0.  1.
         -5    1    4    4    0  502  0.25104794819E+02 -0.51489181975E+02  0.26927570786E+03  0.27534139432E+03  0.47000000000E+01 0.  1.
<mgrwt>
<rscale>  0 0.99856049E+03</rscale>
<asrwt>0</asrwt>
<pdfrwt beam="1">  1        2 0.21411332E+00 0.99856049E+03</pdfrwt>
<pdfrwt beam="2">  1       -2 0.27556139E-01 0.99856049E+03</pdfrwt>
<totfact> 0.21047731E+02</totfact>
</mgrwt>
</event>
<event>
 9    1  0.4388925E-036  0.1001220E+04  0.7818608E-02  0.8679877E-01
          2   -1    0    0  501    0  0.00000000000E+00  0.00000000000E+00  0.12326534002E+04  0.12326534002E+04  0.00000000000E+00 0.  1.
         -2   -1    0    0    0  501 -0.00000000000E+00 -0.00000000000E+00 -0.20330959238E+03  0.20330959238E+03  0.00000000000E+00 0.  1.
         36    2    1    2    0    0 -0.28421709430E-13 -0.28421709430E-13  0.10293438079E+04  0.14359629926E+04  0.10012197768E+04 0.  0.
         25    2    3    3    0    0 -0.10975410411E+03  0.51482260193E+02  0.30271629249E+03  0.34885580381E+03  0.12396302527E+03 0.  0.
         35    2    3    3    0    0  0.10975410411E+03 -0.51482260193E+02  0.72662751538E+03  0.10871071888E+04  0.79944862711E+03 0.  0.
         22    1    5    5    0    0  0.30387117950E+02 -0.42174655773E+03  0.45461476214E+03  0.62086078781E+03  0.00000000000E+00 0. -1.
         22    1    5    5    0    0  0.79366986162E+02  0.37026429753E+03  0.27201275324E+03  0.46624640100E+03  0.00000000000E+00 0. -1.
          5    1    4    4  502    0  0.27602878118E+02  0.11316678390E+02  0.53082936367E+02  0.61072696220E+02  0.47000000000E+01 0.  1.
         -5    1    4    4    0  502 -0.13735698223E+03  0.40165581802E+02  0.24963335612E+03  0.28778310760E+03  0.47000000000E+01 0.  1.
<mgrwt>
<rscale>  0 0.10012198E+04</rscale>
<asrwt>0</asrwt>
<pdfrwt beam="1">  1        2 0.18963898E+00 0.10012198E+04</pdfrwt>
<pdfrwt beam="2">  1       -2 0.31278400E-01 0.10012198E+04</pdfrwt>
<totfact> 0.20669168E+02</totfact>
</mgrwt>
</event>
<event>
 9    1  0.4388925E-036  0.9996201E+03  0.7818608E-02  0.8681400E-01
         -1   -1    0    0    0  501 -0.00000000000E+00  0.00000000000E+00  0.43040602744E+03  0.43040602744E+03  0.00000000000E+00 0.  1.
          1   -1    0    0  501    0  0.00000000000E+00 -0.00000000000E+00 -0.58040568177E+03  0.58040568177E+03  0.00000000000E+00 0.  1.
         36    2    1    2    0    0  0.35527136788E-14  0.00000000000E+00 -0.14999965433E+03  0.10108117092E+04  0.99962013544E+03 0.  0.
         25    2    3    3    0    0 -0.21292363452E+02 -0.93362485459E+02 -0.13062369538E+03  0.20456102983E+03  0.12495097718E+03 0.  0.
         35    2    3    3    0    0  0.21292363452E+02  0.93362485459E+02 -0.19375958948E+02  0.80625067938E+03  0.80030919761E+03 0.  0.
         22    1    5    5    0    0  0.18983173400E+01 -0.35238418981E+03 -0.62919942573E+02  0.35796248408E+03  0.00000000000E+00 0.  1.
         22    1    5    5    0    0  0.19394046112E+02  0.44574667527E+03  0.43543983625E+02  0.44828819530E+03  0.00000000000E+00 0.  1.
          5    1    4    4  502    0  0.51728197140E+02 -0.26524491688E+02 -0.48540189426E+02  0.75878818046E+02  0.47000000000E+01 0. -1.
         -5    1    4    4    0  502 -0.73020560592E+02 -0.66837993772E+02 -0.82083505957E+02  0.12868221179E+03  0.47000000000E+01 0. -1.
<mgrwt>
<rscale>  0 0.99962014E+03</rscale>
<asrwt>0</asrwt>
<pdfrwt beam="1">  1        1 0.89293181E-01 0.99962014E+03</pdfrwt>
<pdfrwt beam="2">  1       -1 0.66216312E-01 0.99962014E+03</pdfrwt>
<totfact> 0.96905325E+01</totfact>
</mgrwt>
</event>
<event>
 9    1  0.4388925E-036  0.9993607E+03  0.7818608E-02  0.8681647E-01
         -2   -1    0    0    0  501 -0.00000000000E+00  0.00000000000E+00  0.80620503978E+02  0.80620503978E+02  0.00000000000E+00 0. -1.
          2   -1    0    0  501    0  0.00000000000E+00 -0.00000000000E+00 -0.30969842316E+04  0.30969842316E+04  0.00000000000E+00 0. -1.
         36    2    1    2    0    0 -0.14210854715E-13  0.21316282073E-13 -0.30163637276E+04  0.31776047356E+04  0.99936065475E+03 0.  0.
         25    2    3    3    0    0  0.87284996564E+02 -0.29437214646E+02 -0.89672910202E+03  0.91009708284E+03  0.12517346982E+03 0.  0.
         35    2    3    3    0    0 -0.87284996564E+02  0.29437214646E+02 -0.21196346256E+04  0.22675076528E+04  0.80015922726E+03 0.  0.
         22    1    5    5    0    0  0.23245411666E+03 -0.27724319913E+03 -0.90935879207E+03  0.97868898049E+03  0.00000000000E+00 0. -1.
         22    1    5    5    0    0 -0.31973911322E+03  0.30668041378E+03 -0.12102758335E+04  0.12888186723E+04  0.00000000000E+00 0. -1.
          5    1    4    4  502    0  0.13331409728E+02 -0.48231781191E+02 -0.64648790483E+03  0.64843868815E+03  0.47000000000E+01 0. -1.
         -5    1    4    4    0  502  0.73953586836E+02  0.18794566546E+02 -0.25024119720E+03  0.26165839469E+03  0.47000000000E+01 0. -1.
<mgrwt>
<rscale>  0 0.99936065E+03</rscale>
<asrwt>0</asrwt>
<pdfrwt beam="1">  1        2 0.47645913E+00 0.99936065E+03</pdfrwt>
<pdfrwt beam="2">  1       -2 0.12403154E-01 0.99936065E+03</pdfrwt>
<totfact> 0.78957318E+01</totfact>
</mgrwt>
</event>
<event>
 9    1  0.4388925E-036  0.1000677E+04  0.7818608E-02  0.8680393E-01
         -2   -1    0    0    0  501 -0.00000000000E+00  0.00000000000E+00  0.22933796361E+03  0.22933796361E+03  0.00000000000E+00 0.  1.
          2   -1    0    0  501    0  0.00000000000E+00 -0.00000000000E+00 -0.10915716893E+04  0.10915716893E+04  0.00000000000E+00 0.  1.
         36    2    1    2    0    0 -0.28421709430E-13 -0.28421709430E-13 -0.86223372574E+03  0.13209096530E+04  0.10006774273E+04 0.  0.
         25    2    3    3    0    0 -0.10438533331E+03  0.55216045829E+02 -0.23852585780E+03  0.29450414883E+03  0.12606743955E+03 0.  0.
         35    2    3    3    0    0  0.10438533331E+03 -0.55216045829E+02 -0.62370786795E+03  0.10264055041E+04  0.80656781787E+03 0.  0.
         22    1    5    5    0    0  0.27597882232E+03 -0.26804060393E+03 -0.46234276358E+02  0.38748894698E+03  0.00000000000E+00 0. -1.
         22    1    5    5    0    0 -0.17159348901E+03  0.21282455810E+03 -0.57747359159E+03  0.63891655714E+03  0.00000000000E+00 0. -1.
          5    1    4    4  502    0 -0.92429696895E+02  0.39190923877E+02 -0.25106899543E+03  0.27043836239E+03  0.47000000000E+01 0. -1.
         -5    1    4    4    0  502 -0.11955636412E+02  0.16025121952E+02  0.12543137636E+02  0.24065786447E+02  0.47000000000E+01 0. -1.
<mgrwt>
<rscale>  0 0.10006774E+04</rscale>
<asrwt>0</asrwt>
<pdfrwt beam="1">  1        2 0.16793411E+00 0.10006774E+04</pdfrwt>
<pdfrwt beam="2">  1       -2 0.35282764E-01 0.10006774E+04</pdfrwt>
<totfact> 0.20076409E+02</totfact>
</mgrwt>
</event>
<event>
 9    1  0.4388925E-036  0.9999787E+03  0.7818608E-02  0.8681058E-01
         -1   -1    0    0    0  501 -0.00000000000E+00  0.00000000000E+00  0.84002165552E+03  0.84002165552E+03  0.00000000000E+00 0. -1.
          1   -1    0    0  501    0  0.00000000000E+00 -0.00000000000E+00 -0.29759869030E+03  0.29759869030E+03  0.00000000000E+00 0. -1.
         36    2    1    2    0    0  0.00000000000E+00 -0.49737991503E-13  0.54242296522E+03  0.11376203458E+04  0.99997868879E+03 0.  0.
         25    2    3    3    0    0  0.45393022796E+02  0.17588567052E+02 -0.45922249721E+02  0.14271753977E+03  0.12605379379E+03 0.  0.
         35    2    3    3    0    0 -0.45393022796E+02 -0.17588567052E+02  0.58834521494E+03  0.99490280605E+03  0.80081934127E+03 0.  0.
         22    1    5    5    0    0  0.19034857992E+03  0.29726753322E+03  0.98085321598E+02  0.36636225037E+03  0.00000000000E+00 0.  1.
         22    1    5    5    0    0 -0.23574160271E+03 -0.31485610027E+03  0.49025989334E+03  0.62854055569E+03  0.00000000000E+00 0.  1.
          5    1    4    4  502    0 -0.14580540390E+02 -0.36769418354E+02  0.13649620680E+02  0.42106821643E+02  0.47000000000E+01 0.  1.
         -5    1    4    4    0  502  0.59973563186E+02  0.54357985406E+02 -0.59571870401E+02  0.10061071813E+03  0.47000000000E+01 0.  1.
<mgrwt>
<rscale>  0 0.99997869E+03</rscale>
<asrwt>0</asrwt>
<pdfrwt beam="1">  1        1 0.45784414E-01 0.99997869E+03</pdfrwt>
<pdfrwt beam="2">  1       -1 0.12923410E+00 0.99997869E+03</pdfrwt>
<totfact> 0.54641334E+01</totfact>
</mgrwt>
</event>
<event>
 9    1  0.4388925E-036  0.1000163E+04  0.7818608E-02  0.8680883E-01
         -1   -1    0    0    0  501 -0.00000000000E+00  0.00000000000E+00  0.14885227515E+03  0.14885227515E+03  0.00000000000E+00 0. -1.
          1   -1    0    0  501    0  0.00000000000E+00 -0.00000000000E+00 -0.16800653274E+04  0.16800653274E+04  0.00000000000E+00 0. -1.
         36    2    1    2    0    0  0.00000000000E+00  0.14210854715E-13 -0.15312130522E+04  0.18289176025E+04  0.10001630795E+04 0.  0.
         25    2    3    3    0    0  0.83748445348E+02  0.87452736405E+02 -0.16864339107E+03  0.24179893487E+03  0.12395300863E+03 0.  0.
         35    2    3    3    0    0 -0.83748445348E+02 -0.87452736405E+02 -0.13625696612E+04  0.15871186677E+04  0.80479053207E+03 0.  0.
         22    1    5    5    0    0  0.17533043973E+03  0.16753660446E+03 -0.82063830265E+02  0.25601513464E+03  0.00000000000E+00 0. -1.
         22    1    5    5    0    0 -0.25907888507E+03 -0.25498934086E+03 -0.12805058309E+04  0.13311035330E+04  0.00000000000E+00 0. -1.
          5    1    4    4  502    0  0.25545129412E+02  0.71399621058E+01  0.16585087363E+02  0.31633650096E+02  0.47000000000E+01 0.  1.
         -5    1    4    4    0  502  0.58203315936E+02  0.80312774299E+02 -0.18522847843E+03  0.21016528477E+03  0.47000000000E+01 0.  1.
<mgrwt>
<rscale>  0 0.10001631E+04</rscale>
<asrwt>0</asrwt>
<pdfrwt beam="1">  1        1 0.25847159E+00 0.10001631E+04</pdfrwt>
<pdfrwt beam="2">  1       -1 0.22900350E-01 0.10001631E+04</pdfrwt>
<totfact> 0.85328063E+01</totfact>
</mgrwt>
</event>
<event>
 9    1  0.4388925E-036  0.9998361E+03  0.7818608E-02  0.8681194E-01
          2   -1    0    0  501    0  0.00000000000E+00  0.00000000000E+00  0.60824380396E+03  0.60824380396E+03  0.00000000000E+00 0. -1.
         -2   -1    0    0    0  501 -0.00000000000E+00 -0.00000000000E+00 -0.41088467398E+03  0.41088467398E+03  0.00000000000E+00 0. -1.
         36    2    1    2    0    0  0.14210854715E-13 -0.28421709430E-13  0.19735912998E+03  0.10191284779E+04  0.99983610075E+03 0.  0.
         25    2    3    3    0    0 -0.11082402342E+03 -0.92617152241E+02  0.26947899909E+02  0.19047283130E+03  0.12121802299E+03 0.  0.
         35    2    3    3    0    0  0.11082402342E+03  0.92617152241E+02  0.17041123007E+03  0.82865564664E+03  0.79797887961E+03 0.  0.
         22    1    5    5    0    0 -0.23031045928E+03 -0.23645510245E+03  0.12320713990E+03  0.35232644302E+03  0.00000000000E+00 0.  1.
         22    1    5    5    0    0  0.34113448270E+03  0.32907225469E+03  0.47204090174E+02  0.47632920362E+03  0.00000000000E+00 0.  1.
          5    1    4    4  502    0 -0.44226045536E+02 -0.13185515402E+02  0.65083823794E+02  0.79923682597E+02  0.47000000000E+01 0.  1.
         -5    1    4    4    0  502 -0.66597977880E+02 -0.79431636838E+02 -0.38135923885E+02  0.11054914870E+03  0.47000000000E+01 0.  1.
<mgrwt>
<rscale>  0 0.99983610E+03</rscale>
<asrwt>0</asrwt>
<pdfrwt beam="1">  1        2 0.93575969E-01 0.99983610E+03</pdfrwt>
<pdfrwt beam="2">  1       -2 0.63213027E-01 0.99983610E+03</pdfrwt>
<totfact> 0.13679881E+02</totfact>
</mgrwt>
</event>
<event>
 9    1  0.4388925E-036  0.9983576E+03  0.7818608E-02  0.8682604E-01
         -1   -1    0    0    0  501 -0.00000000000E+00  0.00000000000E+00  0.34232644010E+03  0.34232644010E+03  0.00000000000E+00 0.  1.
          1   -1    0    0  501    0  0.00000000000E+00 -0.00000000000E+00 -0.72790015871E+03  0.72790015871E+03  0.00000000000E+00 0.  1.
         36    2    1    2    0    0 -0.14210854715E-13 -0.30198066270E-13 -0.38557371861E+03  0.10702265988E+04  0.99835759140E+03 0.  0.
         25    2    3    3    0    0  0.67474863141E+02 -0.40582198988E+01  0.57894243675E+02  0.15339934423E+03  0.12494114236E+03 0.  0.
         35    2    3    3    0    0 -0.67474863141E+02  0.40582198988E+01 -0.44346796228E+03  0.91682725458E+03  0.79958680258E+03 0.  0.
         22    1    5    5    0    0 -0.59939415752E+02 -0.26979951104E+03 -0.55580513298E+03  0.62072848780E+03  0.00000000000E+00 0.  1.
         22    1    5    5    0    0 -0.75354473893E+01  0.27385773094E+03  0.11233717070E+03  0.29609876677E+03  0.00000000000E+00 0.  1.
          5    1    4    4  502    0  0.89516452069E+02 -0.13145437875E+02 -0.14711088957E-01  0.90598498576E+02  0.47000000000E+01 0.  1.
         -5    1    4    4    0  502 -0.22041588927E+02  0.90872179764E+01  0.57908954764E+02  0.62800845654E+02  0.47000000000E+01 0.  1.
<mgrwt>
<rscale>  0 0.99835759E+03</rscale>
<asrwt>0</asrwt>
<pdfrwt beam="1">  1        1 0.11198464E+00 0.99835759E+03</pdfrwt>
<pdfrwt beam="2">  1       -1 0.52665607E-01 0.99835759E+03</pdfrwt>
<totfact> 0.10692459E+02</totfact>
</mgrwt>
</event>
<event>
 9    1  0.4388925E-036  0.9996983E+03  0.7818608E-02  0.8681325E-01
          2   -1    0    0  501    0  0.00000000000E+00  0.00000000000E+00  0.74387374003E+03  0.74387374003E+03  0.00000000000E+00 0. -1.
         -2   -1    0    0    0  501 -0.00000000000E+00 -0.00000000000E+00 -0.33587575451E+03  0.33587575451E+03  0.00000000000E+00 0. -1.
         36    2    1    2    0    0 -0.28421709430E-13  0.00000000000E+00  0.40799798552E+03  0.10797494945E+04  0.99969826186E+03 0.  0.
         25    2    3    3    0    0 -0.86865105655E+02 -0.88938814554E+02  0.13635423050E+03  0.22218519010E+03  0.12376640582E+03 0.  0.
         35    2    3    3    0    0  0.86865105655E+02  0.88938814554E+02  0.27164375502E+03  0.85756430444E+03  0.80384734079E+03 0.  0.
         22    1    5    5    0    0  0.30215032249E+03  0.11457249538E+03  0.46554154573E+03  0.56670151304E+03  0.00000000000E+00 0. -1.
         22    1    5    5    0    0 -0.21528521684E+03 -0.25633680824E+02 -0.19389779071E+03  0.29086279140E+03  0.00000000000E+00 0. -1.
          5    1    4    4  502    0 -0.79695712723E+02 -0.72918911417E+02  0.15954084844E+03  0.19272764874E+03  0.47000000000E+01 0.  1.
         -5    1    4    4    0  502 -0.71693929318E+01 -0.16019903137E+02 -0.23186617936E+02  0.29457541358E+02  0.47000000000E+01 0.  1.
<mgrwt>
<rscale>  0 0.99969826E+03</rscale>
<asrwt>0</asrwt>
<pdfrwt beam="1">  1        2 0.11444211E+00 0.99969826E+03</pdfrwt>
<pdfrwt beam="2">  1       -2 0.51673193E-01 0.99969826E+03</pdfrwt>
<totfact> 0.16227636E+02</totfact>
</mgrwt>
</event>
<event>
 9    1  0.4388925E-036  0.9997658E+03  0.7818608E-02  0.8681261E-01
         -2   -1    0    0    0  501 -0.00000000000E+00  0.00000000000E+00  0.19207806482E+03  0.19207806482E+03  0.00000000000E+00 0.  1.
          2   -1    0    0  501    0  0.00000000000E+00 -0.00000000000E+00 -0.13009445161E+04  0.13009445161E+04  0.00000000000E+00 0.  1.
         36    2    1    2    0    0  0.71054273576E-14 -0.14210854715E-13 -0.11088664513E+04  0.14930225809E+04  0.99976578274E+03 0.  0.
         25    2    3    3    0    0 -0.38860472638E+02  0.10754229389E+03 -0.32789087618E+03  0.36922691036E+03  0.12546156121E+03 0.  0.
         35    2    3    3    0    0  0.38860472638E+02 -0.10754229389E+03 -0.78097557509E+03  0.11237956705E+04  0.79994898521E+03 0.  0.
         22    1    5    5    0    0  0.27271386142E+03  0.23462575763E+03 -0.52579435087E+03  0.63708853055E+03  0.00000000000E+00 0. -1.
         22    1    5    5    0    0 -0.23385338878E+03 -0.34216805152E+03 -0.25518122423E+03  0.48670714000E+03  0.00000000000E+00 0. -1.
          5    1    4    4  502    0 -0.81648664825E+02  0.51704908155E+02 -0.22006788093E+03  0.24039938480E+03  0.47000000000E+01 0.  1.
         -5    1    4    4    0  502  0.42788192187E+02  0.55837385736E+02 -0.10782299525E+03  0.12882752556E+03  0.47000000000E+01 0.  1.
<mgrwt>
<rscale>  0 0.99976578E+03</rscale>
<asrwt>0</asrwt>
<pdfrwt beam="1">  1        2 0.20014531E+00 0.99976578E+03</pdfrwt>
<pdfrwt beam="2">  1       -2 0.29550472E-01 0.99976578E+03</pdfrwt>
<totfact> 0.20920232E+02</totfact>
</mgrwt>
</event>
<event>
 9    1  0.4388925E-036  0.1000390E+04  0.7818608E-02  0.8680667E-01
         -2   -1    0    0    0  501 -0.00000000000E+00  0.00000000000E+00  0.15233709255E+03  0.15233709255E+03  0.00000000000E+00 0.  1.
          2   -1    0    0  501    0  0.00000000000E+00 -0.00000000000E+00 -0.16423775062E+04  0.16423775062E+04  0.00000000000E+00 0.  1.
         36    2    1    2    0    0 -0.14210854715E-13  0.71054273576E-14 -0.14900404137E+04  0.17947145988E+04  0.10003899523E+04 0.  0.
         25    2    3    3    0    0 -0.12722302252E+03 -0.11478615420E+02 -0.17350655922E+03  0.24872100876E+03  0.12425843246E+03 0.  0.
         35    2    3    3    0    0  0.12722302252E+03  0.11478615420E+02 -0.13165338544E+04  0.15459935900E+04  0.80032326866E+03 0.  0.
         22    1    5    5    0    0  0.22369362739E+03  0.22982552388E+03 -0.12606826063E+04  0.13008379008E+04  0.00000000000E+00 0. -1.
         22    1    5    5    0    0 -0.96470604869E+02 -0.21834690846E+03 -0.55851248184E+02  0.24515568923E+03  0.00000000000E+00 0. -1.
          5    1    4    4  502    0 -0.13060331682E+03 -0.48628318323E+02 -0.12434906747E+03  0.18683340249E+03  0.47000000000E+01 0.  1.
         -5    1    4    4    0  502  0.33802942917E+01  0.37149702903E+02 -0.49157491743E+02  0.61887606269E+02  0.47000000000E+01 0.  1.
<mgrwt>
<rscale>  0 0.10003900E+04</rscale>
<asrwt>0</asrwt>
<pdfrwt beam="1">  1        2 0.25267346E+00 0.10003900E+04</pdfrwt>
<pdfrwt beam="2">  1       -2 0.23436476E-01 0.10003900E+04</pdfrwt>
<totfact> 0.20245536E+02</totfact>
</mgrwt>
</event>
<event>
 9    1  0.4388925E-036  0.1000546E+04  0.7818608E-02  0.8680518E-01
          1   -1    0    0  501    0  0.00000000000E+00  0.00000000000E+00  0.52399792708E+03  0.52399792708E+03  0.00000000000E+00 0. -1.
         -1   -1    0    0    0  501 -0.00000000000E+00 -0.00000000000E+00 -0.47762248399E+03  0.47762248399E+03  0.00000000000E+00 0. -1.
         36    2    1    2    0    0  0.00000000000E+00  0.14210854715E-13  0.46375443099E+02  0.10016204111E+04  0.10005462339E+04 0.  0.
         25    2    3    3    0    0  0.15700982544E+02 -0.71833585441E+02  0.12814429740E+03  0.19402111387E+03  0.12576425096E+03 0.  0.
         35    2    3    3    0    0 -0.15700982544E+02  0.71833585441E+02 -0.81768854305E+02  0.80759929720E+03  0.80007743029E+03 0.  0.
         22    1    5    5    0    0 -0.88134584490E+02  0.29692453049E+03 -0.33832958435E+03  0.45869247807E+03  0.00000000000E+00 0.  1.
         22    1    5    5    0    0  0.72433601945E+02 -0.22509094505E+03  0.25656073004E+03  0.34890681913E+03  0.00000000000E+00 0.  1.
          5    1    4    4  502    0  0.11514131949E+02 -0.67970153646E+02  0.15311315882E+03  0.16798287539E+03  0.47000000000E+01 0. -1.
         -5    1    4    4    0  502  0.41868505954E+01 -0.38634317944E+01 -0.24968861411E+02  0.26038238483E+02  0.47000000000E+01 0. -1.
<mgrwt>
<rscale>  0 0.10005462E+04</rscale>
<asrwt>0</asrwt>
<pdfrwt beam="1">  1        1 0.80615065E-01 0.10005462E+04</pdfrwt>
<pdfrwt beam="2">  1       -1 0.73480383E-01 0.10005462E+04</pdfrwt>
<totfact> 0.91163041E+01</totfact>
</mgrwt>
</event>
<event>
 9    1  0.4388925E-036  0.1000789E+04  0.7818608E-02  0.8680287E-01
          2   -1    0    0  501    0  0.00000000000E+00  0.00000000000E+00  0.11684765970E+04  0.11684765970E+04  0.00000000000E+00 0.  1.
         -2   -1    0    0    0  501 -0.00000000000E+00 -0.00000000000E+00 -0.21429147195E+03  0.21429147195E+03  0.00000000000E+00 0.  1.
         36    2    1    2    0    0 -0.14210854715E-13  0.28421709430E-13  0.95418512503E+03  0.13827680689E+04  0.10007888287E+04 0.  0.
         25    2    3    3    0    0  0.23709057433E+02  0.75859646211E+02  0.34193669763E+03  0.37250633830E+03  0.12459318425E+03 0.  0.
         35    2    3    3    0    0 -0.23709057433E+02 -0.75859646211E+02  0.61224842739E+03  0.10102617306E+04  0.79966481864E+03 0.  0.
         22    1    5    5    0    0 -0.28704830857E+03  0.17791410597E+03  0.52702680920E+02  0.34180072137E+03  0.00000000000E+00 0.  1.
         22    1    5    5    0    0  0.26333925113E+03 -0.25377375218E+03  0.55954574647E+03  0.66846100924E+03  0.00000000000E+00 0.  1.
          5    1    4    4  502    0  0.20649242261E+02  0.10437188873E+03  0.31632593704E+03  0.33377248360E+03  0.47000000000E+01 0.  1.
         -5    1    4    4    0  502  0.30598151717E+01 -0.28512242517E+02  0.25610760586E+02  0.38733854702E+02  0.47000000000E+01 0.  1.
<mgrwt>
<rscale>  0 0.10007888E+04</rscale>
<asrwt>0</asrwt>
<pdfrwt beam="1">  1        2 0.17976563E+00 0.10007888E+04</pdfrwt>
<pdfrwt beam="2">  1       -2 0.32967919E-01 0.10007888E+04</pdfrwt>
<totfact> 0.20474255E+02</totfact>
</mgrwt>
</event>
<event>
 9    1  0.4388925E-036  0.1000314E+04  0.7818608E-02  0.8680739E-01
          2   -1    0    0  501    0  0.00000000000E+00  0.00000000000E+00  0.12653711359E+04  0.12653711359E+04  0.00000000000E+00 0. -1.
         -2   -1    0    0    0  501 -0.00000000000E+00 -0.00000000000E+00 -0.19769443148E+03  0.19769443148E+03  0.00000000000E+00 0. -1.
         36    2    1    2    0    0 -0.14210854715E-13 -0.21316282073E-13  0.10676767044E+04  0.14630655673E+04  0.10003136055E+04 0.  0.
         25    2    3    3    0    0 -0.68991712866E+02 -0.42179439917E+02  0.36907650138E+03  0.39802048811E+03  0.12515543732E+03 0.  0.
         35    2    3    3    0    0  0.68991712866E+02  0.42179439917E+02  0.69860020300E+03  0.10650450792E+04  0.79983736821E+03 0.  0.
         22    1    5    5    0    0  0.16644538899E+03 -0.32353724073E+03  0.13903425241E+03  0.38950088190E+03  0.00000000000E+00 0. -1.
         22    1    5    5    0    0 -0.97453676124E+02  0.36571668065E+03  0.55956595059E+03  0.67554419734E+03  0.00000000000E+00 0. -1.
          5    1    4    4  502    0 -0.21396330118E+02 -0.36147318025E+02  0.33807406019E+03  0.34070601949E+03  0.47000000000E+01 0. -1.
         -5    1    4    4    0  502 -0.47595382748E+02 -0.60321218911E+01  0.31002441182E+02  0.57314468615E+02  0.47000000000E+01 0. -1.
<mgrwt>
<rscale>  0 0.10003136E+04</rscale>
<asrwt>0</asrwt>
<pdfrwt beam="1">  1        2 0.19467248E+00 0.10003136E+04</pdfrwt>
<pdfrwt beam="2">  1       -2 0.30414529E-01 0.10003136E+04</pdfrwt>
<totfact> 0.20818508E+02</totfact>
</mgrwt>
</event>
<event>
 9    1  0.4388925E-036  0.9995987E+03  0.7818608E-02  0.8681420E-01
         -1   -1    0    0    0  501 -0.00000000000E+00  0.00000000000E+00  0.19356001303E+03  0.19356001303E+03  0.00000000000E+00 0. -1.
          1   -1    0    0  501    0  0.00000000000E+00 -0.00000000000E+00 -0.12905527303E+04  0.12905527303E+04  0.00000000000E+00 0. -1.
         36    2    1    2    0    0  0.14210854715E-13 -0.14210854715E-13 -0.10969927173E+04  0.14841127433E+04  0.99959872608E+03 0.  0.
         25    2    3    3    0    0 -0.16931853296E+02  0.41440928186E+02 -0.40008288110E+03  0.42166465509E+03  0.12542221264E+03 0.  0.
         35    2    3    3    0    0  0.16931853296E+02 -0.41440928186E+02 -0.69690983618E+03  0.10624480882E+04  0.80069256414E+03 0.  0.
         22    1    5    5    0    0  0.22443872709E+03  0.30687589532E+03 -0.23116943061E+03  0.44495489995E+03  0.00000000000E+00 0.  1.
         22    1    5    5    0    0 -0.20750687380E+03 -0.34831682350E+03 -0.46574040557E+03  0.61749318829E+03  0.00000000000E+00 0.  1.
          5    1    4    4  502    0  0.26927062418E+02 -0.21437034437E+02 -0.25638697009E+03  0.25872955295E+03  0.47000000000E+01 0.  1.
         -5    1    4    4    0  502 -0.43858915713E+02  0.62877962623E+02 -0.14369591100E+03  0.16293510214E+03  0.47000000000E+01 0.  1.
<mgrwt>
<rscale>  0 0.99959873E+03</rscale>
<asrwt>0</asrwt>
<pdfrwt beam="1">  1        1 0.19854658E+00 0.99959873E+03</pdfrwt>
<pdfrwt beam="2">  1       -1 0.29778463E-01 0.99959873E+03</pdfrwt>
<totfact> 0.10402423E+02</totfact>
</mgrwt>
</event>
<event>
 9    1  0.4388925E-036  0.1000947E+04  0.7818608E-02  0.8680136E-01
         -1   -1    0    0    0  501 -0.00000000000E+00  0.00000000000E+00  0.14169378910E+03  0.14169378910E+03  0.00000000000E+00 0.  1.
          1   -1    0    0  501    0  0.00000000000E+00 -0.00000000000E+00 -0.17677119828E+04  0.17677119828E+04  0.00000000000E+00 0.  1.
         36    2    1    2    0    0 -0.28421709430E-13 -0.28421709430E-13 -0.16260181937E+04  0.19094057719E+04  0.10009471692E+04 0.  0.
         25    2    3    3    0    0  0.93467581697E+02  0.28262280425E+02 -0.50508597335E+03  0.52926198409E+03  0.12438433186E+03 0.  0.
         35    2    3    3    0    0 -0.93467581697E+02 -0.28262280425E+02 -0.11209322203E+04  0.13801437878E+04  0.79923268642E+03 0.  0.
         22    1    5    5    0    0 -0.24082501585E+03 -0.26939275661E+03 -0.19201487000E+03  0.40919293234E+03  0.00000000000E+00 0. -1.
         22    1    5    5    0    0  0.14735743415E+03  0.24113047619E+03 -0.92891735034E+03  0.97095085545E+03  0.00000000000E+00 0. -1.
          5    1    4    4  502    0  0.30941245514E+02 -0.38390093907E+02 -0.77369175412E+02  0.91865332351E+02  0.47000000000E+01 0.  1.
         -5    1    4    4    0  502  0.62526336184E+02  0.66652374331E+02 -0.42771679793E+03  0.43739665174E+03  0.47000000000E+01 0.  1.
<mgrwt>
<rscale>  0 0.10009472E+04</rscale>
<asrwt>0</asrwt>
<pdfrwt beam="1">  1        1 0.27195569E+00 0.10009472E+04</pdfrwt>
<pdfrwt beam="2">  1       -1 0.21799044E-01 0.10009472E+04</pdfrwt>
<totfact> 0.80356666E+01</totfact>
</mgrwt>
</event>
<event>
 9    1  0.4388925E-036  0.1000236E+04  0.7818608E-02  0.8680814E-01
          4   -1    0    0  501    0  0.00000000000E+00  0.00000000000E+00  0.21976048113E+03  0.21976048113E+03  0.00000000000E+00 0. -1.
         -4   -1    0    0    0  501 -0.00000000000E+00 -0.00000000000E+00 -0.11381382690E+04  0.11381382690E+04  0.00000000000E+00 0. -1.
         36    2    1    2    0    0 -0.71054273576E-14  0.28421709430E-13 -0.91837778784E+03  0.13578987501E+04  0.10002355994E+04 0.  0.
         25    2    3    3    0    0  0.28741674128E+02  0.12536783602E+03 -0.94493749770E+02  0.20287307242E+03  0.12524071472E+03 0.  0.
         35    2    3    3    0    0 -0.28741674128E+02 -0.12536783602E+03 -0.82388403807E+03  0.11550256777E+04  0.79922226559E+03 0.  0.
         22    1    5    5    0    0  0.32558030908E+03 -0.22265664032E+03 -0.61994884913E+03  0.73478914845E+03  0.00000000000E+00 0. -1.
         22    1    5    5    0    0 -0.35432198321E+03  0.97288804292E+02 -0.20393518895E+03  0.42023652925E+03  0.00000000000E+00 0. -1.
          5    1    4    4  502    0 -0.22253562553E+02 -0.10145465864E+02  0.71425975930E+01  0.25908651533E+02  0.47000000000E+01 0.  1.
         -5    1    4    4    0  502  0.50995236681E+02  0.13551330189E+03 -0.10163634736E+03  0.17696442088E+03  0.47000000000E+01 0.  1.
<mgrwt>
<rscale>  0 0.10002356E+04</rscale>
<asrwt>0</asrwt>
<pdfrwt beam="1">  1        4 0.33809305E-01 0.10002356E+04</pdfrwt>
<pdfrwt beam="2">  1       -4 0.17509819E+00 0.10002356E+04</pdfrwt>
<totfact> 0.31237612E+00</totfact>
</mgrwt>
</event>
<event>
 9    1  0.4388925E-036  0.9984640E+03  0.7818608E-02  0.8682502E-01
          1   -1    0    0  501    0  0.00000000000E+00  0.00000000000E+00  0.18221975676E+04  0.18221975676E+04  0.00000000000E+00 0.  1.
         -1   -1    0    0    0  501 -0.00000000000E+00 -0.00000000000E+00 -0.13677582742E+03  0.13677582742E+03  0.00000000000E+00 0.  1.
         36    2    1    2    0    0  0.00000000000E+00  0.00000000000E+00  0.16854217402E+04  0.19589733950E+04  0.99846398039E+03 0.  0.
         25    2    3    3    0    0  0.66936894930E+02  0.71349984198E+02  0.12321907511E+03  0.20133106102E+03  0.12561802224E+03 0.  0.
         35    2    3    3    0    0 -0.66936894930E+02 -0.71349984198E+02  0.15622026651E+04  0.17576423340E+04  0.79953614014E+03 0.  0.
         22    1    5    5    0    0 -0.10354053469E+03 -0.99500295650E+02 -0.44453138664E+02  0.15032309435E+03  0.00000000000E+00 0. -1.
         22    1    5    5    0    0  0.36603639761E+02  0.28150311452E+02  0.16066558037E+04  0.16073192397E+04  0.00000000000E+00 0. -1.
          5    1    4    4  502    0 -0.35189693983E+02  0.36847756253E+02  0.35554147724E+02  0.62307777395E+02  0.47000000000E+01 0. -1.
         -5    1    4    4    0  502  0.10212658891E+03  0.34502227944E+02  0.87664927390E+02  0.13902328363E+03  0.47000000000E+01 0. -1.
<mgrwt>
<rscale>  0 0.99846398E+03</rscale>
<asrwt>0</asrwt>
<pdfrwt beam="1">  1        1 0.28033807E+00 0.99846398E+03</pdfrwt>
<pdfrwt beam="2">  1       -1 0.21042436E-01 0.99846398E+03</pdfrwt>
<totfact> 0.78034428E+01</totfact>
</mgrwt>
</event>
<event>
 9    1  0.4388925E-036  0.1000228E+04  0.7818608E-02  0.8680821E-01
         -1   -1    0    0    0  501 -0.00000000000E+00  0.00000000000E+00  0.99066060371E+02  0.99066060371E+02  0.00000000000E+00 0.  1.
          1   -1    0    0  501    0  0.00000000000E+00 -0.00000000000E+00 -0.25247198138E+04  0.25247198138E+04  0.00000000000E+00 0.  1.
         36    2    1    2    0    0  0.00000000000E+00  0.00000000000E+00 -0.24256537534E+04  0.26237858741E+04  0.10002280650E+04 0.  0.
         25    2    3    3    0    0 -0.10061864174E+03  0.63973711982E+02 -0.24491095966E+03  0.29991060188E+03  0.12549200799E+03 0.  0.
         35    2    3    3    0    0  0.10061864174E+03 -0.63973711982E+02 -0.21807427937E+04  0.23238752723E+04  0.79406574141E+03 0.  0.
         22    1    5    5    0    0 -0.24200536387E+03  0.22115208588E+03 -0.12442261695E+04  0.12866909505E+04  0.00000000000E+00 0. -1.
         22    1    5    5    0    0  0.34262400561E+03 -0.28512579786E+03 -0.93651662423E+03  0.10371843218E+04  0.00000000000E+00 0. -1.
          5    1    4    4  502    0 -0.11083899911E+03  0.34754158518E+02 -0.24198718813E+03  0.26846419589E+03  0.47000000000E+01 0. -1.
         -5    1    4    4    0  502  0.10220357376E+02  0.29219553463E+02 -0.29237715326E+01  0.31446405987E+02  0.47000000000E+01 0. -1.
<mgrwt>
<rscale>  0 0.10002281E+04</rscale>
<asrwt>0</asrwt>
<pdfrwt beam="1">  1        1 0.38841845E+00 0.10002281E+04</pdfrwt>
<pdfrwt beam="2">  1       -1 0.15240932E-01 0.10002281E+04</pdfrwt>
<totfact> 0.42517031E+01</totfact>
</mgrwt>
</event>
<event>
 9    1  0.4388925E-036  0.9993237E+03  0.7818608E-02  0.8681682E-01
          2   -1    0    0  501    0  0.00000000000E+00  0.00000000000E+00  0.11823553749E+04  0.11823553749E+04  0.00000000000E+00 0. -1.
         -2   -1    0    0    0  501 -0.00000000000E+00 -0.00000000000E+00 -0.21115646818E+03  0.21115646818E+03  0.00000000000E+00 0. -1.
         36    2    1    2    0    0  0.42632564146E-13  0.28421709430E-13  0.97119890669E+03  0.13935118430E+04  0.99932374151E+03 0.  0.
         25    2    3    3    0    0 -0.18413772306E+02 -0.43306594292E+02  0.99228119197E+01  0.14179151295E+03  0.13338606685E+03 0.  0.
         35    2    3    3    0    0  0.18413772306E+02  0.43306594292E+02  0.96127609477E+03  0.12517203301E+04  0.80033588341E+03 0.  0.
         22    1    5    5    0    0 -0.29215428678E+03  0.27804936029E+03  0.58294609348E+03  0.70886650503E+03  0.00000000000E+00 0. -1.
         22    1    5    5    0    0  0.31056805908E+03 -0.23474276600E+03  0.37833000129E+03  0.54285382507E+03  0.00000000000E+00 0. -1.
          5    1    4    4  502    0 -0.29226200244E+02 -0.46804641871E+02 -0.53611051199E+02  0.77078402241E+02  0.47000000000E+01 0.  1.
         -5    1    4    4    0  502  0.10812427938E+02  0.34980475791E+01  0.63533863119E+02  0.64713110709E+02  0.47000000000E+01 0.  1.
<mgrwt>
<rscale>  0 0.99932374E+03</rscale>
<asrwt>0</asrwt>
<pdfrwt beam="1">  1        2 0.18190082E+00 0.99932374E+03</pdfrwt>
<pdfrwt beam="2">  1       -2 0.32485611E-01 0.99932374E+03</pdfrwt>
<totfact> 0.20643034E+02</totfact>
</mgrwt>
</event>
<event>
 9    1  0.4388925E-036  0.9997053E+03  0.7818608E-02  0.8681319E-01
          1   -1    0    0  501    0  0.00000000000E+00  0.00000000000E+00  0.11904048666E+04  0.11904048666E+04  0.00000000000E+00 0. -1.
         -1   -1    0    0    0  501 -0.00000000000E+00 -0.00000000000E+00 -0.20988883489E+03  0.20988883489E+03  0.00000000000E+00 0. -1.
         36    2    1    2    0    0  0.00000000000E+00 -0.14210854715E-13  0.98051603170E+03  0.14002937015E+04  0.99970533757E+03 0.  0.
         25    2    3    3    0    0 -0.70123882629E+02 -0.82199956289E+02  0.30817760547E+03  0.34982573023E+03  0.12542094436E+03 0.  0.
         35    2    3    3    0    0  0.70123882629E+02  0.82199956289E+02  0.67233842623E+03  0.10504679713E+04  0.79985611675E+03 0.  0.
         22    1    5    5    0    0 -0.10155327124E+03 -0.10618446147E+03 -0.13764426173E+03  0.20133094532E+03  0.00000000000E+00 0.  1.
         22    1    5    5    0    0  0.17167715387E+03  0.18838441776E+03  0.80998268796E+03  0.84913702593E+03  0.00000000000E+00 0.  1.
          5    1    4    4  502    0 -0.43801370664E+02 -0.13317710829E+02  0.16430179136E+02  0.48866780948E+02  0.47000000000E+01 0. -1.
         -5    1    4    4    0  502 -0.26322511965E+02 -0.68882245460E+02  0.29174742634E+03  0.30095894928E+03  0.47000000000E+01 0. -1.
<mgrwt>
<rscale>  0 0.99970534E+03</rscale>
<asrwt>0</asrwt>
<pdfrwt beam="1">  1        1 0.18313921E+00 0.99970534E+03</pdfrwt>
<pdfrwt beam="2">  1       -1 0.32290591E-01 0.99970534E+03</pdfrwt>
<totfact> 0.10734802E+02</totfact>
</mgrwt>
</event>
<event>
 9    1  0.4388925E-036  0.1012769E+04  0.7818608E-02  0.8668972E-01
         -1   -1    0    0    0  501 -0.00000000000E+00  0.00000000000E+00  0.51135411218E+03  0.51135411218E+03  0.00000000000E+00 0.  1.
          1   -1    0    0  501    0  0.00000000000E+00 -0.00000000000E+00 -0.50146313123E+03  0.50146313123E+03  0.00000000000E+00 0.  1.
         36    2    1    2    0    0  0.71054273576E-14 -0.71054273576E-14  0.98909809468E+01  0.10128172434E+04  0.10127689455E+04 0.  0.
         25    2    3    3    0    0  0.35805762337E+02  0.20529382059E+02  0.14389222500E+03  0.19490211048E+03  0.12481326897E+03 0.  0.
         35    2    3    3    0    0 -0.35805762337E+02 -0.20529382059E+02 -0.13400124405E+03  0.81791513293E+03  0.80580724936E+03 0.  0.
         22    1    5    5    0    0 -0.20356804701E+03  0.19905650207E+03 -0.36137424006E+03  0.46005954197E+03  0.00000000000E+00 0.  1.
         22    1    5    5    0    0  0.16776228468E+03 -0.21958588412E+03  0.22737299601E+03  0.35785559096E+03  0.00000000000E+00 0.  1.
          5    1    4    4  502    0  0.46743015032E+02 -0.36807796062E+02  0.11508674121E+03  0.12964093222E+03  0.47000000000E+01 0.  1.
         -5    1    4    4    0  502 -0.10937252696E+02  0.57337178121E+02  0.28805483791E+02  0.65261178260E+02  0.47000000000E+01 0.  1.
<mgrwt>
<rscale>  0 0.10127689E+04</rscale>
<asrwt>0</asrwt>
<pdfrwt beam="1">  1        1 0.77148174E-01 0.10127689E+04</pdfrwt>
<pdfrwt beam="2">  1       -1 0.78669864E-01 0.10127689E+04</pdfrwt>
<totfact> 0.84224941E+01</totfact>
</mgrwt>
</event>
<event>
 9    1  0.4388925E-036  0.1000123E+04  0.7818608E-02  0.8680921E-01
          2   -1    0    0  501    0  0.00000000000E+00  0.00000000000E+00  0.98207112377E+03  0.98207112377E+03  0.00000000000E+00 0. -1.
         -2   -1    0    0    0  501 -0.00000000000E+00 -0.00000000000E+00 -0.25462643426E+03  0.25462643426E+03  0.00000000000E+00 0. -1.
         36    2    1    2    0    0  0.14210854715E-13  0.14210854715E-13  0.72744468951E+03  0.12366975580E+04  0.10001225294E+04 0.  0.
         25    2    3    3    0    0  0.28044826219E+02 -0.12045235686E+03  0.21834201647E+03  0.28022352688E+03  0.12472652610E+03 0.  0.
         35    2    3    3    0    0 -0.28044826219E+02  0.12045235686E+03  0.50910267304E+03  0.95647403114E+03  0.80022606681E+03 0.  0.
         22    1    5    5    0    0 -0.17505647812E+03  0.85634634063E+02  0.69219082628E+03  0.71910096723E+03  0.00000000000E+00 0.  1.
         22    1    5    5    0    0  0.14701165191E+03  0.34817722796E+02 -0.18308815324E+03  0.23737306392E+03  0.00000000000E+00 0.  1.
          5    1    4    4  502    0 -0.42436093269E+02 -0.11466243161E+02  0.40115937227E+02  0.59696525559E+02  0.47000000000E+01 0.  1.
         -5    1    4    4    0  502  0.70480919488E+02 -0.10898611370E+03  0.17822607924E+03  0.22052700133E+03  0.47000000000E+01 0.  1.
<mgrwt>
<rscale>  0 0.10001225E+04</rscale>
<asrwt>0</asrwt>
<pdfrwt beam="1">  1        2 0.15108786E+00 0.10001225E+04</pdfrwt>
<pdfrwt beam="2">  1       -2 0.39173298E-01 0.10001225E+04</pdfrwt>
<totfact> 0.19267907E+02</totfact>
</mgrwt>
</event>
<event>
 9    1  0.4388925E-036  0.9992644E+03  0.7818608E-02  0.8681739E-01
         -2   -1    0    0    0  501 -0.00000000000E+00  0.00000000000E+00  0.34055740863E+03  0.34055740863E+03  0.00000000000E+00 0. -1.
          2   -1    0    0  501    0  0.00000000000E+00 -0.00000000000E+00 -0.73301098188E+03  0.73301098188E+03  0.00000000000E+00 0. -1.
         36    2    1    2    0    0  0.17763568394E-14  0.14210854715E-13 -0.39245357325E+03  0.10735683905E+04  0.99926437039E+03 0.  0.
         25    2    3    3    0    0 -0.15439572060E+02 -0.69116314455E+02 -0.20252804133E+03  0.24830771702E+03  0.12499467788E+03 0.  0.
         35    2    3    3    0    0  0.15439572060E+02  0.69116314455E+02 -0.18992553192E+03  0.82526067348E+03  0.79998001613E+03 0.  0.
         22    1    5    5    0    0 -0.34910264027E+03 -0.13009331186E+03 -0.16959836270E+03  0.40934157847E+03  0.00000000000E+00 0.  1.
         22    1    5    5    0    0  0.36454221233E+03  0.19920962631E+03 -0.20327169222E+02  0.41591909501E+03  0.00000000000E+00 0.  1.
          5    1    4    4  502    0  0.99414455599E+01 -0.91431016597E+02 -0.82894236754E+02  0.12390321878E+03  0.47000000000E+01 0.  1.
         -5    1    4    4    0  502 -0.25381017620E+02  0.22314702142E+02 -0.11963380458E+03  0.12440449825E+03  0.47000000000E+01 0.  1.
<mgrwt>
<rscale>  0 0.99926437E+03</rscale>
<asrwt>0</asrwt>
<pdfrwt beam="1">  1        2 0.11277092E+00 0.99926437E+03</pdfrwt>
<pdfrwt beam="2">  1       -2 0.52393448E-01 0.99926437E+03</pdfrwt>
<totfact> 0.16073703E+02</totfact>
</mgrwt>
</event>
<event>
 9    1  0.4388925E-036  0.9994566E+03  0.7818608E-02  0.8681556E-01
          2   -1    0    0  501    0  0.00000000000E+00  0.00000000000E+00  0.23684772976E+04  0.23684772976E+04  0.00000000000E+00 0.  1.
         -2   -1    0    0    0  501 -0.00000000000E+00 -0.00000000000E+00 -0.10543836358E+03  0.10543836358E+03  0.00000000000E+00 0.  1.
         36    2    1    2    0    0  0.71054273576E-14  0.00000000000E+00  0.22630389340E+04  0.24739156611E+04  0.99945659323E+03 0.  0.
         25    2    3    3    0    0 -0.49214292925E+02  0.11805979603E+03  0.57214401281E+03  0.59895192348E+03  0.12261514254E+03 0.  0.
         35    2    3    3    0    0  0.49214292925E+02 -0.11805979603E+03  0.16908949212E+04  0.18749637377E+04  0.80000201316E+03 0.  0.
         22    1    5    5    0    0 -0.10689217323E+03 -0.40003131651E+03  0.13208913337E+04  0.13842705322E+04  0.00000000000E+00 0. -1.
         22    1    5    5    0    0  0.15610646615E+03  0.28197152048E+03  0.37000358743E+03  0.49069320542E+03  0.00000000000E+00 0. -1.
          5    1    4    4  502    0  0.33033420980E+02  0.66393879686E+02  0.17591575793E+03  0.19096543680E+03  0.47000000000E+01 0.  1.
         -5    1    4    4    0  502 -0.82247713905E+02  0.51665916347E+02  0.39622825488E+03  0.40798648668E+03  0.47000000000E+01 0.  1.
<mgrwt>
<rscale>  0 0.99945659E+03</rscale>
<asrwt>0</asrwt>
<pdfrwt beam="1">  1        2 0.36438108E+00 0.99945659E+03</pdfrwt>
<pdfrwt beam="2">  1       -2 0.16221289E-01 0.99945659E+03</pdfrwt>
<totfact> 0.14647138E+02</totfact>
</mgrwt>
</event>
<event>
 9    1  0.4388925E-036  0.9995732E+03  0.7818608E-02  0.8681445E-01
          1   -1    0    0  501    0  0.00000000000E+00  0.00000000000E+00  0.11902756271E+04  0.11902756271E+04  0.00000000000E+00 0.  1.
         -1   -1    0    0    0  501 -0.00000000000E+00 -0.00000000000E+00 -0.20985611877E+03  0.20985611877E+03  0.00000000000E+00 0.  1.
         36    2    1    2    0    0  0.00000000000E+00  0.00000000000E+00  0.98041950831E+03  0.14001317459E+04  0.99957315564E+03 0.  0.
         25    2    3    3    0    0 -0.10822149675E+03  0.71915987895E+02  0.12215198132E+03  0.21836858043E+03  0.12601558913E+03 0.  0.
         35    2    3    3    0    0  0.10822149675E+03 -0.71915987895E+02  0.85826752698E+03  0.11817631654E+04  0.80190849203E+03 0.  0.
         22    1    5    5    0    0  0.21461993280E+03 -0.76757192433E+02  0.98797650361E+03  0.10139284757E+04  0.00000000000E+00 0.  1.
         22    1    5    5    0    0 -0.10639843605E+03  0.48412045378E+01 -0.12970897663E+03  0.16783468972E+03  0.00000000000E+00 0.  1.
          5    1    4    4  502    0 -0.75732114380E+02  0.45132008788E+02  0.14535294808E+03  0.17006416695E+03  0.47000000000E+01 0.  1.
         -5    1    4    4    0  502 -0.32489382371E+02  0.26783979107E+02 -0.23200966752E+02  0.48304413483E+02  0.47000000000E+01 0.  1.
<mgrwt>
<rscale>  0 0.99957316E+03</rscale>
<asrwt>0</asrwt>
<pdfrwt beam="1">  1        1 0.18311932E+00 0.99957316E+03</pdfrwt>
<pdfrwt beam="2">  1       -1 0.32285558E-01 0.99957316E+03</pdfrwt>
<totfact> 0.10740209E+02</totfact>
</mgrwt>
</event>
<event>
 9    1  0.4388925E-036  0.9995353E+03  0.7818608E-02  0.8681481E-01
         -1   -1    0    0    0  501 -0.00000000000E+00  0.00000000000E+00  0.12127977218E+03  0.12127977218E+03  0.00000000000E+00 0.  1.
          1   -1    0    0  501    0  0.00000000000E+00 -0.00000000000E+00 -0.20594342116E+04  0.20594342116E+04  0.00000000000E+00 0.  1.
         36    2    1    2    0    0  0.00000000000E+00  0.14210854715E-13 -0.19381544394E+04  0.21807139838E+04  0.99953531605E+03 0.  0.
         25    2    3    3    0    0  0.98796786796E+02  0.95961922010E+02 -0.41259787384E+03  0.45259027971E+03  0.12502583825E+03 0.  0.
         35    2    3    3    0    0 -0.98796786796E+02 -0.95961922010E+02 -0.15255565656E+04  0.17281237041E+04  0.80007450044E+03 0.  0.
         22    1    5    5    0    0 -0.74241266518E+02 -0.28267368929E+03 -0.15112619006E+04  0.15392623923E+04  0.00000000000E+00 0. -1.
         22    1    5    5    0    0 -0.24555520278E+02  0.18671176728E+03 -0.14294664955E+02  0.18886131171E+03  0.00000000000E+00 0. -1.
          5    1    4    4  502    0  0.34398068134E+02 -0.22537747280E+02 -0.45685516356E+02  0.61647656472E+02  0.47000000000E+01 0.  1.
         -5    1    4    4    0  502  0.64398718662E+02  0.11849966929E+03 -0.36691235748E+03  0.39094262324E+03  0.47000000000E+01 0.  1.
<mgrwt>
<rscale>  0 0.99953532E+03</rscale>
<asrwt>0</asrwt>
<pdfrwt beam="1">  1        1 0.31683601E+00 0.99953532E+03</pdfrwt>
<pdfrwt beam="2">  1       -1 0.18658428E-01 0.99953532E+03</pdfrwt>
<totfact> 0.64885465E+01</totfact>
</mgrwt>
</event>
<event>
 9    1  0.4388925E-036  0.1000112E+04  0.7818608E-02  0.8680931E-01
          4   -1    0    0  501    0  0.00000000000E+00  0.00000000000E+00  0.77387500260E+03  0.77387500260E+03  0.00000000000E+00 0.  1.
         -4   -1    0    0    0  501 -0.00000000000E+00 -0.00000000000E+00 -0.32312208351E+03  0.32312208351E+03  0.00000000000E+00 0.  1.
         36    2    1    2    0    0 -0.71054273576E-14  0.71054273576E-14  0.45075291909E+03  0.10969970861E+04  0.10001122001E+04 0.  0.
         25    2    3    3    0    0 -0.36024801183E+02 -0.27788717634E+02  0.22866876708E+03  0.26534200167E+03  0.12667665012E+03 0.  0.
         35    2    3    3    0    0  0.36024801183E+02  0.27788717634E+02  0.22208415201E+03  0.83165508444E+03  0.80016173976E+03 0.  0.
         22    1    5    5    0    0  0.16024966831E+03 -0.30925293381E+03  0.30503663904E+03  0.46299533952E+03  0.00000000000E+00 0. -1.
         22    1    5    5    0    0 -0.12422486712E+03  0.33704165145E+03 -0.82952487030E+02  0.36865974492E+03  0.00000000000E+00 0. -1.
          5    1    4    4  502    0  0.24895454744E+02 -0.60247848466E+02  0.11481624782E+03  0.13211528177E+03  0.47000000000E+01 0. -1.
         -5    1    4    4    0  502 -0.60920255926E+02  0.32459130832E+02  0.11385251926E+03  0.13322671991E+03  0.47000000000E+01 0. -1.
<mgrwt>
<rscale>  0 0.10001122E+04</rscale>
<asrwt>0</asrwt>
<pdfrwt beam="1">  1        4 0.11905769E+00 0.10001122E+04</pdfrwt>
<pdfrwt beam="2">  1       -4 0.49711090E-01 0.10001122E+04</pdfrwt>
<totfact> 0.45432317E+00</totfact>
</mgrwt>
</event>
<event>
 9    1  0.4388925E-036  0.9993787E+03  0.7818608E-02  0.8681630E-01
         -2   -1    0    0    0  501 -0.00000000000E+00  0.00000000000E+00  0.91605425868E+03  0.91605425868E+03  0.00000000000E+00 0. -1.
          2   -1    0    0  501    0  0.00000000000E+00 -0.00000000000E+00 -0.27257058982E+03  0.27257058982E+03  0.00000000000E+00 0. -1.
         36    2    1    2    0    0 -0.35527136788E-13  0.28421709430E-13  0.64348366886E+03  0.11886248485E+04  0.99937870618E+03 0.  0.
         25    2    3    3    0    0  0.17728279671E+02  0.10862716335E+03  0.21001990574E+02  0.16806832419E+03  0.12526661754E+03 0.  0.
         35    2    3    3    0    0 -0.17728279671E+02 -0.10862716335E+03  0.62248167828E+03  0.10205565243E+04  0.80121035127E+03 0.  0.
         22    1    5    5    0    0  0.29781843541E+03 -0.29317633003E+03  0.20445528470E+03  0.46524202777E+03  0.00000000000E+00 0.  1.
         22    1    5    5    0    0 -0.31554671509E+03  0.18454916668E+03  0.41802639358E+03  0.55531449653E+03  0.00000000000E+00 0.  1.
          5    1    4    4  502    0 -0.30965996553E+02 -0.77867177711E+01  0.26372782468E+02  0.41679006361E+02  0.47000000000E+01 0. -1.
         -5    1    4    4    0  502  0.48694276224E+02  0.11641388112E+03 -0.53707918947E+01  0.12638931783E+03  0.47000000000E+01 0. -1.
<mgrwt>
<rscale>  0 0.99937871E+03</rscale>
<asrwt>0</asrwt>
<pdfrwt beam="1">  1        2 0.41933937E-01 0.99937871E+03</pdfrwt>
<pdfrwt beam="2">  1       -2 0.14093142E+00 0.99937871E+03</pdfrwt>
<totfact> 0.49251707E+01</totfact>
</mgrwt>
</event>
<event>
 9    1  0.4388925E-036  0.1000798E+04  0.7818608E-02  0.8680278E-01
          2   -1    0    0  501    0  0.00000000000E+00  0.00000000000E+00  0.75016226574E+03  0.75016226574E+03  0.00000000000E+00 0.  1.
         -2   -1    0    0    0  501 -0.00000000000E+00 -0.00000000000E+00 -0.33379352002E+03  0.33379352002E+03  0.00000000000E+00 0.  1.
         36    2    1    2    0    0  0.00000000000E+00 -0.42632564146E-13  0.41636874572E+03  0.10839557858E+04  0.10007982879E+04 0.  0.
         25    2    3    3    0    0  0.92252717230E+02  0.45665331041E+02 -0.25708847603E+02  0.16411691359E+03  0.12520994444E+03 0.  0.
         35    2    3    3    0    0 -0.92252717230E+02 -0.45665331041E+02  0.44207759332E+03  0.91983887217E+03  0.80004691484E+03 0.  0.
         22    1    5    5    0    0 -0.26127147887E+03 -0.33167337245E+03  0.82354356517E+02  0.43017700043E+03  0.00000000000E+00 0. -1.
         22    1    5    5    0    0  0.16901876164E+03  0.28600804141E+03  0.35972323681E+03  0.48966187174E+03  0.00000000000E+00 0. -1.
          5    1    4    4  502    0  0.34672213635E+02  0.69766822148E+02  0.26686216067E+02  0.82485247160E+02  0.47000000000E+01 0.  1.
         -5    1    4    4    0  502  0.57580503595E+02 -0.24101491107E+02 -0.52395063670E+02  0.81631666434E+02  0.47000000000E+01 0.  1.
<mgrwt>
<rscale>  0 0.10007983E+04</rscale>
<asrwt>0</asrwt>
<pdfrwt beam="1">  1        2 0.11540958E+00 0.10007983E+04</pdfrwt>
<pdfrwt beam="2">  1       -2 0.51352849E-01 0.10007983E+04</pdfrwt>
<totfact> 0.16258828E+02</totfact>
</mgrwt>
</event>
<event>
 9    1  0.4388925E-036  0.9995630E+03  0.7818608E-02  0.8681454E-01
         -1   -1    0    0    0  501 -0.00000000000E+00  0.00000000000E+00  0.19232558586E+03  0.19232558586E+03  0.00000000000E+00 0.  1.
          1   -1    0    0  501    0  0.00000000000E+00 -0.00000000000E+00 -0.12987433009E+04  0.12987433009E+04  0.00000000000E+00 0.  1.
         36    2    1    2    0    0  0.00000000000E+00 -0.28421709430E-13 -0.11064177151E+04  0.14910688868E+04  0.99956303700E+03 0.  0.
         25    2    3    3    0    0  0.80935903115E+02 -0.81718450010E+02 -0.90750132297E+02  0.19317197539E+03  0.12590194629E+03 0.  0.
         35    2    3    3    0    0 -0.80935903115E+02  0.81718450010E+02 -0.10156675828E+04  0.12978969114E+04  0.79982949960E+03 0.  0.
         22    1    5    5    0    0  0.25194634397E+03 -0.23751578169E+03 -0.46012409540E+03  0.57585144782E+03  0.00000000000E+00 0.  1.
         22    1    5    5    0    0 -0.33288224708E+03  0.31923423170E+03 -0.55554348737E+03  0.72204546357E+03  0.00000000000E+00 0.  1.
          5    1    4    4  502    0  0.34741991553E+01  0.14976064565E+01 -0.78496237348E+02  0.78727772499E+02  0.47000000000E+01 0.  1.
         -5    1    4    4    0  502  0.77461703959E+02 -0.83216056467E+02 -0.12253894949E+02  0.11444420289E+03  0.47000000000E+01 0.  1.
<mgrwt>
<rscale>  0 0.99956304E+03</rscale>
<asrwt>0</asrwt>
<pdfrwt beam="1">  1        1 0.19980666E+00 0.99956304E+03</pdfrwt>
<pdfrwt beam="2">  1       -1 0.29588553E-01 0.99956304E+03</pdfrwt>
<totfact> 0.10372697E+02</totfact>
</mgrwt>
</event>
<event>
 9    1  0.4388925E-036  0.1000266E+04  0.7818608E-02  0.8680785E-01
         -1   -1    0    0    0  501 -0.00000000000E+00  0.00000000000E+00  0.22781120517E+03  0.22781120517E+03  0.00000000000E+00 0.  1.
          1   -1    0    0  501    0  0.00000000000E+00 -0.00000000000E+00 -0.10979834225E+04  0.10979834225E+04  0.00000000000E+00 0.  1.
         36    2    1    2    0    0 -0.71054273576E-14  0.14210854715E-13 -0.87017221737E+03  0.13257946277E+04  0.10002658182E+04 0.  0.
         25    2    3    3    0    0 -0.50714218639E+02  0.12435024922E+03 -0.10991552735E+03  0.21418311703E+03  0.12553114360E+03 0.  0.
         35    2    3    3    0    0  0.50714218639E+02 -0.12435024922E+03 -0.76025669002E+03  0.11116115107E+04  0.79978434563E+03 0.  0.
         22    1    5    5    0    0 -0.28421942170E+03 -0.14805774234E+03 -0.47826025864E+02  0.32402022081E+03  0.00000000000E+00 0.  1.
         22    1    5    5    0    0  0.33493364034E+03  0.23707493122E+02 -0.71243066416E+03  0.78759128988E+03  0.00000000000E+00 0.  1.
          5    1    4    4  502    0 -0.61309053163E+02  0.40758874161E+01 -0.25019882150E+02  0.66509377991E+02  0.47000000000E+01 0. -1.
         -5    1    4    4    0  502  0.10594834524E+02  0.12027436181E+03 -0.84895645200E+02  0.14767373903E+03  0.47000000000E+01 0. -1.
<mgrwt>
<rscale>  0 0.10002658E+04</rscale>
<asrwt>0</asrwt>
<pdfrwt beam="1">  1        1 0.16892053E+00 0.10002658E+04</pdfrwt>
<pdfrwt beam="2">  1       -1 0.35047878E-01 0.10002658E+04</pdfrwt>
<totfact> 0.10940531E+02</totfact>
</mgrwt>
</event>
<event>
 9    1  0.4388925E-036  0.1000036E+04  0.7818608E-02  0.8681003E-01
          1   -1    0    0  501    0  0.00000000000E+00  0.00000000000E+00  0.16465328730E+04  0.16465328730E+04  0.00000000000E+00 0. -1.
         -1   -1    0    0    0  501 -0.00000000000E+00 -0.00000000000E+00 -0.15184518645E+03  0.15184518645E+03  0.00000000000E+00 0. -1.
         36    2    1    2    0    0 -0.14210854715E-13 -0.14210854715E-13  0.14946876866E+04  0.17983780595E+04  0.10000361815E+04 0.  0.
         25    2    3    3    0    0  0.28454728933E+02 -0.10313169476E+03  0.44432950922E+03  0.47379417958E+03  0.12492555292E+03 0.  0.
         35    2    3    3    0    0 -0.28454728933E+02  0.10313169476E+03  0.10503581773E+04  0.13245838799E+04  0.79989020251E+03 0.  0.
         22    1    5    5    0    0 -0.39972832272E+03 -0.52088526972E+02  0.56586699117E+03  0.69476715404E+03  0.00000000000E+00 0.  1.
         22    1    5    5    0    0  0.37127359379E+03  0.15522022173E+03  0.48449118616E+03  0.62981672584E+03  0.00000000000E+00 0.  1.
          5    1    4    4  502    0 -0.34453842316E+02 -0.71078994526E+01  0.40084124053E+02  0.53538924961E+02  0.47000000000E+01 0.  1.
         -5    1    4    4    0  502  0.62908571248E+02 -0.96023795307E+02  0.40424538517E+03  0.42025525461E+03  0.47000000000E+01 0.  1.
<mgrwt>
<rscale>  0 0.10000362E+04</rscale>
<asrwt>0</asrwt>
<pdfrwt beam="1">  1        1 0.25331274E+00 0.10000362E+04</pdfrwt>
<pdfrwt beam="2">  1       -1 0.23360799E-01 0.10000362E+04</pdfrwt>
<totfact> 0.87164944E+01</totfact>
</mgrwt>
</event>
<event>
 9    1  0.4388925E-036  0.1000784E+04  0.7818608E-02  0.8680291E-01
          2   -1    0    0  501    0  0.00000000000E+00  0.00000000000E+00  0.78331908634E+03  0.78331908634E+03  0.00000000000E+00 0.  1.
         -2   -1    0    0    0  501 -0.00000000000E+00 -0.00000000000E+00 -0.31965564438E+03  0.31965564438E+03  0.00000000000E+00 0.  1.
         36    2    1    2    0    0 -0.14210854715E-13 -0.14210854715E-13  0.46366344195E+03  0.11029747307E+04  0.10007844269E+04 0.  0.
         25    2    3    3    0    0  0.35990455118E+02 -0.95168474852E+02 -0.21700374230E+02  0.16171129511E+03  0.12380341377E+03 0.  0.
         35    2    3    3    0    0 -0.35990455118E+02  0.95168474852E+02  0.48536381618E+03  0.94126343561E+03  0.80002904303E+03 0.  0.
         22    1    5    5    0    0 -0.27178012832E+03 -0.24397322604E+03  0.10565048446E+03  0.38019652555E+03  0.00000000000E+00 0. -1.
         22    1    5    5    0    0  0.23578967320E+03  0.33914170090E+03  0.37971333173E+03  0.56106691006E+03  0.00000000000E+00 0. -1.
          5    1    4    4  502    0  0.18965655025E+02 -0.47155386416E+02 -0.73122401048E+02  0.89175680954E+02  0.47000000000E+01 0. -1.
         -5    1    4    4    0  502  0.17024800093E+02 -0.48013088436E+02  0.51422026818E+02  0.72535614159E+02  0.47000000000E+01 0. -1.
<mgrwt>
<rscale>  0 0.10007844E+04</rscale>
<asrwt>0</asrwt>
<pdfrwt beam="1">  1        2 0.12051063E+00 0.10007844E+04</pdfrwt>
<pdfrwt beam="2">  1       -2 0.49177792E-01 0.10007844E+04</pdfrwt>
<totfact> 0.16783927E+02</totfact>
</mgrwt>
</event>
<event>
 9    1  0.4388925E-036  0.9995824E+03  0.7818608E-02  0.8681436E-01
          1   -1    0    0  501    0  0.00000000000E+00  0.00000000000E+00  0.47606174273E+03  0.47606174273E+03  0.00000000000E+00 0.  1.
         -1   -1    0    0    0  501 -0.00000000000E+00 -0.00000000000E+00 -0.52470347400E+03  0.52470347400E+03  0.00000000000E+00 0.  1.
         36    2    1    2    0    0  0.00000000000E+00  0.00000000000E+00 -0.48641731263E+02  0.10007652167E+04  0.99958241331E+03 0.  0.
         25    2    3    3    0    0 -0.70227073644E+02  0.52093069692E+02 -0.11947055211E+03  0.19323527278E+03  0.12418183459E+03 0.  0.
         35    2    3    3    0    0  0.70227073644E+02 -0.52093069692E+02  0.70828820846E+02  0.80752994395E+03  0.79965139826E+03 0.  0.
         22    1    5    5    0    0 -0.45737679997E+02 -0.14695288211E+03 -0.33839101891E+03  0.37174664304E+03  0.00000000000E+00 0.  1.
         22    1    5    5    0    0  0.11596475364E+03  0.94859812414E+02  0.40921983976E+03  0.43578330091E+03  0.00000000000E+00 0.  1.
          5    1    4    4  502    0  0.32242550215E+02  0.31174864988E+02 -0.21913854250E+02  0.50137423742E+02  0.47000000000E+01 0. -1.
         -5    1    4    4    0  502 -0.10246962386E+03  0.20918204704E+02 -0.97556697860E+02  0.14309784904E+03  0.47000000000E+01 0. -1.
<mgrwt>
<rscale>  0 0.99958241E+03</rscale>
<asrwt>0</asrwt>
<pdfrwt beam="1">  1        1 0.73240268E-01 0.99958241E+03</pdfrwt>
<pdfrwt beam="2">  1       -1 0.80723612E-01 0.99958241E+03</pdfrwt>
<totfact> 0.85881315E+01</totfact>
</mgrwt>
</event>
<event>
 9    1  0.4388925E-036  0.9996813E+03  0.7818608E-02  0.8681341E-01
         -1   -1    0    0    0  501 -0.00000000000E+00  0.00000000000E+00  0.13261313967E+03  0.13261313967E+03  0.00000000000E+00 0.  1.
          1   -1    0    0  501    0  0.00000000000E+00 -0.00000000000E+00 -0.18839813882E+04  0.18839813882E+04  0.00000000000E+00 0.  1.
         36    2    1    2    0    0  0.28421709430E-13  0.14210854715E-13 -0.17513682485E+04  0.20165945278E+04  0.99968132316E+03 0.  0.
         25    2    3    3    0    0  0.76794250990E+02 -0.88972769775E+02 -0.17438595060E+03  0.24473856274E+03  0.12519182712E+03 0.  0.
         35    2    3    3    0    0 -0.76794250990E+02  0.88972769775E+02 -0.15769822979E+04  0.17718559651E+04  0.79924144190E+03 0.  0.
         22    1    5    5    0    0 -0.40952476629E+03 -0.10484127934E+03 -0.83428429781E+03  0.93527136043E+03  0.00000000000E+00 0. -1.
         22    1    5    5    0    0  0.33273051530E+03  0.19381404912E+03 -0.74269800008E+03  0.83658460467E+03  0.00000000000E+00 0. -1.
          5    1    4    4  502    0 -0.24351367153E+02  0.51703124213E+01 -0.60584813277E+02  0.65668339499E+02  0.47000000000E+01 0.  1.
         -5    1    4    4    0  502  0.10114561814E+03 -0.94143082197E+02 -0.11380113733E+03  0.17907022324E+03  0.47000000000E+01 0.  1.
<mgrwt>
<rscale>  0 0.99968132E+03</rscale>
<asrwt>0</asrwt>
<pdfrwt beam="1">  1        1 0.28984325E+00 0.99968132E+03</pdfrwt>
<pdfrwt beam="2">  1       -1 0.20402024E-01 0.99968132E+03</pdfrwt>
<totfact> 0.74328265E+01</totfact>
</mgrwt>
</event>
<event>
 9    1  0.4388925E-036  0.1001318E+04  0.7818608E-02  0.8679783E-01
         -2   -1    0    0    0  501 -0.00000000000E+00  0.00000000000E+00  0.98683747394E+02  0.98683747394E+02  0.00000000000E+00 0.  1.
          2   -1    0    0  501    0  0.00000000000E+00 -0.00000000000E+00 -0.25400300436E+04  0.25400300436E+04  0.00000000000E+00 0.  1.
         36    2    1    2    0    0  0.00000000000E+00  0.42632564146E-13 -0.24413462962E+04  0.26387137910E+04  0.10013184972E+04 0.  0.
         25    2    3    3    0    0 -0.10891441720E+03 -0.85193571528E+02 -0.56498172793E+03  0.59481590298E+03  0.12442391508E+03 0.  0.
         35    2    3    3    0    0  0.10891441720E+03  0.85193571528E+02 -0.18763645683E+04  0.20438978880E+04  0.79853258458E+03 0.  0.
         22    1    5    5    0    0 -0.13816640358E+03  0.39121127683E+03 -0.10384799781E+04  0.11182919489E+04  0.00000000000E+00 0. -1.
         22    1    5    5    0    0  0.24708082078E+03 -0.30601770530E+03 -0.83788459019E+03  0.92560593906E+03  0.00000000000E+00 0. -1.
          5    1    4    4  502    0 -0.38316061882E+02  0.12928331643E+02 -0.43878560369E+02  0.59855496133E+02  0.47000000000E+01 0. -1.
         -5    1    4    4    0  502 -0.70598355317E+02 -0.98121903171E+02 -0.52110316756E+03  0.53496040685E+03  0.47000000000E+01 0. -1.
<mgrwt>
<rscale>  0 0.10013185E+04</rscale>
<asrwt>0</asrwt>
<pdfrwt beam="1">  1        2 0.39077378E+00 0.10013185E+04</pdfrwt>
<pdfrwt beam="2">  1       -2 0.15182118E-01 0.10013185E+04</pdfrwt>
<totfact> 0.12899215E+02</totfact>
</mgrwt>
</event>
<event>
 9    1  0.4388925E-036  0.9958285E+03  0.7818608E-02  0.8685021E-01
         -2   -1    0    0    0  501 -0.00000000000E+00  0.00000000000E+00  0.20158850492E+03  0.20158850492E+03  0.00000000000E+00 0. -1.
          2   -1    0    0  501    0  0.00000000000E+00 -0.00000000000E+00 -0.12298250552E+04  0.12298250552E+04  0.00000000000E+00 0. -1.
         36    2    1    2    0    0  0.00000000000E+00 -0.71054273576E-14 -0.10282365503E+04  0.14314135602E+04  0.99582848764E+03 0.  0.
         25    2    3    3    0    0 -0.13195558853E+03  0.24275647484E+02 -0.16511570594E+03  0.24677138578E+03  0.12502534178E+03 0.  0.
         35    2    3    3    0    0  0.13195558853E+03 -0.24275647484E+02 -0.86312084437E+03  0.11846421744E+04  0.80024865192E+03 0.  0.
         22    1    5    5    0    0  0.43308151756E+03 -0.15256599887E+03 -0.64330504262E+03  0.79036533497E+03  0.00000000000E+00 0.  1.
         22    1    5    5    0    0 -0.30112592902E+03  0.12829035139E+03 -0.21981580176E+03  0.39427683941E+03  0.00000000000E+00 0.  1.
          5    1    4    4  502    0 -0.50588682339E+02  0.49290420438E+02 -0.14163943836E+03  0.15834323739E+03  0.47000000000E+01 0.  1.
         -5    1    4    4    0  502 -0.81366906193E+02 -0.25014772954E+02 -0.23476267582E+02  0.88428148397E+02  0.47000000000E+01 0.  1.
<mgrwt>
<rscale>  0 0.99582849E+03</rscale>
<asrwt>0</asrwt>
<pdfrwt beam="1">  1        2 0.18920385E+00 0.99582849E+03</pdfrwt>
<pdfrwt beam="2">  1       -2 0.31013616E-01 0.99582849E+03</pdfrwt>
<totfact> 0.21074418E+02</totfact>
</mgrwt>
</event>
<event>
 9    1  0.4388925E-036  0.9999515E+03  0.7818608E-02  0.8681084E-01
         -2   -1    0    0    0  501 -0.00000000000E+00  0.00000000000E+00  0.22099530101E+03  0.22099530101E+03  0.00000000000E+00 0. -1.
          2   -1    0    0  501    0  0.00000000000E+00 -0.00000000000E+00 -0.11311359312E+04  0.11311359312E+04  0.00000000000E+00 0. -1.
         36    2    1    2    0    0  0.71054273576E-14 -0.14210854715E-13 -0.91014063020E+03  0.13521312322E+04  0.99995145003E+03 0.  0.
         25    2    3    3    0    0 -0.31554881809E+02  0.69161865905E+02 -0.12553841820E+02  0.14722190758E+03  0.12544965869E+03 0.  0.
         35    2    3    3    0    0  0.31554881809E+02 -0.69161865905E+02 -0.89758678838E+03  0.12049093246E+04  0.80022831972E+03 0.  0.
         22    1    5    5    0    0 -0.16527377070E+03 -0.26438661656E+03 -0.87251527094E+03  0.92655199548E+03  0.00000000000E+00 0.  1.
         22    1    5    5    0    0  0.19682865251E+03  0.19522475065E+03 -0.25071517439E+02  0.27835732917E+03  0.00000000000E+00 0.  1.
          5    1    4    4  502    0  0.63000801597E+01 -0.30375879357E+02 -0.24704731966E+02  0.39934932556E+02  0.47000000000E+01 0. -1.
         -5    1    4    4    0  502 -0.37854961968E+02  0.99537745262E+02  0.12150890147E+02  0.10728697502E+03  0.47000000000E+01 0. -1.
<mgrwt>
<rscale>  0 0.99995145E+03</rscale>
<asrwt>0</asrwt>
<pdfrwt beam="1">  1        2 0.17402091E+00 0.99995145E+03</pdfrwt>
<pdfrwt beam="2">  1       -2 0.33999277E-01 0.99995145E+03</pdfrwt>
<totfact> 0.20359211E+02</totfact>
</mgrwt>
</event>
<event>
 9    1  0.4388925E-036  0.1001348E+04  0.7818608E-02  0.8679756E-01
          2   -1    0    0  501    0  0.00000000000E+00  0.00000000000E+00  0.20861544040E+04  0.20861544040E+04  0.00000000000E+00 0.  1.
         -2   -1    0    0    0  501 -0.00000000000E+00 -0.00000000000E+00 -0.12016092299E+03  0.12016092299E+03  0.00000000000E+00 0.  1.
         36    2    1    2    0    0  0.14210854715E-13  0.00000000000E+00  0.19659934810E+04  0.22063153270E+04  0.10013475694E+04 0.  0.
         25    2    3    3    0    0 -0.11643797774E+03 -0.79034268706E+02  0.31999308145E+03  0.37068078059E+03  0.12330632844E+03 0.  0.
         35    2    3    3    0    0  0.11643797774E+03  0.79034268706E+02  0.16460003996E+04  0.18356345464E+04  0.80027036324E+03 0.  0.
         22    1    5    5    0    0  0.21973615954E+03  0.22144311501E+03  0.18214390118E+03  0.36124428540E+03  0.00000000000E+00 0.  1.
         22    1    5    5    0    0 -0.10329818180E+03 -0.14240884630E+03  0.14638564984E+04  0.14743902610E+04  0.00000000000E+00 0.  1.
          5    1    4    4  502    0 -0.12493074463E+03 -0.43759413375E+02  0.16583233079E+03  0.21223814254E+03  0.47000000000E+01 0. -1.
         -5    1    4    4    0  502  0.84927668925E+01 -0.35274855331E+02  0.15416075066E+03  0.15844263805E+03  0.47000000000E+01 0. -1.
<mgrwt>
<rscale>  0 0.10013476E+04</rscale>
<asrwt>0</asrwt>
<pdfrwt beam="1">  1        2 0.32094681E+00 0.10013476E+04</pdfrwt>
<pdfrwt beam="2">  1       -2 0.18486297E-01 0.10013476E+04</pdfrwt>
<totfact> 0.17138598E+02</totfact>
</mgrwt>
</event>
<event>
 9    1  0.4388925E-036  0.9997503E+03  0.7818608E-02  0.8681276E-01
          2   -1    0    0  501    0  0.00000000000E+00  0.00000000000E+00  0.23664208031E+03  0.23664208031E+03  0.00000000000E+00 0. -1.
         -2   -1    0    0    0  501 -0.00000000000E+00 -0.00000000000E+00 -0.10559201895E+04  0.10559201895E+04  0.00000000000E+00 0. -1.
         36    2    1    2    0    0  0.71054273576E-14 -0.28421709430E-13 -0.81927810922E+03  0.12925622698E+04  0.99975026939E+03 0.  0.
         25    2    3    3    0    0  0.51668813245E+02  0.10123685938E+03 -0.52275962056E+02  0.17685141394E+03  0.12500031378E+03 0.  0.
         35    2    3    3    0    0 -0.51668813245E+02 -0.10123685938E+03 -0.76700214716E+03  0.11157108559E+04  0.80224675272E+03 0.  0.
         22    1    5    5    0    0 -0.25150643467E+03 -0.33452500621E+03 -0.18493707245E+03  0.45756331499E+03  0.00000000000E+00 0. -1.
         22    1    5    5    0    0  0.19983762142E+03  0.23328814684E+03 -0.58206507471E+03  0.65814754090E+03  0.00000000000E+00 0. -1.
          5    1    4    4  502    0  0.28735994546E+02  0.86944939263E+02 -0.91141359513E+02  0.12928270286E+03  0.47000000000E+01 0.  1.
         -5    1    4    4    0  502  0.22932818699E+02  0.14291920113E+02  0.38865397456E+02  0.47568711076E+02  0.47000000000E+01 0.  1.
<mgrwt>
<rscale>  0 0.99975027E+03</rscale>
<asrwt>0</asrwt>
<pdfrwt beam="1">  1        2 0.36406475E-01 0.99975027E+03</pdfrwt>
<pdfrwt beam="2">  1       -2 0.16244926E+00 0.99975027E+03</pdfrwt>
<totfact> 0.38727328E+01</totfact>
</mgrwt>
</event>
<event>
 9    1  0.4388925E-036  0.1000487E+04  0.7818608E-02  0.8680574E-01
          2   -1    0    0  501    0  0.00000000000E+00  0.00000000000E+00  0.14889781107E+04  0.14889781107E+04  0.00000000000E+00 0.  1.
         -2   -1    0    0    0  501 -0.00000000000E+00 -0.00000000000E+00 -0.16806390289E+03  0.16806390289E+03  0.00000000000E+00 0.  1.
         36    2    1    2    0    0  0.21316282073E-13  0.00000000000E+00  0.13209142078E+04  0.16570420136E+04  0.10004868267E+04 0.  0.
         25    2    3    3    0    0 -0.51725604279E+02  0.12896977006E+03  0.21497420074E+03  0.28509616994E+03  0.12552760415E+03 0.  0.
         35    2    3    3    0    0  0.51725604279E+02 -0.12896977006E+03  0.11059400071E+04  0.13719458436E+04  0.79988959173E+03 0.  0.
         22    1    5    5    0    0 -0.15847563675E+03 -0.41167204625E+03  0.46751660606E+03  0.64277537137E+03  0.00000000000E+00 0. -1.
         22    1    5    5    0    0  0.21020124103E+03  0.28270227619E+03  0.63842340099E+03  0.72917047226E+03  0.00000000000E+00 0. -1.
          5    1    4    4  502    0 -0.53874181337E+02  0.10004634508E+02  0.23923630020E+02  0.59974579612E+02  0.47000000000E+01 0. -1.
         -5    1    4    4    0  502  0.21485770576E+01  0.11896513555E+03  0.19105057072E+03  0.22512159033E+03  0.47000000000E+01 0. -1.
<mgrwt>
<rscale>  0 0.10004868E+04</rscale>
<asrwt>0</asrwt>
<pdfrwt beam="1">  1        2 0.22907355E+00 0.10004868E+04</pdfrwt>
<pdfrwt beam="2">  1       -2 0.25855986E-01 0.10004868E+04</pdfrwt>
<totfact> 0.20767459E+02</totfact>
</mgrwt>
</event>
<event>
 9    1  0.4388925E-036  0.1004475E+04  0.7818608E-02  0.8676788E-01
          2   -1    0    0  501    0  0.00000000000E+00  0.00000000000E+00  0.12844766699E+04  0.12844766699E+04  0.00000000000E+00 0. -1.
         -2   -1    0    0    0  501 -0.00000000000E+00 -0.00000000000E+00 -0.19637747265E+03  0.19637747265E+03  0.00000000000E+00 0. -1.
         36    2    1    2    0    0  0.00000000000E+00  0.71054273576E-14  0.10880991972E+04  0.14808541425E+04  0.10044745534E+04 0.  0.
         25    2    3    3    0    0  0.13574396007E+03  0.23972657893E+02  0.26932189787E+03  0.32779719892E+03  0.12615707639E+03 0.  0.
         35    2    3    3    0    0 -0.13574396007E+03 -0.23972657893E+02  0.81877729934E+03  0.11530569436E+04  0.80008933140E+03 0.  0.
         22    1    5    5    0    0  0.62731807175E+02  0.30630390837E+03  0.67117759882E+03  0.74043010006E+03  0.00000000000E+00 0.  1.
         22    1    5    5    0    0 -0.19847576725E+03 -0.33027656626E+03  0.14759970051E+03  0.41262684353E+03  0.00000000000E+00 0.  1.
          5    1    4    4  502    0  0.10276493530E+03  0.34735816277E+02  0.27181667777E+03  0.29270053840E+03  0.47000000000E+01 0. -1.
         -5    1    4    4    0  502  0.32979024767E+02 -0.10763158384E+02 -0.24947799061E+01  0.35096660521E+02  0.47000000000E+01 0. -1.
<mgrwt>
<rscale>  0 0.10044746E+04</rscale>
<asrwt>0</asrwt>
<pdfrwt beam="1">  1        2 0.19761179E+00 0.10044746E+04</pdfrwt>
<pdfrwt beam="2">  1       -2 0.30211920E-01 0.10044746E+04</pdfrwt>
<totfact> 0.20540684E+02</totfact>
</mgrwt>
</event>
<event>
 9    1  0.4388925E-036  0.9993127E+03  0.7818608E-02  0.8681693E-01
          2   -1    0    0  501    0  0.00000000000E+00  0.00000000000E+00  0.48782475923E+03  0.48782475923E+03  0.00000000000E+00 0. -1.
         -2   -1    0    0    0  501 -0.00000000000E+00 -0.00000000000E+00 -0.51177494133E+03  0.51177494133E+03  0.00000000000E+00 0. -1.
         36    2    1    2    0    0  0.00000000000E+00 -0.28421709430E-13 -0.23950182096E+02  0.99959970056E+03  0.99931273890E+03 0.  0.
         25    2    3    3    0    0  0.79079229039E+02  0.11053048151E+03 -0.58054019858E+01  0.18490351156E+03  0.12524014567E+03 0.  0.
         35    2    3    3    0    0 -0.79079229039E+02 -0.11053048151E+03 -0.18144780110E+02  0.81469618899E+03  0.80307542330E+03 0.  0.
         22    1    5    5    0    0  0.23677113233E+03  0.24372480632E+03 -0.13298623143E+02  0.34005764761E+03  0.00000000000E+00 0. -1.
         22    1    5    5    0    0 -0.31585036137E+03 -0.35425528783E+03 -0.48461569674E+01  0.47463854138E+03  0.00000000000E+00 0. -1.
          5    1    4    4  502    0  0.75023624544E+02  0.17800207915E+01 -0.10239660279E+02  0.75885791531E+02  0.47000000000E+01 0. -1.
         -5    1    4    4    0  502  0.40556044950E+01  0.10875046072E+03  0.44342582933E+01  0.10901772003E+03  0.47000000000E+01 0. -1.
<mgrwt>
<rscale>  0 0.99931274E+03</rscale>
<asrwt>0</asrwt>
<pdfrwt beam="1">  1        2 0.75049962E-01 0.99931274E+03</pdfrwt>
<pdfrwt beam="2">  1       -2 0.78734607E-01 0.99931274E+03</pdfrwt>
<totfact> 0.10947704E+02</totfact>
</mgrwt>
</event>
<event>
 9    1  0.4388925E-036  0.9997703E+03  0.7818608E-02  0.8681257E-01
         -1   -1    0    0    0  501 -0.00000000000E+00  0.00000000000E+00  0.44677979157E+03  0.44677979157E+03  0.00000000000E+00 0. -1.
          1   -1    0    0  501    0  0.00000000000E+00 -0.00000000000E+00 -0.55930269681E+03  0.55930269681E+03  0.00000000000E+00 0. -1.
         36    2    1    2    0    0 -0.35527136788E-14 -0.28421709430E-13 -0.11252290524E+03  0.10060824884E+04  0.99977025822E+03 0.  0.
         25    2    3    3    0    0  0.10372605111E+02  0.13221958292E+03  0.24670955467E+02  0.18401118820E+03  0.12514732237E+03 0.  0.
         35    2    3    3    0    0 -0.10372605111E+02 -0.13221958292E+03 -0.13719386070E+03  0.82207130017E+03  0.79961832027E+03 0.  0.
         22    1    5    5    0    0  0.50062223932E+02 -0.38124476178E+03  0.17136918247E+03  0.42097647363E+03  0.00000000000E+00 0.  1.
         22    1    5    5    0    0 -0.60434829043E+02  0.24902517886E+03 -0.30856304317E+03  0.40109482654E+03  0.00000000000E+00 0.  1.
          5    1    4    4  502    0  0.29973206709E+02  0.12492155838E+03  0.60640864607E+02  0.14213793769E+03  0.47000000000E+01 0. -1.
         -5    1    4    4    0  502 -0.19600601598E+02  0.72980245345E+01 -0.35969909140E+02  0.41873250514E+02  0.47000000000E+01 0. -1.
<mgrwt>
<rscale>  0 0.99977026E+03</rscale>
<asrwt>0</asrwt>
<pdfrwt beam="1">  1        1 0.86046569E-01 0.99977026E+03</pdfrwt>
<pdfrwt beam="2">  1       -1 0.68735352E-01 0.99977026E+03</pdfrwt>
<totfact> 0.94968127E+01</totfact>
</mgrwt>
</event>
<event>
 9    1  0.4388925E-036  0.1002736E+04  0.7818608E-02  0.8678437E-01
          1   -1    0    0  501    0  0.00000000000E+00  0.00000000000E+00  0.11738631357E+04  0.11738631357E+04  0.00000000000E+00 0. -1.
         -1   -1    0    0    0  501 -0.00000000000E+00 -0.00000000000E+00 -0.21413900504E+03  0.21413900504E+03  0.00000000000E+00 0. -1.
         36    2    1    2    0    0  0.00000000000E+00 -0.12434497876E-13  0.95972413064E+03  0.13880021407E+04  0.10027360249E+04 0.  0.
         25    2    3    3    0    0  0.14010372867E+03 -0.11725960280E+02  0.22583030929E+03  0.29358412482E+03  0.12420047028E+03 0.  0.
         35    2    3    3    0    0 -0.14010372867E+03  0.11725960280E+02  0.73389382135E+03  0.10944180159E+04  0.79961496958E+03 0.  0.
         22    1    5    5    0    0 -0.30081236689E+03  0.33459015218E+03  0.37648131571E+03  0.58666585983E+03  0.00000000000E+00 0.  1.
         22    1    5    5    0    0  0.16070863822E+03 -0.32286419190E+03  0.35741250564E+03  0.50775215608E+03  0.00000000000E+00 0.  1.
          5    1    4    4  502    0  0.13681979292E+03 -0.16319417261E+02  0.24047860456E+03  0.27719673224E+03  0.47000000000E+01 0.  1.
         -5    1    4    4    0  502  0.32839357537E+01  0.45934569811E+01 -0.14648295270E+02  0.16387392575E+02  0.47000000000E+01 0.  1.
<mgrwt>
<rscale>  0 0.10027360E+04</rscale>
<asrwt>0</asrwt>
<pdfrwt beam="1">  1        1 0.18059433E+00 0.10027360E+04</pdfrwt>
<pdfrwt beam="2">  1       -1 0.32944463E-01 0.10027360E+04</pdfrwt>
<totfact> 0.10667059E+02</totfact>
</mgrwt>
</event>
<event>
 9    1  0.4388925E-036  0.9991923E+03  0.7818608E-02  0.8681807E-01
          1   -1    0    0  501    0  0.00000000000E+00  0.00000000000E+00  0.74225483829E+03  0.74225483829E+03  0.00000000000E+00 0. -1.
         -1   -1    0    0    0  501 -0.00000000000E+00 -0.00000000000E+00 -0.33626768405E+03  0.33626768405E+03  0.00000000000E+00 0. -1.
         36    2    1    2    0    0 -0.14210854715E-13  0.00000000000E+00  0.40598715423E+03  0.10785225223E+04  0.99919230471E+03 0.  0.
         25    2    3    3    0    0 -0.43945513436E+02 -0.13247321829E+03  0.81251849505E+02  0.20433565000E+03  0.12518319814E+03 0.  0.
         35    2    3    3    0    0  0.43945513436E+02  0.13247321829E+03  0.32473530473E+03  0.87418687234E+03  0.79954318702E+03 0.  0.
         22    1    5    5    0    0 -0.10814624369E+03  0.43436822980E+03  0.74923651139E+02  0.45385561865E+03  0.00000000000E+00 0. -1.
         22    1    5    5    0    0  0.15209175712E+03 -0.30189501150E+03  0.24981165359E+03  0.42033125369E+03  0.00000000000E+00 0. -1.
          5    1    4    4  502    0 -0.39770684240E+01 -0.41091474572E+02 -0.32664554871E+02  0.52852525963E+02  0.47000000000E+01 0.  1.
         -5    1    4    4    0  502 -0.39968445012E+02 -0.91381743723E+02  0.11391640438E+03  0.15148312404E+03  0.47000000000E+01 0.  1.
<mgrwt>
<rscale>  0 0.99919230E+03</rscale>
<asrwt>0</asrwt>
<pdfrwt beam="1">  1        1 0.11419305E+00 0.99919230E+03</pdfrwt>
<pdfrwt beam="2">  1       -1 0.51733490E-01 0.99919230E+03</pdfrwt>
<totfact> 0.10720403E+02</totfact>
</mgrwt>
</event>
<event>
 9    1  0.4388925E-036  0.1000735E+04  0.7818608E-02  0.8680338E-01
          2   -1    0    0  501    0  0.00000000000E+00  0.00000000000E+00  0.94277302056E+03  0.94277302056E+03  0.00000000000E+00 0.  1.
         -2   -1    0    0    0  501 -0.00000000000E+00 -0.00000000000E+00 -0.26556529793E+03  0.26556529793E+03  0.00000000000E+00 0.  1.
         36    2    1    2    0    0  0.24868995752E-13  0.42632564146E-13  0.67720772263E+03  0.12083383185E+04  0.10007353258E+04 0.  0.
         25    2    3    3    0    0 -0.14777353755E+02  0.10846596619E+03  0.19181638722E+02  0.16705703187E+03  0.12472722489E+03 0.  0.
         35    2    3    3    0    0  0.14777353755E+02 -0.10846596619E+03  0.65802608391E+03  0.10412812866E+04  0.79955309689E+03 0.  0.
         22    1    5    5    0    0  0.17716191270E+03  0.26634145695E+03  0.73569856168E+02  0.32823259853E+03  0.00000000000E+00 0.  1.
         22    1    5    5    0    0 -0.16238455895E+03 -0.37480742314E+03  0.58445622774E+03  0.71304868808E+03  0.00000000000E+00 0.  1.
          5    1    4    4  502    0  0.15303612760E+02  0.71450836058E+02 -0.45759592270E+02  0.86344964078E+02  0.47000000000E+01 0.  1.
         -5    1    4    4    0  502 -0.30080966515E+02  0.37015130131E+02  0.64941230992E+02  0.80712067796E+02  0.47000000000E+01 0.  1.
<mgrwt>
<rscale>  0 0.10007353E+04</rscale>
<asrwt>0</asrwt>
<pdfrwt beam="1">  1        2 0.14504200E+00 0.10007353E+04</pdfrwt>
<pdfrwt beam="2">  1       -2 0.40856200E-01 0.10007353E+04</pdfrwt>
<totfact> 0.18834676E+02</totfact>
</mgrwt>
</event>
<event>
 9    1  0.4388925E-036  0.9970692E+03  0.7818608E-02  0.8683834E-01
          2   -1    0    0  501    0  0.00000000000E+00  0.00000000000E+00  0.36319217530E+03  0.36319217530E+03  0.00000000000E+00 0. -1.
         -2   -1    0    0    0  501 -0.00000000000E+00 -0.00000000000E+00 -0.68431190649E+03  0.68431190649E+03  0.00000000000E+00 0. -1.
         36    2    1    2    0    0 -0.21316282073E-13  0.14210854715E-13 -0.32111973119E+03  0.10475040818E+04  0.99706916491E+03 0.  0.
         25    2    3    3    0    0 -0.11666923230E+02  0.75619573672E+02 -0.17503282119E+03  0.22804305163E+03  0.12455002162E+03 0.  0.
         35    2    3    3    0    0  0.11666923230E+02 -0.75619573672E+02 -0.14608691001E+03  0.81946103016E+03  0.80269580643E+03 0.  0.
         22    1    5    5    0    0 -0.18766174063E+03  0.19451946821E+03 -0.33798417368E+03  0.43276789861E+03  0.00000000000E+00 0.  1.
         22    1    5    5    0    0  0.19932866386E+03 -0.27013904188E+03  0.19189726368E+03  0.38669313155E+03  0.00000000000E+00 0.  1.
          5    1    4    4  502    0  0.27820827646E+02  0.93411872150E+02 -0.14629688879E+03  0.17585404738E+03  0.47000000000E+01 0. -1.
         -5    1    4    4    0  502 -0.39487750876E+02 -0.17792298478E+02 -0.28735932398E+02  0.52189004255E+02  0.47000000000E+01 0. -1.
<mgrwt>
<rscale>  0 0.99706916E+03</rscale>
<asrwt>0</asrwt>
<pdfrwt beam="1">  1        2 0.55875720E-01 0.99706916E+03</pdfrwt>
<pdfrwt beam="2">  1       -2 0.10527875E+00 0.99706916E+03</pdfrwt>
<totfact> 0.76634730E+01</totfact>
</mgrwt>
</event>
<event>
 9    1  0.4388925E-036  0.9999638E+03  0.7818608E-02  0.8681072E-01
          2   -1    0    0  501    0  0.00000000000E+00  0.00000000000E+00  0.22265716735E+04  0.22265716735E+04  0.00000000000E+00 0.  1.
         -2   -1    0    0    0  501 -0.00000000000E+00 -0.00000000000E+00 -0.11227210488E+03  0.11227210488E+03  0.00000000000E+00 0.  1.
         36    2    1    2    0    0  0.35527136788E-14  0.00000000000E+00  0.21142995686E+04  0.23388437784E+04  0.99996377624E+03 0.  0.
         25    2    3    3    0    0 -0.28840421002E+02  0.11899398950E+03  0.23673253086E+03  0.29473253168E+03  0.12583177120E+03 0.  0.
         35    2    3    3    0    0  0.28840421002E+02 -0.11899398950E+03  0.18775670377E+04  0.20441112467E+04  0.79883757308E+03 0.  0.
         22    1    5    5    0    0 -0.45640972863E+02 -0.45545514562E+03  0.11905211144E+04  0.12754854025E+04  0.00000000000E+00 0. -1.
         22    1    5    5    0    0  0.74481393865E+02  0.33646115612E+03  0.68704592330E+03  0.76862584418E+03  0.00000000000E+00 0. -1.
          5    1    4    4  502    0  0.15912707277E+02  0.12233335901E+03  0.20592546036E+03  0.24009591875E+03  0.47000000000E+01 0.  1.
         -5    1    4    4    0  502 -0.44753128279E+02 -0.33393695073E+01  0.30807070502E+02  0.54636612929E+02  0.47000000000E+01 0.  1.
<mgrwt>
<rscale>  0 0.99996378E+03</rscale>
<asrwt>0</asrwt>
<pdfrwt beam="1">  1        2 0.34254946E+00 0.99996378E+03</pdfrwt>
<pdfrwt beam="2">  1       -2 0.17272633E-01 0.99996378E+03</pdfrwt>
<totfact> 0.15963515E+02</totfact>
</mgrwt>
</event>
<event>
 9    1  0.4388925E-036  0.9980605E+03  0.7818608E-02  0.8682887E-01
          2   -1    0    0  501    0  0.00000000000E+00  0.00000000000E+00  0.12560113410E+04  0.12560113410E+04  0.00000000000E+00 0.  1.
         -2   -1    0    0    0  501 -0.00000000000E+00 -0.00000000000E+00 -0.19827145375E+03  0.19827145375E+03  0.00000000000E+00 0.  1.
         36    2    1    2    0    0 -0.14210854715E-13  0.14210854715E-13  0.10577398873E+04  0.14542827948E+04  0.99806050820E+03 0.  0.
         25    2    3    3    0    0 -0.91455338329E+02 -0.31651691365E+02  0.34967345718E+03  0.38371860080E+03  0.12491008553E+03 0.  0.
         35    2    3    3    0    0  0.91455338329E+02  0.31651691365E+02  0.70806643011E+03  0.10705641940E+04  0.79710960069E+03 0.  0.
         22    1    5    5    0    0 -0.77436148308E+02  0.39468138957E+03  0.33872764275E+03  0.52583854204E+03  0.00000000000E+00 0.  1.
         22    1    5    5    0    0  0.16889148664E+03 -0.36302969820E+03  0.36933878736E+03  0.54472565194E+03  0.00000000000E+00 0.  1.
          5    1    4    4  502    0 -0.84878051382E+02 -0.42585860992E+02  0.11751018362E+03  0.15115744248E+03  0.47000000000E+01 0. -1.
         -5    1    4    4    0  502 -0.65772869471E+01  0.10934169627E+02  0.23216327356E+03  0.23256115832E+03  0.47000000000E+01 0. -1.
<mgrwt>
<rscale>  0 0.99806051E+03</rscale>
<asrwt>0</asrwt>
<pdfrwt beam="1">  1        2 0.19323251E+00 0.99806051E+03</pdfrwt>
<pdfrwt beam="2">  1       -2 0.30503301E-01 0.99806051E+03</pdfrwt>
<totfact> 0.20970217E+02</totfact>
</mgrwt>
</event>
<event>
 9    1  0.4388925E-036  0.9969273E+03  0.7818608E-02  0.8683970E-01
          2   -1    0    0  501    0  0.00000000000E+00  0.00000000000E+00  0.30797430808E+04  0.30797430808E+04  0.00000000000E+00 0. -1.
         -2   -1    0    0    0  501 -0.00000000000E+00 -0.00000000000E+00 -0.80677517645E+02  0.80677517645E+02  0.00000000000E+00 0. -1.
         36    2    1    2    0    0 -0.14210854715E-13  0.00000000000E+00  0.29990655632E+04  0.31604205985E+04  0.99692733285E+03 0.  0.
         25    2    3    3    0    0  0.10761958848E+03  0.72783016420E+02  0.42946406062E+03  0.46587214877E+03  0.12537199183E+03 0.  0.
         35    2    3    3    0    0 -0.10761958848E+03 -0.72783016420E+02  0.25696015026E+04  0.26945484497E+04  0.80053739607E+03 0.  0.
         22    1    5    5    0    0  0.22472614978E+03 -0.31672681006E+03  0.10324906947E+04  0.11031113948E+04  0.00000000000E+00 0.  1.
         22    1    5    5    0    0 -0.33234573826E+03  0.24394379364E+03  0.15371108079E+04  0.15914370550E+04  0.00000000000E+00 0.  1.
          5    1    4    4  502    0  0.12224616621E+03  0.18521416396E+02  0.27985151625E+03  0.30598387076E+03  0.47000000000E+01 0. -1.
         -5    1    4    4    0  502 -0.14626577732E+02  0.54261600024E+02  0.14961254437E+03  0.15988827802E+03  0.47000000000E+01 0. -1.
<mgrwt>
<rscale>  0 0.99692733E+03</rscale>
<asrwt>0</asrwt>
<pdfrwt beam="1">  1        2 0.47380654E+00 0.99692733E+03</pdfrwt>
<pdfrwt beam="2">  1       -2 0.12411928E-01 0.99692733E+03</pdfrwt>
<totfact> 0.81035386E+01</totfact>
</mgrwt>
</event>
<event>
 9    1  0.4388925E-036  0.9997230E+03  0.7818608E-02  0.8681302E-01
         -2   -1    0    0    0  501 -0.00000000000E+00  0.00000000000E+00  0.85849205303E+03  0.85849205303E+03  0.00000000000E+00 0.  1.
          2   -1    0    0  501    0  0.00000000000E+00 -0.00000000000E+00 -0.29104697120E+03  0.29104697120E+03  0.00000000000E+00 0.  1.
         36    2    1    2    0    0 -0.56843418861E-13  0.14210854715E-13  0.56744508183E+03  0.11495390242E+04  0.99972298529E+03 0.  0.
         25    2    3    3    0    0 -0.10191210757E+03 -0.53845455711E+02  0.19875630879E+03  0.26152104364E+03  0.12491507200E+03 0.  0.
         35    2    3    3    0    0  0.10191210757E+03  0.53845455711E+02  0.36868877304E+03  0.88801798059E+03  0.79959934449E+03 0.  0.
         22    1    5    5    0    0  0.37892263688E+03 -0.20315249095E+03  0.19118123731E+03  0.47053540230E+03  0.00000000000E+00 0.  1.
         22    1    5    5    0    0 -0.27701052931E+03  0.25699794666E+03  0.17750753574E+03  0.41748257829E+03  0.00000000000E+00 0.  1.
          5    1    4    4  502    0 -0.24249026451E+02  0.38262002841E+02  0.81351175409E+02  0.93231431855E+02  0.47000000000E+01 0. -1.
         -5    1    4    4    0  502 -0.77663081122E+02 -0.92107458552E+02  0.11740513338E+03  0.16828961178E+03  0.47000000000E+01 0. -1.
<mgrwt>
<rscale>  0 0.99972299E+03</rscale>
<asrwt>0</asrwt>
<pdfrwt beam="1">  1        2 0.44776457E-01 0.99972299E+03</pdfrwt>
<pdfrwt beam="2">  1       -2 0.13207570E+00 0.99972299E+03</pdfrwt>
<totfact> 0.54593718E+01</totfact>
</mgrwt>
</event>
<event>
 9    1  0.4388925E-036  0.1000403E+04  0.7818608E-02  0.8680654E-01
          2   -1    0    0  501    0  0.00000000000E+00  0.00000000000E+00  0.14926294130E+04  0.14926294130E+04  0.00000000000E+00 0.  1.
         -2   -1    0    0    0  501 -0.00000000000E+00 -0.00000000000E+00 -0.16762468532E+03  0.16762468532E+03  0.00000000000E+00 0.  1.
         36    2    1    2    0    0  0.71054273576E-14  0.00000000000E+00  0.13250047277E+04  0.16602540983E+04  0.10004029901E+04 0.  0.
         25    2    3    3    0    0  0.18589047979E+02  0.11844751006E+03  0.12397292425E+03  0.21239777588E+03  0.12396839882E+03 0.  0.
         35    2    3    3    0    0 -0.18589047979E+02 -0.11844751006E+03  0.12010318034E+04  0.14478563224E+04  0.79964690474E+03 0.  0.
         22    1    5    5    0    0 -0.39033077145E+02 -0.88364001623E+02 -0.10421635834E+03  0.14210146812E+03  0.00000000000E+00 0. -1.
         22    1    5    5    0    0  0.20444029167E+02 -0.30083508440E+02  0.13052481617E+04  0.13057548543E+04  0.00000000000E+00 0. -1.
          5    1    4    4  502    0  0.48932384510E+02  0.41670760072E+02  0.11148588430E+03  0.12877120368E+03  0.47000000000E+01 0.  1.
         -5    1    4    4    0  502 -0.30343336531E+02  0.76776749991E+02  0.12487039955E+02  0.83626572199E+02  0.47000000000E+01 0.  1.
<mgrwt>
<rscale>  0 0.10004030E+04</rscale>
<asrwt>0</asrwt>
<pdfrwt beam="1">  1        2 0.22963529E+00 0.10004030E+04</pdfrwt>
<pdfrwt beam="2">  1       -2 0.25788414E-01 0.10004030E+04</pdfrwt>
<totfact> 0.20765451E+02</totfact>
</mgrwt>
</event>
<event>
 9    1  0.4388925E-036  0.9999308E+03  0.7818608E-02  0.8681104E-01
          2   -1    0    0  501    0  0.00000000000E+00  0.00000000000E+00  0.82804256710E+03  0.82804256710E+03  0.00000000000E+00 0. -1.
         -2   -1    0    0    0  501 -0.00000000000E+00 -0.00000000000E+00 -0.30187507395E+03  0.30187507395E+03  0.00000000000E+00 0. -1.
         36    2    1    2    0    0  0.00000000000E+00  0.00000000000E+00  0.52616749316E+03  0.11299176411E+04  0.99993081996E+03 0.  0.
         25    2    3    3    0    0  0.10019155949E+03 -0.28558311226E+02 -0.65509215730E+01  0.16291415574E+03  0.12507670380E+03 0.  0.
         35    2    3    3    0    0 -0.10019155949E+03  0.28558311226E+02  0.53271841473E+03  0.96700348531E+03  0.80028301586E+03 0.  0.
         22    1    5    5    0    0  0.31192063283E+03 -0.25617979046E+02  0.44195939771E+03  0.54155227934E+03  0.00000000000E+00 0. -1.
         22    1    5    5    0    0 -0.41211219233E+03  0.54176290273E+02  0.90759017023E+02  0.42545120597E+03  0.00000000000E+00 0. -1.
          5    1    4    4  502    0  0.88730391645E+02 -0.23613517517E+02  0.50107559492E+02  0.10470691538E+03  0.47000000000E+01 0.  1.
         -5    1    4    4    0  502  0.11461167847E+02 -0.49447937099E+01 -0.56658481065E+02  0.58207240356E+02  0.47000000000E+01 0.  1.
<mgrwt>
<rscale>  0 0.99993082E+03</rscale>
<asrwt>0</asrwt>
<pdfrwt beam="1">  1        2 0.12739116E+00 0.99993082E+03</pdfrwt>
<pdfrwt beam="2">  1       -2 0.46442319E-01 0.99993082E+03</pdfrwt>
<totfact> 0.17495530E+02</totfact>
</mgrwt>
</event>
<event>
 9    1  0.4388925E-036  0.1000247E+04  0.7818608E-02  0.8680802E-01
          2   -1    0    0  501    0  0.00000000000E+00  0.00000000000E+00  0.81770967846E+03  0.81770967846E+03  0.00000000000E+00 0.  1.
         -2   -1    0    0    0  501 -0.00000000000E+00 -0.00000000000E+00 -0.30588329553E+03  0.30588329553E+03  0.00000000000E+00 0.  1.
         36    2    1    2    0    0 -0.28421709430E-13  0.71054273576E-14  0.51182638292E+03  0.11235929740E+04  0.10002474319E+04 0.  0.
         25    2    3    3    0    0 -0.12159357022E+03 -0.59400575407E+02  0.40279429450E+02  0.18831177297E+03  0.12460123083E+03 0.  0.
         35    2    3    3    0    0  0.12159357022E+03  0.59400575407E+02  0.47154695348E+03  0.93528120102E+03  0.79629201363E+03 0.  0.
         22    1    5    5    0    0 -0.30116157656E+03  0.10324174161E+03  0.38839210109E+03  0.50220073337E+03  0.00000000000E+00 0.  1.
         22    1    5    5    0    0  0.42275514678E+03 -0.43841166203E+02  0.83154852387E+02  0.43308046765E+03  0.00000000000E+00 0.  1.
          5    1    4    4  502    0  0.15833385124E+00 -0.59125907979E+02 -0.19875678455E+01  0.59345922269E+02  0.47000000000E+01 0. -1.
         -5    1    4    4    0  502 -0.12175190407E+03 -0.27466742826E+00  0.42266997295E+02  0.12896585070E+03  0.47000000000E+01 0. -1.
<mgrwt>
<rscale>  0 0.10002474E+04</rscale>
<asrwt>0</asrwt>
<pdfrwt beam="1">  1        2 0.12580149E+00 0.10002474E+04</pdfrwt>
<pdfrwt beam="2">  1       -2 0.47058969E-01 0.10002474E+04</pdfrwt>
<totfact> 0.17328122E+02</totfact>
</mgrwt>
</event>
<event>
 9    1  0.4388925E-036  0.9999962E+03  0.7818608E-02  0.8681042E-01
         -1   -1    0    0    0  501 -0.00000000000E+00  0.00000000000E+00  0.38400900446E+03  0.38400900446E+03  0.00000000000E+00 0. -1.
          1   -1    0    0  501    0  0.00000000000E+00 -0.00000000000E+00 -0.65102150102E+03  0.65102150102E+03  0.00000000000E+00 0. -1.
         36    2    1    2    0    0  0.00000000000E+00 -0.71054273576E-14 -0.26701249656E+03  0.10350305055E+04  0.99999623696E+03 0.  0.
         25    2    3    3    0    0 -0.12355614263E+03  0.47463135387E+02 -0.93031482490E+02  0.20444102717E+03  0.12498962858E+03 0.  0.
         35    2    3    3    0    0  0.12355614263E+03 -0.47463135387E+02 -0.17398101407E+03  0.83058947830E+03  0.80130557131E+03 0.  0.
         22    1    5    5    0    0  0.33882315975E+03 -0.18188624357E+03 -0.35140445440E+03  0.52093073412E+03  0.00000000000E+00 0. -1.
         22    1    5    5    0    0 -0.21526701711E+03  0.13442310818E+03  0.17742344033E+03  0.30965874418E+03  0.00000000000E+00 0. -1.
          5    1    4    4  502    0  0.24602728413E+02  0.15053902211E+01 -0.36750709663E+01  0.25360532165E+02  0.47000000000E+01 0.  1.
         -5    1    4    4    0  502 -0.14815887105E+03  0.45957745166E+02 -0.89356411524E+02  0.17908049500E+03  0.47000000000E+01 0.  1.
<mgrwt>
<rscale>  0 0.99999624E+03</rscale>
<asrwt>0</asrwt>
<pdfrwt beam="1">  1        1 0.10015715E+00 0.99999624E+03</pdfrwt>
<pdfrwt beam="2">  1       -1 0.59078309E-01 0.99999624E+03</pdfrwt>
<totfact> 0.10203493E+02</totfact>
</mgrwt>
</event>
<event>
 9    1  0.4388925E-036  0.1000083E+04  0.7818608E-02  0.8680959E-01
         -2   -1    0    0    0  501 -0.00000000000E+00  0.00000000000E+00  0.49662656357E+03  0.49662656357E+03  0.00000000000E+00 0.  1.
          2   -1    0    0  501    0  0.00000000000E+00 -0.00000000000E+00 -0.50348019938E+03  0.50348019938E+03  0.00000000000E+00 0.  1.
         36    2    1    2    0    0  0.14210854715E-13 -0.28421709430E-13 -0.68536358061E+01  0.10001067629E+04  0.10000832790E+04 0.  0.
         25    2    3    3    0    0  0.99771030249E+02 -0.11322143002E+03  0.10078253311E+02  0.19635816048E+03  0.12522621652E+03 0.  0.
         35    2    3    3    0    0 -0.99771030249E+02  0.11322143002E+03 -0.16931889117E+02  0.80374860247E+03  0.78927294164E+03 0.  0.
         22    1    5    5    0    0  0.20936361917E+03 -0.25007810035E+03 -0.19329078360E+02  0.32671974929E+03  0.00000000000E+00 0.  1.
         22    1    5    5    0    0 -0.30913464942E+03  0.36329953038E+03  0.23971892427E+01  0.47702885317E+03  0.00000000000E+00 0.  1.
          5    1    4    4  502    0 -0.20325792384E+02 -0.34198034976E+02 -0.26385515608E+02  0.47967998354E+02  0.47000000000E+01 0. -1.
         -5    1    4    4    0  502  0.12009682263E+03 -0.79023395049E+02  0.36463768919E+02  0.14839016212E+03  0.47000000000E+01 0. -1.
<mgrwt>
<rscale>  0 0.10000833E+04</rscale>
<asrwt>0</asrwt>
<pdfrwt beam="1">  1        2 0.77458492E-01 0.10000833E+04</pdfrwt>
<pdfrwt beam="2">  1       -2 0.76404087E-01 0.10000833E+04</pdfrwt>
<totfact> 0.11300503E+02</totfact>
</mgrwt>
</event>
<event>
 9    1  0.4388925E-036  0.1000102E+04  0.7818608E-02  0.8680940E-01
         -2   -1    0    0    0  501 -0.00000000000E+00  0.00000000000E+00  0.12774977100E+03  0.12774977100E+03  0.00000000000E+00 0.  1.
          2   -1    0    0  501    0  0.00000000000E+00 -0.00000000000E+00 -0.19573516367E+04  0.19573516367E+04  0.00000000000E+00 0.  1.
         36    2    1    2    0    0  0.00000000000E+00  0.00000000000E+00 -0.18296018657E+04  0.20851014077E+04  0.10001024415E+04 0.  0.
         25    2    3    3    0    0  0.10177290087E+03 -0.17650224630E+02 -0.14304863951E+03  0.21511194933E+03  0.12304870457E+03 0.  0.
         35    2    3    3    0    0 -0.10177290087E+03  0.17650224630E+02 -0.16865532262E+04  0.18699894584E+04  0.80108023060E+03 0.  0.
         22    1    5    5    0    0  0.31888050848E+03  0.91728329465E+01 -0.37359820529E+03  0.49126829589E+03  0.00000000000E+00 0. -1.
         22    1    5    5    0    0 -0.42065340935E+03  0.84773916835E+01 -0.13129550209E+04  0.13787211625E+04  0.00000000000E+00 0. -1.
          5    1    4    4  502    0  0.83977866908E+02 -0.63822357486E+02 -0.12141883425E+03  0.16090431553E+03  0.47000000000E+01 0.  1.
         -5    1    4    4    0  502  0.17795033963E+02  0.46172132856E+02 -0.21629805263E+02  0.54207633797E+02  0.47000000000E+01 0.  1.
<mgrwt>
<rscale>  0 0.10001024E+04</rscale>
<asrwt>0</asrwt>
<pdfrwt beam="1">  1        2 0.30113102E+00 0.10001024E+04</pdfrwt>
<pdfrwt beam="2">  1       -2 0.19653811E-01 0.10001024E+04</pdfrwt>
<totfact> 0.18269245E+02</totfact>
</mgrwt>
</event>
<event>
 9    1  0.4388925E-036  0.9995590E+03  0.7818608E-02  0.8681458E-01
         -1   -1    0    0    0  501 -0.00000000000E+00  0.00000000000E+00  0.24341221764E+03  0.24341221764E+03  0.00000000000E+00 0.  1.
          1   -1    0    0  501    0  0.00000000000E+00 -0.00000000000E+00 -0.10261587243E+04  0.10261587243E+04  0.00000000000E+00 0.  1.
         36    2    1    2    0    0  0.14210854715E-13 -0.28421709430E-13 -0.78274650662E+03  0.12695709419E+04  0.99955904421E+03 0.  0.
         25    2    3    3    0    0  0.92393732936E+02  0.73579592168E+02 -0.24742897351E+03  0.30105645590E+03  0.12435165634E+03 0.  0.
         35    2    3    3    0    0 -0.92393732936E+02 -0.73579592168E+02 -0.53531753311E+03  0.96851448600E+03  0.79843903340E+03 0.  0.
         22    1    5    5    0    0 -0.32924829450E+03  0.23760718334E+03 -0.34862942939E+03  0.53516734957E+03  0.00000000000E+00 0.  1.
         22    1    5    5    0    0  0.23685456156E+03 -0.31118677550E+03 -0.18668810372E+03  0.43334713643E+03  0.00000000000E+00 0.  1.
          5    1    4    4  502    0  0.11456470283E+01  0.54995802281E+02 -0.17347670378E+03  0.18204973917E+03  0.47000000000E+01 0. -1.
         -5    1    4    4    0  502  0.91248085908E+02  0.18583789887E+02 -0.73952269727E+02  0.11900671673E+03  0.47000000000E+01 0. -1.
<mgrwt>
<rscale>  0 0.99955904E+03</rscale>
<asrwt>0</asrwt>
<pdfrwt beam="1">  1        1 0.15787057E+00 0.99955904E+03</pdfrwt>
<pdfrwt beam="2">  1       -1 0.37448033E-01 0.99955904E+03</pdfrwt>
<totfact> 0.11077738E+02</totfact>
</mgrwt>
</event>
<event>
 9    1  0.4388925E-036  0.9984434E+03  0.7818608E-02  0.8682522E-01
         -2   -1    0    0    0  501 -0.00000000000E+00  0.00000000000E+00  0.23160386837E+03  0.23160386837E+03  0.00000000000E+00 0. -1.
          2   -1    0    0  501    0  0.00000000000E+00 -0.00000000000E+00 -0.10760715005E+04  0.10760715005E+04  0.00000000000E+00 0. -1.
         36    2    1    2    0    0  0.00000000000E+00 -0.28421709430E-13 -0.84446763209E+03  0.13076753688E+04  0.99844343285E+03 0.  0.
         25    2    3    3    0    0 -0.42781448240E+02  0.11918220623E+03 -0.23124290355E+03  0.29180702016E+03  0.12507360224E+03 0.  0.
         35    2    3    3    0    0  0.42781448240E+02 -0.11918220623E+03 -0.61322472854E+03  0.10158683487E+04  0.79994330021E+03 0.  0.
         22    1    5    5    0    0 -0.35817323120E+03  0.58726344507E+02 -0.20605436142E+03  0.41736704104E+03  0.00000000000E+00 0. -1.
         22    1    5    5    0    0  0.40095467944E+03 -0.17790855073E+03 -0.40717036712E+03  0.59850130764E+03  0.00000000000E+00 0. -1.
          5    1    4    4  502    0 -0.50219803627E+02  0.12109419821E+03 -0.24350679117E+03  0.27659262619E+03  0.47000000000E+01 0.  1.
         -5    1    4    4    0  502  0.74383553870E+01 -0.19119919860E+01  0.12263887620E+02  0.15214393967E+02  0.47000000000E+01 0.  1.
<mgrwt>
<rscale>  0 0.99844343E+03</rscale>
<asrwt>0</asrwt>
<pdfrwt beam="1">  1        2 0.16554946E+00 0.99844343E+03</pdfrwt>
<pdfrwt beam="2">  1       -2 0.35631364E-01 0.99844343E+03</pdfrwt>
<totfact> 0.20144555E+02</totfact>
</mgrwt>
</event>
<event>
 9    1  0.4388925E-036  0.1000465E+04  0.7818608E-02  0.8680595E-01
         -2   -1    0    0    0  501 -0.00000000000E+00  0.00000000000E+00  0.94175433299E+02  0.94175433299E+02  0.00000000000E+00 0.  1.
          2   -1    0    0  501    0  0.00000000000E+00 -0.00000000000E+00 -0.26570912256E+04  0.26570912256E+04  0.00000000000E+00 0.  1.
         36    2    1    2    0    0 -0.71054273576E-14  0.00000000000E+00 -0.25629157923E+04  0.27512666589E+04  0.10004653267E+04 0.  0.
         25    2    3    3    0    0  0.54416463478E+02  0.77578552634E+02 -0.76859881068E+03  0.78438012704E+03  0.12461327611E+03 0.  0.
         35    2    3    3    0    0 -0.54416463478E+02 -0.77578552634E+02 -0.17943169816E+04  0.19668865319E+04  0.80005600765E+03 0.  0.
         22    1    5    5    0    0 -0.36955660632E+03 -0.14840370179E+03 -0.14084752881E+04  0.14636934041E+04  0.00000000000E+00 0.  1.
         22    1    5    5    0    0  0.31514014284E+03  0.70825149158E+02 -0.38584169351E+03  0.50319312777E+03  0.00000000000E+00 0.  1.
          5    1    4    4  502    0  0.21213263216E+02  0.10381865929E+03 -0.64473965597E+03  0.65340617577E+03  0.47000000000E+01 0.  1.
         -5    1    4    4    0  502  0.33203200262E+02 -0.26240106653E+02 -0.12385915471E+03  0.13097395127E+03  0.47000000000E+01 0.  1.
<mgrwt>
<rscale>  0 0.10004653E+04</rscale>
<asrwt>0</asrwt>
<pdfrwt beam="1">  1        2 0.40878323E+00 0.10004653E+04</pdfrwt>
<pdfrwt beam="2">  1       -2 0.14488529E-01 0.10004653E+04</pdfrwt>
<totfact> 0.11806640E+02</totfact>
</mgrwt>
</event>
<event>
 9    1  0.4388925E-036  0.1001913E+04  0.7818608E-02  0.8679219E-01
         -2   -1    0    0    0  501 -0.00000000000E+00  0.00000000000E+00  0.22288338561E+03  0.22288338561E+03  0.00000000000E+00 0.  1.
          2   -1    0    0  501    0  0.00000000000E+00 -0.00000000000E+00 -0.11259579587E+04  0.11259579587E+04  0.00000000000E+00 0.  1.
         36    2    1    2    0    0 -0.71054273576E-14  0.00000000000E+00 -0.90307457309E+03  0.13488413443E+04  0.10019128143E+04 0.  0.
         25    2    3    3    0    0  0.43567965163E+02  0.59032047897E+02 -0.33111633580E+03  0.36248277473E+03  0.12795617952E+03 0.  0.
         35    2    3    3    0    0 -0.43567965163E+02 -0.59032047897E+02 -0.57195823729E+03  0.98635856957E+03  0.80023999668E+03 0.  0.
         22    1    5    5    0    0  0.28684569891E+03  0.19922936357E+03 -0.40548263906E+03  0.53515321625E+03  0.00000000000E+00 0.  1.
         22    1    5    5    0    0 -0.33041366407E+03 -0.25826141146E+03 -0.16647559823E+03  0.45120535332E+03  0.00000000000E+00 0.  1.
          5    1    4    4  502    0  0.85972233698E+00  0.94703340534E+01 -0.27766894722E+03  0.27787148216E+03  0.47000000000E+01 0. -1.
         -5    1    4    4    0  502  0.42708242826E+02  0.49561713844E+02 -0.53447388577E+02  0.84611292569E+02  0.47000000000E+01 0. -1.
<mgrwt>
<rscale>  0 0.10019128E+04</rscale>
<asrwt>0</asrwt>
<pdfrwt beam="1">  1        2 0.17322430E+00 0.10019128E+04</pdfrwt>
<pdfrwt beam="2">  1       -2 0.34289752E-01 0.10019128E+04</pdfrwt>
<totfact> 0.20183694E+02</totfact>
</mgrwt>
</event>
<event>
 9    1  0.4388925E-036  0.1000788E+04  0.7818608E-02  0.8680288E-01
          1   -1    0    0  501    0  0.00000000000E+00  0.00000000000E+00  0.97658410624E+03  0.97658410624E+03  0.00000000000E+00 0. -1.
         -1   -1    0    0    0  501 -0.00000000000E+00 -0.00000000000E+00 -0.25639782009E+03  0.25639782009E+03  0.00000000000E+00 0. -1.
         36    2    1    2    0    0 -0.21316282073E-13  0.00000000000E+00  0.72018628615E+03  0.12329819263E+04  0.10007877617E+04 0.  0.
         25    2    3    3    0    0 -0.51401459720E+02  0.12691520814E+03  0.89897685707E+02  0.20587198964E+03  0.12470806753E+03 0.  0.
         35    2    3    3    0    0  0.51401459720E+02 -0.12691520814E+03  0.63028860044E+03  0.10271099367E+04  0.79933817754E+03 0.  0.
         22    1    5    5    0    0 -0.35270258262E+03 -0.59450628171E+02  0.13022617320E+03  0.38064727132E+03  0.00000000000E+00 0. -1.
         22    1    5    5    0    0  0.40410404234E+03 -0.67464579966E+02  0.50006242724E+03  0.64646266537E+03  0.00000000000E+00 0. -1.
          5    1    4    4  502    0  0.16920781581E+02  0.23234257197E+02  0.75330021053E+02  0.80764135782E+02  0.47000000000E+01 0.  1.
         -5    1    4    4    0  502 -0.68322241301E+02  0.10368095094E+03  0.14567664654E+02  0.12510785386E+03  0.47000000000E+01 0.  1.
<mgrwt>
<rscale>  0 0.10007878E+04</rscale>
<asrwt>0</asrwt>
<pdfrwt beam="1">  1        1 0.15024371E+00 0.10007878E+04</pdfrwt>
<pdfrwt beam="2">  1       -1 0.39445819E-01 0.10007878E+04</pdfrwt>
<totfact> 0.11061738E+02</totfact>
</mgrwt>
</event>
<event>
 9    1  0.4388925E-036  0.1000070E+04  0.7818608E-02  0.8680971E-01
         -1   -1    0    0    0  501 -0.00000000000E+00  0.00000000000E+00  0.22613088416E+03  0.22613088416E+03  0.00000000000E+00 0. -1.
          1   -1    0    0  501    0  0.00000000000E+00 -0.00000000000E+00 -0.11057102505E+04  0.11057102505E+04  0.00000000000E+00 0. -1.
         36    2    1    2    0    0  0.00000000000E+00  0.14210854715E-13 -0.87957936636E+03  0.13318411347E+04  0.10000704707E+04 0.  0.
         25    2    3    3    0    0 -0.10618153161E+03  0.77245665263E+02 -0.23053833883E+03  0.29337099869E+03  0.12520865284E+03 0.  0.
         35    2    3    3    0    0  0.10618153161E+03 -0.77245665263E+02 -0.64904102753E+03  0.10384701360E+04  0.79995284702E+03 0.  0.
         22    1    5    5    0    0 -0.31036053817E+03 -0.20131993140E+03 -0.23548176224E+03  0.43852598415E+03  0.00000000000E+00 0. -1.
         22    1    5    5    0    0  0.41654206977E+03  0.12407426613E+03 -0.41355926529E+03  0.59994415183E+03  0.00000000000E+00 0. -1.
          5    1    4    4  502    0  0.34530420433E+01 -0.28236282625E+02 -0.44112935666E+02  0.52699641829E+02  0.47000000000E+01 0.  1.
         -5    1    4    4    0  502 -0.10963457365E+03  0.10548194789E+03 -0.18642540317E+03  0.24067135686E+03  0.47000000000E+01 0.  1.
<mgrwt>
<rscale>  0 0.10000705E+04</rscale>
<asrwt>0</asrwt>
<pdfrwt beam="1">  1        1 0.17010927E+00 0.10000705E+04</pdfrwt>
<pdfrwt beam="2">  1       -1 0.34789368E-01 0.10000705E+04</pdfrwt>
<totfact> 0.10932723E+02</totfact>
</mgrwt>
</event>
<event>
 9    1  0.4388925E-036  0.1000443E+04  0.7818608E-02  0.8680616E-01
         -1   -1    0    0    0  501 -0.00000000000E+00  0.00000000000E+00  0.23654690035E+03  0.23654690035E+03  0.00000000000E+00 0.  1.
          1   -1    0    0  501    0  0.00000000000E+00 -0.00000000000E+00 -0.10578095618E+04  0.10578095618E+04  0.00000000000E+00 0.  1.
         36    2    1    2    0    0 -0.14210854715E-13  0.28421709430E-13 -0.82126266143E+03  0.12943564621E+04  0.10004430479E+04 0.  0.
         25    2    3    3    0    0 -0.20452312666E+02 -0.69076528742E+02 -0.31083144086E+03  0.34254647745E+03  0.12462760799E+03 0.  0.
         35    2    3    3    0    0  0.20452312666E+02  0.69076528742E+02 -0.51043122057E+03  0.95180998468E+03  0.80013270905E+03 0.  0.
         22    1    5    5    0    0  0.19326159491E+03 -0.30725138214E+03 -0.35999285459E+03  0.51122236967E+03  0.00000000000E+00 0.  1.
         22    1    5    5    0    0 -0.17280928224E+03  0.37632791089E+03 -0.15043836598E+03  0.44058761501E+03  0.00000000000E+00 0.  1.
          5    1    4    4  502    0 -0.68063237109E+02 -0.60418987394E+02 -0.23921034992E+03  0.25598191302E+03  0.47000000000E+01 0. -1.
         -5    1    4    4    0  502  0.47610924443E+02 -0.86575413476E+01 -0.71621090935E+02  0.86564564432E+02  0.47000000000E+01 0. -1.
<mgrwt>
<rscale>  0 0.10004430E+04</rscale>
<asrwt>0</asrwt>
<pdfrwt beam="1">  1        1 0.16273993E+00 0.10004430E+04</pdfrwt>
<pdfrwt beam="2">  1       -1 0.36391831E-01 0.10004430E+04</pdfrwt>
<totfact> 0.11002640E+02</totfact>
</mgrwt>
</event>
<event>
 9    1  0.4388925E-036  0.1000050E+04  0.7818608E-02  0.8680991E-01
         -1   -1    0    0    0  501 -0.00000000000E+00  0.00000000000E+00  0.36638062997E+03  0.36638062997E+03  0.00000000000E+00 0.  1.
          1   -1    0    0  501    0  0.00000000000E+00 -0.00000000000E+00 -0.68241842739E+03  0.68241842739E+03  0.00000000000E+00 0.  1.
         36    2    1    2    0    0 -0.14210854715E-13 -0.14210854715E-13 -0.31603779742E+03  0.10487990574E+04  0.10000497854E+04 0.  0.
         25    2    3    3    0    0  0.96537646948E+02  0.65225166046E+02  0.21491364687E+02  0.17216416670E+03  0.12491910173E+03 0.  0.
         35    2    3    3    0    0 -0.96537646948E+02 -0.65225166046E+02 -0.33752916211E+03  0.87663489065E+03  0.80061785932E+03 0.  0.
         22    1    5    5    0    0 -0.35149952611E+03  0.47334960660E+02  0.90343300085E+02  0.36599785140E+03  0.00000000000E+00 0. -1.
         22    1    5    5    0    0  0.25496187916E+03 -0.11256012671E+03 -0.42787246219E+03  0.51063703925E+03  0.00000000000E+00 0. -1.
          5    1    4    4  502    0  0.11870556346E+03  0.29448903589E+02 -0.44968882580E+01  0.12247677626E+03  0.47000000000E+01 0. -1.
         -5    1    4    4    0  502 -0.22167916512E+02  0.35776262457E+02  0.25988252945E+02  0.49687390443E+02  0.47000000000E+01 0. -1.
<mgrwt>
<rscale>  0 0.10000498E+04</rscale>
<asrwt>0</asrwt>
<pdfrwt beam="1">  1        1 0.10498745E+00 0.10000498E+04</pdfrwt>
<pdfrwt beam="2">  1       -1 0.56366251E-01 0.10000498E+04</pdfrwt>
<totfact> 0.10392570E+02</totfact>
</mgrwt>
</event>
<event>
 9    1  0.4388925E-036  0.1000313E+04  0.7818608E-02  0.8680740E-01
          1   -1    0    0  501    0  0.00000000000E+00  0.00000000000E+00  0.11389491160E+04  0.11389491160E+04  0.00000000000E+00 0. -1.
         -1   -1    0    0    0  501 -0.00000000000E+00 -0.00000000000E+00 -0.21963788629E+03  0.21963788629E+03  0.00000000000E+00 0. -1.
         36    2    1    2    0    0 -0.85265128291E-13 -0.21316282073E-13  0.91931122975E+03  0.13585870023E+04  0.10003127040E+04 0.  0.
         25    2    3    3    0    0  0.13364845941E+03  0.34482822658E+02  0.12857265015E+03  0.22589024785E+03  0.12427591057E+03 0.  0.
         35    2    3    3    0    0 -0.13364845941E+03 -0.34482822658E+02  0.79073857960E+03  0.11326967545E+04  0.79917673926E+03 0.  0.
         22    1    5    5    0    0  0.30248221048E+03 -0.17867988012E+03  0.35905317605E+03  0.50233571488E+03  0.00000000000E+00 0.  1.
         22    1    5    5    0    0 -0.43613066989E+03  0.14419705746E+03  0.43168540356E+03  0.63036103960E+03  0.00000000000E+00 0.  1.
          5    1    4    4  502    0  0.13737890617E+03  0.35606610814E+02  0.14825300627E+03  0.20528477406E+03  0.47000000000E+01 0. -1.
         -5    1    4    4    0  502 -0.37304467604E+01 -0.11237881561E+01 -0.19680356125E+02  0.20605473788E+02  0.47000000000E+01 0. -1.
<mgrwt>
<rscale>  0 0.10003127E+04</rscale>
<asrwt>0</asrwt>
<pdfrwt beam="1">  1        1 0.17522294E+00 0.10003127E+04</pdfrwt>
<pdfrwt beam="2">  1       -1 0.33790445E-01 0.10003127E+04</pdfrwt>
<totfact> 0.10849635E+02</totfact>
</mgrwt>
</event>
<event>
 9    1  0.4388925E-036  0.9999224E+03  0.7818608E-02  0.8681112E-01
          1   -1    0    0  501    0  0.00000000000E+00  0.00000000000E+00  0.15482949924E+04  0.15482949924E+04  0.00000000000E+00 0. -1.
         -1   -1    0    0    0  501 -0.00000000000E+00 -0.00000000000E+00 -0.16144287999E+03  0.16144287999E+03  0.00000000000E+00 0. -1.
         36    2    1    2    0    0 -0.35527136788E-14  0.00000000000E+00  0.13868521124E+04  0.17097378724E+04  0.99992240227E+03 0.  0.
         25    2    3    3    0    0 -0.15216811266E+02 -0.13068891373E+03  0.33109000698E+03  0.37759879748E+03  0.12509642527E+03 0.  0.
         35    2    3    3    0    0  0.15216811266E+02  0.13068891373E+03  0.10557621054E+04  0.13321390749E+04  0.80165438197E+03 0.  0.
         22    1    5    5    0    0 -0.17772916350E+03  0.20317949063E+03  0.14133171542E+02  0.27031335059E+03  0.00000000000E+00 0. -1.
         22    1    5    5    0    0  0.19294597477E+03 -0.72490576902E+02  0.10416289339E+04  0.10618257243E+04  0.00000000000E+00 0. -1.
          5    1    4    4  502    0  0.17880517913E+02 -0.91686549653E+02  0.30686900737E+03  0.32080650553E+03  0.47000000000E+01 0. -1.
         -5    1    4    4    0  502 -0.33097329179E+02 -0.39002364073E+02  0.24220999616E+02  0.56792291946E+02  0.47000000000E+01 0. -1.
<mgrwt>
<rscale>  0 0.99992240E+03</rscale>
<asrwt>0</asrwt>
<pdfrwt beam="1">  1        1 0.23819922E+00 0.99992240E+03</pdfrwt>
<pdfrwt beam="2">  1       -1 0.24837367E-01 0.99992240E+03</pdfrwt>
<totfact> 0.92323085E+01</totfact>
</mgrwt>
</event>
<event>
 9    1  0.4388925E-036  0.1001003E+04  0.7818608E-02  0.8680083E-01
          2   -1    0    0  501    0  0.00000000000E+00  0.00000000000E+00  0.16519126059E+04  0.16519126059E+04  0.00000000000E+00 0. -1.
         -2   -1    0    0    0  501 -0.00000000000E+00 -0.00000000000E+00 -0.15164354465E+03  0.15164354465E+03  0.00000000000E+00 0. -1.
         36    2    1    2    0    0  0.35527136788E-14  0.14210854715E-13  0.15002690613E+04  0.18035561506E+04  0.10010032628E+04 0.  0.
         25    2    3    3    0    0 -0.10837856475E+02 -0.12124867335E+03  0.15024080325E+03  0.22974419077E+03  0.12406205829E+03 0.  0.
         35    2    3    3    0    0  0.10837856475E+02  0.12124867335E+03  0.13500282580E+04  0.15738119598E+04  0.79968061592E+03 0.  0.
         22    1    5    5    0    0 -0.25553436988E+03  0.13165351520E+03  0.12601080332E+04  0.12924792910E+04  0.00000000000E+00 0. -1.
         22    1    5    5    0    0  0.26637222636E+03 -0.10404841854E+02  0.89920224779E+02  0.28133266880E+03  0.00000000000E+00 0. -1.
          5    1    4    4  502    0  0.20537347226E+02 -0.10737620275E+03  0.43888311088E+02  0.11789701183E+03  0.47000000000E+01 0. -1.
         -5    1    4    4    0  502 -0.31375203702E+02 -0.13872470601E+02  0.10635249216E+03  0.11184717894E+03  0.47000000000E+01 0. -1.
<mgrwt>
<rscale>  0 0.10010033E+04</rscale>
<asrwt>0</asrwt>
<pdfrwt beam="1">  1        2 0.25414039E+00 0.10010033E+04</pdfrwt>
<pdfrwt beam="2">  1       -2 0.23329777E-01 0.10010033E+04</pdfrwt>
<totfact> 0.20157758E+02</totfact>
</mgrwt>
</event>
<event>
 9    1  0.4388925E-036  0.9996737E+03  0.7818608E-02  0.8681349E-01
         -1   -1    0    0    0  501 -0.00000000000E+00  0.00000000000E+00  0.45311994380E+03  0.45311994380E+03  0.00000000000E+00 0.  1.
          1   -1    0    0  501    0  0.00000000000E+00 -0.00000000000E+00 -0.55137033878E+03  0.55137033878E+03  0.00000000000E+00 0.  1.
         36    2    1    2    0    0  0.14210854715E-13 -0.21316282073E-13 -0.98250394980E+02  0.10044902826E+04  0.99967374061E+03 0.  0.
         25    2    3    3    0    0  0.10678420664E+03  0.57807521403E+02  0.52474755674E+02  0.18195837833E+03  0.12494268744E+03 0.  0.
         35    2    3    3    0    0 -0.10678420664E+03 -0.57807521403E+02 -0.15072515065E+03  0.82253190424E+03  0.79943485421E+03 0.  0.
         22    1    5    5    0    0 -0.57014868714E+02 -0.42958925646E+03 -0.72897676741E+02  0.43944475852E+03  0.00000000000E+00 0. -1.
         22    1    5    5    0    0 -0.49769337923E+02  0.37178173505E+03 -0.77827473913E+02  0.38308714572E+03  0.00000000000E+00 0. -1.
          5    1    4    4  502    0  0.74823010930E+02 -0.99470415323E+01  0.71977328028E+02  0.10440427362E+03  0.47000000000E+01 0.  1.
         -5    1    4    4    0  502  0.31961195707E+02  0.67754562935E+02 -0.19502572354E+02  0.77554104714E+02  0.47000000000E+01 0.  1.
<mgrwt>
<rscale>  0 0.99967374E+03</rscale>
<asrwt>0</asrwt>
<pdfrwt beam="1">  1        1 0.84826206E-01 0.99967374E+03</pdfrwt>
<pdfrwt beam="2">  1       -1 0.69710761E-01 0.99967374E+03</pdfrwt>
<totfact> 0.94257884E+01</totfact>
</mgrwt>
</event>
<event>
 9    1  0.4388925E-036  0.9991719E+03  0.7818608E-02  0.8681827E-01
          1   -1    0    0  501    0  0.00000000000E+00  0.00000000000E+00  0.10029423064E+04  0.10029423064E+04  0.00000000000E+00 0. -1.
         -1   -1    0    0    0  501 -0.00000000000E+00 -0.00000000000E+00 -0.24885392461E+03  0.24885392461E+03  0.00000000000E+00 0. -1.
         36    2    1    2    0    0  0.00000000000E+00  0.00000000000E+00  0.75408838177E+03  0.12517962310E+04  0.99917191534E+03 0.  0.
         25    2    3    3    0    0  0.11403161023E+03 -0.51420160208E+02  0.22612926244E+03  0.28730689413E+03  0.12555304485E+03 0.  0.
         35    2    3    3    0    0 -0.11403161023E+03  0.51420160208E+02  0.52795911933E+03  0.96448933687E+03  0.79740304002E+03 0.  0.
         22    1    5    5    0    0  0.14394302247E+03  0.30285336537E+03  0.12405630901E+02  0.33554977919E+03  0.00000000000E+00 0. -1.
         22    1    5    5    0    0 -0.25797463271E+03 -0.25143320517E+03  0.51555348843E+03  0.62893955768E+03  0.00000000000E+00 0. -1.
          5    1    4    4  502    0  0.13732892798E+03 -0.32751879132E+02  0.20989201770E+03  0.25299934613E+03  0.47000000000E+01 0. -1.
         -5    1    4    4    0  502 -0.23297317749E+02 -0.18668281077E+02  0.16237244742E+02  0.34307547995E+02  0.47000000000E+01 0. -1.
<mgrwt>
<rscale>  0 0.99917192E+03</rscale>
<asrwt>0</asrwt>
<pdfrwt beam="1">  1        1 0.15429881E+00 0.99917192E+03</pdfrwt>
<pdfrwt beam="2">  1       -1 0.38285220E-01 0.99917192E+03</pdfrwt>
<totfact> 0.11113463E+02</totfact>
</mgrwt>
</event>
<event>
 9    1  0.4388925E-036  0.9996510E+03  0.7818608E-02  0.8681370E-01
          2   -1    0    0  501    0  0.00000000000E+00  0.00000000000E+00  0.25659331605E+04  0.25659331605E+04  0.00000000000E+00 0. -1.
         -2   -1    0    0    0  501 -0.00000000000E+00 -0.00000000000E+00 -0.97362444044E+02  0.97362444044E+02  0.00000000000E+00 0. -1.
         36    2    1    2    0    0  0.17763568394E-13  0.00000000000E+00  0.24685707165E+04  0.26632956046E+04  0.99965098661E+03 0.  0.
         25    2    3    3    0    0 -0.73841388114E+01 -0.34521744056E+02  0.81952989831E+03  0.82972147039E+03  0.12474849852E+03 0.  0.
         35    2    3    3    0    0  0.73841388114E+01  0.34521744056E+02  0.16490408182E+04  0.18335741342E+04  0.80088214439E+03 0.  0.
         22    1    5    5    0    0  0.34406346865E+03 -0.90389721880E+02  0.40648115422E+03  0.54016377240E+03  0.00000000000E+00 0.  1.
         22    1    5    5    0    0 -0.33667932984E+03  0.12491146594E+03  0.12425596639E+04  0.12934103618E+04  0.00000000000E+00 0.  1.
          5    1    4    4  502    0 -0.39048249877E+02 -0.48914673206E+02  0.20993157323E+03  0.21911359271E+03  0.47000000000E+01 0. -1.
         -5    1    4    4    0  502  0.31664111065E+02  0.14392929150E+02  0.60959832508E+03  0.61060787768E+03  0.47000000000E+01 0. -1.
<mgrwt>
<rscale>  0 0.99965099E+03</rscale>
<asrwt>0</asrwt>
<pdfrwt beam="1">  1        2 0.39475890E+00 0.99965099E+03</pdfrwt>
<pdfrwt beam="2">  1       -2 0.14978839E-01 0.99965099E+03</pdfrwt>
<totfact> 0.12720543E+02</totfact>
</mgrwt>
</event>
<event>
 9    1  0.4388925E-036  0.9994823E+03  0.7818608E-02  0.8681531E-01
          2   -1    0    0  501    0  0.00000000000E+00  0.00000000000E+00  0.15083428944E+04  0.15083428944E+04  0.00000000000E+00 0.  1.
         -2   -1    0    0    0  501 -0.00000000000E+00 -0.00000000000E+00 -0.16557325120E+03  0.16557325120E+03  0.00000000000E+00 0.  1.
         36    2    1    2    0    0 -0.71054273576E-14 -0.14210854715E-13  0.13427696432E+04  0.16739161456E+04  0.99948233990E+03 0.  0.
         25    2    3    3    0    0 -0.41635861724E+02 -0.12789430057E+03  0.31691316151E+03  0.36614377427E+03  0.12464675848E+03 0.  0.
         35    2    3    3    0    0  0.41635861724E+02  0.12789430057E+03  0.10258564817E+04  0.13077723713E+04  0.79987283806E+03 0.  0.
         22    1    5    5    0    0 -0.70452560230E+02  0.23018352588E+03 -0.28632534631E+02  0.24242079298E+03  0.00000000000E+00 0.  1.
         22    1    5    5    0    0  0.11208842195E+03 -0.10228922531E+03  0.10544890163E+04  0.10653515783E+04  0.00000000000E+00 0.  1.
          5    1    4    4  502    0 -0.11303130394E+02 -0.11921401322E+02  0.19270258624E+03  0.19345867080E+03  0.47000000000E+01 0. -1.
         -5    1    4    4    0  502 -0.30332731329E+02 -0.11597289925E+03  0.12421057527E+03  0.17268510347E+03  0.47000000000E+01 0. -1.
<mgrwt>
<rscale>  0 0.99948234E+03</rscale>
<asrwt>0</asrwt>
<pdfrwt beam="1">  1        2 0.23205274E+00 0.99948234E+03</pdfrwt>
<pdfrwt beam="2">  1       -2 0.25472809E-01 0.99948234E+03</pdfrwt>
<totfact> 0.20795405E+02</totfact>
</mgrwt>
</event>
<event>
 9    1  0.4388925E-036  0.1000156E+04  0.7818608E-02  0.8680889E-01
         -2   -1    0    0    0  501 -0.00000000000E+00  0.00000000000E+00  0.23447514915E+03  0.23447514915E+03  0.00000000000E+00 0. -1.
          2   -1    0    0  501    0  0.00000000000E+00 -0.00000000000E+00 -0.10665444543E+04  0.10665444543E+04  0.00000000000E+00 0. -1.
         36    2    1    2    0    0 -0.28421709430E-13  0.71054273576E-14 -0.83206930511E+03  0.13010196034E+04  0.10001563278E+04 0.  0.
         25    2    3    3    0    0 -0.10634822462E+03 -0.31383395934E+02 -0.45202591070E+02  0.17334724878E+03  0.12534405450E+03 0.  0.
         35    2    3    3    0    0  0.10634822462E+03  0.31383395934E+02 -0.78686671404E+03  0.11276723546E+04  0.80011927319E+03 0.  0.
         22    1    5    5    0    0  0.11980982341E+03  0.27670012566E+03 -0.82561248204E+03  0.87895012591E+03  0.00000000000E+00 0.  1.
         22    1    5    5    0    0 -0.13461598793E+02 -0.24531672973E+03  0.38745767999E+02  0.24872222873E+03  0.00000000000E+00 0.  1.
          5    1    4    4  502    0  0.17770462301E+02  0.24890756893E+02 -0.99561294611E+01  0.32504670786E+02  0.47000000000E+01 0. -1.
         -5    1    4    4    0  502 -0.12411868692E+03 -0.56274152827E+02 -0.35246461609E+02  0.14084257799E+03  0.47000000000E+01 0. -1.
<mgrwt>
<rscale>  0 0.10001563E+04</rscale>
<asrwt>0</asrwt>
<pdfrwt beam="1">  1        2 0.16408376E+00 0.10001563E+04</pdfrwt>
<pdfrwt beam="2">  1       -2 0.36073100E-01 0.10001563E+04</pdfrwt>
<totfact> 0.19950613E+02</totfact>
</mgrwt>
</event>
<event>
 9    1  0.4388925E-036  0.9983114E+03  0.7818608E-02  0.8682648E-01
          2   -1    0    0  501    0  0.00000000000E+00  0.00000000000E+00  0.21079831323E+04  0.21079831323E+04  0.00000000000E+00 0.  1.
         -2   -1    0    0    0  501 -0.00000000000E+00 -0.00000000000E+00 -0.11819659225E+03  0.11819659225E+03  0.00000000000E+00 0.  1.
         36    2    1    2    0    0  0.00000000000E+00 -0.28421709430E-13  0.19897865400E+04  0.22261797246E+04  0.99831141988E+03 0.  0.
         25    2    3    3    0    0  0.93567873055E+02 -0.70768092526E+02  0.52948361690E+03  0.55685262635E+03  0.12636802252E+03 0.  0.
         35    2    3    3    0    0 -0.93567873055E+02  0.70768092526E+02  0.14603029231E+04  0.16693270982E+04  0.80025324971E+03 0.  0.
         22    1    5    5    0    0 -0.26529446494E+03 -0.13751693932E+03  0.13415244914E+04  0.13744016963E+04  0.00000000000E+00 0.  1.
         22    1    5    5    0    0  0.17172659189E+03  0.20828503185E+03  0.11877843176E+03  0.29492540193E+03  0.00000000000E+00 0.  1.
          5    1    4    4  502    0  0.41814658142E+02 -0.32574145392E+02  0.49891742448E+02  0.72943927424E+02  0.47000000000E+01 0.  1.
         -5    1    4    4    0  502  0.51753214914E+02 -0.38193947134E+02  0.47959187446E+03  0.48390869892E+03  0.47000000000E+01 0.  1.
<mgrwt>
<rscale>  0 0.99831142E+03</rscale>
<asrwt>0</asrwt>
<pdfrwt beam="1">  1        2 0.32430507E+00 0.99831142E+03</pdfrwt>
<pdfrwt beam="2">  1       -2 0.18184093E-01 0.99831142E+03</pdfrwt>
<totfact> 0.17128292E+02</totfact>
</mgrwt>
</event>
<event>
 9    1  0.4388925E-036  0.9999568E+03  0.7818608E-02  0.8681079E-01
         -1   -1    0    0    0  501 -0.00000000000E+00  0.00000000000E+00  0.99066332818E+02  0.99066332818E+02  0.00000000000E+00 0.  1.
          1   -1    0    0  501    0  0.00000000000E+00 -0.00000000000E+00 -0.25233434846E+04  0.25233434846E+04  0.00000000000E+00 0.  1.
         36    2    1    2    0    0  0.00000000000E+00 -0.10658141036E-13 -0.24242771517E+04  0.26224098174E+04  0.99995676998E+03 0.  0.
         25    2    3    3    0    0 -0.98182093008E+02 -0.51335204731E+01 -0.19182258743E+03  0.24894412921E+03  0.12454396012E+03 0.  0.
         35    2    3    3    0    0  0.98182093008E+02  0.51335204731E+01 -0.22324545643E+04  0.23734656882E+04  0.79988743881E+03 0.  0.
         22    1    5    5    0    0  0.40517547681E+03  0.18574961981E+03 -0.11222908954E+04  0.12075623968E+04  0.00000000000E+00 0. -1.
         22    1    5    5    0    0 -0.30699338381E+03 -0.18061609934E+03 -0.11101636689E+04  0.11659032913E+04  0.00000000000E+00 0. -1.
          5    1    4    4  502    0  0.12428390445E+02 -0.19261581739E+02  0.38159002147E+01  0.23709165202E+02  0.47000000000E+01 0.  1.
         -5    1    4    4    0  502 -0.11061048345E+03  0.14128061266E+02 -0.19563848765E+03  0.22523496401E+03  0.47000000000E+01 0.  1.
<mgrwt>
<rscale>  0 0.99995677E+03</rscale>
<asrwt>0</asrwt>
<pdfrwt beam="1">  1        1 0.38820667E+00 0.99995677E+03</pdfrwt>
<pdfrwt beam="2">  1       -1 0.15240975E-01 0.99995677E+03</pdfrwt>
<totfact> 0.42612251E+01</totfact>
</mgrwt>
</event>
<event>
 9    1  0.4388925E-036  0.1000618E+04  0.7818608E-02  0.8680449E-01
          2   -1    0    0  501    0  0.00000000000E+00  0.00000000000E+00  0.52313718322E+03  0.52313718322E+03  0.00000000000E+00 0. -1.
         -2   -1    0    0    0  501 -0.00000000000E+00 -0.00000000000E+00 -0.47847736601E+03  0.47847736601E+03  0.00000000000E+00 0. -1.
         36    2    1    2    0    0 -0.28421709430E-13  0.00000000000E+00  0.44659817205E+02  0.10016145492E+04  0.10006184118E+04 0.  0.
         25    2    3    3    0    0 -0.13115664717E+03 -0.57590346835E+01 -0.43003489095E+02  0.18606756663E+03  0.12464592532E+03 0.  0.
         35    2    3    3    0    0  0.13115664717E+03  0.57590346835E+01  0.87663306300E+02  0.81554698260E+03  0.80012298616E+03 0.  0.
         22    1    5    5    0    0 -0.96257632202E+02 -0.13719963240E+02  0.40955857753E+03  0.42094179832E+03  0.00000000000E+00 0.  1.
         22    1    5    5    0    0  0.22741427938E+03  0.19478997923E+02 -0.32189527123E+03  0.39460518428E+03  0.00000000000E+00 0.  1.
          5    1    4    4  502    0 -0.53299876712E+02  0.11889301615E+02  0.42228868317E+02  0.69192482754E+02  0.47000000000E+01 0.  1.
         -5    1    4    4    0  502 -0.77856770462E+02 -0.17648336299E+02 -0.85232357412E+02  0.11687508388E+03  0.47000000000E+01 0.  1.
<mgrwt>
<rscale>  0 0.10006184E+04</rscale>
<asrwt>0</asrwt>
<pdfrwt beam="1">  1        2 0.80482643E-01 0.10006184E+04</pdfrwt>
<pdfrwt beam="2">  1       -2 0.73611903E-01 0.10006184E+04</pdfrwt>
<totfact> 0.11748172E+02</totfact>
</mgrwt>
</event>
<event>
 9    1  0.4388925E-036  0.9998425E+03  0.7818608E-02  0.8681188E-01
          1   -1    0    0  501    0  0.00000000000E+00  0.00000000000E+00  0.56674297388E+03  0.56674297388E+03  0.00000000000E+00 0.  1.
         -1   -1    0    0    0  501 -0.00000000000E+00 -0.00000000000E+00 -0.44097809545E+03  0.44097809545E+03  0.00000000000E+00 0.  1.
         36    2    1    2    0    0  0.00000000000E+00  0.28421709430E-13  0.12576487843E+03  0.10077210693E+04  0.99984246206E+03 0.  0.
         25    2    3    3    0    0  0.21413236397E+02  0.13836299555E+03  0.41782122084E+02  0.19243208647E+03  0.12522586373E+03 0.  0.
         35    2    3    3    0    0 -0.21413236397E+02 -0.13836299555E+03  0.83982756344E+02  0.81528898286E+03  0.79877417145E+03 0.  0.
         22    1    5    5    0    0  0.54692868004E+02  0.31098466509E+03  0.15880161098E+03  0.35344125875E+03  0.00000000000E+00 0.  1.
         22    1    5    5    0    0 -0.76106104401E+02 -0.44934766065E+03 -0.74818854640E+02  0.46184772411E+03  0.00000000000E+00 0.  1.
          5    1    4    4  502    0 -0.16822543408E+02  0.28977946118E+02  0.65810161244E+02  0.73998558438E+02  0.47000000000E+01 0.  1.
         -5    1    4    4    0  502  0.38235779804E+02  0.10938504943E+03 -0.24028039160E+02  0.11843352803E+03  0.47000000000E+01 0.  1.
<mgrwt>
<rscale>  0 0.99984246E+03</rscale>
<asrwt>0</asrwt>
<pdfrwt beam="1">  1        1 0.87191226E-01 0.99984246E+03</pdfrwt>
<pdfrwt beam="2">  1       -1 0.67842784E-01 0.99984246E+03</pdfrwt>
<totfact> 0.95620410E+01</totfact>
</mgrwt>
</event>
<event>
 9    1  0.4388925E-036  0.9987981E+03  0.7818608E-02  0.8682183E-01
          2   -1    0    0  501    0  0.00000000000E+00  0.00000000000E+00  0.78853140506E+03  0.78853140506E+03  0.00000000000E+00 0.  1.
         -2   -1    0    0    0  501 -0.00000000000E+00 -0.00000000000E+00 -0.31628343568E+03  0.31628343568E+03  0.00000000000E+00 0.  1.
         36    2    1    2    0    0  0.14210854715E-13 -0.10658141036E-13  0.47224796938E+03  0.11048148407E+04  0.99879812161E+03 0.  0.
         25    2    3    3    0    0  0.84243321294E+02 -0.48708548648E+01  0.20940179918E+03  0.25804902966E+03  0.12497810128E+03 0.  0.
         35    2    3    3    0    0 -0.84243321294E+02  0.48708548648E+01  0.26284617020E+03  0.84676581108E+03  0.80050207196E+03 0.  0.
         22    1    5    5    0    0 -0.21438577806E+02  0.32669329095E+03  0.37723329423E+03  0.49949282002E+03  0.00000000000E+00 0. -1.
         22    1    5    5    0    0 -0.62804743488E+02 -0.32182243609E+03 -0.11438712403E+03  0.34727299106E+03  0.00000000000E+00 0. -1.
          5    1    4    4  502    0  0.82317736391E+02  0.17999711400E+02  0.52463178906E+02  0.99371396669E+02  0.47000000000E+01 0.  1.
         -5    1    4    4    0  502  0.19255849033E+01 -0.22870566265E+02  0.15693862027E+03  0.15867763299E+03  0.47000000000E+01 0.  1.
<mgrwt>
<rscale>  0 0.99879812E+03</rscale>
<asrwt>0</asrwt>
<pdfrwt beam="1">  1        2 0.12131252E+00 0.99879812E+03</pdfrwt>
<pdfrwt beam="2">  1       -2 0.48658990E-01 0.99879812E+03</pdfrwt>
<totfact> 0.16997810E+02</totfact>
</mgrwt>
</event>
<event>
 9    1  0.4388925E-036  0.1000752E+04  0.7818608E-02  0.8680322E-01
         -2   -1    0    0    0  501 -0.00000000000E+00  0.00000000000E+00  0.54368972857E+03  0.54368972857E+03  0.00000000000E+00 0. -1.
          2   -1    0    0  501    0  0.00000000000E+00 -0.00000000000E+00 -0.46051286958E+03  0.46051286958E+03  0.00000000000E+00 0. -1.
         36    2    1    2    0    0 -0.10658141036E-13 -0.28421709430E-13  0.83176858986E+02  0.10042025981E+04  0.10007519514E+04 0.  0.
         25    2    3    3    0    0 -0.57640017362E+01  0.13869001539E+03  0.32964579497E+02  0.18982368097E+03  0.12521270811E+03 0.  0.
         35    2    3    3    0    0  0.57640017362E+01 -0.13869001539E+03  0.50212279489E+02  0.81437891718E+03  0.80088925804E+03 0.  0.
         22    1    5    5    0    0 -0.13104167700E+03 -0.43499869817E+03 -0.83081995172E+02  0.46184240434E+03  0.00000000000E+00 0. -1.
         22    1    5    5    0    0  0.13680567873E+03  0.29630868279E+03  0.13329427466E+03  0.35253651284E+03  0.00000000000E+00 0. -1.
          5    1    4    4  502    0  0.27873957768E+02 -0.32696264139E+01  0.33371958089E+02  0.43856875917E+02  0.47000000000E+01 0.  1.
         -5    1    4    4    0  502 -0.33637959505E+02  0.14195964180E+03 -0.40737859136E+00  0.14596680505E+03  0.47000000000E+01 0.  1.
<mgrwt>
<rscale>  0 0.10007520E+04</rscale>
<asrwt>0</asrwt>
<pdfrwt beam="1">  1        2 0.70848133E-01 0.10007520E+04</pdfrwt>
<pdfrwt beam="2">  1       -2 0.83644574E-01 0.10007520E+04</pdfrwt>
<totfact> 0.10164528E+02</totfact>
</mgrwt>
</event>
<event>
 9    1  0.4388925E-036  0.9977554E+03  0.7818608E-02  0.8683178E-01
         -2   -1    0    0    0  501 -0.00000000000E+00  0.00000000000E+00  0.79311603219E+02  0.79311603219E+02  0.00000000000E+00 0.  1.
          2   -1    0    0  501    0  0.00000000000E+00 -0.00000000000E+00 -0.31379893103E+04  0.31379893103E+04  0.00000000000E+00 0.  1.
         36    2    1    2    0    0  0.00000000000E+00  0.00000000000E+00 -0.30586777071E+04  0.32173009135E+04  0.99775540707E+03 0.  0.
         25    2    3    3    0    0  0.19971113573E+02 -0.11727031041E+03 -0.35827439750E+03  0.39778086467E+03  0.12537105452E+03 0.  0.
         35    2    3    3    0    0 -0.19971113573E+02  0.11727031041E+03 -0.27004033096E+04  0.28195200488E+04  0.80209980700E+03 0.  0.
         22    1    5    5    0    0  0.27844787033E+02 -0.31604183691E+03 -0.65013867029E+03  0.72342108446E+03  0.00000000000E+00 0. -1.
         22    1    5    5    0    0 -0.47815900606E+02  0.43331214732E+03 -0.20502646393E+04  0.20960989644E+04  0.00000000000E+00 0. -1.
          5    1    4    4  502    0  0.28903825781E+01 -0.13551916137E+03 -0.23002949069E+03  0.26703830061E+03  0.47000000000E+01 0.  1.
         -5    1    4    4    0  502  0.17080730995E+02  0.18248850954E+02 -0.12824490681E+03  0.13074256406E+03  0.47000000000E+01 0.  1.
<mgrwt>
<rscale>  0 0.99775541E+03</rscale>
<asrwt>0</asrwt>
<pdfrwt beam="1">  1        2 0.48276748E+00 0.99775541E+03</pdfrwt>
<pdfrwt beam="2">  1       -2 0.12201788E-01 0.99775541E+03</pdfrwt>
<totfact> 0.76037151E+01</totfact>
</mgrwt>
</event>
<event>
 9    1  0.4388925E-036  0.9998369E+03  0.7818608E-02  0.8681193E-01
         -2   -1    0    0    0  501 -0.00000000000E+00  0.00000000000E+00  0.74589557214E+03  0.74589557214E+03  0.00000000000E+00 0.  1.
          2   -1    0    0  501    0  0.00000000000E+00 -0.00000000000E+00 -0.33505825410E+03  0.33505825410E+03  0.00000000000E+00 0.  1.
         36    2    1    2    0    0  0.56843418861E-13  0.00000000000E+00  0.41083731804E+03  0.10809538262E+04  0.99983692299E+03 0.  0.
         25    2    3    3    0    0 -0.12726421811E+03 -0.40755419234E+02  0.11705118945E+03  0.21690670295E+03  0.12446024033E+03 0.  0.
         35    2    3    3    0    0  0.12726421811E+03  0.40755419234E+02  0.29378612859E+03  0.86404712329E+03  0.80150480754E+03 0.  0.
         22    1    5    5    0    0  0.42857149914E+03  0.17201074935E+03  0.71563265225E+02  0.46731416488E+03  0.00000000000E+00 0.  1.
         22    1    5    5    0    0 -0.30130728103E+03 -0.13125533012E+03  0.22222286337E+03  0.39673295841E+03  0.00000000000E+00 0.  1.
          5    1    4    4  502    0 -0.50874108248E+02 -0.47296690756E+01 -0.20642145339E+02  0.55305811844E+02  0.47000000000E+01 0. -1.
         -5    1    4    4    0  502 -0.76390109867E+02 -0.36025750158E+02  0.13769333479E+03  0.16160089110E+03  0.47000000000E+01 0. -1.
<mgrwt>
<rscale>  0 0.99983692E+03</rscale>
<asrwt>0</asrwt>
<pdfrwt beam="1">  1        2 0.51547424E-01 0.99983692E+03</pdfrwt>
<pdfrwt beam="2">  1       -2 0.11475316E+00 0.99983692E+03</pdfrwt>
<totfact> 0.67460775E+01</totfact>
</mgrwt>
</event>
<event>
 9    1  0.4388925E-036  0.9998271E+03  0.7818608E-02  0.8681203E-01
         -2   -1    0    0    0  501 -0.00000000000E+00  0.00000000000E+00  0.12682303842E+03  0.12682303842E+03  0.00000000000E+00 0. -1.
          2   -1    0    0  501    0  0.00000000000E+00 -0.00000000000E+00 -0.19705690149E+04  0.19705690149E+04  0.00000000000E+00 0. -1.
         36    2    1    2    0    0  0.00000000000E+00 -0.71054273576E-14 -0.18437459765E+04  0.20973920533E+04  0.99982708480E+03 0.  0.
         25    2    3    3    0    0  0.80292633095E+02  0.49741829099E+02 -0.13063613170E+03  0.20403739477E+03  0.12507718844E+03 0.  0.
         35    2    3    3    0    0 -0.80292633095E+02 -0.49741829099E+02 -0.17131098448E+04  0.18933546585E+04  0.80070304497E+03 0.  0.
         22    1    5    5    0    0 -0.12255767644E+03  0.18077722008E+03 -0.63878791065E+02  0.22755502039E+03  0.00000000000E+00 0.  1.
         22    1    5    5    0    0  0.42265043345E+02 -0.23051904918E+03 -0.16492310537E+04  0.16657996381E+04  0.00000000000E+00 0.  1.
          5    1    4    4  502    0  0.43990544434E+02 -0.35648776995E+02 -0.21589102263E+02  0.60779788066E+02  0.47000000000E+01 0. -1.
         -5    1    4    4    0  502  0.36302088661E+02  0.85390606094E+02 -0.10904702944E+03  0.14325760671E+03  0.47000000000E+01 0. -1.
<mgrwt>
<rscale>  0 0.99982708E+03</rscale>
<asrwt>0</asrwt>
<pdfrwt beam="1">  1        2 0.30316444E+00 0.99982708E+03</pdfrwt>
<pdfrwt beam="2">  1       -2 0.19511238E-01 0.99982708E+03</pdfrwt>
<totfact> 0.18183321E+02</totfact>
</mgrwt>
</event>
<event>
 9    1  0.4388925E-036  0.1001640E+04  0.7818608E-02  0.8679478E-01
         -2   -1    0    0    0  501 -0.00000000000E+00  0.00000000000E+00  0.37086765994E+03  0.37086765994E+03  0.00000000000E+00 0. -1.
          2   -1    0    0  501    0  0.00000000000E+00 -0.00000000000E+00 -0.67630744759E+03  0.67630744759E+03  0.00000000000E+00 0. -1.
         36    2    1    2    0    0  0.14210854715E-13 -0.28421709430E-13 -0.30543978765E+03  0.10471751075E+04  0.10016397765E+04 0.  0.
         25    2    3    3    0    0 -0.10129044809E+03 -0.98447034252E+02 -0.82123529520E+02  0.20556566013E+03  0.12474531291E+03 0.  0.
         35    2    3    3    0    0  0.10129044809E+03  0.98447034252E+02 -0.22331625813E+03  0.84160944740E+03  0.79905239965E+03 0.  0.
         22    1    5    5    0    0  0.40842015198E+03  0.21061441429E+03 -0.23147835151E+03  0.51453637312E+03  0.00000000000E+00 0.  1.
         22    1    5    5    0    0 -0.30712970388E+03 -0.11216738004E+03  0.81620933818E+01  0.32707307428E+03  0.00000000000E+00 0.  1.
          5    1    4    4  502    0 -0.49641323681E+02 -0.39750445763E+01  0.22962942475E+02  0.55040428081E+02  0.47000000000E+01 0.  1.
         -5    1    4    4    0  502 -0.51649124413E+02 -0.94471989676E+02 -0.10508647200E+03  0.15052523205E+03  0.47000000000E+01 0.  1.
<mgrwt>
<rscale>  0 0.10016398E+04</rscale>
<asrwt>0</asrwt>
<pdfrwt beam="1">  1        2 0.10404730E+00 0.10016398E+04</pdfrwt>
<pdfrwt beam="2">  1       -2 0.57056563E-01 0.10016398E+04</pdfrwt>
<totfact> 0.14911164E+02</totfact>
</mgrwt>
</event>
<event>
 9    1  0.4388925E-036  0.1001534E+04  0.7818608E-02  0.8679578E-01
         -2   -1    0    0    0  501 -0.00000000000E+00  0.00000000000E+00  0.13454432805E+03  0.13454432805E+03  0.00000000000E+00 0.  1.
          2   -1    0    0  501    0  0.00000000000E+00 -0.00000000000E+00 -0.18638295091E+04  0.18638295091E+04  0.00000000000E+00 0.  1.
         36    2    1    2    0    0  0.00000000000E+00  0.35527136788E-13 -0.17292851811E+04  0.19983738372E+04  0.10015342009E+04 0.  0.
         25    2    3    3    0    0 -0.89949728787E+02  0.17598147760E+02 -0.54184424307E+03  0.56359714241E+03  0.12508359870E+03 0.  0.
         35    2    3    3    0    0  0.89949728787E+02 -0.17598147760E+02 -0.11874409380E+04  0.14347766948E+04  0.80010470195E+03 0.  0.
         22    1    5    5    0    0 -0.29940927954E+02  0.25586660174E+03 -0.10909929444E+04  0.11209949963E+04  0.00000000000E+00 0.  1.
         22    1    5    5    0    0  0.11989065674E+03 -0.27346474950E+03 -0.96447993567E+02  0.31378169841E+03  0.00000000000E+00 0.  1.
          5    1    4    4  502    0 -0.11885432820E+02  0.62930882644E+02 -0.24668176042E+03  0.25490300200E+03  0.47000000000E+01 0.  1.
         -5    1    4    4    0  502 -0.78064295966E+02 -0.45332734884E+02 -0.29516248265E+03  0.30869414041E+03  0.47000000000E+01 0.  1.
<mgrwt>
<rscale>  0 0.10015342E+04</rscale>
<asrwt>0</asrwt>
<pdfrwt beam="1">  1        2 0.28674299E+00 0.10015342E+04</pdfrwt>
<pdfrwt beam="2">  1       -2 0.20699128E-01 0.10015342E+04</pdfrwt>
<totfact> 0.18869610E+02</totfact>
</mgrwt>
</event>
<event>
 9    1  0.4388925E-036  0.9998334E+03  0.7818608E-02  0.8681197E-01
          1   -1    0    0  501    0  0.00000000000E+00  0.00000000000E+00  0.15281594459E+03  0.15281594459E+03  0.00000000000E+00 0. -1.
         -1   -1    0    0    0  501 -0.00000000000E+00 -0.00000000000E+00 -0.16354097630E+04  0.16354097630E+04  0.00000000000E+00 0. -1.
         36    2    1    2    0    0  0.28421709430E-13  0.17763568394E-14 -0.14825938184E+04  0.17882257076E+04  0.99983336156E+03 0.  0.
         25    2    3    3    0    0 -0.11214567383E+03 -0.13135932703E-01 -0.12723051968E+03  0.21043712529E+03  0.12457739053E+03 0.  0.
         35    2    3    3    0    0  0.11214567383E+03  0.13135932703E-01 -0.13553632987E+04  0.15777885823E+04  0.79989404708E+03 0.  0.
         22    1    5    5    0    0 -0.12341465914E+03 -0.83604037638E+02 -0.13163951728E+04  0.13248083123E+04  0.00000000000E+00 0. -1.
         22    1    5    5    0    0  0.23556033297E+03  0.83617173570E+02 -0.38968125894E+02  0.25298027002E+03  0.00000000000E+00 0. -1.
          5    1    4    4  502    0 -0.11542682014E+03  0.53517551705E+01 -0.39277457047E+02  0.12213435521E+03  0.47000000000E+01 0. -1.
         -5    1    4    4    0  502  0.32811463090E+01 -0.53648911032E+01 -0.87953062630E+02  0.88302770080E+02  0.47000000000E+01 0. -1.
<mgrwt>
<rscale>  0 0.99983336E+03</rscale>
<asrwt>0</asrwt>
<pdfrwt beam="1">  1        1 0.23510146E-01 0.99983336E+03</pdfrwt>
<pdfrwt beam="2">  1       -1 0.25160150E+00 0.99983336E+03</pdfrwt>
<totfact> 0.11472686E+01</totfact>
</mgrwt>
</event>
<event>
 9    1  0.4388925E-036  0.1000257E+04  0.7818608E-02  0.8680793E-01
         -2   -1    0    0    0  501 -0.00000000000E+00  0.00000000000E+00  0.12397189724E+03  0.12397189724E+03  0.00000000000E+00 0.  1.
          2   -1    0    0  501    0  0.00000000000E+00 -0.00000000000E+00 -0.20176234170E+04  0.20176234170E+04  0.00000000000E+00 0.  1.
         36    2    1    2    0    0 -0.14210854715E-13  0.00000000000E+00 -0.18936515198E+04  0.21415953143E+04  0.10002571728E+04 0.  0.
         25    2    3    3    0    0  0.12568271471E+03  0.61309197039E+02 -0.35658404445E+03  0.40302027530E+03  0.12537224227E+03 0.  0.
         35    2    3    3    0    0 -0.12568271471E+03 -0.61309197039E+02 -0.15370674753E+04  0.17385750390E+04  0.80031979854E+03 0.  0.
         22    1    5    5    0    0 -0.35824810715E+02 -0.41177099313E+03 -0.55512190636E+03  0.69209760783E+03  0.00000000000E+00 0. -1.
         22    1    5    5    0    0 -0.89857903990E+02  0.35046179609E+03 -0.98194556898E+03  0.10464774311E+04  0.00000000000E+00 0. -1.
          5    1    4    4  502    0  0.57734521044E+02 -0.13794419582E+02 -0.42986980121E+02  0.73440665790E+02  0.47000000000E+01 0.  1.
         -5    1    4    4    0  502  0.67948193661E+02  0.75103616620E+02 -0.31359706433E+03  0.32957960951E+03  0.47000000000E+01 0.  1.
<mgrwt>
<rscale>  0 0.10002572E+04</rscale>
<asrwt>0</asrwt>
<pdfrwt beam="1">  1        2 0.31040361E+00 0.10002572E+04</pdfrwt>
<pdfrwt beam="2">  1       -2 0.19072599E-01 0.10002572E+04</pdfrwt>
<totfact> 0.17778248E+02</totfact>
</mgrwt>
</event>
<event>
 9    1  0.4388925E-036  0.1000099E+04  0.7818608E-02  0.8680944E-01
          1   -1    0    0  501    0  0.00000000000E+00  0.00000000000E+00  0.91126668085E+03  0.91126668085E+03  0.00000000000E+00 0.  1.
         -1   -1    0    0    0  501 -0.00000000000E+00 -0.00000000000E+00 -0.27439753096E+03  0.27439753096E+03  0.00000000000E+00 0.  1.
         36    2    1    2    0    0  0.00000000000E+00  0.14210854715E-13  0.63686914989E+03  0.11856642118E+04  0.10000986497E+04 0.  0.
         25    2    3    3    0    0  0.95061285258E+02 -0.89105364082E+02  0.54342100498E+02  0.18809539221E+03  0.12429963323E+03 0.  0.
         35    2    3    3    0    0 -0.95061285258E+02  0.89105364082E+02  0.58252704939E+03  0.99756881959E+03  0.79926802306E+03 0.  0.
         22    1    5    5    0    0 -0.21589540582E+03  0.33961194574E+03  0.61695386087E+02  0.40712826064E+03  0.00000000000E+00 0. -1.
         22    1    5    5    0    0  0.12083412057E+03 -0.25050658166E+03  0.52083166331E+03  0.59044055895E+03  0.00000000000E+00 0. -1.
          5    1    4    4  502    0  0.13856473745E+01 -0.85971674434E+02  0.29397942493E+02  0.90991086632E+02  0.47000000000E+01 0.  1.
         -5    1    4    4    0  502  0.93675637883E+02 -0.31336896485E+01  0.24944158005E+02  0.97104305580E+02  0.47000000000E+01 0.  1.
<mgrwt>
<rscale>  0 0.10000986E+04</rscale>
<asrwt>0</asrwt>
<pdfrwt beam="1">  1        1 0.14019487E+00 0.10000986E+04</pdfrwt>
<pdfrwt beam="2">  1       -1 0.42215005E-01 0.10000986E+04</pdfrwt>
<totfact> 0.11077757E+02</totfact>
</mgrwt>
</event>
<event>
 9    1  0.4388925E-036  0.9996710E+03  0.7818608E-02  0.8681351E-01
         -2   -1    0    0    0  501 -0.00000000000E+00  0.00000000000E+00  0.21224614935E+03  0.21224614935E+03  0.00000000000E+00 0. -1.
          2   -1    0    0  501    0  0.00000000000E+00 -0.00000000000E+00 -0.11771028108E+04  0.11771028108E+04  0.00000000000E+00 0. -1.
         36    2    1    2    0    0  0.14210854715E-13  0.14210854715E-13 -0.96485666149E+03  0.13893489602E+04  0.99967102386E+03 0.  0.
         25    2    3    3    0    0  0.40548867702E+02  0.58408557685E+02 -0.20731855832E+02  0.14669408935E+03  0.12662375654E+03 0.  0.
         35    2    3    3    0    0 -0.40548867702E+02 -0.58408557685E+02 -0.94412480566E+03  0.12426548708E+04  0.80483769113E+03 0.  0.
         22    1    5    5    0    0 -0.22770036031E+03 -0.26899811617E+03 -0.12095736263E+03  0.37260988200E+03  0.00000000000E+00 0.  1.
         22    1    5    5    0    0  0.18715149261E+03  0.21058955848E+03 -0.82316744303E+03  0.87004498884E+03  0.00000000000E+00 0.  1.
          5    1    4    4  502    0  0.14909857064E+02 -0.17789616496E+02 -0.54457440754E+02  0.59384148947E+02  0.47000000000E+01 0.  1.
         -5    1    4    4    0  502  0.25639010638E+02  0.76198174180E+02  0.33725584922E+02  0.87309940403E+02  0.47000000000E+01 0.  1.
<mgrwt>
<rscale>  0 0.99967102E+03</rscale>
<asrwt>0</asrwt>
<pdfrwt beam="1">  1        2 0.18109274E+00 0.99967102E+03</pdfrwt>
<pdfrwt beam="2">  1       -2 0.32653253E-01 0.99967102E+03</pdfrwt>
<totfact> 0.20595373E+02</totfact>
</mgrwt>
</event>
<event>
 9    1  0.4388925E-036  0.1002277E+04  0.7818608E-02  0.8678872E-01
          2   -1    0    0  501    0  0.00000000000E+00  0.00000000000E+00  0.11612798706E+04  0.11612798706E+04  0.00000000000E+00 0.  1.
         -2   -1    0    0    0  501 -0.00000000000E+00 -0.00000000000E+00 -0.21626128626E+03  0.21626128626E+03  0.00000000000E+00 0.  1.
         36    2    1    2    0    0 -0.14210854715E-13  0.00000000000E+00  0.94501858438E+03  0.13775411569E+04  0.10022771643E+04 0.  0.
         25    2    3    3    0    0 -0.95999425279E+02 -0.10203326308E+03  0.26717515497E+03  0.32631342486E+03  0.12438332437E+03 0.  0.
         35    2    3    3    0    0  0.95999425279E+02  0.10203326308E+03  0.67784342941E+03  0.10512277320E+04  0.79118983398E+03 0.  0.
         22    1    5    5    0    0  0.62243651740E+02  0.39416887173E+03  0.64070115129E+03  0.75481212025E+03  0.00000000000E+00 0.  1.
         22    1    5    5    0    0  0.33755773539E+02 -0.29213560865E+03  0.37142278125E+02  0.29641561179E+03  0.00000000000E+00 0.  1.
          5    1    4    4  502    0  0.22278639481E+02  0.52639276120E+01  0.62097474170E+02  0.66349325614E+02  0.47000000000E+01 0. -1.
         -5    1    4    4    0  502 -0.11827806476E+03 -0.10729719069E+03  0.20507768080E+03  0.25996409925E+03  0.47000000000E+01 0. -1.
<mgrwt>
<rscale>  0 0.10022772E+04</rscale>
<asrwt>0</asrwt>
<pdfrwt beam="1">  1        2 0.17865844E+00 0.10022772E+04</pdfrwt>
<pdfrwt beam="2">  1       -2 0.33270968E-01 0.10022772E+04</pdfrwt>
<totfact> 0.20330346E+02</totfact>
</mgrwt>
</event>
<event>
 9    1  0.4388925E-036  0.1000249E+04  0.7818608E-02  0.8680801E-01
         -1   -1    0    0    0  501 -0.00000000000E+00  0.00000000000E+00  0.46392739177E+03  0.46392739177E+03  0.00000000000E+00 0.  1.
          1   -1    0    0  501    0  0.00000000000E+00 -0.00000000000E+00 -0.53914551148E+03  0.53914551148E+03  0.00000000000E+00 0.  1.
         36    2    1    2    0    0  0.00000000000E+00  0.42632564146E-13 -0.75218119709E+02  0.10030729032E+04  0.10002487109E+04 0.  0.
         25    2    3    3    0    0 -0.30633989768E+02  0.90523256956E+02 -0.11738352707E+03  0.19731310725E+03  0.12657277940E+03 0.  0.
         35    2    3    3    0    0  0.30633989768E+02 -0.90523256956E+02  0.42165407362E+02  0.80575979600E+03  0.79896059095E+03 0.  0.
         22    1    5    5    0    0  0.23638609102E+03 -0.38111927020E+03  0.16634779156E+02  0.44878391017E+03  0.00000000000E+00 0. -1.
         22    1    5    5    0    0 -0.20575210126E+03  0.29059601325E+03  0.25530628206E+02  0.35697588583E+03  0.00000000000E+00 0. -1.
          5    1    4    4  502    0  0.32465446180E+02  0.88871057504E+02 -0.78480900828E+02  0.12301793305E+03  0.47000000000E+01 0.  1.
         -5    1    4    4    0  502 -0.63099435947E+02  0.16521994518E+01 -0.38902626243E+02  0.74295174194E+02  0.47000000000E+01 0.  1.
<mgrwt>
<rscale>  0 0.10002487E+04</rscale>
<asrwt>0</asrwt>
<pdfrwt beam="1">  1        1 0.82945464E-01 0.10002487E+04</pdfrwt>
<pdfrwt beam="2">  1       -1 0.71373445E-01 0.10002487E+04</pdfrwt>
<totfact> 0.92841123E+01</totfact>
</mgrwt>
</event>
<event>
 9    1  0.4388925E-036  0.9933511E+03  0.7818608E-02  0.8687396E-01
         -2   -1    0    0    0  501 -0.00000000000E+00  0.00000000000E+00  0.18711563166E+03  0.18711563166E+03  0.00000000000E+00 0.  1.
          2   -1    0    0  501    0  0.00000000000E+00 -0.00000000000E+00 -0.13183645586E+04  0.13183645586E+04  0.00000000000E+00 0.  1.
         36    2    1    2    0    0  0.00000000000E+00 -0.71054273576E-14 -0.11312489269E+04  0.15054801903E+04  0.99335113054E+03 0.  0.
         25    2    3    3    0    0  0.36862692341E+02 -0.58492323231E+02 -0.37492524217E+03  0.40196594854E+03  0.12738711318E+03 0.  0.
         35    2    3    3    0    0 -0.36862692341E+02  0.58492323231E+02 -0.75632368477E+03  0.11035142417E+04  0.80058600760E+03 0.  0.
         22    1    5    5    0    0 -0.14689286076E+03 -0.23073228961E+03  0.13467092511E+02  0.27385445878E+03  0.00000000000E+00 0. -1.
         22    1    5    5    0    0  0.11003016842E+03  0.28922461284E+03 -0.76979077728E+03  0.82965978294E+03  0.00000000000E+00 0. -1.
          5    1    4    4  502    0 -0.42043364535E+02 -0.47542990094E+02 -0.19543263297E+03  0.20553341441E+03  0.47000000000E+01 0. -1.
         -5    1    4    4    0  502  0.78906056876E+02 -0.10949333138E+02 -0.17949260920E+03  0.19643253413E+03  0.47000000000E+01 0. -1.
<mgrwt>
<rscale>  0 0.99335113E+03</rscale>
<asrwt>0</asrwt>
<pdfrwt beam="1">  1        2 0.20282532E+00 0.99335113E+03</pdfrwt>
<pdfrwt beam="2">  1       -2 0.28787020E-01 0.99335113E+03</pdfrwt>
<totfact> 0.21434563E+02</totfact>
</mgrwt>
</event>
<event>
 9    1  0.4388925E-036  0.9997206E+03  0.7818608E-02  0.8681304E-01
          2   -1    0    0  501    0  0.00000000000E+00  0.00000000000E+00  0.82036571232E+03  0.82036571232E+03  0.00000000000E+00 0. -1.
         -2   -1    0    0    0  501 -0.00000000000E+00 -0.00000000000E+00 -0.30457187523E+03  0.30457187523E+03  0.00000000000E+00 0. -1.
         36    2    1    2    0    0  0.28421709430E-13 -0.71054273576E-14  0.51579383709E+03  0.11249375876E+04  0.99972060773E+03 0.  0.
         25    2    3    3    0    0  0.14197885430E+03 -0.37841497086E+01  0.95939650354E+02  0.21227429253E+03  0.12523435591E+03 0.  0.
         35    2    3    3    0    0 -0.14197885430E+03  0.37841497086E+01  0.41985418674E+03  0.91266329503E+03  0.79781228187E+03 0.  0.
         22    1    5    5    0    0 -0.15898792270E+03 -0.14705051776E+03  0.62271570396E+03  0.65929952396E+03  0.00000000000E+00 0. -1.
         22    1    5    5    0    0  0.17009068400E+02  0.15083466747E+03 -0.20286151722E+03  0.25336377106E+03  0.00000000000E+00 0. -1.
          5    1    4    4  502    0  0.66982272324E+02 -0.62177528676E+02  0.64841958932E+02  0.11215720894E+03  0.47000000000E+01 0.  1.
         -5    1    4    4    0  502  0.74996581980E+02  0.58393378967E+02  0.31097691422E+02  0.10011708360E+03  0.47000000000E+01 0.  1.
<mgrwt>
<rscale>  0 0.99972061E+03</rscale>
<asrwt>0</asrwt>
<pdfrwt beam="1">  1        2 0.12621011E+00 0.99972061E+03</pdfrwt>
<pdfrwt beam="2">  1       -2 0.46857212E-01 0.99972061E+03</pdfrwt>
<totfact> 0.17402175E+02</totfact>
</mgrwt>
</event>
<event>
 9    1  0.4388925E-036  0.1000369E+04  0.7818608E-02  0.8680687E-01
         -1   -1    0    0    0  501 -0.00000000000E+00  0.00000000000E+00  0.54834764845E+03  0.54834764845E+03  0.00000000000E+00 0.  1.
          1   -1    0    0  501    0  0.00000000000E+00 -0.00000000000E+00 -0.45625156687E+03  0.45625156687E+03  0.00000000000E+00 0.  1.
         36    2    1    2    0    0  0.00000000000E+00  0.17763568394E-13  0.92096081587E+02  0.10045992153E+04  0.10003688796E+04 0.  0.
         25    2    3    3    0    0 -0.10538025191E+03  0.10913464287E+02  0.95231446702E+02  0.18941951697E+03  0.12484640072E+03 0.  0.
         35    2    3    3    0    0  0.10538025191E+03 -0.10913464287E+02 -0.31353651150E+01  0.81517969835E+03  0.80825986470E+03 0.  0.
         22    1    5    5    0    0  0.44007690663E+03 -0.13162110122E+03 -0.56332193595E+01  0.45937297613E+03  0.00000000000E+00 0. -1.
         22    1    5    5    0    0 -0.33469665473E+03  0.12070763693E+03  0.24978542445E+01  0.35580672222E+03  0.00000000000E+00 0. -1.
          5    1    4    4  502    0 -0.13150965721E+03  0.95151665235E+01  0.95431855212E+02  0.16283321934E+03  0.47000000000E+01 0. -1.
         -5    1    4    4    0  502  0.26129405300E+02  0.13982977632E+01 -0.20040851058E+00  0.26586297627E+02  0.47000000000E+01 0. -1.
<mgrwt>
<rscale>  0 0.10003689E+04</rscale>
<asrwt>0</asrwt>
<pdfrwt beam="1">  1        1 0.70192549E-01 0.10003689E+04</pdfrwt>
<pdfrwt beam="2">  1       -1 0.84361177E-01 0.10003689E+04</pdfrwt>
<totfact> 0.82922709E+01</totfact>
</mgrwt>
</event>
<event>
 9    1  0.4388925E-036  0.9997802E+03  0.7818608E-02  0.8681247E-01
         -1   -1    0    0    0  501 -0.00000000000E+00  0.00000000000E+00  0.11352950911E+03  0.11352950911E+03  0.00000000000E+00 0. -1.
          1   -1    0    0  501    0  0.00000000000E+00 -0.00000000000E+00 -0.22011027050E+04  0.22011027050E+04  0.00000000000E+00 0. -1.
         36    2    1    2    0    0  0.14210854715E-13 -0.71054273576E-14 -0.20875731959E+04  0.23146322141E+04  0.99978019503E+03 0.  0.
         25    2    3    3    0    0  0.69467208390E+01 -0.14215403453E+02 -0.71300963033E+03  0.72386987577E+03  0.12391339504E+03 0.  0.
         35    2    3    3    0    0 -0.69467208390E+01  0.14215403453E+02 -0.13745635656E+04  0.15907623384E+04  0.80053075312E+03 0.  0.
         22    1    5    5    0    0 -0.31040046208E+03  0.12141430058E+03 -0.23810849708E+03  0.40961632735E+03  0.00000000000E+00 0. -1.
         22    1    5    5    0    0  0.30345374124E+03 -0.10719889713E+03 -0.11364550685E+04  0.11811460110E+04  0.00000000000E+00 0. -1.
          5    1    4    4  502    0  0.59689062023E+02 -0.22619345928E+02 -0.50592550692E+03  0.50995796639E+03  0.47000000000E+01 0.  1.
         -5    1    4    4    0  502 -0.52742341184E+02  0.84039424758E+01 -0.20708412341E+03  0.21391190938E+03  0.47000000000E+01 0.  1.
<mgrwt>
<rscale>  0 0.99978020E+03</rscale>
<asrwt>0</asrwt>
<pdfrwt beam="1">  1        1 0.33863117E+00 0.99978020E+03</pdfrwt>
<pdfrwt beam="2">  1       -1 0.17466079E-01 0.99978020E+03</pdfrwt>
<totfact> 0.57508179E+01</totfact>
</mgrwt>
</event>
<event>
 9    1  0.4388925E-036  0.9986319E+03  0.7818608E-02  0.8682342E-01
         -2   -1    0    0    0  501 -0.00000000000E+00  0.00000000000E+00  0.41106475928E+03  0.41106475928E+03  0.00000000000E+00 0. -1.
          2   -1    0    0  501    0  0.00000000000E+00 -0.00000000000E+00 -0.60651366699E+03  0.60651366699E+03  0.00000000000E+00 0. -1.
         36    2    1    2    0    0  0.00000000000E+00 -0.21316282073E-13 -0.19544890771E+03  0.10175784263E+04  0.99863185313E+03 0.  0.
         25    2    3    3    0    0 -0.13044414644E+03  0.36971201661E+02 -0.28341300413E+02  0.18848341452E+03  0.12782888229E+03 0.  0.
         35    2    3    3    0    0  0.13044414644E+03 -0.36971201661E+02 -0.16710760730E+03  0.82909501175E+03  0.80068161025E+03 0.  0.
         22    1    5    5    0    0  0.10656683057E+03  0.13801799036E+03 -0.45728219178E+03  0.48940010008E+03  0.00000000000E+00 0. -1.
         22    1    5    5    0    0  0.23877315874E+02 -0.17498919202E+03  0.29017458448E+03  0.33969491167E+03  0.00000000000E+00 0. -1.
          5    1    4    4  502    0 -0.44350440250E+02 -0.47719036243E+02 -0.61469609638E+01  0.65604444205E+02  0.47000000000E+01 0.  1.
         -5    1    4    4    0  502 -0.86093706192E+02  0.84690237905E+02 -0.22194339449E+02  0.12287897032E+03  0.47000000000E+01 0.  1.
<mgrwt>
<rscale>  0 0.99863185E+03</rscale>
<asrwt>0</asrwt>
<pdfrwt beam="1">  1        2 0.93309794E-01 0.99863185E+03</pdfrwt>
<pdfrwt beam="2">  1       -2 0.63240733E-01 0.99863185E+03</pdfrwt>
<totfact> 0.13713982E+02</totfact>
</mgrwt>
</event>
<event>
 9    1  0.4388925E-036  0.9996836E+03  0.7818608E-02  0.8681339E-01
          2   -1    0    0  501    0  0.00000000000E+00  0.00000000000E+00  0.20957352606E+04  0.20957352606E+04  0.00000000000E+00 0. -1.
         -2   -1    0    0    0  501 -0.00000000000E+00 -0.00000000000E+00 -0.11921439776E+03  0.11921439776E+03  0.00000000000E+00 0. -1.
         36    2    1    2    0    0  0.14210854715E-13  0.00000000000E+00  0.19765208628E+04  0.22149496583E+04  0.99968358384E+03 0.  0.
         25    2    3    3    0    0  0.76533257822E+02 -0.11435448669E+03  0.42181459765E+03  0.46084602906E+03  0.12456813208E+03 0.  0.
         35    2    3    3    0    0 -0.76533257822E+02  0.11435448669E+03  0.15547062652E+04  0.17541036293E+04  0.80052088236E+03 0.  0.
         22    1    5    5    0    0 -0.54396012251E+01  0.35929550153E+03  0.28389534575E+03  0.45795132277E+03  0.00000000000E+00 0. -1.
         22    1    5    5    0    0 -0.71093656597E+02 -0.24494101484E+03  0.12708109194E+04  0.12961523065E+04  0.00000000000E+00 0. -1.
          5    1    4    4  502    0  0.14444446511E+01 -0.81688888507E+02  0.10248209947E+03  0.13114812861E+03  0.47000000000E+01 0. -1.
         -5    1    4    4    0  502  0.75088813171E+02 -0.32665598186E+02  0.31933249818E+03  0.32969790045E+03  0.47000000000E+01 0. -1.
<mgrwt>
<rscale>  0 0.99968358E+03</rscale>
<asrwt>0</asrwt>
<pdfrwt beam="1">  1        2 0.32242078E+00 0.99968358E+03</pdfrwt>
<pdfrwt beam="2">  1       -2 0.18340678E-01 0.99968358E+03</pdfrwt>
<totfact> 0.17154239E+02</totfact>
</mgrwt>
</event>
<event>
 9    1  0.4388925E-036  0.9997246E+03  0.7818608E-02  0.8681300E-01
         -2   -1    0    0    0  501 -0.00000000000E+00  0.00000000000E+00  0.73034478840E+02  0.73034478840E+02  0.00000000000E+00 0. -1.
          2   -1    0    0  501    0  0.00000000000E+00 -0.00000000000E+00 -0.34211556589E+04  0.34211556589E+04  0.00000000000E+00 0. -1.
         36    2    1    2    0    0  0.00000000000E+00  0.49737991503E-13 -0.33481211800E+04  0.34941901377E+04  0.99972460323E+03 0.  0.
         25    2    3    3    0    0  0.12813011221E+03 -0.48760508816E+02 -0.79253667487E+03  0.81396305462E+03  0.12500624144E+03 0.  0.
         35    2    3    3    0    0 -0.12813011221E+03  0.48760508816E+02 -0.25555845052E+04  0.26802270831E+04  0.79612193855E+03 0.  0.
         22    1    5    5    0    0 -0.13576264425E+02 -0.25755075984E+03 -0.27771554755E+03  0.37900215593E+03  0.00000000000E+00 0. -1.
         22    1    5    5    0    0 -0.11455384778E+03  0.30631126865E+03 -0.22778689576E+04  0.23012249272E+04  0.00000000000E+00 0. -1.
          5    1    4    4  502    0  0.12094305185E+03 -0.73289920904E+02 -0.75599236841E+03  0.76911974711E+03  0.47000000000E+01 0. -1.
         -5    1    4    4    0  502  0.71870603528E+01  0.24529412089E+02 -0.36544306459E+02  0.44843307511E+02  0.47000000000E+01 0. -1.
<mgrwt>
<rscale>  0 0.99972460E+03</rscale>
<asrwt>0</asrwt>
<pdfrwt beam="1">  1        2 0.52633152E+00 0.99972460E+03</pdfrwt>
<pdfrwt beam="2">  1       -2 0.11236076E-01 0.99972460E+03</pdfrwt>
<totfact> 0.54667518E+01</totfact>
</mgrwt>
</event>
<event>
 9    1  0.4388925E-036  0.1000235E+04  0.7818608E-02  0.8680814E-01
         -2   -1    0    0    0  501 -0.00000000000E+00  0.00000000000E+00  0.11467303377E+04  0.11467303377E+04  0.00000000000E+00 0. -1.
          2   -1    0    0  501    0  0.00000000000E+00 -0.00000000000E+00 -0.21811352386E+03  0.21811352386E+03  0.00000000000E+00 0. -1.
         36    2    1    2    0    0 -0.14210854715E-13 -0.17763568394E-14  0.92861681381E+03  0.13648438615E+04  0.10002347622E+04 0.  0.
         25    2    3    3    0    0  0.85718335563E+02 -0.15010359908E+02  0.32310705942E+03  0.35701001976E+03  0.12443889427E+03 0.  0.
         35    2    3    3    0    0 -0.85718335563E+02  0.15010359908E+02  0.60550975439E+03  0.10078338418E+04  0.80094571977E+03 0.  0.
         22    1    5    5    0    0 -0.77090902873E+01  0.17960894771E+03  0.75256067317E+03  0.77373533651E+03  0.00000000000E+00 0. -1.
         22    1    5    5    0    0 -0.78009245276E+02 -0.16459858780E+03 -0.14705091877E+03  0.23409850527E+03  0.00000000000E+00 0. -1.
          5    1    4    4  502    0 -0.15949190440E+02 -0.79955277500E+01  0.28521117015E+00  0.18452004907E+02  0.47000000000E+01 0.  1.
         -5    1    4    4    0  502  0.10166752600E+03 -0.70148321575E+01  0.32282184825E+03  0.33855801485E+03  0.47000000000E+01 0.  1.
<mgrwt>
<rscale>  0 0.10002348E+04</rscale>
<asrwt>0</asrwt>
<pdfrwt beam="1">  1        2 0.33555927E-01 0.10002348E+04</pdfrwt>
<pdfrwt beam="2">  1       -2 0.17642005E+00 0.10002348E+04</pdfrwt>
<totfact> 0.33337029E+01</totfact>
</mgrwt>
</event>
<event>
 9    1  0.4388925E-036  0.9994226E+03  0.7818608E-02  0.8681588E-01
          1   -1    0    0  501    0  0.00000000000E+00  0.00000000000E+00  0.14882957317E+04  0.14882957317E+04  0.00000000000E+00 0.  1.
         -1   -1    0    0    0  501 -0.00000000000E+00 -0.00000000000E+00 -0.16778343042E+03  0.16778343042E+03  0.00000000000E+00 0.  1.
         36    2    1    2    0    0  0.00000000000E+00  0.14210854715E-13  0.13205123013E+04  0.16560791621E+04  0.99942255997E+03 0.  0.
         25    2    3    3    0    0  0.73631432300E+02 -0.97431838743E+02  0.13628527848E+03  0.22187999387E+03  0.12546913376E+03 0.  0.
         35    2    3    3    0    0 -0.73631432300E+02  0.97431838743E+02  0.11842270228E+04  0.14341991682E+04  0.79976187809E+03 0.  0.
         22    1    5    5    0    0 -0.34900640164E+03  0.10207213174E+03  0.10802543499E+04  0.11398129886E+04  0.00000000000E+00 0.  1.
         22    1    5    5    0    0  0.27537496934E+03 -0.46402929981E+01  0.10397267288E+03  0.29438617964E+03  0.00000000000E+00 0.  1.
          5    1    4    4  502    0  0.95493869166E+02 -0.29063691372E+02  0.57899827248E+02  0.11549137284E+03  0.47000000000E+01 0.  1.
         -5    1    4    4    0  502 -0.21862436866E+02 -0.68368147372E+02  0.78385451231E+02  0.10638862103E+03  0.47000000000E+01 0.  1.
<mgrwt>
<rscale>  0 0.99942256E+03</rscale>
<asrwt>0</asrwt>
<pdfrwt beam="1">  1        1 0.22896857E+00 0.99942256E+03</pdfrwt>
<pdfrwt beam="2">  1       -1 0.25812836E-01 0.99942256E+03</pdfrwt>
<totfact> 0.95472546E+01</totfact>
</mgrwt>
</event>
<event>
 9    1  0.4388925E-036  0.9984902E+03  0.7818608E-02  0.8682477E-01
         -2   -1    0    0    0  501 -0.00000000000E+00  0.00000000000E+00  0.43274727052E+03  0.43274727052E+03  0.00000000000E+00 0.  1.
          2   -1    0    0  501    0  0.00000000000E+00 -0.00000000000E+00 -0.57596126050E+03  0.57596126050E+03  0.00000000000E+00 0.  1.
         36    2    1    2    0    0  0.28421709430E-13 -0.28421709430E-13 -0.14321398998E+03  0.10087085310E+04  0.99849018705E+03 0.  0.
         25    2    3    3    0    0 -0.12248132728E+03  0.65881596365E+02 -0.35033076164E+02  0.19011420753E+03  0.12479597432E+03 0.  0.
         35    2    3    3    0    0  0.12248132728E+03 -0.65881596365E+02 -0.10818091382E+03  0.81859432349E+03  0.79940696524E+03 0.  0.
         22    1    5    5    0    0  0.18236009134E+03 -0.40407131826E+03  0.38810553890E+02  0.44501133946E+03  0.00000000000E+00 0. -1.
         22    1    5    5    0    0 -0.59878764059E+02  0.33818972189E+03 -0.14699146771E+03  0.37358298403E+03  0.00000000000E+00 0. -1.
          5    1    4    4  502    0  0.21461585853E+02 -0.49390599016E+01 -0.17794170378E+02  0.28700461312E+02  0.47000000000E+01 0.  1.
         -5    1    4    4    0  502 -0.14394291313E+03  0.70820656266E+02 -0.17238905786E+02  0.16141374622E+03  0.47000000000E+01 0.  1.
<mgrwt>
<rscale>  0 0.99849019E+03</rscale>
<asrwt>0</asrwt>
<pdfrwt beam="1">  1        2 0.88609424E-01 0.99849019E+03</pdfrwt>
<pdfrwt beam="2">  1       -2 0.66576504E-01 0.99849019E+03</pdfrwt>
<totfact> 0.13067877E+02</totfact>
</mgrwt>
</event>
<event>
 9    1  0.4388925E-036  0.1000191E+04  0.7818608E-02  0.8680856E-01
          1   -1    0    0  501    0  0.00000000000E+00  0.00000000000E+00  0.16655390091E+04  0.16655390091E+04  0.00000000000E+00 0. -1.
         -1   -1    0    0    0  501 -0.00000000000E+00 -0.00000000000E+00 -0.15015898624E+03  0.15015898624E+03  0.00000000000E+00 0. -1.
         36    2    1    2    0    0  0.00000000000E+00  0.71054273576E-14  0.15153800228E+04  0.18156979953E+04  0.10001912800E+04 0.  0.
         25    2    3    3    0    0 -0.13298133963E+03  0.35926409986E+02  0.22124851419E+03  0.28912340991E+03  0.12516667889E+03 0.  0.
         35    2    3    3    0    0  0.13298133963E+03 -0.35926409986E+02  0.12941315087E+04  0.15265745854E+04  0.79792158731E+03 0.  0.
         22    1    5    5    0    0 -0.25352161027E+03 -0.61534606921E+02  0.11437042965E+03  0.28485138213E+03  0.00000000000E+00 0.  1.
         22    1    5    5    0    0  0.38650294990E+03  0.25608196936E+02  0.11797610790E+04  0.12417232033E+04  0.00000000000E+00 0.  1.
          5    1    4    4  502    0  0.56561541745E+01  0.39140480012E+02  0.19702141372E+02  0.44432348917E+02  0.47000000000E+01 0.  1.
         -5    1    4    4    0  502 -0.13863749380E+03 -0.32140700266E+01  0.20154637282E+03  0.24469106099E+03  0.47000000000E+01 0.  1.
<mgrwt>
<rscale>  0 0.10001913E+04</rscale>
<asrwt>0</asrwt>
<pdfrwt beam="1">  1        1 0.25623676E+00 0.10001913E+04</pdfrwt>
<pdfrwt beam="2">  1       -1 0.23101384E-01 0.10001913E+04</pdfrwt>
<totfact> 0.86101479E+01</totfact>
</mgrwt>
</event>
<event>
 9    1  0.4388925E-036  0.1000233E+04  0.7818608E-02  0.8680816E-01
         -2   -1    0    0    0  501 -0.00000000000E+00  0.00000000000E+00  0.52389109573E+03  0.52389109573E+03  0.00000000000E+00 0.  1.
          2   -1    0    0  501    0  0.00000000000E+00 -0.00000000000E+00 -0.47742128250E+03  0.47742128250E+03  0.00000000000E+00 0.  1.
         36    2    1    2    0    0  0.42632564146E-13  0.14210854715E-13  0.46469813229E+02  0.10013123782E+04  0.10002334904E+04 0.  0.
         25    2    3    3    0    0  0.87885364002E+02  0.74569887935E+02 -0.73308546949E+02  0.18467121333E+03  0.12427714426E+03 0.  0.
         35    2    3    3    0    0 -0.87885364002E+02 -0.74569887935E+02  0.11977836018E+03  0.81664116490E+03  0.79954451487E+03 0.  0.
         22    1    5    5    0    0  0.13065661961E+03 -0.29925585918E+02  0.42100027202E+03  0.44182340588E+03  0.00000000000E+00 0.  1.
         22    1    5    5    0    0 -0.21854198361E+03 -0.44644302017E+02 -0.30122191185E+03  0.37481775902E+03  0.00000000000E+00 0.  1.
          5    1    4    4  502    0 -0.21350120139E+02  0.15858861819E+02  0.16348458380E+02  0.31570448517E+02  0.47000000000E+01 0.  1.
         -5    1    4    4    0  502  0.10923548414E+03  0.58711026116E+02 -0.89657005329E+02  0.15310076482E+03  0.47000000000E+01 0.  1.
<mgrwt>
<rscale>  0 0.10002335E+04</rscale>
<asrwt>0</asrwt>
<pdfrwt beam="1">  1        2 0.73449428E-01 0.10002335E+04</pdfrwt>
<pdfrwt beam="2">  1       -2 0.80598630E-01 0.10002335E+04</pdfrwt>
<totfact> 0.10634766E+02</totfact>
</mgrwt>
</event>
<event>
 9    1  0.4388925E-036  0.1000349E+04  0.7818608E-02  0.8680706E-01
         -1   -1    0    0    0  501 -0.00000000000E+00  0.00000000000E+00  0.18105706510E+03  0.18105706510E+03  0.00000000000E+00 0.  1.
          1   -1    0    0  501    0  0.00000000000E+00 -0.00000000000E+00 -0.13817433253E+04  0.13817433253E+04  0.00000000000E+00 0.  1.
         36    2    1    2    0    0  0.00000000000E+00 -0.53290705182E-14 -0.12006862602E+04  0.15628003904E+04  0.10003487216E+04 0.  0.
         25    2    3    3    0    0  0.93972418216E+02  0.14199670646E+02 -0.65223626447E+02  0.17032151798E+03  0.12539079714E+03 0.  0.
         35    2    3    3    0    0 -0.93972418216E+02 -0.14199670646E+02 -0.11354626338E+04  0.13924788725E+04  0.80043086615E+03 0.  0.
         22    1    5    5    0    0  0.72629870232E+01 -0.40138042565E+03 -0.49587320984E+03  0.63800410447E+03  0.00000000000E+00 0. -1.
         22    1    5    5    0    0 -0.10123540524E+03  0.38718075500E+03 -0.63958942394E+03  0.75447476799E+03  0.00000000000E+00 0. -1.
          5    1    4    4  502    0  0.85508639302E+02 -0.10183937373E+02  0.13545374720E+02  0.87298380008E+02  0.47000000000E+01 0. -1.
         -5    1    4    4    0  502  0.84637789140E+01  0.24383608019E+02 -0.78769001167E+02  0.83023137970E+02  0.47000000000E+01 0. -1.
<mgrwt>
<rscale>  0 0.10003487E+04</rscale>
<asrwt>0</asrwt>
<pdfrwt beam="1">  1        1 0.21257589E+00 0.10003487E+04</pdfrwt>
<pdfrwt beam="2">  1       -1 0.27854934E-01 0.10003487E+04</pdfrwt>
<totfact> 0.10006649E+02</totfact>
</mgrwt>
</event>
<event>
 9    1  0.4388925E-036  0.9996643E+03  0.7818608E-02  0.8681358E-01
          1   -1    0    0  501    0  0.00000000000E+00  0.00000000000E+00  0.66274087226E+03  0.66274087226E+03  0.00000000000E+00 0.  1.
         -1   -1    0    0    0  501 -0.00000000000E+00 -0.00000000000E+00 -0.37696812511E+03  0.37696812511E+03  0.00000000000E+00 0.  1.
         36    2    1    2    0    0 -0.21316282073E-13  0.00000000000E+00  0.28577274715E+03  0.10397089974E+04  0.99966431176E+03 0.  0.
         25    2    3    3    0    0  0.36318197914E+02  0.28638118189E+02 -0.82899370228E+02  0.15726373114E+03  0.12538110796E+03 0.  0.
         35    2    3    3    0    0 -0.36318197914E+02 -0.28638118189E+02  0.36867211738E+03  0.88244526623E+03  0.80040699925E+03 0.  0.
         22    1    5    5    0    0  0.37292331899E+03  0.17566736741E+02  0.26478662245E+03  0.45770334008E+03  0.00000000000E+00 0.  1.
         22    1    5    5    0    0 -0.40924151691E+03 -0.46204854930E+02  0.10388549493E+03  0.42474192616E+03  0.00000000000E+00 0.  1.
          5    1    4    4  502    0  0.16460883881E+02 -0.39135247798E+02 -0.74648200491E+02  0.86005651878E+02  0.47000000000E+01 0.  1.
         -5    1    4    4    0  502  0.19857314033E+02  0.67773365988E+02 -0.82511697373E+01  0.71258079261E+02  0.47000000000E+01 0.  1.
<mgrwt>
<rscale>  0 0.99966431E+03</rscale>
<asrwt>0</asrwt>
<pdfrwt beam="1">  1        1 0.10196013E+00 0.99966431E+03</pdfrwt>
<pdfrwt beam="2">  1       -1 0.57995096E-01 0.99966431E+03</pdfrwt>
<totfact> 0.10291111E+02</totfact>
</mgrwt>
</event>
<event>
 9    1  0.4388925E-036  0.1000728E+04  0.7818608E-02  0.8680345E-01
          2   -1    0    0  501    0  0.00000000000E+00  0.00000000000E+00  0.17017969234E+04  0.17017969234E+04  0.00000000000E+00 0.  1.
         -2   -1    0    0    0  501 -0.00000000000E+00 -0.00000000000E+00 -0.14711761007E+03  0.14711761007E+03  0.00000000000E+00 0.  1.
         36    2    1    2    0    0  0.00000000000E+00  0.00000000000E+00  0.15546793133E+04  0.18489145335E+04  0.10007283272E+04 0.  0.
         25    2    3    3    0    0  0.11535932717E+03 -0.33093102827E+02  0.16330540402E+03  0.23793682705E+03  0.12466896512E+03 0.  0.
         35    2    3    3    0    0 -0.11535932717E+03  0.33093102827E+02  0.13913739093E+04  0.16109777064E+04  0.80307215571E+03 0.  0.
         22    1    5    5    0    0 -0.31044178456E+03  0.12598339933E+03  0.17968432253E+03  0.38017413677E+03  0.00000000000E+00 0.  1.
         22    1    5    5    0    0  0.19508245739E+03 -0.92890296503E+02  0.12116895868E+04  0.12308035696E+04  0.00000000000E+00 0.  1.
          5    1    4    4  502    0 -0.30265523123E+01 -0.48039547348E+02  0.75700573209E+02  0.89831091013E+02  0.47000000000E+01 0.  1.
         -5    1    4    4    0  502  0.11838587948E+03  0.14946444521E+02  0.87604830806E+02  0.14810573603E+03  0.47000000000E+01 0.  1.
<mgrwt>
<rscale>  0 0.10007283E+04</rscale>
<asrwt>0</asrwt>
<pdfrwt beam="1">  1        2 0.26181490E+00 0.10007283E+04</pdfrwt>
<pdfrwt beam="2">  1       -2 0.22633480E-01 0.10007283E+04</pdfrwt>
<totfact> 0.19927112E+02</totfact>
</mgrwt>
</event>
<event>
 9    1  0.4388925E-036  0.1000442E+04  0.7818608E-02  0.8680617E-01
          1   -1    0    0  501    0  0.00000000000E+00  0.00000000000E+00  0.13667903113E+04  0.13667903113E+04  0.00000000000E+00 0. -1.
         -1   -1    0    0    0  501 -0.00000000000E+00 -0.00000000000E+00 -0.18307216243E+03  0.18307216243E+03  0.00000000000E+00 0. -1.
         36    2    1    2    0    0 -0.71054273576E-14  0.00000000000E+00  0.11837181489E+04  0.15498624737E+04  0.10004424179E+04 0.  0.
         25    2    3    3    0    0 -0.47428783014E+01  0.13085667654E+03  0.14264198261E+03  0.23032763236E+03  0.12473218645E+03 0.  0.
         35    2    3    3    0    0  0.47428783014E+01 -0.13085667654E+03  0.10410761663E+04  0.13195348414E+04  0.80011664709E+03 0.  0.
         22    1    5    5    0    0 -0.21971631861E+03 -0.31736630126E+03  0.93061796291E+03  0.10074951229E+04  0.00000000000E+00 0.  1.
         22    1    5    5    0    0  0.22445919692E+03  0.18650962472E+03  0.11045820334E+03  0.31203971843E+03  0.00000000000E+00 0.  1.
          5    1    4    4  502    0 -0.44177505483E+02  0.20088468166E+02  0.87962079499E+02  0.10057144711E+03  0.47000000000E+01 0. -1.
         -5    1    4    4    0  502  0.39434627181E+02  0.11076820838E+03  0.54679903111E+02  0.12975618526E+03  0.47000000000E+01 0. -1.
<mgrwt>
<rscale>  0 0.10004424E+04</rscale>
<asrwt>0</asrwt>
<pdfrwt beam="1">  1        1 0.21027543E+00 0.10004424E+04</pdfrwt>
<pdfrwt beam="2">  1       -1 0.28164949E-01 0.10004424E+04</pdfrwt>
<totfact> 0.10067162E+02</totfact>
</mgrwt>
</event>
<event>
 9    1  0.4388925E-036  0.9980427E+03  0.7818608E-02  0.8682904E-01
          2   -1    0    0  501    0  0.00000000000E+00  0.00000000000E+00  0.14526855413E+04  0.14526855413E+04  0.00000000000E+00 0. -1.
         -2   -1    0    0    0  501 -0.00000000000E+00 -0.00000000000E+00 -0.17142203261E+03  0.17142203261E+03  0.00000000000E+00 0. -1.
         36    2    1    2    0    0  0.14210854715E-13  0.71054273576E-14  0.12812635087E+04  0.16241075739E+04  0.99804270098E+03 0.  0.
         25    2    3    3    0    0 -0.30019740372E+02 -0.38893614062E+02  0.29066847882E+02  0.13821141393E+03  0.12587142356E+03 0.  0.
         35    2    3    3    0    0  0.30019740372E+02  0.38893614062E+02  0.12521966608E+04  0.14858961600E+04  0.79842158218E+03 0.  0.
         22    1    5    5    0    0  0.24467471576E+03 -0.28236208806E+03  0.84841150283E+03  0.92703621474E+03  0.00000000000E+00 0. -1.
         22    1    5    5    0    0 -0.21465497538E+03  0.32125570212E+03  0.40378515800E+03  0.55885994527E+03  0.00000000000E+00 0. -1.
          5    1    4    4  502    0 -0.36625733822E+02 -0.56813262201E+02 -0.31360067418E+02  0.74664147811E+02  0.47000000000E+01 0. -1.
         -5    1    4    4    0  502  0.66059934502E+01  0.17919648139E+02  0.60426915300E+02  0.63547266122E+02  0.47000000000E+01 0. -1.
<mgrwt>
<rscale>  0 0.99804270E+03</rscale>
<asrwt>0</asrwt>
<pdfrwt beam="1">  1        2 0.22349007E+00 0.99804270E+03</pdfrwt>
<pdfrwt beam="2">  1       -2 0.26372621E-01 0.99804270E+03</pdfrwt>
<totfact> 0.21020405E+02</totfact>
</mgrwt>
</event>
<event>
 9    1  0.4388925E-036  0.9990742E+03  0.7818608E-02  0.8681920E-01
         -1   -1    0    0    0  501 -0.00000000000E+00  0.00000000000E+00  0.97293185058E+02  0.97293185058E+02  0.00000000000E+00 0.  1.
          1   -1    0    0  501    0  0.00000000000E+00 -0.00000000000E+00 -0.25647974585E+04  0.25647974585E+04  0.00000000000E+00 0.  1.
         36    2    1    2    0    0  0.21316282073E-13 -0.28421709430E-13 -0.24675042735E+04  0.26620906436E+04  0.99907419898E+03 0.  0.
         25    2    3    3    0    0  0.52449910235E+02 -0.11833795982E+03 -0.32607532397E+03  0.37256085255E+03  0.12538582908E+03 0.  0.
         35    2    3    3    0    0 -0.52449910235E+02  0.11833795982E+03 -0.21414289495E+04  0.22895297910E+04  0.79967109017E+03 0.  0.
         22    1    5    5    0    0  0.85262058081E+02  0.43716030221E+03 -0.96341524177E+03  0.10613895027E+04  0.00000000000E+00 0.  1.
         22    1    5    5    0    0 -0.13771196832E+03 -0.31882234238E+03 -0.11780137077E+04  0.12281402883E+04  0.00000000000E+00 0.  1.
          5    1    4    4  502    0  0.74499658791E+02 -0.73159780203E+02 -0.11444725309E+03  0.15499295578E+03  0.47000000000E+01 0.  1.
         -5    1    4    4    0  502 -0.22049748557E+02 -0.45178179620E+02 -0.21162807087E+03  0.21756789677E+03  0.47000000000E+01 0.  1.
<mgrwt>
<rscale>  0 0.99907420E+03</rscale>
<asrwt>0</asrwt>
<pdfrwt beam="1">  1        1 0.39458417E+00 0.99907420E+03</pdfrwt>
<pdfrwt beam="2">  1       -1 0.14968184E-01 0.99907420E+03</pdfrwt>
<totfact> 0.41031405E+01</totfact>
</mgrwt>
</event>
<event>
 9    1  0.4388925E-036  0.9997314E+03  0.7818608E-02  0.8681294E-01
          1   -1    0    0  501    0  0.00000000000E+00  0.00000000000E+00  0.37195816069E+03  0.37195816069E+03  0.00000000000E+00 0. -1.
         -1   -1    0    0    0  501 -0.00000000000E+00 -0.00000000000E+00 -0.67175760886E+03  0.67175760886E+03  0.00000000000E+00 0. -1.
         36    2    1    2    0    0  0.00000000000E+00  0.71054273576E-14 -0.29979944817E+03  0.10437157695E+04  0.99973141317E+03 0.  0.
         25    2    3    3    0    0 -0.11539109851E+03  0.53369966886E+02 -0.49135070798E+01  0.17846754937E+03  0.12515216596E+03 0.  0.
         35    2    3    3    0    0  0.11539109851E+03 -0.53369966886E+02 -0.29488594109E+03  0.86524822018E+03  0.80345087298E+03 0.  0.
         22    1    5    5    0    0 -0.56732896131E+02 -0.11469833298E+03  0.25526723003E+03  0.28554454612E+03  0.00000000000E+00 0.  1.
         22    1    5    5    0    0  0.17212399464E+03  0.61328366094E+02 -0.55015317112E+03  0.57970367406E+03  0.00000000000E+00 0.  1.
          5    1    4    4  502    0  0.14754441007E+02  0.20212984369E+02 -0.32493404476E+02  0.41281589128E+02  0.47000000000E+01 0. -1.
         -5    1    4    4    0  502 -0.13014553952E+03  0.33156982517E+02  0.27579897396E+02  0.13718596024E+03  0.47000000000E+01 0. -1.
<mgrwt>
<rscale>  0 0.99973141E+03</rscale>
<asrwt>0</asrwt>
<pdfrwt beam="1">  1        1 0.57224333E-01 0.99973141E+03</pdfrwt>
<pdfrwt beam="2">  1       -1 0.10334732E+00 0.99973141E+03</pdfrwt>
<totfact> 0.70055587E+01</totfact>
</mgrwt>
</event>
<event>
 9    1  0.4388925E-036  0.1000423E+04  0.7818608E-02  0.8680635E-01
         -2   -1    0    0    0  501 -0.00000000000E+00  0.00000000000E+00  0.58504857871E+03  0.58504857871E+03  0.00000000000E+00 0. -1.
          2   -1    0    0  501    0  0.00000000000E+00 -0.00000000000E+00 -0.42767644904E+03  0.42767644904E+03  0.00000000000E+00 0. -1.
         36    2    1    2    0    0 -0.71054273576E-14  0.28421709430E-13  0.15737212967E+03  0.10127250278E+04  0.10004229079E+04 0.  0.
         25    2    3    3    0    0 -0.52337501828E+02  0.11188074335E+03 -0.41138363077E+02  0.17878344314E+03  0.12253423927E+03 0.  0.
         35    2    3    3    0    0  0.52337501828E+02 -0.11188074335E+03  0.19851049275E+03  0.83394158462E+03  0.80049711805E+03 0.  0.
         22    1    5    5    0    0  0.28381688791E+03  0.83566868854E+02  0.37937508466E+03  0.48110383734E+03  0.00000000000E+00 0.  1.
         22    1    5    5    0    0 -0.23147938609E+03 -0.19544761221E+03 -0.18086459192E+03  0.35283774729E+03  0.00000000000E+00 0.  1.
          5    1    4    4  502    0 -0.27118524040E+02  0.30337807905E+01 -0.59340332212E+02  0.65482693890E+02  0.47000000000E+01 0.  1.
         -5    1    4    4    0  502 -0.25218977788E+02  0.10884696256E+03  0.18201969135E+02  0.11330074925E+03  0.47000000000E+01 0.  1.
<mgrwt>
<rscale>  0 0.10004229E+04</rscale>
<asrwt>0</asrwt>
<pdfrwt beam="1">  1        2 0.65796377E-01 0.10004229E+04</pdfrwt>
<pdfrwt beam="2">  1       -2 0.90007474E-01 0.10004229E+04</pdfrwt>
<totfact> 0.93080243E+01</totfact>
</mgrwt>
</event>
<event>
 9    1  0.4388925E-036  0.9987671E+03  0.7818608E-02  0.8682213E-01
         -1   -1    0    0    0  501 -0.00000000000E+00  0.00000000000E+00  0.33063342029E+03  0.33063342029E+03  0.00000000000E+00 0. -1.
          1   -1    0    0  501    0  0.00000000000E+00 -0.00000000000E+00 -0.75426106061E+03  0.75426106061E+03  0.00000000000E+00 0. -1.
         36    2    1    2    0    0  0.00000000000E+00  0.53290705182E-13 -0.42362764032E+03  0.10848944809E+04  0.99876706847E+03 0.  0.
         25    2    3    3    0    0  0.83989735345E+02  0.52392869077E+01  0.40467867898E+02  0.15570875670E+03  0.12460273998E+03 0.  0.
         35    2    3    3    0    0 -0.83989735345E+02 -0.52392869077E+01 -0.46409550822E+03  0.92918572420E+03  0.80057463334E+03 0.  0.
         22    1    5    5    0    0  0.76909651383E+02  0.37875557993E+03 -0.25743746290E+03  0.46437585113E+03  0.00000000000E+00 0.  1.
         22    1    5    5    0    0 -0.16089938673E+03 -0.38399486684E+03 -0.20665804532E+03  0.46480987307E+03  0.00000000000E+00 0.  1.
          5    1    4    4  502    0  0.10341818282E+03 -0.20089720858E+02  0.56544653299E+02  0.11965912100E+03  0.47000000000E+01 0. -1.
         -5    1    4    4    0  502 -0.19428447472E+02  0.25329007766E+02 -0.16076785401E+02  0.36049635705E+02  0.47000000000E+01 0. -1.
<mgrwt>
<rscale>  0 0.99876707E+03</rscale>
<asrwt>0</asrwt>
<pdfrwt beam="1">  1        1 0.11604016E+00 0.99876707E+03</pdfrwt>
<pdfrwt beam="2">  1       -1 0.50866681E-01 0.99876707E+03</pdfrwt>
<totfact> 0.10785974E+02</totfact>
</mgrwt>
</event>
<event>
 9    1  0.4388925E-036  0.1000166E+04  0.7818608E-02  0.8680880E-01
          1   -1    0    0  501    0  0.00000000000E+00  0.00000000000E+00  0.35849540888E+04  0.35849540888E+04  0.00000000000E+00 0.  1.
         -1   -1    0    0    0  501 -0.00000000000E+00 -0.00000000000E+00 -0.69759107711E+02  0.69759107711E+02  0.00000000000E+00 0.  1.
         36    2    1    2    0    0 -0.14210854715E-13  0.00000000000E+00  0.35151949810E+04  0.36547131965E+04  0.10001663830E+04 0.  0.
         25    2    3    3    0    0  0.39502370534E+02 -0.13037039924E+03  0.75380805546E+03  0.77611702495E+03  0.12479652906E+03 0.  0.
         35    2    3    3    0    0 -0.39502370534E+02  0.13037039924E+03  0.27613869256E+04  0.28785961715E+04  0.80156178028E+03 0.  0.
         22    1    5    5    0    0  0.34661435284E+03  0.53259831642E+02  0.73579146173E+03  0.81508723117E+03  0.00000000000E+00 0. -1.
         22    1    5    5    0    0 -0.38611672337E+03  0.77110567602E+02  0.20255954639E+04  0.20635089404E+04  0.00000000000E+00 0. -1.
          5    1    4    4  502    0  0.43265544436E+02 -0.14675079069E+03  0.73367754524E+03  0.74947483767E+03  0.47000000000E+01 0. -1.
         -5    1    4    4    0  502 -0.37631739016E+01  0.16380391442E+02  0.20130510214E+02  0.26642187281E+02  0.47000000000E+01 0. -1.
<mgrwt>
<rscale>  0 0.10001664E+04</rscale>
<asrwt>0</asrwt>
<pdfrwt beam="1">  1        1 0.55153125E+00 0.10001664E+04</pdfrwt>
<pdfrwt beam="2">  1       -1 0.10732173E-01 0.10001664E+04</pdfrwt>
<totfact> 0.12714717E+01</totfact>
</mgrwt>
</event>
<event>
 9    1  0.4388925E-036  0.1001003E+04  0.7818608E-02  0.8680083E-01
          2   -1    0    0  501    0  0.00000000000E+00  0.00000000000E+00  0.13930175316E+04  0.13930175316E+04  0.00000000000E+00 0. -1.
         -2   -1    0    0    0  501 -0.00000000000E+00 -0.00000000000E+00 -0.17982672552E+03  0.17982672552E+03  0.00000000000E+00 0. -1.
         36    2    1    2    0    0  0.14210854715E-13  0.14210854715E-13  0.12131908061E+04  0.15728442571E+04  0.10010030595E+04 0.  0.
         25    2    3    3    0    0 -0.11330078887E+03  0.88569935796E+02  0.21355204290E+03  0.28606212534E+03  0.12468104204E+03 0.  0.
         35    2    3    3    0    0  0.11330078887E+03 -0.88569935796E+02  0.99963876317E+03  0.12867821318E+04  0.79740133905E+03 0.  0.
         22    1    5    5    0    0  0.89461441759E+02 -0.36987181400E+03  0.18208274208E+03  0.42185617611E+03  0.00000000000E+00 0.  1.
         22    1    5    5    0    0  0.23839347110E+02  0.28130187821E+03  0.81755602109E+03  0.86492595566E+03  0.00000000000E+00 0.  1.
          5    1    4    4  502    0  0.17434607810E+02  0.48066710019E+02  0.40611423536E+02  0.65465654225E+02  0.47000000000E+01 0.  1.
         -5    1    4    4    0  502 -0.13073539668E+03  0.40503225777E+02  0.17294061937E+03  0.22059647112E+03  0.47000000000E+01 0.  1.
<mgrwt>
<rscale>  0 0.10010031E+04</rscale>
<asrwt>0</asrwt>
<pdfrwt beam="1">  1        2 0.21431038E+00 0.10010031E+04</pdfrwt>
<pdfrwt beam="2">  1       -2 0.27665651E-01 0.10010031E+04</pdfrwt>
<totfact> 0.20862501E+02</totfact>
</mgrwt>
</event>
<event>
 9    1  0.4388925E-036  0.1004208E+04  0.7818608E-02  0.8677041E-01
         -2   -1    0    0    0  501 -0.00000000000E+00  0.00000000000E+00  0.96742503823E+02  0.96742503823E+02  0.00000000000E+00 0.  1.
          2   -1    0    0  501    0  0.00000000000E+00 -0.00000000000E+00 -0.26059749022E+04  0.26059749022E+04  0.00000000000E+00 0.  1.
         36    2    1    2    0    0  0.00000000000E+00 -0.14210854715E-13 -0.25092323984E+04  0.27027174060E+04  0.10042082193E+04 0.  0.
         25    2    3    3    0    0 -0.25700193771E+02 -0.11514157165E+03 -0.69420161836E+03  0.71533605411E+03  0.12598294291E+03 0.  0.
         35    2    3    3    0    0  0.25700193771E+02  0.11514157165E+03 -0.18150307800E+04  0.19873813519E+04  0.80089314145E+03 0.  0.
         22    1    5    5    0    0 -0.37935199837E+03  0.11709231593E+03 -0.76393594391E+03  0.86093941454E+03  0.00000000000E+00 0.  1.
         22    1    5    5    0    0  0.40505219214E+03 -0.19507442852E+01 -0.10510948361E+04  0.11264419374E+04  0.00000000000E+00 0.  1.
          5    1    4    4  502    0  0.40764912252E+01 -0.54660679754E+02 -0.58025975019E+03  0.58286179784E+03  0.47000000000E+01 0. -1.
         -5    1    4    4    0  502 -0.29776684997E+02 -0.60480891891E+02 -0.11394186817E+03  0.13247425627E+03  0.47000000000E+01 0. -1.
<mgrwt>
<rscale>  0 0.10042082E+04</rscale>
<asrwt>0</asrwt>
<pdfrwt beam="1">  1        2 0.40091916E+00 0.10042082E+04</pdfrwt>
<pdfrwt beam="2">  1       -2 0.14883464E-01 0.10042082E+04</pdfrwt>
<totfact> 0.12144477E+02</totfact>
</mgrwt>
</event>
<event>
 9    1  0.4388925E-036  0.1000315E+04  0.7818608E-02  0.8680738E-01
          1   -1    0    0  501    0  0.00000000000E+00  0.00000000000E+00  0.13489983065E+04  0.13489983065E+04  0.00000000000E+00 0. -1.
         -1   -1    0    0    0  501 -0.00000000000E+00 -0.00000000000E+00 -0.18543932814E+03  0.18543932814E+03  0.00000000000E+00 0. -1.
         36    2    1    2    0    0  0.00000000000E+00  0.71054273576E-14  0.11635589783E+04  0.15344376346E+04  0.10003146297E+04 0.  0.
         25    2    3    3    0    0 -0.10225125895E+03  0.39475513685E+02  0.35548787872E+03  0.39244437548E+03  0.12500927881E+03 0.  0.
         35    2    3    3    0    0  0.10225125895E+03 -0.39475513685E+02  0.80807109960E+03  0.11419932591E+04  0.79947236710E+03 0.  0.
         22    1    5    5    0    0 -0.28604101835E+03  0.19467232829E+03  0.42784221876E+03  0.55024153218E+03  0.00000000000E+00 0. -1.
         22    1    5    5    0    0  0.38829227731E+03 -0.23414784198E+03  0.38022888084E+03  0.59175172695E+03  0.00000000000E+00 0. -1.
          5    1    4    4  502    0 -0.74621538899E+02  0.59571543262E+02  0.34250200362E+03  0.35559366602E+03  0.47000000000E+01 0.  1.
         -5    1    4    4    0  502 -0.27629720055E+02 -0.20096029577E+02  0.12985875106E+02  0.36850709455E+02  0.47000000000E+01 0.  1.
<mgrwt>
<rscale>  0 0.10003146E+04</rscale>
<asrwt>0</asrwt>
<pdfrwt beam="1">  1        1 0.20753819E+00 0.10003146E+04</pdfrwt>
<pdfrwt beam="2">  1       -1 0.28529128E-01 0.10003146E+04</pdfrwt>
<totfact> 0.10145852E+02</totfact>
</mgrwt>
</event>
<event>
 9    1  0.4388925E-036  0.9991245E+03  0.7818608E-02  0.8681872E-01
          2   -1    0    0  501    0  0.00000000000E+00  0.00000000000E+00  0.92208954795E+03  0.92208954795E+03  0.00000000000E+00 0.  1.
         -2   -1    0    0    0  501 -0.00000000000E+00 -0.00000000000E+00 -0.27064879129E+03  0.27064879129E+03  0.00000000000E+00 0.  1.
         36    2    1    2    0    0  0.71054273576E-14  0.00000000000E+00  0.65144075667E+03  0.11927383392E+04  0.99912445994E+03 0.  0.
         25    2    3    3    0    0 -0.45080800386E+02 -0.11596934420E+03  0.20295119724E+03  0.26934963419E+03  0.12601138687E+03 0.  0.
         35    2    3    3    0    0  0.45080800386E+02  0.11596934420E+03  0.44848955942E+03  0.92338870505E+03  0.79751028102E+03 0.  0.
         22    1    5    5    0    0 -0.17254728046E+03  0.35618126150E+03  0.44995877337E+03  0.59924999188E+03  0.00000000000E+00 0. -1.
         22    1    5    5    0    0  0.21762808084E+03 -0.24021191730E+03 -0.14692139426E+01  0.32413871317E+03  0.00000000000E+00 0. -1.
          5    1    4    4  502    0 -0.55863510519E+02 -0.12133039033E+02  0.12945135984E+03  0.14158985489E+03  0.47000000000E+01 0.  1.
         -5    1    4    4    0  502  0.10782710133E+02 -0.10383630517E+03  0.73499837399E+02  0.12775977930E+03  0.47000000000E+01 0.  1.
<mgrwt>
<rscale>  0 0.99912446E+03</rscale>
<asrwt>0</asrwt>
<pdfrwt beam="1">  1        2 0.14185993E+00 0.99912446E+03</pdfrwt>
<pdfrwt beam="2">  1       -2 0.41638276E-01 0.99912446E+03</pdfrwt>
<totfact> 0.18728818E+02</totfact>
</mgrwt>
</event>
<event>
 9    1  0.4388925E-036  0.9991074E+03  0.7818608E-02  0.8681888E-01
         -2   -1    0    0    0  501 -0.00000000000E+00  0.00000000000E+00  0.78566512304E+03  0.78566512304E+03  0.00000000000E+00 0.  1.
          2   -1    0    0  501    0  0.00000000000E+00 -0.00000000000E+00 -0.31763393433E+03  0.31763393433E+03  0.00000000000E+00 0.  1.
         36    2    1    2    0    0 -0.71054273576E-14  0.00000000000E+00  0.46803118871E+03  0.11032990574E+04  0.99910740983E+03 0.  0.
         25    2    3    3    0    0 -0.46775459734E+02 -0.26460942037E+02  0.23077182992E+03  0.26754988107E+03  0.12425448197E+03 0.  0.
         35    2    3    3    0    0  0.46775459734E+02  0.26460942037E+02  0.23725935879E+03  0.83574917629E+03  0.79956022740E+03 0.  0.
         22    1    5    5    0    0  0.30589241275E+03  0.29069026010E+03  0.62878419093E+02  0.42664351757E+03  0.00000000000E+00 0. -1.
         22    1    5    5    0    0 -0.25911695302E+03 -0.26422931806E+03  0.17438093970E+03  0.40910565872E+03  0.00000000000E+00 0. -1.
          5    1    4    4  502    0 -0.28665101917E+02 -0.76390866278E+02  0.13040248316E+03  0.15389655660E+03  0.47000000000E+01 0.  1.
         -5    1    4    4    0  502 -0.18110357817E+02  0.49929924241E+02  0.10036934676E+03  0.11365332448E+03  0.47000000000E+01 0.  1.
<mgrwt>
<rscale>  0 0.99910741E+03</rscale>
<asrwt>0</asrwt>
<pdfrwt beam="1">  1        2 0.48866759E-01 0.99910741E+03</pdfrwt>
<pdfrwt beam="2">  1       -2 0.12087156E+00 0.99910741E+03</pdfrwt>
<totfact> 0.62588707E+01</totfact>
</mgrwt>
</event>
<event>
 9    1  0.4388925E-036  0.1002377E+04  0.7818608E-02  0.8678777E-01
          1   -1    0    0  501    0  0.00000000000E+00  0.00000000000E+00  0.16324156351E+04  0.16324156351E+04  0.00000000000E+00 0.  1.
         -1   -1    0    0    0  501 -0.00000000000E+00 -0.00000000000E+00 -0.15387634741E+03  0.15387634741E+03  0.00000000000E+00 0.  1.
         36    2    1    2    0    0  0.14210854715E-13  0.14210854715E-13  0.14785392877E+04  0.17862919825E+04  0.10023774846E+04 0.  0.
         25    2    3    3    0    0 -0.64660620241E+02 -0.10643971307E+03  0.15673257964E+03  0.23595995075E+03  0.12490631893E+03 0.  0.
         35    2    3    3    0    0  0.64660620241E+02  0.10643971307E+03  0.13218067081E+04  0.15503320318E+04  0.80052859222E+03 0.  0.
         22    1    5    5    0    0 -0.35738428373E+03  0.13388479570E+03  0.71817133727E+03  0.81327654242E+03  0.00000000000E+00 0. -1.
         22    1    5    5    0    0  0.42204490397E+03 -0.27445082625E+02  0.60363537081E+03  0.73705548938E+03  0.00000000000E+00 0. -1.
          5    1    4    4  502    0 -0.34813799774E+02 -0.11728437220E+02  0.12685871514E+03  0.13215438132E+03  0.47000000000E+01 0.  1.
         -5    1    4    4    0  502 -0.29846820466E+02 -0.94711275850E+02  0.29873864499E+02  0.10380556943E+03  0.47000000000E+01 0.  1.
<mgrwt>
<rscale>  0 0.10023775E+04</rscale>
<asrwt>0</asrwt>
<pdfrwt beam="1">  1        1 0.25114086E+00 0.10023775E+04</pdfrwt>
<pdfrwt beam="2">  1       -1 0.23673285E-01 0.10023775E+04</pdfrwt>
<totfact> 0.87216434E+01</totfact>
</mgrwt>
</event>
<event>
 9    1  0.4388925E-036  0.9993025E+03  0.7818608E-02  0.8681702E-01
          2   -1    0    0  501    0  0.00000000000E+00  0.00000000000E+00  0.30636086995E+04  0.30636086995E+04  0.00000000000E+00 0.  1.
         -2   -1    0    0    0  501 -0.00000000000E+00 -0.00000000000E+00 -0.81489310516E+02  0.81489310516E+02  0.00000000000E+00 0.  1.
         36    2    1    2    0    0 -0.14210854715E-13  0.17763568394E-14  0.29821193890E+04  0.31450980100E+04  0.99930247796E+03 0.  0.
         25    2    3    3    0    0 -0.12661025545E+03 -0.11711474460E+01  0.37507894147E+03  0.41512426401E+03  0.12494964532E+03 0.  0.
         35    2    3    3    0    0  0.12661025545E+03  0.11711474460E+01  0.26070404475E+04  0.27299737460E+04  0.80004076805E+03 0.  0.
         22    1    5    5    0    0  0.13331816925E+03 -0.27329533773E+03  0.22920266798E+04  0.23121095080E+04  0.00000000000E+00 0. -1.
         22    1    5    5    0    0 -0.67079138067E+01  0.27446648517E+03  0.31501376771E+03  0.41786423805E+03  0.00000000000E+00 0. -1.
          5    1    4    4  502    0 -0.14653296887E+03  0.86004895003E+00  0.36246861331E+03  0.39099646582E+03  0.47000000000E+01 0.  1.
         -5    1    4    4    0  502  0.19922713426E+02 -0.20311963960E+01  0.12610328162E+02  0.24127798188E+02  0.47000000000E+01 0.  1.
<mgrwt>
<rscale>  0 0.99930248E+03</rscale>
<asrwt>0</asrwt>
<pdfrwt beam="1">  1        2 0.47132433E+00 0.99930248E+03</pdfrwt>
<pdfrwt beam="2">  1       -2 0.12536819E-01 0.99930248E+03</pdfrwt>
<totfact> 0.81733556E+01</totfact>
</mgrwt>
</event>
<event>
 9    1  0.4388925E-036  0.9989099E+03  0.7818608E-02  0.8682077E-01
          2   -1    0    0  501    0  0.00000000000E+00  0.00000000000E+00  0.60633894111E+03  0.60633894111E+03  0.00000000000E+00 0. -1.
         -2   -1    0    0    0  501 -0.00000000000E+00 -0.00000000000E+00 -0.41141219392E+03  0.41141219392E+03  0.00000000000E+00 0. -1.
         36    2    1    2    0    0 -0.28421709430E-13 -0.14210854715E-13  0.19492674719E+03  0.10177511350E+04  0.99890987385E+03 0.  0.
         25    2    3    3    0    0  0.89934645099E+02  0.58174922327E+02  0.12553776877E+03  0.20715418908E+03  0.12522206151E+03 0.  0.
         35    2    3    3    0    0 -0.89934645099E+02 -0.58174922327E+02  0.69388978423E+02  0.81059694595E+03  0.80048736185E+03 0.  0.
         22    1    5    5    0    0  0.19680984294E+03  0.38178160596E+02 -0.28259580357E+03  0.34648531631E+03  0.00000000000E+00 0.  1.
         22    1    5    5    0    0 -0.28674448804E+03 -0.96353082923E+02  0.35198478199E+03  0.46411162964E+03  0.00000000000E+00 0.  1.
          5    1    4    4  502    0 -0.17089785795E+02  0.54050913959E+02  0.52711514477E+02  0.77550988625E+02  0.47000000000E+01 0.  1.
         -5    1    4    4    0  502  0.10702443089E+03  0.41240083687E+01  0.72826254289E+02  0.12960320045E+03  0.47000000000E+01 0.  1.
<mgrwt>
<rscale>  0 0.99890987E+03</rscale>
<asrwt>0</asrwt>
<pdfrwt beam="1">  1        2 0.93282914E-01 0.99890987E+03</pdfrwt>
<pdfrwt beam="2">  1       -2 0.63294183E-01 0.99890987E+03</pdfrwt>
<totfact> 0.13694113E+02</totfact>
</mgrwt>
</event>
<event>
 9    1  0.4388925E-036  0.9998535E+03  0.7818608E-02  0.8681177E-01
          2   -1    0    0  501    0  0.00000000000E+00  0.00000000000E+00  0.18984933750E+04  0.18984933750E+04  0.00000000000E+00 0. -1.
         -2   -1    0    0    0  501 -0.00000000000E+00 -0.00000000000E+00 -0.13164478676E+03  0.13164478676E+03  0.00000000000E+00 0. -1.
         36    2    1    2    0    0  0.14210854715E-13  0.00000000000E+00  0.17668485882E+04  0.20301381617E+04  0.99985350031E+03 0.  0.
         25    2    3    3    0    0  0.28481136112E+02 -0.55203713072E+02  0.77173429158E+02  0.15923247265E+03  0.12466201156E+03 0.  0.
         35    2    3    3    0    0 -0.28481136112E+02  0.55203713072E+02  0.16896751591E+04  0.18709056891E+04  0.80089158398E+03 0.  0.
         22    1    5    5    0    0  0.27452805168E+03 -0.10797736548E+03  0.23812637049E+03  0.37911598613E+03  0.00000000000E+00 0. -1.
         22    1    5    5    0    0 -0.30300918779E+03  0.16318107855E+03  0.14515487886E+04  0.14917897030E+04  0.00000000000E+00 0. -1.
          5    1    4    4  502    0  0.34982085002E+02 -0.86280413404E+02  0.22600945257E+02  0.95921575960E+02  0.47000000000E+01 0. -1.
         -5    1    4    4    0  502 -0.65009488891E+01  0.31076700331E+02  0.54572483902E+02  0.63310896686E+02  0.47000000000E+01 0. -1.
<mgrwt>
<rscale>  0 0.99985350E+03</rscale>
<asrwt>0</asrwt>
<pdfrwt beam="1">  1        2 0.29207588E+00 0.99985350E+03</pdfrwt>
<pdfrwt beam="2">  1       -2 0.20253045E-01 0.99985350E+03</pdfrwt>
<totfact> 0.18730669E+02</totfact>
</mgrwt>
</event>
<event>
 9    1  0.4388925E-036  0.1000980E+04  0.7818608E-02  0.8680105E-01
         -2   -1    0    0    0  501 -0.00000000000E+00  0.00000000000E+00  0.12061445979E+03  0.12061445979E+03  0.00000000000E+00 0. -1.
          2   -1    0    0  501    0  0.00000000000E+00 -0.00000000000E+00 -0.20767845059E+04  0.20767845059E+04  0.00000000000E+00 0. -1.
         36    2    1    2    0    0  0.00000000000E+00 -0.35527136788E-14 -0.19561700461E+04  0.21973989657E+04  0.10009800024E+04 0.  0.
         25    2    3    3    0    0  0.92249852332E+02 -0.31444771486E+02 -0.14636526969E+03  0.21572518168E+03  0.12496300624E+03 0.  0.
         35    2    3    3    0    0 -0.92249852332E+02  0.31444771486E+02 -0.18098047764E+04  0.19816737840E+04  0.80133566538E+03 0.  0.
         22    1    5    5    0    0  0.28453439588E+03 -0.10429174930E+03 -0.32740571118E+03  0.44612900727E+03  0.00000000000E+00 0. -1.
         22    1    5    5    0    0 -0.37678424822E+03  0.13573652079E+03 -0.14823990653E+04  0.15355447768E+04  0.00000000000E+00 0. -1.
          5    1    4    4  502    0 -0.11582129070E+02  0.22064323103E+02  0.35621424742E+01  0.25607790354E+02  0.47000000000E+01 0. -1.
         -5    1    4    4    0  502  0.10383198140E+03 -0.53509094589E+02 -0.14992741216E+03  0.19011739132E+03  0.47000000000E+01 0. -1.
<mgrwt>
<rscale>  0 0.10009800E+04</rscale>
<asrwt>0</asrwt>
<pdfrwt beam="1">  1        2 0.31950529E+00 0.10009800E+04</pdfrwt>
<pdfrwt beam="2">  1       -2 0.18556072E-01 0.10009800E+04</pdfrwt>
<totfact> 0.17240147E+02</totfact>
</mgrwt>
</event>
<event>
 9    1  0.4388925E-036  0.9991501E+03  0.7818608E-02  0.8681848E-01
          2   -1    0    0  501    0  0.00000000000E+00  0.00000000000E+00  0.23032202460E+03  0.23032202460E+03  0.00000000000E+00 0.  1.
         -2   -1    0    0    0  501 -0.00000000000E+00 -0.00000000000E+00 -0.10835926391E+04  0.10835926391E+04  0.00000000000E+00 0.  1.
         36    2    1    2    0    0  0.71054273576E-14 -0.14210854715E-13 -0.85327061447E+03  0.13139146637E+04  0.99915013982E+03 0.  0.
         25    2    3    3    0    0  0.10075355429E+02  0.22557106481E+02  0.17219493047E+02  0.13129996183E+03  0.12779997338E+03 0.  0.
         35    2    3    3    0    0 -0.10075355429E+02 -0.22557106481E+02 -0.87049010752E+03  0.11826147018E+04  0.80013384499E+03 0.  0.
         22    1    5    5    0    0  0.21544895953E+03  0.32263780784E+03 -0.40817634891E+03  0.56313527773E+03  0.00000000000E+00 0. -1.
         22    1    5    5    0    0 -0.22552431496E+03 -0.34519491432E+03 -0.46231375861E+03  0.61947942412E+03  0.00000000000E+00 0. -1.
          5    1    4    4  502    0  0.44187864758E+02 -0.39047801237E+02  0.13196967793E+02  0.60609802278E+02  0.47000000000E+01 0.  1.
         -5    1    4    4    0  502 -0.34112509329E+02  0.61604907718E+02  0.40225252536E+01  0.70690159549E+02  0.47000000000E+01 0.  1.
<mgrwt>
<rscale>  0 0.99915014E+03</rscale>
<asrwt>0</asrwt>
<pdfrwt beam="1">  1        2 0.35434157E-01 0.99915014E+03</pdfrwt>
<pdfrwt beam="2">  1       -2 0.16670656E+00 0.99915014E+03</pdfrwt>
<totfact> 0.37049927E+01</totfact>
</mgrwt>
</event>
<event>
 9    1  0.4388925E-036  0.1000821E+04  0.7818608E-02  0.8680256E-01
         -1   -1    0    0    0  501 -0.00000000000E+00  0.00000000000E+00  0.26292043668E+03  0.26292043668E+03  0.00000000000E+00 0. -1.
          1   -1    0    0  501    0  0.00000000000E+00 -0.00000000000E+00 -0.95242041639E+03  0.95242041639E+03  0.00000000000E+00 0. -1.
         36    2    1    2    0    0  0.28421709430E-13  0.24868995752E-13 -0.68949997971E+03  0.12153408531E+04  0.10008212463E+04 0.  0.
         25    2    3    3    0    0  0.14282457358E+03  0.25247103823E+01 -0.14688637589E+03  0.23813517923E+03  0.12135700715E+03 0.  0.
         35    2    3    3    0    0 -0.14282457358E+03 -0.25247103823E+01 -0.54261360382E+03  0.97720567383E+03  0.80006010583E+03 0.  0.
         22    1    5    5    0    0 -0.43016212839E+03 -0.18140885726E+03 -0.37869780415E+03  0.60113281150E+03  0.00000000000E+00 0.  1.
         22    1    5    5    0    0  0.28733755480E+03  0.17888414688E+03 -0.16391579968E+03  0.37607286234E+03  0.00000000000E+00 0.  1.
          5    1    4    4  502    0 -0.65460329762E+01  0.33738840662E+02 -0.29935584564E+02  0.45819091437E+02  0.47000000000E+01 0.  1.
         -5    1    4    4    0  502  0.14937060656E+03 -0.31214130279E+02 -0.11695079133E+03  0.19231608780E+03  0.47000000000E+01 0.  1.
<mgrwt>
<rscale>  0 0.10008212E+04</rscale>
<asrwt>0</asrwt>
<pdfrwt beam="1">  1        1 0.14652622E+00 0.10008212E+04</pdfrwt>
<pdfrwt beam="2">  1       -1 0.40449297E-01 0.10008212E+04</pdfrwt>
<totfact> 0.11063713E+02</totfact>
</mgrwt>
</event>
<event>
 9    1  0.4388925E-036  0.1000697E+04  0.7818608E-02  0.8680375E-01
         -1   -1    0    0    0  501 -0.00000000000E+00  0.00000000000E+00  0.19531483876E+03  0.19531483876E+03  0.00000000000E+00 0.  1.
          1   -1    0    0  501    0  0.00000000000E+00 -0.00000000000E+00 -0.12817685754E+04  0.12817685754E+04  0.00000000000E+00 0.  1.
         36    2    1    2    0    0  0.00000000000E+00 -0.71054273576E-14 -0.10864537366E+04  0.14770834141E+04  0.10006966026E+04 0.  0.
         25    2    3    3    0    0 -0.75939037583E+02  0.43354889070E+02 -0.36711440375E+03  0.39764841186E+03  0.12531915328E+03 0.  0.
         35    2    3    3    0    0  0.75939037583E+02 -0.43354889070E+02 -0.71933933284E+03  0.10794350023E+04  0.80005278857E+03 0.  0.
         22    1    5    5    0    0  0.24314410460E+03  0.25725780011E+02  0.82032643259E+02  0.25789576561E+03  0.00000000000E+00 0. -1.
         22    1    5    5    0    0 -0.16720506702E+03 -0.69080669082E+02 -0.80137197610E+03  0.82153923665E+03  0.00000000000E+00 0. -1.
          5    1    4    4  502    0 -0.34766816218E+02  0.19606733276E+02 -0.15931692486E+02  0.43232676590E+02  0.47000000000E+01 0. -1.
         -5    1    4    4    0  502 -0.41172221365E+02  0.23748155795E+02 -0.35118271126E+03  0.35441573527E+03  0.47000000000E+01 0. -1.
<mgrwt>
<rscale>  0 0.10006966E+04</rscale>
<asrwt>0</asrwt>
<pdfrwt beam="1">  1        1 0.19719517E+00 0.10006966E+04</pdfrwt>
<pdfrwt beam="2">  1       -1 0.30048436E-01 0.10006966E+04</pdfrwt>
<totfact> 0.10395017E+02</totfact>
</mgrwt>
</event>
<event>
 9    1  0.4388925E-036  0.9998793E+03  0.7818608E-02  0.8681153E-01
          1   -1    0    0  501    0  0.00000000000E+00  0.00000000000E+00  0.57948308886E+03  0.57948308886E+03  0.00000000000E+00 0. -1.
         -1   -1    0    0    0  501 -0.00000000000E+00 -0.00000000000E+00 -0.43131483120E+03  0.43131483120E+03  0.00000000000E+00 0. -1.
         36    2    1    2    0    0 -0.14210854715E-13  0.53290705182E-14  0.14816825766E+03  0.10107979201E+04  0.99987929402E+03 0.  0.
         25    2    3    3    0    0 -0.69788007195E+02  0.13603762552E+02  0.14927447146E+03  0.20700415719E+03  0.12454888584E+03 0.  0.
         35    2    3    3    0    0  0.69788007195E+02 -0.13603762552E+02 -0.11062137943E+01  0.80379376286E+03  0.80064209307E+03 0.  0.
         22    1    5    5    0    0 -0.24282789608E+03  0.16266770534E+03  0.23429378012E+03  0.37459277206E+03  0.00000000000E+00 0.  1.
         22    1    5    5    0    0  0.31261590328E+03 -0.17627146789E+03 -0.23539999391E+03  0.42920099080E+03  0.00000000000E+00 0.  1.
          5    1    4    4  502    0  0.35079647759E+02  0.53518135031E+01  0.22824192625E+02  0.42453001821E+02  0.47000000000E+01 0.  1.
         -5    1    4    4    0  502 -0.10486765495E+03  0.82519490490E+01  0.12645027883E+03  0.16455115537E+03  0.47000000000E+01 0.  1.
<mgrwt>
<rscale>  0 0.99987929E+03</rscale>
<asrwt>0</asrwt>
<pdfrwt beam="1">  1        1 0.89151244E-01 0.99987929E+03</pdfrwt>
<pdfrwt beam="2">  1       -1 0.66356128E-01 0.99987929E+03</pdfrwt>
<totfact> 0.96725824E+01</totfact>
</mgrwt>
</event>
<event>
 9    1  0.4388925E-036  0.1000260E+04  0.7818608E-02  0.8680791E-01
          2   -1    0    0  501    0  0.00000000000E+00  0.00000000000E+00  0.18592347894E+04  0.18592347894E+04  0.00000000000E+00 0. -1.
         -2   -1    0    0    0  501 -0.00000000000E+00 -0.00000000000E+00 -0.13453374968E+03  0.13453374968E+03  0.00000000000E+00 0. -1.
         36    2    1    2    0    0  0.00000000000E+00 -0.28421709430E-13  0.17247010398E+04  0.19937685391E+04  0.10002596218E+04 0.  0.
         25    2    3    3    0    0  0.66558989688E+02 -0.12643586676E+03  0.34504428946E+03  0.39383307654E+03  0.12503120803E+03 0.  0.
         35    2    3    3    0    0 -0.66558989688E+02  0.12643586676E+03  0.13796567503E+04  0.15999354626E+04  0.79744881229E+03 0.  0.
         22    1    5    5    0    0  0.15588975910E+03  0.29355453886E+03  0.12491566603E+04  0.12926206893E+04  0.00000000000E+00 0.  1.
         22    1    5    5    0    0 -0.22244874879E+03 -0.16711867210E+03  0.13050008996E+03  0.30731477329E+03  0.00000000000E+00 0.  1.
          5    1    4    4  502    0  0.72309288962E+02 -0.65772882176E+02  0.30610231957E+03  0.32136494107E+03  0.47000000000E+01 0. -1.
         -5    1    4    4    0  502 -0.57502992741E+01 -0.60662984588E+02  0.38941969881E+02  0.72468135475E+02  0.47000000000E+01 0. -1.
<mgrwt>
<rscale>  0 0.10002596E+04</rscale>
<asrwt>0</asrwt>
<pdfrwt beam="1">  1        2 0.28603610E+00 0.10002596E+04</pdfrwt>
<pdfrwt beam="2">  1       -2 0.20697501E-01 0.10002596E+04</pdfrwt>
<totfact> 0.18985427E+02</totfact>
</mgrwt>
</event>
<event>
 9    1  0.4388925E-036  0.9985472E+03  0.7818608E-02  0.8682423E-01
         -1   -1    0    0    0  501 -0.00000000000E+00  0.00000000000E+00  0.12904100682E+03  0.12904100682E+03  0.00000000000E+00 0.  1.
          1   -1    0    0  501    0  0.00000000000E+00 -0.00000000000E+00 -0.19317436120E+04  0.19317436120E+04  0.00000000000E+00 0.  1.
         36    2    1    2    0    0  0.00000000000E+00  0.14210854715E-13 -0.18027026052E+04  0.20607846188E+04  0.99854722593E+03 0.  0.
         25    2    3    3    0    0 -0.67071503579E+02  0.12031317984E+03 -0.27977623048E+03  0.33572456446E+03  0.12434788381E+03 0.  0.
         35    2    3    3    0    0  0.67071503579E+02 -0.12031317984E+03 -0.15229263747E+04  0.17250600543E+04  0.79846953637E+03 0.  0.
         22    1    5    5    0    0 -0.10951836929E+03  0.25352151877E+03 -0.10979569610E+04  0.11321558735E+04  0.00000000000E+00 0. -1.
         22    1    5    5    0    0  0.17658987287E+03 -0.37383469861E+03 -0.42496941367E+03  0.59290418082E+03  0.00000000000E+00 0. -1.
          5    1    4    4  502    0  0.24996213916E+02  0.44906351495E+02 -0.31771782194E+02  0.60604680170E+02  0.47000000000E+01 0.  1.
         -5    1    4    4    0  502 -0.92067717495E+02  0.75406828345E+02 -0.24800444828E+03  0.27511988429E+03  0.47000000000E+01 0.  1.
<mgrwt>
<rscale>  0 0.99854723E+03</rscale>
<asrwt>0</asrwt>
<pdfrwt beam="1">  1        1 0.29719131E+00 0.99854723E+03</pdfrwt>
<pdfrwt beam="2">  1       -1 0.19852463E-01 0.99854723E+03</pdfrwt>
<totfact> 0.71993404E+01</totfact>
</mgrwt>
</event>
<event>
 9    1  0.4388925E-036  0.9994576E+03  0.7818608E-02  0.8681555E-01
         -2   -1    0    0    0  501 -0.00000000000E+00  0.00000000000E+00  0.16931596291E+03  0.16931596291E+03  0.00000000000E+00 0. -1.
          2   -1    0    0  501    0  0.00000000000E+00 -0.00000000000E+00 -0.14749280214E+04  0.14749280214E+04  0.00000000000E+00 0. -1.
         36    2    1    2    0    0  0.00000000000E+00 -0.71054273576E-14 -0.13056120584E+04  0.16442439843E+04  0.99945756921E+03 0.  0.
         25    2    3    3    0    0  0.12029216486E+03  0.35117053237E+02 -0.34522481787E+03  0.38843878260E+03  0.12649545683E+03 0.  0.
         35    2    3    3    0    0 -0.12029216486E+03 -0.35117053237E+02 -0.96038724057E+03  0.12558052017E+04  0.79937453070E+03 0.  0.
         22    1    5    5    0    0  0.33253804139E+03  0.76913881957E+02 -0.44168888932E+03  0.55819921996E+03  0.00000000000E+00 0.  1.
         22    1    5    5    0    0 -0.45283020625E+03 -0.11203093519E+03 -0.51869835124E+03  0.69760598171E+03  0.00000000000E+00 0.  1.
          5    1    4    4  502    0  0.75750183680E+02  0.81950525369E+02 -0.24240604091E+03  0.26690214987E+03  0.47000000000E+01 0.  1.
         -5    1    4    4    0  502  0.44541981179E+02 -0.46833472133E+02 -0.10281877696E+03  0.12153663273E+03  0.47000000000E+01 0.  1.
<mgrwt>
<rscale>  0 0.99945757E+03</rscale>
<asrwt>0</asrwt>
<pdfrwt beam="1">  1        2 0.22691200E+00 0.99945757E+03</pdfrwt>
<pdfrwt beam="2">  1       -2 0.26048610E-01 0.99945757E+03</pdfrwt>
<totfact> 0.20873582E+02</totfact>
</mgrwt>
</event>
<event>
 9    1  0.4388925E-036  0.9989890E+03  0.7818608E-02  0.8682001E-01
         -2   -1    0    0    0  501 -0.00000000000E+00  0.00000000000E+00  0.44705904410E+03  0.44705904410E+03  0.00000000000E+00 0. -1.
          2   -1    0    0  501    0  0.00000000000E+00 -0.00000000000E+00 -0.55808008743E+03  0.55808008743E+03  0.00000000000E+00 0. -1.
         36    2    1    2    0    0  0.00000000000E+00  0.71054273576E-14 -0.11102104332E+03  0.10051391315E+04  0.99898898977E+03 0.  0.
         25    2    3    3    0    0 -0.85612037526E+02  0.21243115610E+02  0.82551208030E+02  0.17757897393E+03  0.13014952594E+03 0.  0.
         35    2    3    3    0    0  0.85612037526E+02 -0.21243115610E+02 -0.19357225135E+03  0.82756015761E+03  0.79975302878E+03 0.  0.
         22    1    5    5    0    0 -0.30461019605E+03 -0.12607779974E+03  0.80452460440E+02  0.33934581406E+03  0.00000000000E+00 0.  1.
         22    1    5    5    0    0  0.39022223358E+03  0.10483468413E+03 -0.27402471179E+03  0.48821434355E+03  0.00000000000E+00 0.  1.
          5    1    4    4  502    0  0.13007365041E+02  0.32246336293E+02 -0.15172726662E+02  0.38227207379E+02  0.47000000000E+01 0.  1.
         -5    1    4    4    0  502 -0.98619402567E+02 -0.11003220683E+02  0.97723934692E+02  0.13935176655E+03  0.47000000000E+01 0.  1.
<mgrwt>
<rscale>  0 0.99898899E+03</rscale>
<asrwt>0</asrwt>
<pdfrwt beam="1">  1        2 0.85858475E-01 0.99898899E+03</pdfrwt>
<pdfrwt beam="2">  1       -2 0.68778314E-01 0.99898899E+03</pdfrwt>
<totfact> 0.12642851E+02</totfact>
</mgrwt>
</event>
<event>
 9    1  0.4388925E-036  0.1003889E+04  0.7818608E-02  0.8677343E-01
         -1   -1    0    0    0  501 -0.00000000000E+00  0.00000000000E+00  0.68439197718E+03  0.68439197718E+03  0.00000000000E+00 0. -1.
          1   -1    0    0  501    0  0.00000000000E+00 -0.00000000000E+00 -0.36813472763E+03  0.36813472763E+03  0.00000000000E+00 0. -1.
         36    2    1    2    0    0  0.56843418861E-13  0.66613381478E-14  0.31625724955E+03  0.10525267048E+04  0.10038893447E+04 0.  0.
         25    2    3    3    0    0  0.14230933393E+03  0.22366685223E+01  0.91573783798E+02  0.21085905112E+03  0.12577293965E+03 0.  0.
         35    2    3    3    0    0 -0.14230933393E+03 -0.22366685223E+01  0.22468346575E+03  0.84166765368E+03  0.79853918518E+03 0.  0.
         22    1    5    5    0    0 -0.28713717469E+03  0.95917819407E+02 -0.21310230069E+03  0.37021693064E+03  0.00000000000E+00 0. -1.
         22    1    5    5    0    0  0.14482784076E+03 -0.98154487929E+02  0.43778576644E+03  0.47145072305E+03  0.00000000000E+00 0. -1.
          5    1    4    4  502    0  0.51195476402E+01 -0.35513920318E+01 -0.27785658249E+02  0.28860959058E+02  0.47000000000E+01 0.  1.
         -5    1    4    4    0  502  0.13718978629E+03  0.57880605541E+01  0.11935944205E+03  0.18199809206E+03  0.47000000000E+01 0.  1.
<mgrwt>
<rscale>  0 0.10038893E+04</rscale>
<asrwt>0</asrwt>
<pdfrwt beam="1">  1        1 0.56636112E-01 0.10038893E+04</pdfrwt>
<pdfrwt beam="2">  1       -1 0.10529107E+00 0.10038893E+04</pdfrwt>
<totfact> 0.68027070E+01</totfact>
</mgrwt>
</event>
<event>
 9    1  0.4388925E-036  0.9999620E+03  0.7818608E-02  0.8681074E-01
          1   -1    0    0  501    0  0.00000000000E+00  0.00000000000E+00  0.23790421193E+04  0.23790421193E+04  0.00000000000E+00 0.  1.
         -1   -1    0    0    0  501 -0.00000000000E+00 -0.00000000000E+00 -0.10507632180E+03  0.10507632180E+03  0.00000000000E+00 0.  1.
         36    2    1    2    0    0  0.14210854715E-13  0.00000000000E+00  0.22739657975E+04  0.24841184411E+04  0.99996198989E+03 0.  0.
         25    2    3    3    0    0  0.67392108308E+02 -0.39361684353E+02  0.13834029360E+03  0.20212384103E+03  0.12499988730E+03 0.  0.
         35    2    3    3    0    0 -0.67392108308E+02  0.39361684353E+02  0.21356255039E+04  0.22819946001E+04  0.80031995062E+03 0.  0.
         22    1    5    5    0    0  0.29973394230E+03 -0.18884755900E+03  0.12026275174E+04  0.12537211741E+04  0.00000000000E+00 0.  1.
         22    1    5    5    0    0 -0.36712605061E+03  0.22820924335E+03  0.93299798654E+03  0.10282734260E+04  0.00000000000E+00 0.  1.
          5    1    4    4  502    0  0.95431696067E+02 -0.23280914437E+01  0.66459480969E+02  0.11641125905E+03  0.47000000000E+01 0. -1.
         -5    1    4    4    0  502 -0.28039587759E+02 -0.37033592909E+02  0.71880812628E+02  0.85712581979E+02  0.47000000000E+01 0. -1.
<mgrwt>
<rscale>  0 0.99996199E+03</rscale>
<asrwt>0</asrwt>
<pdfrwt beam="1">  1        1 0.36600644E+00 0.99996199E+03</pdfrwt>
<pdfrwt beam="2">  1       -1 0.16165590E-01 0.99996199E+03</pdfrwt>
<totfact> 0.48914172E+01</totfact>
</mgrwt>
</event>
<event>
 9    1  0.4388925E-036  0.9998994E+03  0.7818608E-02  0.8681134E-01
          1   -1    0    0  501    0  0.00000000000E+00  0.00000000000E+00  0.17396237571E+04  0.17396237571E+04  0.00000000000E+00 0.  1.
         -1   -1    0    0    0  501 -0.00000000000E+00 -0.00000000000E+00 -0.14368032513E+03  0.14368032513E+03  0.00000000000E+00 0.  1.
         36    2    1    2    0    0  0.71054273576E-14  0.00000000000E+00  0.15959434319E+04  0.18833040822E+04  0.99989940897E+03 0.  0.
         25    2    3    3    0    0 -0.46576807253E+02  0.10184045777E+03  0.46176853705E+03  0.49106546966E+03  0.12399288637E+03 0.  0.
         35    2    3    3    0    0  0.46576807253E+02 -0.10184045777E+03  0.11341748949E+04  0.13922386125E+04  0.79964666211E+03 0.  0.
         22    1    5    5    0    0 -0.27193782263E+03 -0.14594181536E+03  0.99516782162E+03  0.10419252305E+04  0.00000000000E+00 0. -1.
         22    1    5    5    0    0  0.31851462988E+03  0.44101357594E+02  0.13900707328E+03  0.35031338200E+03  0.00000000000E+00 0. -1.
          5    1    4    4  502    0 -0.85089762503E+02  0.94411078497E+02  0.36604632911E+03  0.38751222494E+03  0.47000000000E+01 0. -1.
         -5    1    4    4    0  502  0.38512955250E+02  0.74293792706E+01  0.95722207938E+02  0.10355324471E+03  0.47000000000E+01 0. -1.
<mgrwt>
<rscale>  0 0.99989941E+03</rscale>
<asrwt>0</asrwt>
<pdfrwt beam="1">  1        1 0.26763441E+00 0.99989941E+03</pdfrwt>
<pdfrwt beam="2">  1       -1 0.22104667E-01 0.99989941E+03</pdfrwt>
<totfact> 0.82176193E+01</totfact>
</mgrwt>
</event>
<event>
 9    1  0.4388925E-036  0.9998994E+03  0.7818608E-02  0.8681134E-01
         -2   -1    0    0    0  501 -0.00000000000E+00  0.00000000000E+00  0.19245165696E+03  0.19245165696E+03  0.00000000000E+00 0. -1.
          2   -1    0    0  501    0  0.00000000000E+00 -0.00000000000E+00 -0.12987662308E+04  0.12987662308E+04  0.00000000000E+00 0. -1.
         36    2    1    2    0    0 -0.21316282073E-13  0.00000000000E+00 -0.11063145738E+04  0.14912178877E+04  0.99989942116E+03 0.  0.
         25    2    3    3    0    0  0.12949218774E+02  0.11909525630E+03 -0.30733672382E+03  0.35331328857E+03  0.12658220937E+03 0.  0.
         35    2    3    3    0    0 -0.12949218774E+02 -0.11909525630E+03 -0.79897784998E+03  0.11379045992E+04  0.80131760848E+03 0.  0.
         22    1    5    5    0    0 -0.31379008596E+03 -0.18295873808E+03 -0.74058396278E+03  0.82486527616E+03  0.00000000000E+00 0. -1.
         22    1    5    5    0    0  0.30084086719E+03  0.63863481777E+02 -0.58393887205E+02  0.31303932299E+03  0.00000000000E+00 0. -1.
          5    1    4    4  502    0  0.65189254768E+02  0.47365434578E+02 -0.18740611738E+03  0.20404966591E+03  0.47000000000E+01 0. -1.
         -5    1    4    4    0  502 -0.52240035995E+02  0.71729821721E+02 -0.11993060644E+03  0.14926362265E+03  0.47000000000E+01 0. -1.
<mgrwt>
<rscale>  0 0.99989942E+03</rscale>
<asrwt>0</asrwt>
<pdfrwt beam="1">  1        2 0.19981019E+00 0.99989942E+03</pdfrwt>
<pdfrwt beam="2">  1       -2 0.29607947E-01 0.99989942E+03</pdfrwt>
<totfact> 0.20907175E+02</totfact>
</mgrwt>
</event>
<event>
 9    1  0.4388925E-036  0.9997437E+03  0.7818608E-02  0.8681282E-01
          1   -1    0    0  501    0  0.00000000000E+00  0.00000000000E+00  0.17148893837E+04  0.17148893837E+04  0.00000000000E+00 0.  1.
         -1   -1    0    0    0  501 -0.00000000000E+00 -0.00000000000E+00 -0.14570729225E+03  0.14570729225E+03  0.00000000000E+00 0.  1.
         36    2    1    2    0    0 -0.14210854715E-13  0.00000000000E+00  0.15691820915E+04  0.18605966760E+04  0.99974374439E+03 0.  0.
         25    2    3    3    0    0  0.12689623277E+03  0.26492998459E+02  0.39047218392E+03  0.43038810299E+03  0.12633629693E+03 0.  0.
         35    2    3    3    0    0 -0.12689623277E+03 -0.26492998459E+02  0.11787099076E+04  0.14302085730E+04  0.79958425649E+03 0.  0.
         22    1    5    5    0    0  0.64452408336E+02 -0.16696230128E+03  0.11793321433E+04  0.11928347862E+04  0.00000000000E+00 0. -1.
         22    1    5    5    0    0 -0.19134864111E+03  0.14046930282E+03 -0.62223570237E+00  0.23737378681E+03  0.00000000000E+00 0. -1.
          5    1    4    4  502    0  0.56586704188E+01 -0.36090432903E+02  0.40563818502E+02  0.54790996245E+02  0.47000000000E+01 0.  1.
         -5    1    4    4    0  502  0.12123756235E+03  0.62583431362E+02  0.34990836541E+03  0.37559710674E+03  0.47000000000E+01 0.  1.
<mgrwt>
<rscale>  0 0.99974374E+03</rscale>
<asrwt>0</asrwt>
<pdfrwt beam="1">  1        1 0.26382912E+00 0.99974374E+03</pdfrwt>
<pdfrwt beam="2">  1       -1 0.22416508E-01 0.99974374E+03</pdfrwt>
<totfact> 0.83564027E+01</totfact>
</mgrwt>
</event>
<event>
 9    1  0.4388925E-036  0.9988198E+03  0.7818608E-02  0.8682163E-01
         -1   -1    0    0    0  501 -0.00000000000E+00  0.00000000000E+00  0.40700430542E+03  0.40700430542E+03  0.00000000000E+00 0. -1.
          1   -1    0    0  501    0  0.00000000000E+00 -0.00000000000E+00 -0.61279509292E+03  0.61279509292E+03  0.00000000000E+00 0. -1.
         36    2    1    2    0    0  0.00000000000E+00 -0.17763568394E-13 -0.20579078750E+03  0.10197993983E+04  0.99881978586E+03 0.  0.
         25    2    3    3    0    0  0.19580782347E+01  0.20516658312E+02 -0.17761365104E+03  0.21868461619E+03  0.12590307773E+03 0.  0.
         35    2    3    3    0    0 -0.19580782347E+01 -0.20516658312E+02 -0.28177136462E+02  0.80111478215E+03  0.80035378166E+03 0.  0.
         22    1    5    5    0    0 -0.80231083083E+02  0.33602506126E+03  0.17078657134E+03  0.38538022969E+03  0.00000000000E+00 0.  1.
         22    1    5    5    0    0  0.78273004849E+02 -0.35654171957E+03 -0.19896370781E+03  0.41573455246E+03  0.00000000000E+00 0.  1.
          5    1    4    4  502    0 -0.38455450779E+02  0.49613819510E+02 -0.46226883944E+02  0.78098448001E+02  0.47000000000E+01 0. -1.
         -5    1    4    4    0  502  0.40413529014E+02 -0.29097161198E+02 -0.13138676710E+03  0.14058616819E+03  0.47000000000E+01 0. -1.
<mgrwt>
<rscale>  0 0.99881979E+03</rscale>
<asrwt>0</asrwt>
<pdfrwt beam="1">  1        1 0.94276167E-01 0.99881979E+03</pdfrwt>
<pdfrwt beam="2">  1       -1 0.62616048E-01 0.99881979E+03</pdfrwt>
<totfact> 0.99823095E+01</totfact>
</mgrwt>
</event>
<event>
 9    1  0.4388925E-036  0.9996007E+03  0.7818608E-02  0.8681418E-01
          2   -1    0    0  501    0  0.00000000000E+00  0.00000000000E+00  0.74070059036E+03  0.74070059036E+03  0.00000000000E+00 0. -1.
         -2   -1    0    0    0  501 -0.00000000000E+00 -0.00000000000E+00 -0.33724883247E+03  0.33724883247E+03  0.00000000000E+00 0. -1.
         36    2    1    2    0    0  0.00000000000E+00 -0.71054273576E-14  0.40345175789E+03  0.10779494228E+04  0.99960073892E+03 0.  0.
         25    2    3    3    0    0  0.61939302878E+02  0.61124392515E+02  0.19367647082E+03  0.24592560561E+03  0.12408126185E+03 0.  0.
         35    2    3    3    0    0 -0.61939302878E+02 -0.61124392515E+02  0.20977528707E+03  0.83202381723E+03  0.80042819339E+03 0.  0.
         22    1    5    5    0    0  0.14504801474E+03  0.28849338770E+03 -0.80379141615E+02  0.33275842249E+03  0.00000000000E+00 0.  1.
         22    1    5    5    0    0 -0.20698731762E+03 -0.34961778022E+03  0.29015442868E+03  0.49926539474E+03  0.00000000000E+00 0.  1.
          5    1    4    4  502    0  0.53071092535E+02 -0.25173349939E+02  0.46684736278E+02  0.75178407880E+02  0.47000000000E+01 0. -1.
         -5    1    4    4    0  502  0.88682103422E+01  0.86297742454E+02  0.14699173454E+03  0.17074719773E+03  0.47000000000E+01 0. -1.
<mgrwt>
<rscale>  0 0.99960074E+03</rscale>
<asrwt>0</asrwt>
<pdfrwt beam="1">  1        2 0.11395394E+00 0.99960074E+03</pdfrwt>
<pdfrwt beam="2">  1       -2 0.51884436E-01 0.99960074E+03</pdfrwt>
<totfact> 0.16181188E+02</totfact>
</mgrwt>
</event>
<event>
 9    1  0.4388925E-036  0.1006425E+04  0.7818608E-02  0.8674943E-01
          2   -1    0    0  501    0  0.00000000000E+00  0.00000000000E+00  0.15963973209E+04  0.15963973209E+04  0.00000000000E+00 0.  1.
         -2   -1    0    0    0  501 -0.00000000000E+00 -0.00000000000E+00 -0.15862145298E+03  0.15862145298E+03  0.00000000000E+00 0.  1.
         36    2    1    2    0    0  0.00000000000E+00  0.71054273576E-14  0.14377758679E+04  0.17550187739E+04  0.10064250843E+04 0.  0.
         25    2    3    3    0    0 -0.13805878284E+03  0.48925864058E+02  0.21874740345E+03  0.29130514876E+03  0.12471686127E+03 0.  0.
         35    2    3    3    0    0  0.13805878284E+03 -0.48925864058E+02  0.12190284644E+04  0.14637136251E+04  0.79685206374E+03 0.  0.
         22    1    5    5    0    0  0.68121482752E+02 -0.21253471339E+03 -0.85096726961E+01  0.22334716326E+03  0.00000000000E+00 0. -1.
         22    1    5    5    0    0  0.69937300083E+02  0.16360884933E+03  0.12275381371E+04  0.12403664618E+04  0.00000000000E+00 0. -1.
          5    1    4    4  502    0 -0.76817727925E+02 -0.30658175074E+02  0.14363798300E+03  0.16581570246E+03  0.47000000000E+01 0. -1.
         -5    1    4    4    0  502 -0.61241054911E+02  0.79584039132E+02  0.75109420444E+02  0.12548944629E+03  0.47000000000E+01 0. -1.
<mgrwt>
<rscale>  0 0.10064251E+04</rscale>
<asrwt>0</asrwt>
<pdfrwt beam="1">  1        2 0.24559958E+00 0.10064251E+04</pdfrwt>
<pdfrwt beam="2">  1       -2 0.24403302E-01 0.10064251E+04</pdfrwt>
<totfact> 0.20010131E+02</totfact>
</mgrwt>
</event>
<event>
 9    1  0.4388925E-036  0.1000562E+04  0.7818608E-02  0.8680503E-01
          1   -1    0    0  501    0  0.00000000000E+00  0.00000000000E+00  0.57526824068E+03  0.57526824068E+03  0.00000000000E+00 0.  1.
         -1   -1    0    0    0  501 -0.00000000000E+00 -0.00000000000E+00 -0.43506846095E+03  0.43506846095E+03  0.00000000000E+00 0.  1.
         36    2    1    2    0    0  0.42632564146E-13  0.28421709430E-13  0.14019977972E+03  0.10103367016E+04  0.10005619783E+04 0.  0.
         25    2    3    3    0    0 -0.72435437700E+02 -0.10682673620E+03  0.84571314726E+02  0.19789731924E+03  0.12390398495E+03 0.  0.
         35    2    3    3    0    0  0.72435437700E+02  0.10682673620E+03  0.55628464998E+02  0.81243938239E+03  0.80019021472E+03 0.  0.
         22    1    5    5    0    0  0.38909234870E+03  0.24157180807E+03 -0.26122844578E+02  0.45872889301E+03  0.00000000000E+00 0. -1.
         22    1    5    5    0    0 -0.31665691100E+03 -0.13474507187E+03  0.81751309576E+02  0.35371048938E+03  0.00000000000E+00 0. -1.
          5    1    4    4  502    0 -0.62904031523E+02 -0.43983752069E+02 -0.16270795025E+02  0.78602267135E+02  0.47000000000E+01 0.  1.
         -5    1    4    4    0  502 -0.95314061766E+01 -0.62842984126E+02  0.10084210975E+03  0.11929505210E+03  0.47000000000E+01 0.  1.
<mgrwt>
<rscale>  0 0.10005620E+04</rscale>
<asrwt>0</asrwt>
<pdfrwt beam="1">  1        1 0.88502806E-01 0.10005620E+04</pdfrwt>
<pdfrwt beam="2">  1       -1 0.66933609E-01 0.10005620E+04</pdfrwt>
<totfact> 0.96097845E+01</totfact>
</mgrwt>
</event>
<event>
 9    1  0.4388925E-036  0.9996452E+03  0.7818608E-02  0.8681376E-01
          1   -1    0    0  501    0  0.00000000000E+00  0.00000000000E+00  0.27024172331E+03  0.27024172331E+03  0.00000000000E+00 0.  1.
         -1   -1    0    0    0  501 -0.00000000000E+00 -0.00000000000E+00 -0.92444133528E+03  0.92444133528E+03  0.00000000000E+00 0.  1.
         36    2    1    2    0    0  0.00000000000E+00 -0.88817841970E-15 -0.65419961197E+03  0.11946830586E+04  0.99964517615E+03 0.  0.
         25    2    3    3    0    0  0.14179774167E+03  0.25687720453E+01 -0.12666121536E+03  0.22590369250E+03  0.12196809696E+03 0.  0.
         35    2    3    3    0    0 -0.14179774167E+03 -0.25687720453E+01 -0.52753839661E+03  0.96877936610E+03  0.80007718512E+03 0.  0.
         22    1    5    5    0    0 -0.27718559031E+02 -0.88662396958E+00 -0.73312883949E+03  0.73365318776E+03  0.00000000000E+00 0. -1.
         22    1    5    5    0    0 -0.11407918263E+03 -0.16821480757E+01  0.20559044289E+03  0.23512617834E+03  0.00000000000E+00 0. -1.
          5    1    4    4  502    0  0.30901735334E+02  0.12360306484E+02 -0.10776619692E+03  0.11288639255E+03  0.47000000000E+01 0. -1.
         -5    1    4    4    0  502  0.11089600633E+03 -0.97915344387E+01 -0.18895018442E+02  0.11301729995E+03  0.47000000000E+01 0. -1.
<mgrwt>
<rscale>  0 0.99964518E+03</rscale>
<asrwt>0</asrwt>
<pdfrwt beam="1">  1        1 0.41575650E-01 0.99964518E+03</pdfrwt>
<pdfrwt beam="2">  1       -1 0.14222174E+00 0.99964518E+03</pdfrwt>
<totfact> 0.47912812E+01</totfact>
</mgrwt>
</event>
<event>
 9    1  0.4388925E-036  0.9995865E+03  0.7818608E-02  0.8681432E-01
          2   -1    0    0  501    0  0.00000000000E+00  0.00000000000E+00  0.12872853031E+04  0.12872853031E+04  0.00000000000E+00 0.  1.
         -2   -1    0    0    0  501 -0.00000000000E+00 -0.00000000000E+00 -0.19404657730E+03  0.19404657730E+03  0.00000000000E+00 0.  1.
         36    2    1    2    0    0  0.00000000000E+00  0.00000000000E+00  0.10932387258E+04  0.14813318804E+04  0.99958652867E+03 0.  0.
         25    2    3    3    0    0 -0.60000082689E+02  0.10598628984E+03  0.31919360836E+03  0.36391411148E+03  0.12536274311E+03 0.  0.
         35    2    3    3    0    0  0.60000082689E+02 -0.10598628984E+03  0.77404511744E+03  0.11174177689E+04  0.79664516750E+03 0.  0.
         22    1    5    5    0    0  0.78094834888E+02  0.19262203841E+01  0.92648542087E+03  0.92977295543E+03  0.00000000000E+00 0.  1.
         22    1    5    5    0    0 -0.18094752199E+02 -0.10791251022E+03 -0.15244030343E+03  0.18764481349E+03  0.00000000000E+00 0.  1.
          5    1    4    4  502    0  0.16390447356E+02  0.83076912661E+02  0.22471456950E+03  0.24018565304E+03  0.47000000000E+01 0. -1.
         -5    1    4    4    0  502 -0.76390530045E+02  0.22909377178E+02  0.94479038861E+02  0.12372845844E+03  0.47000000000E+01 0. -1.
<mgrwt>
<rscale>  0 0.99958653E+03</rscale>
<asrwt>0</asrwt>
<pdfrwt beam="1">  1        2 0.19804389E+00 0.99958653E+03</pdfrwt>
<pdfrwt beam="2">  1       -2 0.29853320E-01 0.99958653E+03</pdfrwt>
<totfact> 0.20914146E+02</totfact>
</mgrwt>
</event>
<event>
 9    1  0.4388925E-036  0.9998808E+03  0.7818608E-02  0.8681151E-01
          1   -1    0    0  501    0  0.00000000000E+00  0.00000000000E+00  0.46504769597E+03  0.46504769597E+03  0.00000000000E+00 0. -1.
         -1   -1    0    0    0  501 -0.00000000000E+00 -0.00000000000E+00 -0.53745110501E+03  0.53745110501E+03  0.00000000000E+00 0. -1.
         36    2    1    2    0    0 -0.56843418861E-13  0.00000000000E+00 -0.72403409048E+02  0.10024988010E+04  0.99988078906E+03 0.  0.
         25    2    3    3    0    0 -0.73768108900E+02  0.99488831817E+02 -0.79493812147E+02  0.19273119922E+03  0.12444391281E+03 0.  0.
         35    2    3    3    0    0  0.73768108900E+02 -0.99488831817E+02  0.70904030989E+01  0.80976760176E+03  0.80020843129E+03 0.  0.
         22    1    5    5    0    0  0.26480561066E+03 -0.19883058440E+03 -0.29181941951E+03  0.44137760063E+03  0.00000000000E+00 0.  1.
         22    1    5    5    0    0 -0.19103750176E+03  0.99341752585E+02  0.29890982261E+03  0.36839000114E+03  0.00000000000E+00 0.  1.
          5    1    4    4  502    0 -0.95622672828E+02  0.78470688546E+02 -0.97125233379E+02  0.15734276430E+03  0.47000000000E+01 0.  1.
         -5    1    4    4    0  502  0.21854563928E+02  0.21018143271E+02  0.17631421233E+02  0.35388434915E+02  0.47000000000E+01 0.  1.
<mgrwt>
<rscale>  0 0.99988079E+03</rscale>
<asrwt>0</asrwt>
<pdfrwt beam="1">  1        1 0.71545799E-01 0.99988079E+03</pdfrwt>
<pdfrwt beam="2">  1       -1 0.82684786E-01 0.99988079E+03</pdfrwt>
<totfact> 0.84308705E+01</totfact>
</mgrwt>
</event>
<event>
 9    1  0.4388925E-036  0.1000390E+04  0.7818608E-02  0.8680666E-01
          2   -1    0    0  501    0  0.00000000000E+00  0.00000000000E+00  0.11260689428E+04  0.11260689428E+04  0.00000000000E+00 0. -1.
         -2   -1    0    0    0  501 -0.00000000000E+00 -0.00000000000E+00 -0.22218458678E+03  0.22218458678E+03  0.00000000000E+00 0. -1.
         36    2    1    2    0    0  0.00000000000E+00  0.00000000000E+00  0.90388435601E+03  0.13482535296E+04  0.10003902493E+04 0.  0.
         25    2    3    3    0    0  0.80692986035E+02  0.11118406335E+03  0.13241323993E+03  0.22818292375E+03  0.12514362407E+03 0.  0.
         35    2    3    3    0    0 -0.80692986035E+02 -0.11118406335E+03  0.77147111608E+03  0.11200706058E+04  0.80032320041E+03 0.  0.
         22    1    5    5    0    0 -0.12348545066E+03 -0.43613579627E+03  0.29168637480E+03  0.53902136373E+03  0.00000000000E+00 0. -1.
         22    1    5    5    0    0  0.42792464625E+02  0.32495173292E+03  0.47978474127E+03  0.58104924207E+03  0.00000000000E+00 0. -1.
          5    1    4    4  502    0  0.94854483854E+02  0.66730775840E+02  0.36924999926E+02  0.12180277161E+03  0.47000000000E+01 0.  1.
         -5    1    4    4    0  502 -0.14161497819E+02  0.44453287512E+02  0.95488240007E+02  0.10638015215E+03  0.47000000000E+01 0.  1.
<mgrwt>
<rscale>  0 0.10003902E+04</rscale>
<asrwt>0</asrwt>
<pdfrwt beam="1">  1        2 0.17324137E+00 0.10003902E+04</pdfrwt>
<pdfrwt beam="2">  1       -2 0.34182245E-01 0.10003902E+04</pdfrwt>
<totfact> 0.20298979E+02</totfact>
</mgrwt>
</event>
<event>
 9    1  0.4388925E-036  0.1001360E+04  0.7818608E-02  0.8679744E-01
         -2   -1    0    0    0  501 -0.00000000000E+00  0.00000000000E+00  0.14783164822E+03  0.14783164822E+03  0.00000000000E+00 0. -1.
          2   -1    0    0  501    0  0.00000000000E+00 -0.00000000000E+00 -0.16957162921E+04  0.16957162921E+04  0.00000000000E+00 0. -1.
         36    2    1    2    0    0  0.00000000000E+00 -0.14210854715E-13 -0.15478846439E+04  0.18435479403E+04  0.10013601438E+04 0.  0.
         25    2    3    3    0    0  0.32529520772E+02 -0.61190521649E+02 -0.52471127244E+03  0.54381003531E+03  0.12491991604E+03 0.  0.
         35    2    3    3    0    0 -0.32529520772E+02  0.61190521649E+02 -0.10231733715E+04  0.12997379050E+04  0.79851889398E+03 0.  0.
         22    1    5    5    0    0 -0.93406687846E+02 -0.31159043197E+03 -0.17075991004E+03  0.36738583737E+03  0.00000000000E+00 0.  1.
         22    1    5    5    0    0  0.60877167074E+02  0.37278095361E+03 -0.85241346142E+03  0.93235206765E+03  0.00000000000E+00 0.  1.
          5    1    4    4  502    0 -0.31980569920E+02 -0.59661575200E+02 -0.16638351802E+03  0.17968813393E+03  0.47000000000E+01 0.  1.
         -5    1    4    4    0  502  0.64510090691E+02 -0.15289464490E+01 -0.35832775442E+03  0.36412190138E+03  0.47000000000E+01 0.  1.
<mgrwt>
<rscale>  0 0.10013601E+04</rscale>
<asrwt>0</asrwt>
<pdfrwt beam="1">  1        2 0.26087944E+00 0.10013601E+04</pdfrwt>
<pdfrwt beam="2">  1       -2 0.22743329E-01 0.10013601E+04</pdfrwt>
<totfact> 0.19915046E+02</totfact>
</mgrwt>
</event>
<event>
 9    1  0.4388925E-036  0.9999717E+03  0.7818608E-02  0.8681065E-01
          1   -1    0    0  501    0  0.00000000000E+00  0.00000000000E+00  0.70506246553E+03  0.70506246553E+03  0.00000000000E+00 0. -1.
         -1   -1    0    0    0  501 -0.00000000000E+00 -0.00000000000E+00 -0.35455845679E+03  0.35455845679E+03  0.00000000000E+00 0. -1.
         36    2    1    2    0    0  0.28421709430E-13 -0.71054273576E-14  0.35050400874E+03  0.10596209223E+04  0.99997171903E+03 0.  0.
         25    2    3    3    0    0 -0.13736739582E+03 -0.26994221373E+02  0.66022430429E+02  0.19910666903E+03  0.12524382185E+03 0.  0.
         35    2    3    3    0    0  0.13736739582E+03  0.26994221373E+02  0.28448157831E+03  0.86051425328E+03  0.79997282596E+03 0.  0.
         22    1    5    5    0    0 -0.22633516650E+02 -0.20694574573E+03 -0.20673895833E+03  0.29339361725E+03  0.00000000000E+00 0. -1.
         22    1    5    5    0    0  0.16000091247E+03  0.23393996710E+03  0.49122053664E+03  0.56712063603E+03  0.00000000000E+00 0. -1.
          5    1    4    4  502    0 -0.63072178905E+02 -0.51085989410E+02 -0.19069924194E+02  0.83508263511E+02  0.47000000000E+01 0. -1.
         -5    1    4    4    0  502 -0.74295216911E+02  0.24091768038E+02  0.85092354624E+02  0.11559840552E+03  0.47000000000E+01 0. -1.
<mgrwt>
<rscale>  0 0.99997172E+03</rscale>
<asrwt>0</asrwt>
<pdfrwt beam="1">  1        1 0.10847115E+00 0.99997172E+03</pdfrwt>
<pdfrwt beam="2">  1       -1 0.54547455E-01 0.99997172E+03</pdfrwt>
<totfact> 0.10517371E+02</totfact>
</mgrwt>
</event>
<event>
 9    1  0.4388925E-036  0.1000222E+04  0.7818608E-02  0.8680827E-01
          2   -1    0    0  501    0  0.00000000000E+00  0.00000000000E+00  0.70332483315E+03  0.70332483315E+03  0.00000000000E+00 0. -1.
         -2   -1    0    0    0  501 -0.00000000000E+00 -0.00000000000E+00 -0.35561229470E+03  0.35561229470E+03  0.00000000000E+00 0. -1.
         36    2    1    2    0    0  0.14210854715E-13  0.00000000000E+00  0.34771253845E+03  0.10589371279E+04  0.10002218911E+04 0.  0.
         25    2    3    3    0    0  0.11185970217E+03  0.75061356114E+02  0.21558107318E+02  0.18494662437E+03  0.12487474414E+03 0.  0.
         35    2    3    3    0    0 -0.11185970217E+03 -0.75061356114E+02  0.32615443113E+03  0.87399050348E+03  0.79958482169E+03 0.  0.
         22    1    5    5    0    0  0.82603340746E+02 -0.40917624183E+03  0.11264342872E+03  0.43236217551E+03  0.00000000000E+00 0.  1.
         22    1    5    5    0    0 -0.19446304291E+03  0.33411488572E+03  0.21351100241E+03  0.44162832797E+03  0.00000000000E+00 0.  1.
          5    1    4    4  502    0  0.61203697828E+02  0.17459132906E+02  0.69509156557E+02  0.94362740501E+02  0.47000000000E+01 0.  1.
         -5    1    4    4    0  502  0.50656004337E+02  0.57602223207E+02 -0.47951049238E+02  0.90583883869E+02  0.47000000000E+01 0.  1.
<mgrwt>
<rscale>  0 0.10002219E+04</rscale>
<asrwt>0</asrwt>
<pdfrwt beam="1">  1        2 0.10820382E+00 0.10002219E+04</pdfrwt>
<pdfrwt beam="2">  1       -2 0.54709584E-01 0.10002219E+04</pdfrwt>
<totfact> 0.15494145E+02</totfact>
</mgrwt>
</event>
<event>
 9    1  0.4388925E-036  0.1000060E+04  0.7818608E-02  0.8680981E-01
         -2   -1    0    0    0  501 -0.00000000000E+00  0.00000000000E+00  0.37434193516E+03  0.37434193516E+03  0.00000000000E+00 0.  1.
          2   -1    0    0  501    0  0.00000000000E+00 -0.00000000000E+00 -0.66791874460E+03  0.66791874460E+03  0.00000000000E+00 0.  1.
         36    2    1    2    0    0  0.00000000000E+00  0.56843418861E-13 -0.29357680945E+03  0.10422606798E+04  0.10000599890E+04 0.  0.
         25    2    3    3    0    0 -0.93440512916E+02  0.10241230746E+03 -0.97785307096E+02  0.20830521605E+03  0.12087053643E+03 0.  0.
         35    2    3    3    0    0  0.93440512916E+02 -0.10241230746E+03 -0.19579150235E+03  0.83395546371E+03  0.79870394570E+03 0.  0.
         22    1    5    5    0    0 -0.44968957911E+02  0.29550298223E+03  0.10443703492E+03  0.31662487891E+03  0.00000000000E+00 0. -1.
         22    1    5    5    0    0  0.13840947083E+03 -0.39791528969E+03 -0.30022853727E+03  0.51733058480E+03  0.00000000000E+00 0. -1.
          5    1    4    4  502    0 -0.78861957744E+02 -0.13039774444E+00 -0.30390927488E+02  0.84645873239E+02  0.47000000000E+01 0. -1.
         -5    1    4    4    0  502 -0.14578555172E+02  0.10254270521E+03 -0.67394379608E+02  0.12365934281E+03  0.47000000000E+01 0. -1.
<mgrwt>
<rscale>  0 0.10000600E+04</rscale>
<asrwt>0</asrwt>
<pdfrwt beam="1">  1        2 0.10275673E+00 0.10000600E+04</pdfrwt>
<pdfrwt beam="2">  1       -2 0.57591068E-01 0.10000600E+04</pdfrwt>
<totfact> 0.14850946E+02</totfact>
</mgrwt>
</event>
<event>
 9    1  0.4388925E-036  0.9989823E+03  0.7818608E-02  0.8682008E-01
         -2   -1    0    0    0  501 -0.00000000000E+00  0.00000000000E+00  0.23416920329E+03  0.23416920329E+03  0.00000000000E+00 0. -1.
          2   -1    0    0  501    0  0.00000000000E+00 -0.00000000000E+00 -0.10654322270E+04  0.10654322270E+04  0.00000000000E+00 0. -1.
         36    2    1    2    0    0  0.28421709430E-13  0.00000000000E+00 -0.83126302374E+03  0.12996014303E+04  0.99898231368E+03 0.  0.
         25    2    3    3    0    0  0.11457214160E+03  0.75133471818E+02 -0.18774686434E+03  0.26401679638E+03  0.12523645429E+03 0.  0.
         35    2    3    3    0    0 -0.11457214160E+03 -0.75133471818E+02 -0.64351615940E+03  0.10355846339E+04  0.79971912096E+03 0.  0.
         22    1    5    5    0    0 -0.38842910039E+03 -0.18728316616E+03 -0.14334045208E+03  0.45442120941E+03  0.00000000000E+00 0.  1.
         22    1    5    5    0    0  0.27385695879E+03  0.11214969434E+03 -0.50017570731E+03  0.58116342452E+03  0.00000000000E+00 0.  1.
          5    1    4    4  502    0  0.58901049703E+02  0.10631821545E+03 -0.12398484306E+03  0.17368715526E+03  0.47000000000E+01 0. -1.
         -5    1    4    4    0  502  0.55671091899E+02 -0.31184743629E+02 -0.63762021279E+02  0.90329641126E+02  0.47000000000E+01 0. -1.
<mgrwt>
<rscale>  0 0.99898231E+03</rscale>
<asrwt>0</asrwt>
<pdfrwt beam="1">  1        2 0.16391265E+00 0.99898231E+03</pdfrwt>
<pdfrwt beam="2">  1       -2 0.36026030E-01 0.99898231E+03</pdfrwt>
<totfact> 0.20031175E+02</totfact>
</mgrwt>
</event>
<event>
 9    1  0.4388925E-036  0.1000186E+04  0.7818608E-02  0.8680861E-01
          1   -1    0    0  501    0  0.00000000000E+00  0.00000000000E+00  0.25270041022E+03  0.25270041022E+03  0.00000000000E+00 0. -1.
         -1   -1    0    0    0  501 -0.00000000000E+00 -0.00000000000E+00 -0.98968133344E+03  0.98968133344E+03  0.00000000000E+00 0. -1.
         36    2    1    2    0    0  0.14210854715E-13  0.14210854715E-13 -0.73698092322E+03  0.12423817437E+04  0.10001857406E+04 0.  0.
         25    2    3    3    0    0  0.48000680877E+02 -0.36541312028E+02 -0.29451822189E+03  0.32562736597E+03  0.12511141273E+03 0.  0.
         35    2    3    3    0    0 -0.48000680877E+02  0.36541312028E+02 -0.44246270133E+03  0.91675437768E+03  0.80064100200E+03 0.  0.
         22    1    5    5    0    0  0.13609674804E+03 -0.25490662000E+03  0.71699581405E+02  0.29772561146E+03  0.00000000000E+00 0.  1.
         22    1    5    5    0    0 -0.18409742891E+03  0.29144793203E+03 -0.51416228273E+03  0.61902876622E+03  0.00000000000E+00 0.  1.
          5    1    4    4  502    0  0.35768225310E+02  0.36302316813E+02 -0.19499791219E+03  0.20160233110E+03  0.47000000000E+01 0. -1.
         -5    1    4    4    0  502  0.12232455566E+02 -0.72843628840E+02 -0.99520309706E+02  0.12402503488E+03  0.47000000000E+01 0. -1.
<mgrwt>
<rscale>  0 0.10001857E+04</rscale>
<asrwt>0</asrwt>
<pdfrwt beam="1">  1        1 0.38876985E-01 0.10001857E+04</pdfrwt>
<pdfrwt beam="2">  1       -1 0.15225867E+00 0.10001857E+04</pdfrwt>
<totfact> 0.43022205E+01</totfact>
</mgrwt>
</event>
<event>
 9    1  0.4388925E-036  0.9993231E+03  0.7818608E-02  0.8681683E-01
         -2   -1    0    0    0  501 -0.00000000000E+00  0.00000000000E+00  0.20559046368E+03  0.20559046368E+03  0.00000000000E+00 0. -1.
          2   -1    0    0  501    0  0.00000000000E+00 -0.00000000000E+00 -0.12143639599E+04  0.12143639599E+04  0.00000000000E+00 0. -1.
         36    2    1    2    0    0  0.00000000000E+00  0.35527136788E-13 -0.10087734962E+04  0.14199544236E+04  0.99932307006E+03 0.  0.
         25    2    3    3    0    0 -0.23394678003E+02  0.53590862528E+02 -0.36888631409E+03  0.39413729129E+03  0.12588804613E+03 0.  0.
         35    2    3    3    0    0  0.23394678003E+02 -0.53590862528E+02 -0.63988718213E+03  0.10258171323E+04  0.79964110170E+03 0.  0.
         22    1    5    5    0    0  0.25531451784E+03 -0.25685895526E+03 -0.61844229412E+03  0.71668186601E+03  0.00000000000E+00 0.  1.
         22    1    5    5    0    0 -0.23191983984E+03  0.20326809273E+03 -0.21444888016E+02  0.30913526627E+03  0.00000000000E+00 0.  1.
          5    1    4    4  502    0  0.46477277655E+02  0.89395672090E+01 -0.20454015294E+03  0.20999718418E+03  0.47000000000E+01 0. -1.
         -5    1    4    4    0  502 -0.69871955659E+02  0.44651295319E+02 -0.16434616115E+03  0.18414010711E+03  0.47000000000E+01 0. -1.
<mgrwt>
<rscale>  0 0.99932307E+03</rscale>
<asrwt>0</asrwt>
<pdfrwt beam="1">  1        2 0.18682522E+00 0.99932307E+03</pdfrwt>
<pdfrwt beam="2">  1       -2 0.31629302E-01 0.99932307E+03</pdfrwt>
<totfact> 0.20758180E+02</totfact>
</mgrwt>
</event>
<event>
 9    1  0.4388925E-036  0.9996948E+03  0.7818608E-02  0.8681329E-01
          2   -1    0    0  501    0  0.00000000000E+00  0.00000000000E+00  0.10054689523E+04  0.10054689523E+04  0.00000000000E+00 0. -1.
         -2   -1    0    0    0  501 -0.00000000000E+00 -0.00000000000E+00 -0.24848843817E+03  0.24848843817E+03  0.00000000000E+00 0. -1.
         36    2    1    2    0    0 -0.17763568394E-13  0.00000000000E+00  0.75698051418E+03  0.12539573905E+04  0.99969477260E+03 0.  0.
         25    2    3    3    0    0 -0.19507961879E+02 -0.11571155423E+03  0.46847589144E+02  0.17777169236E+03  0.12505340314E+03 0.  0.
         35    2    3    3    0    0  0.19507961879E+02  0.11571155423E+03  0.71013292504E+03  0.10761856982E+04  0.80007322248E+03 0.  0.
         22    1    5    5    0    0 -0.27131372656E+03 -0.80914776783E+02 -0.99808069144E+00  0.28312424037E+03  0.00000000000E+00 0. -1.
         22    1    5    5    0    0  0.29082168844E+03  0.19662633101E+03  0.71113100573E+03  0.79306145778E+03  0.00000000000E+00 0. -1.
          5    1    4    4  502    0 -0.30344548521E+02 -0.12429586858E+03 -0.69793457748E+00  0.12803449412E+03  0.47000000000E+01 0.  1.
         -5    1    4    4    0  502  0.10836586642E+02  0.85843143505E+01  0.47545523722E+02  0.49737198241E+02  0.47000000000E+01 0.  1.
<mgrwt>
<rscale>  0 0.99969477E+03</rscale>
<asrwt>0</asrwt>
<pdfrwt beam="1">  1        2 0.15468753E+00 0.99969477E+03</pdfrwt>
<pdfrwt beam="2">  1       -2 0.38228991E-01 0.99969477E+03</pdfrwt>
<totfact> 0.19509923E+02</totfact>
</mgrwt>
</event>
<event>
 9    1  0.4388925E-036  0.1000714E+04  0.7818608E-02  0.8680358E-01
         -4   -1    0    0    0  501 -0.00000000000E+00  0.00000000000E+00  0.31674200795E+03  0.31674200795E+03  0.00000000000E+00 0. -1.
          4   -1    0    0  501    0  0.00000000000E+00 -0.00000000000E+00 -0.79041312593E+03  0.79041312593E+03  0.00000000000E+00 0. -1.
         36    2    1    2    0    0 -0.14210854715E-13  0.35527136788E-14 -0.47367111799E+03  0.11071551339E+04  0.10007138265E+04 0.  0.
         25    2    3    3    0    0 -0.15461995161E+02 -0.24539684027E+02  0.63953808883E+02  0.14320269578E+03  0.12480245600E+03 0.  0.
         35    2    3    3    0    0  0.15461995161E+02  0.24539684027E+02 -0.53762492687E+03  0.96395243809E+03  0.79957643257E+03 0.  0.
         22    1    5    5    0    0  0.11826172577E+03  0.18890963535E+03 -0.68505230004E+03  0.72039526643E+03  0.00000000000E+00 0. -1.
         22    1    5    5    0    0 -0.10279973061E+03 -0.16436995132E+03  0.14742737317E+03  0.24355717166E+03  0.00000000000E+00 0. -1.
          5    1    4    4  502    0  0.18772277263E+02 -0.23611074623E+02 -0.30176735715E+02  0.42925593961E+02  0.47000000000E+01 0.  1.
         -5    1    4    4    0  502 -0.34234272424E+02 -0.92860940438E+00  0.94130544598E+02  0.10027710182E+03  0.47000000000E+01 0.  1.
<mgrwt>
<rscale>  0 0.10007138E+04</rscale>
<asrwt>0</asrwt>
<pdfrwt beam="1">  1        4 0.12160202E+00 0.10007138E+04</pdfrwt>
<pdfrwt beam="2">  1       -4 0.48729540E-01 0.10007138E+04</pdfrwt>
<totfact> 0.44640195E+00</totfact>
</mgrwt>
</event>
<event>
 9    1  0.4388925E-036  0.1003371E+04  0.7818608E-02  0.8677834E-01
          1   -1    0    0  501    0  0.00000000000E+00  0.00000000000E+00  0.86349699243E+03  0.86349699243E+03  0.00000000000E+00 0.  1.
         -1   -1    0    0    0  501 -0.00000000000E+00 -0.00000000000E+00 -0.29147559301E+03  0.29147559301E+03  0.00000000000E+00 0.  1.
         36    2    1    2    0    0  0.71054273576E-14  0.00000000000E+00  0.57202139942E+03  0.11549725854E+04  0.10033709143E+04 0.  0.
         25    2    3    3    0    0 -0.10667864357E+02  0.11442945693E+03  0.12815385564E+02  0.17130197118E+03  0.12638127741E+03 0.  0.
         35    2    3    3    0    0  0.10667864357E+02 -0.11442945693E+03  0.55920601385E+03  0.98367061425E+03  0.80105468445E+03 0.  0.
         22    1    5    5    0    0  0.17074394814E+03  0.22340993478E+03 -0.33229460130E+02  0.28314252914E+03  0.00000000000E+00 0.  1.
         22    1    5    5    0    0 -0.16007608379E+03 -0.33783939172E+03  0.59243547398E+03  0.70052808511E+03  0.00000000000E+00 0.  1.
          5    1    4    4  502    0 -0.59174509747E+01 -0.11691420528E+02 -0.33895595065E+02  0.36642965284E+02  0.47000000000E+01 0.  1.
         -5    1    4    4    0  502 -0.47504133825E+01  0.12612087746E+03  0.46710980629E+02  0.13465900590E+03  0.47000000000E+01 0.  1.
<mgrwt>
<rscale>  0 0.10033709E+04</rscale>
<asrwt>0</asrwt>
<pdfrwt beam="1">  1        1 0.13284569E+00 0.10033709E+04</pdfrwt>
<pdfrwt beam="2">  1       -1 0.44842399E-01 0.10033709E+04</pdfrwt>
<totfact> 0.10890049E+02</totfact>
</mgrwt>
</event>
<event>
 9    1  0.4388925E-036  0.1000835E+04  0.7818608E-02  0.8680243E-01
          1   -1    0    0  501    0  0.00000000000E+00  0.00000000000E+00  0.53287911168E+03  0.53287911168E+03  0.00000000000E+00 0. -1.
         -1   -1    0    0    0  501 -0.00000000000E+00 -0.00000000000E+00 -0.46993325661E+03  0.46993325661E+03  0.00000000000E+00 0. -1.
         36    2    1    2    0    0  0.71054273576E-14 -0.28421709430E-13  0.62945855066E+02  0.10028123683E+04  0.10008348841E+04 0.  0.
         25    2    3    3    0    0  0.46674227175E+02  0.12709408509E+03  0.51442155923E+02  0.19100855642E+03  0.12452543223E+03 0.  0.
         35    2    3    3    0    0 -0.46674227175E+02 -0.12709408509E+03  0.11503699144E+02  0.81180381187E+03  0.80035098796E+03 0.  0.
         22    1    5    5    0    0 -0.18048398413E+03  0.70219436794E+02  0.34868257781E+03  0.39885433168E+03  0.00000000000E+00 0.  1.
         22    1    5    5    0    0  0.13380975696E+03 -0.19731352189E+03 -0.33717887866E+03  0.41294948019E+03  0.00000000000E+00 0.  1.
          5    1    4    4  502    0  0.74814089362E+02  0.12353907610E+03  0.65908299934E+02  0.15882394433E+03  0.47000000000E+01 0. -1.
         -5    1    4    4    0  502 -0.28139862187E+02  0.35550089875E+01 -0.14466144012E+02  0.32184612090E+02  0.47000000000E+01 0. -1.
<mgrwt>
<rscale>  0 0.10008349E+04</rscale>
<asrwt>0</asrwt>
<pdfrwt beam="1">  1        1 0.81981402E-01 0.10008349E+04</pdfrwt>
<pdfrwt beam="2">  1       -1 0.72297424E-01 0.10008349E+04</pdfrwt>
<totfact> 0.91983241E+01</totfact>
</mgrwt>
</event>
<event>
 9    1  0.4388925E-036  0.1000746E+04  0.7818608E-02  0.8680327E-01
          2   -1    0    0  501    0  0.00000000000E+00  0.00000000000E+00  0.38928035766E+04  0.38928035766E+04  0.00000000000E+00 0.  1.
         -2   -1    0    0    0  501 -0.00000000000E+00 -0.00000000000E+00 -0.64316982215E+02  0.64316982215E+02  0.00000000000E+00 0.  1.
         36    2    1    2    0    0  0.00000000000E+00 -0.28421709430E-13  0.38284865943E+04  0.39571205588E+04  0.10007464782E+04 0.  0.
         25    2    3    3    0    0 -0.10460263756E+03 -0.62478020423E+02  0.97343226143E+03  0.98910376948E+03  0.12613756134E+03 0.  0.
         35    2    3    3    0    0  0.10460263756E+03  0.62478020423E+02  0.28550543329E+04  0.29680167893E+04  0.80183739177E+03 0.  0.
         22    1    5    5    0    0  0.26157836382E+03 -0.19405239331E+03  0.51934166364E+03  0.61302148034E+03  0.00000000000E+00 0. -1.
         22    1    5    5    0    0 -0.15697572625E+03  0.25653041373E+03  0.23357126693E+04  0.23549953090E+04  0.00000000000E+00 0. -1.
          5    1    4    4  502    0 -0.11401675715E+03 -0.35240252749E+02  0.47386087631E+03  0.48867976878E+03  0.47000000000E+01 0.  1.
         -5    1    4    4    0  502  0.94141195877E+01 -0.27237767674E+02  0.49957138512E+03  0.50042400069E+03  0.47000000000E+01 0.  1.
<mgrwt>
<rscale>  0 0.10007465E+04</rscale>
<asrwt>0</asrwt>
<pdfrwt beam="1">  1        2 0.59889267E+00 0.10007465E+04</pdfrwt>
<pdfrwt beam="2">  1       -2 0.98949234E-02 0.10007465E+04</pdfrwt>
<totfact> 0.28524037E+01</totfact>
</mgrwt>
</event>
<event>
 9    1  0.4388925E-036  0.9986092E+03  0.7818608E-02  0.8682364E-01
         -1   -1    0    0    0  501 -0.00000000000E+00  0.00000000000E+00  0.13674388553E+03  0.13674388553E+03  0.00000000000E+00 0. -1.
          1   -1    0    0  501    0  0.00000000000E+00 -0.00000000000E+00 -0.18231533251E+04  0.18231533251E+04  0.00000000000E+00 0. -1.
         36    2    1    2    0    0 -0.71054273576E-14  0.00000000000E+00 -0.16864094395E+04  0.19598972106E+04  0.99860917196E+03 0.  0.
         25    2    3    3    0    0  0.97797261272E+01  0.30788879907E+02 -0.49808577267E+02  0.13872258405E+03  0.12537728178E+03 0.  0.
         35    2    3    3    0    0 -0.97797261272E+01 -0.30788879907E+02 -0.16366008623E+04  0.18211746265E+04  0.79822994169E+03 0.  0.
         22    1    5    5    0    0  0.53005274596E+02 -0.40585191708E+03 -0.98614503500E+03  0.10677112755E+04  0.00000000000E+00 0.  1.
         22    1    5    5    0    0 -0.62785000723E+02  0.37506303717E+03 -0.65045582726E+03  0.75346335106E+03  0.00000000000E+00 0.  1.
          5    1    4    4  502    0  0.46601715234E+02  0.21637156234E+02 -0.76373175170E+02  0.92167446955E+02  0.47000000000E+01 0. -1.
         -5    1    4    4    0  502 -0.36821989107E+02  0.91517236730E+01  0.26564597903E+02  0.46555137093E+02  0.47000000000E+01 0. -1.
<mgrwt>
<rscale>  0 0.99860917E+03</rscale>
<asrwt>0</asrwt>
<pdfrwt beam="1">  1        1 0.28048511E+00 0.99860917E+03</pdfrwt>
<pdfrwt beam="2">  1       -1 0.21037522E-01 0.99860917E+03</pdfrwt>
<totfact> 0.77943444E+01</totfact>
</mgrwt>
</event>
<event>
 9    1  0.4388925E-036  0.9995887E+03  0.7818608E-02  0.8681430E-01
         -2   -1    0    0    0  501 -0.00000000000E+00  0.00000000000E+00  0.81594350431E+03  0.81594350431E+03  0.00000000000E+00 0.  1.
          2   -1    0    0  501    0  0.00000000000E+00 -0.00000000000E+00 -0.30614175477E+03  0.30614175477E+03  0.00000000000E+00 0.  1.
         36    2    1    2    0    0 -0.14210854715E-13  0.14210854715E-13  0.50980174955E+03  0.11220852591E+04  0.99958866781E+03 0.  0.
         25    2    3    3    0    0 -0.56961070086E+02 -0.61224523696E+02  0.22129459283E+03  0.26771210223E+03  0.12532145491E+03 0.  0.
         35    2    3    3    0    0  0.56961070086E+02  0.61224523696E+02  0.28850715672E+03  0.85437315685E+03  0.79982754757E+03 0.  0.
         22    1    5    5    0    0 -0.25677587238E+03  0.28209463772E+03  0.27536132080E+03  0.47046263428E+03  0.00000000000E+00 0.  1.
         22    1    5    5    0    0  0.31373694246E+03 -0.22087011403E+03  0.13145835922E+02  0.38391052257E+03  0.00000000000E+00 0.  1.
          5    1    4    4  502    0 -0.16497894999E+02 -0.83982851554E+02  0.19757523511E+03  0.21536797214E+03  0.47000000000E+01 0.  1.
         -5    1    4    4    0  502 -0.40463175088E+02  0.22758327859E+02  0.23719357721E+02  0.52344130099E+02  0.47000000000E+01 0.  1.
<mgrwt>
<rscale>  0 0.99958867E+03</rscale>
<asrwt>0</asrwt>
<pdfrwt beam="1">  1        2 0.47098732E-01 0.99958867E+03</pdfrwt>
<pdfrwt beam="2">  1       -2 0.12552977E+00 0.99958867E+03</pdfrwt>
<totfact> 0.59058550E+01</totfact>
</mgrwt>
</event>
<event>
 9    1  0.4388925E-036  0.9999278E+03  0.7818608E-02  0.8681107E-01
         -2   -1    0    0    0  501 -0.00000000000E+00  0.00000000000E+00  0.10785195138E+03  0.10785195138E+03  0.00000000000E+00 0.  1.
          2   -1    0    0  501    0  0.00000000000E+00 -0.00000000000E+00 -0.23176574717E+04  0.23176574717E+04  0.00000000000E+00 0.  1.
         36    2    1    2    0    0  0.28421709430E-13  0.14210854715E-13 -0.22098055203E+04  0.24255094231E+04  0.99992775930E+03 0.  0.
         25    2    3    3    0    0  0.13757825176E+03 -0.24415967565E+02 -0.41092070215E+03  0.45174658226E+03  0.12528063017E+03 0.  0.
         35    2    3    3    0    0 -0.13757825176E+03  0.24415967565E+02 -0.17988848182E+04  0.19737628408E+04  0.80014326713E+03 0.  0.
         22    1    5    5    0    0 -0.18143206481E+03 -0.29501186652E+03 -0.14811014185E+04  0.15210558857E+04  0.00000000000E+00 0. -1.
         22    1    5    5    0    0  0.43853813050E+02  0.31942783408E+03 -0.31778339963E+03  0.45270695509E+03  0.00000000000E+00 0. -1.
          5    1    4    4  502    0  0.32506178958E+02 -0.58167442179E+02 -0.23245251142E+03  0.24186021390E+03  0.47000000000E+01 0.  1.
         -5    1    4    4    0  502  0.10507207280E+03  0.33751474615E+02 -0.17846819073E+03  0.20988636836E+03  0.47000000000E+01 0.  1.
<mgrwt>
<rscale>  0 0.99992776E+03</rscale>
<asrwt>0</asrwt>
<pdfrwt beam="1">  1        2 0.35656267E+00 0.99992776E+03</pdfrwt>
<pdfrwt beam="2">  1       -2 0.16592609E-01 0.99992776E+03</pdfrwt>
<totfact> 0.15109758E+02</totfact>
</mgrwt>
</event>
<event>
 9    1  0.4388925E-036  0.9999030E+03  0.7818608E-02  0.8681130E-01
          2   -1    0    0  501    0  0.00000000000E+00  0.00000000000E+00  0.13810271008E+04  0.13810271008E+04  0.00000000000E+00 0. -1.
         -2   -1    0    0    0  501 -0.00000000000E+00 -0.00000000000E+00 -0.18098956783E+03  0.18098956783E+03  0.00000000000E+00 0. -1.
         36    2    1    2    0    0 -0.35527136788E-14  0.00000000000E+00  0.12000375330E+04  0.15620166687E+04  0.99990299158E+03 0.  0.
         25    2    3    3    0    0 -0.29442896327E+02 -0.76852093444E+02  0.47840935703E+02  0.15802551538E+03  0.12613556188E+03 0.  0.
         35    2    3    3    0    0  0.29442896327E+02  0.76852093444E+02  0.11521965973E+04  0.14039911533E+04  0.79803573308E+03 0.  0.
         22    1    5    5    0    0  0.59154113581E+01 -0.36226836168E+03  0.53615528374E+03  0.64709801904E+03  0.00000000000E+00 0.  1.
         22    1    5    5    0    0  0.23527484969E+02  0.43912045512E+03  0.61604131354E+03  0.75689313423E+03  0.00000000000E+00 0.  1.
          5    1    4    4  502    0 -0.42536176408E+02  0.23813556472E+02  0.16530633897E+02  0.51689105547E+02  0.47000000000E+01 0.  1.
         -5    1    4    4    0  502  0.13093280081E+02 -0.10066564992E+03  0.31310301805E+02  0.10633640983E+03  0.47000000000E+01 0.  1.
<mgrwt>
<rscale>  0 0.99990299E+03</rscale>
<asrwt>0</asrwt>
<pdfrwt beam="1">  1        2 0.21246570E+00 0.99990299E+03</pdfrwt>
<pdfrwt beam="2">  1       -2 0.27844550E-01 0.99990299E+03</pdfrwt>
<totfact> 0.20950182E+02</totfact>
</mgrwt>
</event>
<event>
 9    1  0.4388925E-036  0.9999235E+03  0.7818608E-02  0.8681111E-01
         -2   -1    0    0    0  501 -0.00000000000E+00  0.00000000000E+00  0.10084855387E+03  0.10084855387E+03  0.00000000000E+00 0.  1.
          2   -1    0    0  501    0  0.00000000000E+00 -0.00000000000E+00 -0.24785856196E+04  0.24785856196E+04  0.00000000000E+00 0.  1.
         36    2    1    2    0    0  0.14210854715E-13  0.00000000000E+00 -0.23777370657E+04  0.25794341734E+04  0.99992354781E+03 0.  0.
         25    2    3    3    0    0 -0.59799802942E+02  0.97285944677E+02 -0.65489106348E+03  0.67634142543E+03  0.12455860971E+03 0.  0.
         35    2    3    3    0    0  0.59799802942E+02 -0.97285944677E+02 -0.17228460022E+04  0.19030927480E+04  0.80032686366E+03 0.  0.
         22    1    5    5    0    0 -0.14286420729E+03 -0.95342352875E+02 -0.16888820649E+04  0.16975932891E+04  0.00000000000E+00 0. -1.
         22    1    5    5    0    0  0.20266401023E+03 -0.19435918011E+01 -0.33963937342E+02  0.20549945895E+03  0.00000000000E+00 0. -1.
          5    1    4    4  502    0 -0.33941441181E+01  0.77829770485E+02 -0.55053995824E+03  0.55604435885E+03  0.47000000000E+01 0.  1.
         -5    1    4    4    0  502 -0.56405658824E+02  0.19456174191E+02 -0.10435110524E+03  0.12029706658E+03  0.47000000000E+01 0.  1.
<mgrwt>
<rscale>  0 0.99992355E+03</rscale>
<asrwt>0</asrwt>
<pdfrwt beam="1">  1        2 0.38132082E+00 0.99992355E+03</pdfrwt>
<pdfrwt beam="2">  1       -2 0.15515164E-01 0.99992355E+03</pdfrwt>
<totfact> 0.13558021E+02</totfact>
</mgrwt>
</event>
<event>
 9    1  0.4388925E-036  0.9988275E+03  0.7818608E-02  0.8682155E-01
         -2   -1    0    0    0  501 -0.00000000000E+00  0.00000000000E+00  0.28885193834E+03  0.28885193834E+03  0.00000000000E+00 0. -1.
          2   -1    0    0  501    0  0.00000000000E+00 -0.00000000000E+00 -0.86346700320E+03  0.86346700320E+03  0.00000000000E+00 0. -1.
         36    2    1    2    0    0  0.28421709430E-13 -0.35527136788E-14 -0.57461506486E+03  0.11523189415E+04  0.99882754780E+03 0.  0.
         25    2    3    3    0    0 -0.12588188376E+03  0.28270187737E+02 -0.44417845716E+02  0.18487391122E+03  0.12473959218E+03 0.  0.
         35    2    3    3    0    0  0.12588188376E+03 -0.28270187737E+02 -0.53019721914E+03  0.96744503031E+03  0.79887129333E+03 0.  0.
         22    1    5    5    0    0  0.23035024384E+03 -0.26676566016E+03  0.25904828172E+02  0.35340658229E+03  0.00000000000E+00 0. -1.
         22    1    5    5    0    0 -0.10446836008E+03  0.23849547242E+03 -0.55610204732E+03  0.61403844803E+03  0.00000000000E+00 0. -1.
          5    1    4    4  502    0 -0.14115889621E+03 -0.37669254798E+01 -0.22981573266E+02  0.14314421545E+03  0.47000000000E+01 0. -1.
         -5    1    4    4    0  502  0.15277012449E+02  0.32037113217E+02 -0.21436272451E+02  0.41729695772E+02  0.47000000000E+01 0. -1.
<mgrwt>
<rscale>  0 0.99882755E+03</rscale>
<asrwt>0</asrwt>
<pdfrwt beam="1">  1        2 0.13284108E+00 0.99882755E+03</pdfrwt>
<pdfrwt beam="2">  1       -2 0.44438760E-01 0.99882755E+03</pdfrwt>
<totfact> 0.18047743E+02</totfact>
</mgrwt>
</event>
<event>
 9    1  0.4388925E-036  0.1001716E+04  0.7818608E-02  0.8679406E-01
         -2   -1    0    0    0  501 -0.00000000000E+00  0.00000000000E+00  0.28592990022E+03  0.28592990022E+03  0.00000000000E+00 0. -1.
          2   -1    0    0  501    0  0.00000000000E+00 -0.00000000000E+00 -0.87734276744E+03  0.87734276744E+03  0.00000000000E+00 0. -1.
         36    2    1    2    0    0  0.00000000000E+00  0.00000000000E+00 -0.59141286722E+03  0.11632726677E+04  0.10017155883E+04 0.  0.
         25    2    3    3    0    0 -0.33060910539E+02 -0.12358490565E+03 -0.32018888017E+02  0.17802579073E+03  0.11958980001E+03 0.  0.
         35    2    3    3    0    0  0.33060910539E+02  0.12358490565E+03 -0.55939397920E+03  0.98524687693E+03  0.80088921320E+03 0.  0.
         22    1    5    5    0    0  0.10726642520E+03  0.43670089622E+03 -0.47174651627E+03  0.65173501850E+03  0.00000000000E+00 0.  1.
         22    1    5    5    0    0 -0.74205514663E+02 -0.31311599056E+03 -0.87647462932E+02  0.33351185843E+03  0.00000000000E+00 0.  1.
          5    1    4    4  502    0 -0.25008964965E+01 -0.13830529587E+03 -0.37374027003E+02  0.14336497914E+03  0.47000000000E+01 0.  1.
         -5    1    4    4    0  502 -0.30560014042E+02  0.14720390223E+02  0.53551389857E+01  0.34660811591E+02  0.47000000000E+01 0.  1.
<mgrwt>
<rscale>  0 0.10017156E+04</rscale>
<asrwt>0</asrwt>
<pdfrwt beam="1">  1        2 0.13497581E+00 0.10017156E+04</pdfrwt>
<pdfrwt beam="2">  1       -2 0.43989217E-01 0.10017156E+04</pdfrwt>
<totfact> 0.18018845E+02</totfact>
</mgrwt>
</event>
<event>
 9    1  0.4388925E-036  0.1000037E+04  0.7818608E-02  0.8681003E-01
         -1   -1    0    0    0  501 -0.00000000000E+00  0.00000000000E+00  0.75814688375E+03  0.75814688375E+03  0.00000000000E+00 0. -1.
          1   -1    0    0  501    0  0.00000000000E+00 -0.00000000000E+00 -0.32977558232E+03  0.32977558232E+03  0.00000000000E+00 0. -1.
         36    2    1    2    0    0  0.00000000000E+00  0.28421709430E-13  0.42837130143E+03  0.10879224661E+04  0.10000366595E+04 0.  0.
         25    2    3    3    0    0 -0.17148778961E+02  0.13851042893E+03  0.10489708787E+03  0.21386602497E+03  0.12351541625E+03 0.  0.
         35    2    3    3    0    0  0.17148778961E+02 -0.13851042893E+03  0.32347421355E+03  0.87405644109E+03  0.79991241761E+03 0.  0.
         22    1    5    5    0    0  0.19583335776E+03 -0.26197213759E+03  0.49774622569E+03  0.59559332608E+03  0.00000000000E+00 0. -1.
         22    1    5    5    0    0 -0.17868457879E+03  0.12346170866E+03 -0.17427201214E+03  0.27846311501E+03  0.00000000000E+00 0. -1.
          5    1    4    4  502    0 -0.26808265632E+02  0.59299461313E+02 -0.17614014351E+02  0.67582932163E+02  0.47000000000E+01 0.  1.
         -5    1    4    4    0  502  0.96594866703E+01  0.79210967616E+02  0.12251110223E+03  0.14628309281E+03  0.47000000000E+01 0.  1.
<mgrwt>
<rscale>  0 0.10000367E+04</rscale>
<asrwt>0</asrwt>
<pdfrwt beam="1">  1        1 0.50734705E-01 0.10000367E+04</pdfrwt>
<pdfrwt beam="2">  1       -1 0.11663798E+00 0.10000367E+04</pdfrwt>
<totfact> 0.61801425E+01</totfact>
</mgrwt>
</event>
<event>
 9    1  0.4388925E-036  0.9985477E+03  0.7818608E-02  0.8682422E-01
          1   -1    0    0  501    0  0.00000000000E+00  0.00000000000E+00  0.49406230509E+03  0.49406230509E+03  0.00000000000E+00 0. -1.
         -1   -1    0    0    0  501 -0.00000000000E+00 -0.00000000000E+00 -0.50454040186E+03  0.50454040186E+03  0.00000000000E+00 0. -1.
         36    2    1    2    0    0  0.14210854715E-13  0.28421709430E-13 -0.10478096772E+02  0.99860270695E+03  0.99854773337E+03 0.  0.
         25    2    3    3    0    0  0.64981504954E+02  0.26277561267E+02  0.11774613536E+03  0.18559025739E+03  0.12516583013E+03 0.  0.
         35    2    3    3    0    0 -0.64981504954E+02 -0.26277561267E+02 -0.12822423213E+03  0.81301244957E+03  0.79977164443E+03 0.  0.
         22    1    5    5    0    0 -0.11321396740E+03 -0.39451712253E+03 -0.15943400405E+03  0.44031848023E+03  0.00000000000E+00 0.  1.
         22    1    5    5    0    0  0.48232462444E+02  0.36823956127E+03  0.31209771917E+02  0.37269396934E+03  0.00000000000E+00 0.  1.
          5    1    4    4  502    0  0.26215762021E+02 -0.38575118551E+02  0.95989699595E+02  0.10682424059E+03  0.47000000000E+01 0.  1.
         -5    1    4    4    0  502  0.38765742932E+02  0.64852679818E+02  0.21756435764E+02  0.78766016795E+02  0.47000000000E+01 0.  1.
<mgrwt>
<rscale>  0 0.99854773E+03</rscale>
<asrwt>0</asrwt>
<pdfrwt beam="1">  1        1 0.76009585E-01 0.99854773E+03</pdfrwt>
<pdfrwt beam="2">  1       -1 0.77621600E-01 0.99854773E+03</pdfrwt>
<totfact> 0.88517655E+01</totfact>
</mgrwt>
</event>
<event>
 9    1  0.4388925E-036  0.1000183E+04  0.7818608E-02  0.8680864E-01
         -2   -1    0    0    0  501 -0.00000000000E+00  0.00000000000E+00  0.24177058291E+03  0.24177058291E+03  0.00000000000E+00 0.  1.
          2   -1    0    0  501    0  0.00000000000E+00 -0.00000000000E+00 -0.10344158426E+04  0.10344158426E+04  0.00000000000E+00 0.  1.
         36    2    1    2    0    0 -0.28421709430E-13  0.00000000000E+00 -0.79264525965E+03  0.12761864255E+04  0.10001826258E+04 0.  0.
         25    2    3    3    0    0  0.84340395786E+02 -0.50526743290E+02 -0.16093983340E+02  0.15878001919E+03  0.12363585258E+03 0.  0.
         35    2    3    3    0    0 -0.84340395786E+02  0.50526743290E+02 -0.77655127631E+03  0.11174064063E+04  0.79743271685E+03 0.  0.
         22    1    5    5    0    0 -0.42664764396E+03 -0.69036584671E+02 -0.33992723321E+03  0.54985887826E+03  0.00000000000E+00 0.  1.
         22    1    5    5    0    0  0.34230724818E+03  0.11956332796E+03 -0.43662404310E+03  0.56754752802E+03  0.00000000000E+00 0.  1.
          5    1    4    4  502    0  0.67355333723E+02 -0.44375301747E+02  0.46665039911E+02  0.93303935265E+02  0.47000000000E+01 0.  1.
         -5    1    4    4    0  502  0.16985062063E+02 -0.61514415426E+01 -0.62759023250E+02  0.65476083921E+02  0.47000000000E+01 0.  1.
<mgrwt>
<rscale>  0 0.10001826E+04</rscale>
<asrwt>0</asrwt>
<pdfrwt beam="1">  1        2 0.15914090E+00 0.10001826E+04</pdfrwt>
<pdfrwt beam="2">  1       -2 0.37195475E-01 0.10001826E+04</pdfrwt>
<totfact> 0.19712014E+02</totfact>
</mgrwt>
</event>
<event>
 9    1  0.4388925E-036  0.1000250E+04  0.7818608E-02  0.8680800E-01
         -1   -1    0    0    0  501 -0.00000000000E+00  0.00000000000E+00  0.31632010059E+03  0.31632010059E+03  0.00000000000E+00 0.  1.
          1   -1    0    0  501    0  0.00000000000E+00 -0.00000000000E+00 -0.79073420095E+03  0.79073420095E+03  0.00000000000E+00 0.  1.
         36    2    1    2    0    0  0.00000000000E+00  0.10658141036E-13 -0.47441410036E+03  0.11070543015E+04  0.10002502127E+04 0.  0.
         25    2    3    3    0    0  0.10006459623E+03  0.82292196694E+01  0.18628751797E+02  0.16206390044E+03  0.12584527786E+03 0.  0.
         35    2    3    3    0    0 -0.10006459623E+03 -0.82292196694E+01 -0.49304285215E+03  0.94499040110E+03  0.79989684375E+03 0.  0.
         22    1    5    5    0    0  0.69423185197E+01  0.24207249411E+03 -0.60422136142E+03  0.65094603600E+03  0.00000000000E+00 0.  1.
         22    1    5    5    0    0 -0.10700691475E+03 -0.25030171378E+03  0.11117850926E+03  0.29404436510E+03  0.00000000000E+00 0.  1.
          5    1    4    4  502    0  0.34071618924E+02 -0.29273294502E+02  0.60304930022E+02  0.75343052580E+02  0.47000000000E+01 0. -1.
         -5    1    4    4    0  502  0.65992977307E+02  0.37502514171E+02 -0.41676178225E+02  0.86720847865E+02  0.47000000000E+01 0. -1.
<mgrwt>
<rscale>  0 0.10002502E+04</rscale>
<asrwt>0</asrwt>
<pdfrwt beam="1">  1        1 0.12165141E+00 0.10002502E+04</pdfrwt>
<pdfrwt beam="2">  1       -1 0.48664631E-01 0.10002502E+04</pdfrwt>
<totfact> 0.10851055E+02</totfact>
</mgrwt>
</event>
<event>
 9    1  0.4388925E-036  0.1000632E+04  0.7818608E-02  0.8680437E-01
         -2   -1    0    0    0  501 -0.00000000000E+00  0.00000000000E+00  0.66041549766E+02  0.66041549766E+02  0.00000000000E+00 0. -1.
          2   -1    0    0  501    0  0.00000000000E+00 -0.00000000000E+00 -0.37902785580E+04  0.37902785580E+04  0.00000000000E+00 0. -1.
         36    2    1    2    0    0  0.42632564146E-13  0.00000000000E+00 -0.37242370082E+04  0.38563201077E+04  0.10006315406E+04 0.  0.
         25    2    3    3    0    0 -0.28771268928E+02 -0.58939453847E+02 -0.11771629744E+04  0.11855331392E+04  0.12439658645E+03 0.  0.
         35    2    3    3    0    0  0.28771268928E+02  0.58939453847E+02 -0.25470740339E+04  0.26707869686E+04  0.80075917258E+03 0.  0.
         22    1    5    5    0    0  0.35808398336E+03 -0.13293050073E+03 -0.85692255920E+03  0.93819557110E+03  0.00000000000E+00 0. -1.
         22    1    5    5    0    0 -0.32931271443E+03  0.19186995458E+03 -0.16901514747E+04  0.17325913975E+04  0.00000000000E+00 0. -1.
          5    1    4    4  502    0  0.17364946395E+02 -0.39318917299E+02 -0.12690964823E+03  0.13407336587E+03  0.47000000000E+01 0. -1.
         -5    1    4    4    0  502 -0.46136215323E+02 -0.19620536548E+02 -0.10502533261E+04  0.10514597733E+04  0.47000000000E+01 0. -1.
<mgrwt>
<rscale>  0 0.10006315E+04</rscale>
<asrwt>0</asrwt>
<pdfrwt beam="1">  1        2 0.58311976E+00 0.10006315E+04</pdfrwt>
<pdfrwt beam="2">  1       -2 0.10160239E-01 0.10006315E+04</pdfrwt>
<totfact> 0.33236543E+01</totfact>
</mgrwt>
</event>
<event>
 9    1  0.4388925E-036  0.1001359E+04  0.7818608E-02  0.8679745E-01
          2   -1    0    0  501    0  0.00000000000E+00  0.00000000000E+00  0.93081066662E+03  0.93081066662E+03  0.00000000000E+00 0.  1.
         -2   -1    0    0    0  501 -0.00000000000E+00 -0.00000000000E+00 -0.26931338378E+03  0.26931338378E+03  0.00000000000E+00 0.  1.
         36    2    1    2    0    0  0.00000000000E+00 -0.28421709430E-13  0.66149728284E+03  0.12001240504E+04  0.10013586176E+04 0.  0.
         25    2    3    3    0    0  0.68005645078E+02  0.12240329940E+03  0.17371528312E+03  0.25299833181E+03  0.11926366102E+03 0.  0.
         35    2    3    3    0    0 -0.68005645078E+02 -0.12240329940E+03  0.48778199972E+03  0.94712571859E+03  0.79969276107E+03 0.  0.
         22    1    5    5    0    0 -0.26898686291E+02 -0.31371518023E+03 -0.97807584290E+02  0.32970756312E+03  0.00000000000E+00 0. -1.
         22    1    5    5    0    0 -0.41106958787E+02  0.19131188083E+03  0.58558958401E+03  0.61741815547E+03  0.00000000000E+00 0. -1.
          5    1    4    4  502    0  0.72712439893E+02  0.70726923991E+02  0.17334078021E+03  0.20089428259E+03  0.47000000000E+01 0. -1.
         -5    1    4    4    0  502 -0.47067948153E+01  0.51676375409E+02  0.37450291602E+00  0.52104049221E+02  0.47000000000E+01 0. -1.
<mgrwt>
<rscale>  0 0.10013586E+04</rscale>
<asrwt>0</asrwt>
<pdfrwt beam="1">  1        2 0.14320164E+00 0.10013586E+04</pdfrwt>
<pdfrwt beam="2">  1       -2 0.41432829E-01 0.10013586E+04</pdfrwt>
<totfact> 0.18662673E+02</totfact>
</mgrwt>
</event>
<event>
 9    1  0.4388925E-036  0.9978443E+03  0.7818608E-02  0.8683094E-01
          2   -1    0    0  501    0  0.00000000000E+00  0.00000000000E+00  0.14576830284E+04  0.14576830284E+04  0.00000000000E+00 0. -1.
         -2   -1    0    0    0  501 -0.00000000000E+00 -0.00000000000E+00 -0.17076641674E+03  0.17076641674E+03  0.00000000000E+00 0. -1.
         36    2    1    2    0    0  0.00000000000E+00  0.00000000000E+00  0.12869166117E+04  0.16284494451E+04  0.99784429147E+03 0.  0.
         25    2    3    3    0    0  0.44732014304E+01  0.43982998443E+02  0.45364289972E+03  0.47263547925E+03  0.12505159777E+03 0.  0.
         35    2    3    3    0    0 -0.44732014304E+01 -0.43982998443E+02  0.83327371195E+03  0.11558139659E+04  0.79975391905E+03 0.  0.
         22    1    5    5    0    0  0.27163667966E+03  0.29980290124E+02  0.82582832195E+03  0.86987224399E+03  0.00000000000E+00 0.  1.
         22    1    5    5    0    0 -0.27610988109E+03 -0.73963288567E+02  0.74453899945E+01  0.28594172190E+03  0.00000000000E+00 0.  1.
          5    1    4    4  502    0  0.39304003896E+02 -0.26488971991E+01  0.45628848550E+02  0.60464065350E+02  0.47000000000E+01 0. -1.
         -5    1    4    4    0  502 -0.34830802466E+02  0.46631895642E+02  0.40801405116E+03  0.41217141390E+03  0.47000000000E+01 0. -1.
<mgrwt>
<rscale>  0 0.99784429E+03</rscale>
<asrwt>0</asrwt>
<pdfrwt beam="1">  1        2 0.22425892E+00 0.99784429E+03</pdfrwt>
<pdfrwt beam="2">  1       -2 0.26271757E-01 0.99784429E+03</pdfrwt>
<totfact> 0.21026885E+02</totfact>
</mgrwt>
</event>
<event>
 9    1  0.4388925E-036  0.9981883E+03  0.7818608E-02  0.8682765E-01
          2   -1    0    0  501    0  0.00000000000E+00  0.00000000000E+00  0.15657357424E+04  0.15657357424E+04  0.00000000000E+00 0.  1.
         -2   -1    0    0    0  501 -0.00000000000E+00 -0.00000000000E+00 -0.15909132476E+03  0.15909132476E+03  0.00000000000E+00 0.  1.
         36    2    1    2    0    0  0.71054273576E-14  0.00000000000E+00  0.14066444176E+04  0.17248270672E+04  0.99818830585E+03 0.  0.
         25    2    3    3    0    0 -0.10036295452E+02  0.10343231031E+03  0.42389841319E+03  0.45387258773E+03  0.12454513697E+03 0.  0.
         35    2    3    3    0    0  0.10036295452E+02 -0.10343231031E+03  0.98274600446E+03  0.12709544794E+04  0.79920999086E+03 0.  0.
         22    1    5    5    0    0 -0.20652097542E+03 -0.34822912558E+03  0.26941330634E+03  0.48631056623E+03  0.00000000000E+00 0. -1.
         22    1    5    5    0    0  0.21655727087E+03  0.24479681527E+03  0.71333269812E+03  0.78464391321E+03  0.00000000000E+00 0. -1.
          5    1    4    4  502    0 -0.61323466948E+02  0.62197056599E+02  0.31143325424E+03  0.32348385322E+03  0.47000000000E+01 0.  1.
         -5    1    4    4    0  502  0.51287171496E+02  0.41235253708E+02  0.11246515895E+03  0.13038873451E+03  0.47000000000E+01 0.  1.
<mgrwt>
<rscale>  0 0.99818831E+03</rscale>
<asrwt>0</asrwt>
<pdfrwt beam="1">  1        2 0.24088241E+00 0.99818831E+03</pdfrwt>
<pdfrwt beam="2">  1       -2 0.24475590E-01 0.99818831E+03</pdfrwt>
<totfact> 0.20714922E+02</totfact>
</mgrwt>
</event>
<event>
 9    1  0.4388925E-036  0.1004233E+04  0.7818608E-02  0.8677017E-01
         -1   -1    0    0    0  501 -0.00000000000E+00  0.00000000000E+00  0.23909433742E+03  0.23909433742E+03  0.00000000000E+00 0. -1.
          1   -1    0    0  501    0  0.00000000000E+00 -0.00000000000E+00 -0.10544839387E+04  0.10544839387E+04  0.00000000000E+00 0. -1.
         36    2    1    2    0    0 -0.28421709430E-13 -0.28421709430E-13 -0.81538960129E+03  0.12935782761E+04  0.10042333168E+04 0.  0.
         25    2    3    3    0    0  0.54661447767E+02 -0.12937584797E+03 -0.11087749666E+03  0.21825408246E+03  0.12496015900E+03 0.  0.
         35    2    3    3    0    0 -0.54661447767E+02  0.12937584797E+03 -0.70451210464E+03  0.10753241937E+04  0.80016175366E+03 0.  0.
         22    1    5    5    0    0 -0.32582438990E+03  0.32724261559E+03 -0.30458572029E+03  0.55319230247E+03  0.00000000000E+00 0. -1.
         22    1    5    5    0    0  0.27116294213E+03 -0.19786676763E+03 -0.39992638435E+03  0.52213189121E+03  0.00000000000E+00 0. -1.
          5    1    4    4  502    0  0.52482658141E+02 -0.28581977597E+01 -0.64658126831E+02  0.83458744690E+02  0.47000000000E+01 0.  1.
         -5    1    4    4    0  502  0.21787896262E+01 -0.12651765021E+03 -0.46219369826E+02  0.13479533777E+03  0.47000000000E+01 0.  1.
<mgrwt>
<rscale>  0 0.10042333E+04</rscale>
<asrwt>0</asrwt>
<pdfrwt beam="1">  1        1 0.16222830E+00 0.10042333E+04</pdfrwt>
<pdfrwt beam="2">  1       -1 0.36783744E-01 0.10042333E+04</pdfrwt>
<totfact> 0.10858505E+02</totfact>
</mgrwt>
</event>
<event>
 9    1  0.4388925E-036  0.9997086E+03  0.7818608E-02  0.8681316E-01
          2   -1    0    0  501    0  0.00000000000E+00  0.00000000000E+00  0.22104697174E+04  0.22104697174E+04  0.00000000000E+00 0. -1.
         -2   -1    0    0    0  501 -0.00000000000E+00 -0.00000000000E+00 -0.11303222197E+03  0.11303222197E+03  0.00000000000E+00 0. -1.
         36    2    1    2    0    0  0.42632564146E-13  0.00000000000E+00  0.20974374954E+04  0.23235019393E+04  0.99970856505E+03 0.  0.
         25    2    3    3    0    0 -0.66294179082E+02 -0.10514147036E+03  0.24226264770E+03  0.29955979283E+03  0.12488087140E+03 0.  0.
         35    2    3    3    0    0  0.66294179082E+02  0.10514147036E+03  0.18551748477E+04  0.20239421465E+04  0.79951138198E+03 0.  0.
         22    1    5    5    0    0  0.39350463060E+03  0.23315947132E+03  0.10789988487E+04  0.11719418709E+04  0.00000000000E+00 0.  1.
         22    1    5    5    0    0 -0.32721045151E+03 -0.12801800096E+03  0.77617599902E+03  0.85200027559E+03  0.00000000000E+00 0.  1.
          5    1    4    4  502    0 -0.10280928506E+03 -0.84384259852E+02  0.19580806952E+03  0.23675587108E+03  0.47000000000E+01 0. -1.
         -5    1    4    4    0  502  0.36515105980E+02 -0.20757210509E+02  0.46454578182E+02  0.62803921748E+02  0.47000000000E+01 0. -1.
<mgrwt>
<rscale>  0 0.99970857E+03</rscale>
<asrwt>0</asrwt>
<pdfrwt beam="1">  1        2 0.34007223E+00 0.99970857E+03</pdfrwt>
<pdfrwt beam="2">  1       -2 0.17389574E-01 0.99970857E+03</pdfrwt>
<totfact> 0.16125912E+02</totfact>
</mgrwt>
</event>
<event>
 9    1  0.4388925E-036  0.9993954E+03  0.7818608E-02  0.8681614E-01
          1   -1    0    0  501    0  0.00000000000E+00  0.00000000000E+00  0.26777407752E+04  0.26777407752E+04  0.00000000000E+00 0.  1.
         -1   -1    0    0    0  501 -0.00000000000E+00 -0.00000000000E+00 -0.93249424027E+02  0.93249424027E+02  0.00000000000E+00 0.  1.
         36    2    1    2    0    0 -0.71054273576E-14  0.00000000000E+00  0.25844913512E+04  0.27709901992E+04  0.99939538718E+03 0.  0.
         25    2    3    3    0    0  0.53194497214E+02 -0.13637593914E+03  0.47799929252E+03  0.51305911271E+03  0.11540484469E+03 0.  0.
         35    2    3    3    0    0 -0.53194497214E+02  0.13637593914E+03  0.21064920586E+04  0.22579310865E+04  0.79969740962E+03 0.  0.
         22    1    5    5    0    0  0.28757631044E+02  0.44963644309E+03  0.87000394138E+03  0.97974833009E+03  0.00000000000E+00 0. -1.
         22    1    5    5    0    0 -0.81952128258E+02 -0.31326050395E+03  0.12364881172E+04  0.12781827564E+04  0.00000000000E+00 0. -1.
          5    1    4    4  502    0  0.71725501480E+02 -0.13804150477E+03  0.34243568871E+03  0.37614398241E+03  0.47000000000E+01 0. -1.
         -5    1    4    4    0  502 -0.18531004266E+02  0.16655656296E+01  0.13556360381E+03  0.13691513030E+03  0.47000000000E+01 0. -1.
<mgrwt>
<rscale>  0 0.99939539E+03</rscale>
<asrwt>0</asrwt>
<pdfrwt beam="1">  1        1 0.41196006E+00 0.99939539E+03</pdfrwt>
<pdfrwt beam="2">  1       -1 0.14346067E-01 0.99939539E+03</pdfrwt>
<totfact> 0.36593575E+01</totfact>
</mgrwt>
</event>
<event>
 9    1  0.4388925E-036  0.9998421E+03  0.7818608E-02  0.8681188E-01
         -1   -1    0    0    0  501 -0.00000000000E+00  0.00000000000E+00  0.35966116920E+03  0.35966116920E+03  0.00000000000E+00 0. -1.
          1   -1    0    0  501    0  0.00000000000E+00 -0.00000000000E+00 -0.69487914789E+03  0.69487914789E+03  0.00000000000E+00 0. -1.
         36    2    1    2    0    0 -0.17763568394E-13  0.71054273576E-14 -0.33521797869E+03  0.10545403171E+04  0.99984208110E+03 0.  0.
         25    2    3    3    0    0 -0.34622002274E+01  0.26073092210E+02 -0.20394400860E+03  0.24237984248E+03  0.12830836462E+03 0.  0.
         35    2    3    3    0    0  0.34622002274E+01 -0.26073092210E+02 -0.13127397009E+03  0.81216047460E+03  0.80104930455E+03 0.  0.
         22    1    5    5    0    0  0.39106803249E+03 -0.10680864956E+03 -0.58183675912E+02  0.40954564312E+03  0.00000000000E+00 0. -1.
         22    1    5    5    0    0 -0.38760583226E+03  0.80735557353E+02 -0.73090294175E+02  0.40261483148E+03  0.00000000000E+00 0. -1.
          5    1    4    4  502    0 -0.28211540582E+02 -0.27281366536E+00  0.60592714197E+01  0.29236453606E+02  0.47000000000E+01 0. -1.
         -5    1    4    4    0  502  0.24749340355E+02  0.26345905876E+02 -0.21000328002E+03  0.21314338888E+03  0.47000000000E+01 0. -1.
<mgrwt>
<rscale>  0 0.99984208E+03</rscale>
<asrwt>0</asrwt>
<pdfrwt beam="1">  1        1 0.10690448E+00 0.99984208E+03</pdfrwt>
<pdfrwt beam="2">  1       -1 0.55332487E-01 0.99984208E+03</pdfrwt>
<totfact> 0.10469604E+02</totfact>
</mgrwt>
</event>
<event>
 9    1  0.4388925E-036  0.9997034E+03  0.7818608E-02  0.8681320E-01
         -1   -1    0    0    0  501 -0.00000000000E+00  0.00000000000E+00  0.10403449998E+04  0.10403449998E+04  0.00000000000E+00 0.  1.
          1   -1    0    0  501    0  0.00000000000E+00 -0.00000000000E+00 -0.24016236292E+03  0.24016236292E+03  0.00000000000E+00 0.  1.
         36    2    1    2    0    0  0.00000000000E+00 -0.14210854715E-13  0.80018263690E+03  0.12805073627E+04  0.99970338282E+03 0.  0.
         25    2    3    3    0    0 -0.11426000382E+02  0.11903314729E+03  0.57194281467E+02  0.18219220395E+03  0.12499347866E+03 0.  0.
         35    2    3    3    0    0  0.11426000382E+02 -0.11903314729E+03  0.74298835543E+03  0.10983151588E+04  0.79997815474E+03 0.  0.
         22    1    5    5    0    0 -0.50019131451E+02 -0.36701836193E+02 -0.16927487439E+03  0.18028566607E+03  0.00000000000E+00 0.  1.
         22    1    5    5    0    0  0.61445131833E+02 -0.82331311101E+02  0.91226322982E+03  0.91802949271E+03  0.00000000000E+00 0.  1.
          5    1    4    4  502    0  0.17574017182E+02  0.41875405807E+02  0.83816394364E+02  0.95444610406E+02  0.47000000000E+01 0. -1.
         -5    1    4    4    0  502 -0.29000017564E+02  0.77157741486E+02 -0.26622112897E+02  0.86747593541E+02  0.47000000000E+01 0. -1.
<mgrwt>
<rscale>  0 0.99970338E+03</rscale>
<asrwt>0</asrwt>
<pdfrwt beam="1">  1        1 0.36948056E-01 0.99970338E+03</pdfrwt>
<pdfrwt beam="2">  1       -1 0.16005307E+00 0.99970338E+03</pdfrwt>
<totfact> 0.39549794E+01</totfact>
</mgrwt>
</event>
<event>
 9    1  0.4388925E-036  0.1000071E+04  0.7818608E-02  0.8680970E-01
          2   -1    0    0  501    0  0.00000000000E+00  0.00000000000E+00  0.40866141707E+03  0.40866141707E+03  0.00000000000E+00 0. -1.
         -2   -1    0    0    0  501 -0.00000000000E+00 -0.00000000000E+00 -0.61184014293E+03  0.61184014293E+03  0.00000000000E+00 0. -1.
         36    2    1    2    0    0  0.00000000000E+00 -0.28421709430E-13 -0.20317872587E+03  0.10205015600E+04  0.10000709171E+04 0.  0.
         25    2    3    3    0    0  0.16017586936E+02 -0.11261355439E+03  0.51020836400E+02  0.17686744094E+03  0.12546150882E+03 0.  0.
         35    2    3    3    0    0 -0.16017586936E+02  0.11261355439E+03 -0.25419956227E+03  0.84363411906E+03  0.79634335162E+03 0.  0.
         22    1    5    5    0    0  0.66937048385E+01  0.43127838522E+03  0.63626121782E+01  0.43137725262E+03  0.00000000000E+00 0.  1.
         22    1    5    5    0    0 -0.22711291774E+02 -0.31866483083E+03 -0.26056217445E+03  0.41225686645E+03  0.00000000000E+00 0.  1.
          5    1    4    4  502    0  0.35413418958E+02 -0.21150493808E+02 -0.31468755376E+02  0.52094396969E+02  0.47000000000E+01 0.  1.
         -5    1    4    4    0  502 -0.19395832022E+02 -0.91463060581E+02  0.82489591775E+02  0.12477304397E+03  0.47000000000E+01 0.  1.
<mgrwt>
<rscale>  0 0.10000709E+04</rscale>
<asrwt>0</asrwt>
<pdfrwt beam="1">  1        2 0.62870987E-01 0.10000709E+04</pdfrwt>
<pdfrwt beam="2">  1       -2 0.94129253E-01 0.10000709E+04</pdfrwt>
<totfact> 0.88135916E+01</totfact>
</mgrwt>
</event>
<event>
 9    1  0.4388925E-036  0.9990204E+03  0.7818608E-02  0.8681971E-01
          2   -1    0    0  501    0  0.00000000000E+00  0.00000000000E+00  0.10624407090E+04  0.10624407090E+04  0.00000000000E+00 0. -1.
         -2   -1    0    0    0  501 -0.00000000000E+00 -0.00000000000E+00 -0.23484647072E+03  0.23484647072E+03  0.00000000000E+00 0. -1.
         36    2    1    2    0    0 -0.14210854715E-13  0.00000000000E+00  0.82759423825E+03  0.12972871797E+04  0.99902042192E+03 0.  0.
         25    2    3    3    0    0  0.11378377472E+03 -0.82468118634E+02  0.16187096059E+03  0.24614063340E+03  0.12097630160E+03 0.  0.
         35    2    3    3    0    0 -0.11378377472E+03  0.82468118634E+02  0.66572327766E+03  0.10511465463E+04  0.80123270115E+03 0.  0.
         22    1    5    5    0    0  0.34116692464E+02 -0.16480770187E+03  0.73564542394E+03  0.75465205033E+03  0.00000000000E+00 0. -1.
         22    1    5    5    0    0 -0.14790046718E+03  0.24727582051E+03 -0.69922146277E+02  0.29649449597E+03  0.00000000000E+00 0. -1.
          5    1    4    4  502    0 -0.63192731971E+01  0.44552599607E+01  0.72295924798E+02  0.72859956749E+02  0.47000000000E+01 0. -1.
         -5    1    4    4    0  502  0.12010304791E+03 -0.86923378595E+02  0.89575035793E+02  0.17328067665E+03  0.47000000000E+01 0. -1.
<mgrwt>
<rscale>  0 0.99902042E+03</rscale>
<asrwt>0</asrwt>
<pdfrwt beam="1">  1        2 0.16345241E+00 0.99902042E+03</pdfrwt>
<pdfrwt beam="2">  1       -2 0.36130227E-01 0.99902042E+03</pdfrwt>
<totfact> 0.20007331E+02</totfact>
</mgrwt>
</event>
<event>
 9    1  0.4388925E-036  0.1000102E+04  0.7818608E-02  0.8680941E-01
          2   -1    0    0  501    0  0.00000000000E+00  0.00000000000E+00  0.23113393665E+04  0.23113393665E+04  0.00000000000E+00 0. -1.
         -2   -1    0    0    0  501 -0.00000000000E+00 -0.00000000000E+00 -0.10818443268E+03  0.10818443268E+03  0.00000000000E+00 0. -1.
         36    2    1    2    0    0  0.71054273576E-14  0.00000000000E+00  0.22031549338E+04  0.24195237992E+04  0.10001018710E+04 0.  0.
         25    2    3    3    0    0 -0.57399210728E+02 -0.12501258004E+03  0.35800127024E+03  0.40311323213E+03  0.12414730711E+03 0.  0.
         35    2    3    3    0    0  0.57399210728E+02  0.12501258004E+03  0.18451536636E+04  0.20164105670E+04  0.80149654902E+03 0.  0.
         22    1    5    5    0    0  0.67272126287E+02  0.43478825340E+03  0.14436294253E+04  0.15091826536E+04  0.00000000000E+00 0. -1.
         22    1    5    5    0    0 -0.98729155591E+01 -0.30977567336E+03  0.40152423825E+03  0.50722791344E+03  0.00000000000E+00 0. -1.
          5    1    4    4  502    0 -0.49463692118E+02 -0.10063348936E+03  0.12236328420E+03  0.16603800571E+03  0.47000000000E+01 0.  1.
         -5    1    4    4    0  502 -0.79355186105E+01 -0.24379090675E+02  0.23563798603E+03  0.23707522642E+03  0.47000000000E+01 0.  1.
<mgrwt>
<rscale>  0 0.10001019E+04</rscale>
<asrwt>0</asrwt>
<pdfrwt beam="1">  1        2 0.35559064E+00 0.10001019E+04</pdfrwt>
<pdfrwt beam="2">  1       -2 0.16643760E-01 0.10001019E+04</pdfrwt>
<totfact> 0.15160754E+02</totfact>
</mgrwt>
</event>
<event>
 9    1  0.4388925E-036  0.9995656E+03  0.7818608E-02  0.8681452E-01
          2   -1    0    0  501    0  0.00000000000E+00  0.00000000000E+00  0.10541474814E+04  0.10541474814E+04  0.00000000000E+00 0. -1.
         -2   -1    0    0    0  501 -0.00000000000E+00 -0.00000000000E+00 -0.23695247780E+03  0.23695247780E+03  0.00000000000E+00 0. -1.
         36    2    1    2    0    0  0.71054273576E-14 -0.28421709430E-13  0.81719500359E+03  0.12910999592E+04  0.99956562103E+03 0.  0.
         25    2    3    3    0    0 -0.59711022799E+02  0.11051288418E+03  0.23085931798E+03  0.29112975198E+03  0.12522780831E+03 0.  0.
         35    2    3    3    0    0  0.59711022799E+02 -0.11051288418E+03  0.58633568561E+03  0.99997020722E+03  0.80023270071E+03 0.  0.
         22    1    5    5    0    0 -0.11318271852E+03 -0.27699543530E+03 -0.64663335169E+02  0.30613419585E+03  0.00000000000E+00 0. -1.
         22    1    5    5    0    0  0.17289374132E+03  0.16648255112E+03  0.65099902078E+03  0.69383601137E+03  0.00000000000E+00 0. -1.
          5    1    4    4  502    0 -0.71203665565E+02  0.82153592650E+01  0.71459598320E+02  0.10132136157E+03  0.47000000000E+01 0. -1.
         -5    1    4    4    0  502  0.11492642766E+02  0.10229752492E+03  0.15939971966E+03  0.18980839041E+03  0.47000000000E+01 0. -1.
<mgrwt>
<rscale>  0 0.99956562E+03</rscale>
<asrwt>0</asrwt>
<pdfrwt beam="1">  1        2 0.16217653E+00 0.99956562E+03</pdfrwt>
<pdfrwt beam="2">  1       -2 0.36454228E-01 0.99956562E+03</pdfrwt>
<totfact> 0.19906954E+02</totfact>
</mgrwt>
</event>
<event>
 9    1  0.4388925E-036  0.1000168E+04  0.7818608E-02  0.8680878E-01
          2   -1    0    0  501    0  0.00000000000E+00  0.00000000000E+00  0.14372497546E+04  0.14372497546E+04  0.00000000000E+00 0. -1.
         -2   -1    0    0    0  501 -0.00000000000E+00 -0.00000000000E+00 -0.17400185439E+03  0.17400185439E+03  0.00000000000E+00 0. -1.
         36    2    1    2    0    0  0.14210854715E-13  0.00000000000E+00  0.12632479002E+04  0.16112516090E+04  0.10001682309E+04 0.  0.
         25    2    3    3    0    0 -0.10942229666E+03 -0.84032141929E+02  0.25079471122E+03  0.31240871105E+03  0.12516619224E+03 0.  0.
         35    2    3    3    0    0  0.10942229666E+03  0.84032141929E+02  0.10124531890E+04  0.12988428980E+04  0.80180843957E+03 0.  0.
         22    1    5    5    0    0 -0.11724103885E+03 -0.24743908133E+03  0.82615461898E+02  0.28600152920E+03  0.00000000000E+00 0.  1.
         22    1    5    5    0    0  0.22666333551E+03  0.33147122326E+03  0.92983772710E+03  0.10128413688E+04  0.00000000000E+00 0.  1.
          5    1    4    4  502    0 -0.39148909020E+02 -0.58575373163E+02  0.25632435621E+02  0.75118727190E+02  0.47000000000E+01 0. -1.
         -5    1    4    4    0  502 -0.70273387642E+02 -0.25456768766E+02  0.22516227560E+03  0.23728998386E+03  0.47000000000E+01 0. -1.
<mgrwt>
<rscale>  0 0.10001682E+04</rscale>
<asrwt>0</asrwt>
<pdfrwt beam="1">  1        2 0.22111534E+00 0.10001682E+04</pdfrwt>
<pdfrwt beam="2">  1       -2 0.26769517E-01 0.10001682E+04</pdfrwt>
<totfact> 0.20883825E+02</totfact>
</mgrwt>
</event>
<event>
 9    1  0.4388925E-036  0.1000376E+04  0.7818608E-02  0.8680680E-01
         -1   -1    0    0    0  501 -0.00000000000E+00  0.00000000000E+00  0.43114402896E+03  0.43114402896E+03  0.00000000000E+00 0. -1.
          1   -1    0    0  501    0  0.00000000000E+00 -0.00000000000E+00 -0.58028900895E+03  0.58028900895E+03  0.00000000000E+00 0. -1.
         36    2    1    2    0    0  0.14210854715E-13 -0.14210854715E-13 -0.14914498000E+03  0.10114330379E+04  0.10003762118E+04 0.  0.
         25    2    3    3    0    0 -0.91314926302E+02  0.66844918585E+02  0.55997294762E+02  0.17810957619E+03  0.12562111766E+03 0.  0.
         35    2    3    3    0    0  0.91314926302E+02 -0.66844918585E+02 -0.20514227476E+03  0.83332346172E+03  0.79971118541E+03 0.  0.
         22    1    5    5    0    0  0.13438305033E+03 -0.30568436075E+03 -0.40073694148E+03  0.52162422192E+03  0.00000000000E+00 0. -1.
         22    1    5    5    0    0 -0.43068124027E+02  0.23883944217E+03  0.19559466673E+03  0.31169923980E+03  0.00000000000E+00 0. -1.
          5    1    4    4  502    0  0.22207375245E+02  0.49080459271E+02  0.17453291346E+02  0.56822234876E+02  0.47000000000E+01 0.  1.
         -5    1    4    4    0  502 -0.11352230155E+03  0.17764459314E+02  0.38544003416E+02  0.12128734131E+03  0.47000000000E+01 0.  1.
<mgrwt>
<rscale>  0 0.10003762E+04</rscale>
<asrwt>0</asrwt>
<pdfrwt beam="1">  1        1 0.89275232E-01 0.10003762E+04</pdfrwt>
<pdfrwt beam="2">  1       -1 0.66329851E-01 0.10003762E+04</pdfrwt>
<totfact> 0.96602345E+01</totfact>
</mgrwt>
</event>
<event>
 9    1  0.4388925E-036  0.1000412E+04  0.7818608E-02  0.8680646E-01
         -2   -1    0    0    0  501 -0.00000000000E+00  0.00000000000E+00  0.82495166388E+03  0.82495166388E+03  0.00000000000E+00 0.  1.
          2   -1    0    0  501    0  0.00000000000E+00 -0.00000000000E+00 -0.30329760060E+03  0.30329760060E+03  0.00000000000E+00 0.  1.
         36    2    1    2    0    0 -0.28421709430E-13  0.71054273576E-14  0.52165406328E+03  0.11282492645E+04  0.10004116358E+04 0.  0.
         25    2    3    3    0    0 -0.13745748793E+03 -0.32262828146E+02  0.12909752101E+03  0.22842988455E+03  0.12481422659E+03 0.  0.
         35    2    3    3    0    0  0.13745748793E+03  0.32262828146E+02  0.39255654227E+03  0.89981937993E+03  0.79726960719E+03 0.  0.
         22    1    5    5    0    0  0.40038719224E+03 -0.10459128777E+03  0.43498533273E+03  0.60038444424E+03  0.00000000000E+00 0.  1.
         22    1    5    5    0    0 -0.26292970431E+03  0.13685411592E+03 -0.42428790462E+02  0.29943493569E+03  0.00000000000E+00 0.  1.
          5    1    4    4  502    0 -0.42474176214E+02 -0.29489260413E+02  0.12251471920E+03  0.13306246107E+03  0.47000000000E+01 0.  1.
         -5    1    4    4    0  502 -0.94983311713E+02 -0.27735677332E+01  0.65828018036E+01  0.95367423482E+02  0.47000000000E+01 0.  1.
<mgrwt>
<rscale>  0 0.10004116E+04</rscale>
<asrwt>0</asrwt>
<pdfrwt beam="1">  1        2 0.46661170E-01 0.10004116E+04</pdfrwt>
<pdfrwt beam="2">  1       -2 0.12691564E+00 0.10004116E+04</pdfrwt>
<totfact> 0.57969141E+01</totfact>
</mgrwt>
</event>
<event>
 9    1  0.4388925E-036  0.1010801E+04  0.7818608E-02  0.8670819E-01
         -2   -1    0    0    0  501 -0.00000000000E+00  0.00000000000E+00  0.80004035329E+02  0.80004035329E+02  0.00000000000E+00 0.  1.
          2   -1    0    0  501    0  0.00000000000E+00 -0.00000000000E+00 -0.31927118090E+04  0.31927118090E+04  0.00000000000E+00 0.  1.
         36    2    1    2    0    0  0.00000000000E+00 -0.28421709430E-13 -0.31127077736E+04  0.32727158443E+04  0.10108013224E+04 0.  0.
         25    2    3    3    0    0  0.35228254180E+02 -0.67761624441E+02 -0.18024532950E+03  0.23240064566E+03  0.12525579292E+03 0.  0.
         35    2    3    3    0    0 -0.35228254180E+02  0.67761624441E+02 -0.29324624441E+04  0.30403151986E+04  0.79896674092E+03 0.  0.
         22    1    5    5    0    0 -0.11940286404E+03 -0.22253299409E+03 -0.30706417250E+03  0.39757563234E+03  0.00000000000E+00 0. -1.
         22    1    5    5    0    0  0.84174609861E+02  0.29029461853E+03 -0.26253982716E+04  0.26427395663E+04  0.00000000000E+00 0. -1.
          5    1    4    4  502    0  0.59915709650E+02 -0.93204923322E+02 -0.13857688738E+03  0.17748998200E+03  0.47000000000E+01 0.  1.
         -5    1    4    4    0  502 -0.24687455470E+02  0.25443298881E+02 -0.41668442119E+02  0.54910663666E+02  0.47000000000E+01 0.  1.
<mgrwt>
<rscale>  0 0.10108013E+04</rscale>
<asrwt>0</asrwt>
<pdfrwt beam="1">  1        2 0.49118642E+00 0.10108013E+04</pdfrwt>
<pdfrwt beam="2">  1       -2 0.12308313E-01 0.10108013E+04</pdfrwt>
<totfact> 0.68644496E+01</totfact>
</mgrwt>
</event>
<event>
 9    1  0.4388925E-036  0.1002926E+04  0.7818608E-02  0.8678257E-01
         -2   -1    0    0    0  501 -0.00000000000E+00  0.00000000000E+00  0.12133808836E+03  0.12133808836E+03  0.00000000000E+00 0. -1.
          2   -1    0    0  501    0  0.00000000000E+00 -0.00000000000E+00 -0.20724326064E+04  0.20724326064E+04  0.00000000000E+00 0. -1.
         36    2    1    2    0    0 -0.33750779949E-13  0.00000000000E+00 -0.19510945180E+04  0.21937706947E+04  0.10029257414E+04 0.  0.
         25    2    3    3    0    0 -0.11623909341E+02  0.33857143164E+02 -0.67284874367E+03  0.68525120254E+03  0.12474917758E+03 0.  0.
         35    2    3    3    0    0  0.11623909341E+02 -0.33857143164E+02 -0.12782457743E+04  0.15085194922E+04  0.80027331412E+03 0.  0.
         22    1    5    5    0    0 -0.32080173271E+03  0.14284109268E+03 -0.93610917787E+03  0.99980884291E+03  0.00000000000E+00 0.  1.
         22    1    5    5    0    0  0.33242564206E+03 -0.17669823584E+03 -0.34213659647E+03  0.50871064928E+03  0.00000000000E+00 0.  1.
          5    1    4    4  502    0  0.28455198558E+01 -0.37475303574E+02 -0.43054945562E+03  0.43221223848E+03  0.47000000000E+01 0. -1.
         -5    1    4    4    0  502 -0.14469429197E+02  0.71332446738E+02 -0.24229928805E+03  0.25303896405E+03  0.47000000000E+01 0. -1.
<mgrwt>
<rscale>  0 0.10029257E+04</rscale>
<asrwt>0</asrwt>
<pdfrwt beam="1">  1        2 0.31883581E+00 0.10029257E+04</pdfrwt>
<pdfrwt beam="2">  1       -2 0.18667397E-01 0.10029257E+04</pdfrwt>
<totfact> 0.17161955E+02</totfact>
</mgrwt>
</event>
<event>
 9    1  0.4388925E-036  0.1000134E+04  0.7818608E-02  0.8680910E-01
          1   -1    0    0  501    0  0.00000000000E+00  0.00000000000E+00  0.87817976925E+03  0.87817976925E+03  0.00000000000E+00 0. -1.
         -1   -1    0    0    0  501 -0.00000000000E+00 -0.00000000000E+00 -0.28475624806E+03  0.28475624806E+03  0.00000000000E+00 0. -1.
         36    2    1    2    0    0 -0.14210854715E-13 -0.14210854715E-13  0.59342352119E+03  0.11629360173E+04  0.10001343434E+04 0.  0.
         25    2    3    3    0    0 -0.53992061839E+02 -0.91064655170E+02  0.21773098955E+03  0.27253425181E+03  0.12514080244E+03 0.  0.
         35    2    3    3    0    0  0.53992061839E+02  0.91064655170E+02  0.37569253164E+03  0.89040176550E+03  0.80028901749E+03 0.  0.
         22    1    5    5    0    0  0.29837682875E+03  0.16845599860E+03  0.49949655753E+03  0.60572515746E+03  0.00000000000E+00 0. -1.
         22    1    5    5    0    0 -0.24438476691E+03 -0.77391343425E+02 -0.12380402589E+03  0.28467660804E+03  0.00000000000E+00 0. -1.
          5    1    4    4  502    0 -0.54446133044E+02 -0.22680214926E+01  0.15318133279E+03  0.16265342308E+03  0.47000000000E+01 0. -1.
         -5    1    4    4    0  502  0.45407120572E+00 -0.88796633678E+02  0.64549656759E+02  0.10988082872E+03  0.47000000000E+01 0. -1.
<mgrwt>
<rscale>  0 0.10001343E+04</rscale>
<asrwt>0</asrwt>
<pdfrwt beam="1">  1        1 0.13510458E+00 0.10001343E+04</pdfrwt>
<pdfrwt beam="2">  1       -1 0.43808654E-01 0.10001343E+04</pdfrwt>
<totfact> 0.11042645E+02</totfact>
</mgrwt>
</event>
<event>
 9    1  0.4388925E-036  0.9923908E+03  0.7818608E-02  0.8688318E-01
         -2   -1    0    0    0  501 -0.00000000000E+00  0.00000000000E+00  0.13102866737E+03  0.13102866737E+03  0.00000000000E+00 0.  1.
          2   -1    0    0  501    0  0.00000000000E+00 -0.00000000000E+00 -0.18790535751E+04  0.18790535751E+04  0.00000000000E+00 0.  1.
         36    2    1    2    0    0 -0.28421709430E-13 -0.10658141036E-13 -0.17480249077E+04  0.20100822424E+04  0.99239082191E+03 0.  0.
         25    2    3    3    0    0 -0.10213673951E+03 -0.79907421992E+01 -0.15349694829E+03  0.22304675202E+03  0.12527080640E+03 0.  0.
         35    2    3    3    0    0  0.10213673951E+03  0.79907421992E+01 -0.15945279594E+04  0.17870354904E+04  0.80030035932E+03 0.  0.
         22    1    5    5    0    0 -0.19379264440E+03 -0.14233447032E+03 -0.10744744745E+03  0.26336219248E+03  0.00000000000E+00 0. -1.
         22    1    5    5    0    0  0.29592938391E+03  0.15032521252E+03 -0.14870805120E+04  0.15236732979E+04  0.00000000000E+00 0. -1.
          5    1    4    4  502    0 -0.29696460367E+01  0.25531569366E+02  0.10722523024E+02  0.28244332739E+02  0.47000000000E+01 0.  1.
         -5    1    4    4    0  502 -0.99167093470E+02 -0.33522311565E+02 -0.16421947132E+03  0.19480241928E+03  0.47000000000E+01 0.  1.
<mgrwt>
<rscale>  0 0.99239082E+03</rscale>
<asrwt>0</asrwt>
<pdfrwt beam="1">  1        2 0.28908513E+00 0.99239082E+03</pdfrwt>
<pdfrwt beam="2">  1       -2 0.20158259E-01 0.99239082E+03</pdfrwt>
<totfact> 0.19368563E+02</totfact>
</mgrwt>
</event>
<event>
 9    1  0.4388925E-036  0.1000477E+04  0.7818608E-02  0.8680584E-01
          1   -1    0    0  501    0  0.00000000000E+00  0.00000000000E+00  0.61266084713E+03  0.61266084713E+03  0.00000000000E+00 0. -1.
         -1   -1    0    0    0  501 -0.00000000000E+00 -0.00000000000E+00 -0.40844511569E+03  0.40844511569E+03  0.00000000000E+00 0. -1.
         36    2    1    2    0    0 -0.28421709430E-13  0.00000000000E+00  0.20421573145E+03  0.10211059628E+04  0.10004765476E+04 0.  0.
         25    2    3    3    0    0  0.11215500355E+03 -0.69431747707E+02 -0.12893524013E+02  0.18207103774E+03  0.12483632248E+03 0.  0.
         35    2    3    3    0    0 -0.11215500355E+03  0.69431747707E+02  0.21710925546E+03  0.83903492508E+03  0.79965221459E+03 0.  0.
         22    1    5    5    0    0 -0.14733303538E+03 -0.18158197752E+03  0.44208985763E+03  0.50012246510E+03  0.00000000000E+00 0. -1.
         22    1    5    5    0    0  0.35178031827E+02  0.25101372523E+03 -0.22498060218E+03  0.33891245998E+03  0.00000000000E+00 0. -1.
          5    1    4    4  502    0  0.31982865378E+00  0.27688516476E+02  0.14118146482E+02  0.31435144267E+02  0.47000000000E+01 0.  1.
         -5    1    4    4    0  502  0.11183517490E+03 -0.97120264183E+02 -0.27011670494E+02  0.15063589347E+03  0.47000000000E+01 0.  1.
<mgrwt>
<rscale>  0 0.10004765E+04</rscale>
<asrwt>0</asrwt>
<pdfrwt beam="1">  1        1 0.94255515E-01 0.10004765E+04</pdfrwt>
<pdfrwt beam="2">  1       -1 0.62837710E-01 0.10004765E+04</pdfrwt>
<totfact> 0.99160487E+01</totfact>
</mgrwt>
</event>
<event>
 9    1  0.4388925E-036  0.9996597E+03  0.7818608E-02  0.8681362E-01
         -2   -1    0    0    0  501 -0.00000000000E+00  0.00000000000E+00  0.10631155885E+03  0.10631155885E+03  0.00000000000E+00 0. -1.
          2   -1    0    0  501    0  0.00000000000E+00 -0.00000000000E+00 -0.23499785343E+04  0.23499785343E+04  0.00000000000E+00 0. -1.
         36    2    1    2    0    0  0.00000000000E+00  0.14210854715E-13 -0.22436669754E+04  0.24562900931E+04  0.99965970459E+03 0.  0.
         25    2    3    3    0    0 -0.66044829348E+02  0.11859624113E+03 -0.44568240648E+03  0.48225826404E+03  0.12455214927E+03 0.  0.
         35    2    3    3    0    0  0.66044829348E+02 -0.11859624113E+03 -0.17979845689E+04  0.19740318291E+04  0.80350865846E+03 0.  0.
         22    1    5    5    0    0 -0.21386257181E+03  0.33152947429E+02 -0.15640083718E+04  0.15789105435E+04  0.00000000000E+00 0. -1.
         22    1    5    5    0    0  0.27990740116E+03 -0.15174918856E+03 -0.23397619719E+03  0.39512128556E+03  0.00000000000E+00 0. -1.
          5    1    4    4  502    0 -0.98482125854E+02  0.10144178118E+03 -0.29590970256E+03  0.32798446022E+03  0.47000000000E+01 0. -1.
         -5    1    4    4    0  502  0.32437296507E+02  0.17154459948E+02 -0.14977270393E+03  0.15427380381E+03  0.47000000000E+01 0. -1.
<mgrwt>
<rscale>  0 0.99965970E+03</rscale>
<asrwt>0</asrwt>
<pdfrwt beam="1">  1        2 0.36153515E+00 0.99965970E+03</pdfrwt>
<pdfrwt beam="2">  1       -2 0.16355625E-01 0.99965970E+03</pdfrwt>
<totfact> 0.14814890E+02</totfact>
</mgrwt>
</event>
<event>
 9    1  0.4388925E-036  0.1001279E+04  0.7818608E-02  0.8679821E-01
         -1   -1    0    0    0  501 -0.00000000000E+00  0.00000000000E+00  0.55000359680E+03  0.55000359680E+03  0.00000000000E+00 0.  1.
          1   -1    0    0  501    0  0.00000000000E+00 -0.00000000000E+00 -0.45570595168E+03  0.45570595168E+03  0.00000000000E+00 0.  1.
         36    2    1    2    0    0  0.00000000000E+00 -0.71054273576E-14  0.94297645126E+02  0.10057095485E+04  0.10012790071E+04 0.  0.
         25    2    3    3    0    0  0.13722611445E+03 -0.10133431548E+02 -0.10545357927E+02  0.18622192616E+03  0.12503482830E+03 0.  0.
         35    2    3    3    0    0 -0.13722611445E+03  0.10133431548E+02  0.10484300305E+03  0.81948762232E+03  0.80102073314E+03 0.  0.
         22    1    5    5    0    0  0.30260408815E+03 -0.43618009829E+02  0.20124337901E+03  0.36602003025E+03  0.00000000000E+00 0.  1.
         22    1    5    5    0    0 -0.43983020260E+03  0.53751441377E+02 -0.96400375961E+02  0.45346759207E+03  0.00000000000E+00 0.  1.
          5    1    4    4  502    0  0.42360309023E+02  0.55836954713E+02 -0.57159558860E+01  0.70476403454E+02  0.47000000000E+01 0. -1.
         -5    1    4    4    0  502  0.94865805427E+02 -0.65970386262E+02 -0.48294020407E+01  0.11574552271E+03  0.47000000000E+01 0. -1.
<mgrwt>
<rscale>  0 0.10012790E+04</rscale>
<asrwt>0</asrwt>
<pdfrwt beam="1">  1        1 0.70108607E-01 0.10012790E+04</pdfrwt>
<pdfrwt beam="2">  1       -1 0.84615939E-01 0.10012790E+04</pdfrwt>
<totfact> 0.82519888E+01</totfact>
</mgrwt>
</event>
<event>
 9    1  0.4388925E-036  0.1000018E+04  0.7818608E-02  0.8681020E-01
         -2   -1    0    0    0  501 -0.00000000000E+00  0.00000000000E+00  0.12835621183E+03  0.12835621183E+03  0.00000000000E+00 0.  1.
          2   -1    0    0  501    0  0.00000000000E+00 -0.00000000000E+00 -0.19477763533E+04  0.19477763533E+04  0.00000000000E+00 0.  1.
         36    2    1    2    0    0 -0.28421709430E-13  0.00000000000E+00 -0.18194201415E+04  0.20761325652E+04  0.10000183882E+04 0.  0.
         25    2    3    3    0    0 -0.11561385827E+03  0.80901963914E+02 -0.31835897820E+03  0.36978930152E+03  0.12441863418E+03 0.  0.
         35    2    3    3    0    0  0.11561385827E+03 -0.80901963914E+02 -0.15010611633E+04  0.17063432637E+04  0.79906884898E+03 0.  0.
         22    1    5    5    0    0 -0.21262277757E+03 -0.35850157073E+02 -0.13021986931E+04  0.13199299662E+04  0.00000000000E+00 0. -1.
         22    1    5    5    0    0  0.32823663585E+03 -0.45051806841E+02 -0.19886247024E+03  0.38641329749E+03  0.00000000000E+00 0. -1.
          5    1    4    4  502    0 -0.73037953967E+00  0.23561638853E+02  0.24948892841E+01  0.24166066131E+02  0.47000000000E+01 0. -1.
         -5    1    4    4    0  502 -0.11488347873E+03  0.57340325061E+02 -0.32085386748E+03  0.34562323539E+03  0.47000000000E+01 0. -1.
<mgrwt>
<rscale>  0 0.10000184E+04</rscale>
<asrwt>0</asrwt>
<pdfrwt beam="1">  1        2 0.29965791E+00 0.10000184E+04</pdfrwt>
<pdfrwt beam="2">  1       -2 0.19747109E-01 0.10000184E+04</pdfrwt>
<totfact> 0.18348655E+02</totfact>
</mgrwt>
</event>
<event>
 9    1  0.4388925E-036  0.9973654E+03  0.7818608E-02  0.8683551E-01
          2   -1    0    0  501    0  0.00000000000E+00  0.00000000000E+00  0.52617059477E+03  0.52617059477E+03  0.00000000000E+00 0. -1.
         -2   -1    0    0    0  501 -0.00000000000E+00 -0.00000000000E+00 -0.47263077861E+03  0.47263077861E+03  0.00000000000E+00 0. -1.
         36    2    1    2    0    0  0.21316282073E-13 -0.28421709430E-13  0.53539816159E+02  0.99880137338E+03  0.99736536513E+03 0.  0.
         25    2    3    3    0    0 -0.17166979604E+02  0.12540181326E+03 -0.40890695725E+02  0.18364677205E+03  0.12662451551E+03 0.  0.
         35    2    3    3    0    0  0.17166979604E+02 -0.12540181326E+03  0.94430511884E+02  0.81515460134E+03  0.79971218732E+03 0.  0.
         22    1    5    5    0    0  0.34819815600E+03 -0.22559914390E+03  0.19000108627E+03  0.45633029962E+03  0.00000000000E+00 0.  1.
         22    1    5    5    0    0 -0.33103117640E+03  0.10019733063E+03 -0.95570574389E+02  0.35882430171E+03  0.00000000000E+00 0.  1.
          5    1    4    4  502    0  0.33152153144E+02  0.10055471923E+03 -0.62831182842E+02  0.12320780964E+03  0.47000000000E+01 0. -1.
         -5    1    4    4    0  502 -0.50319132748E+02  0.24847094030E+02  0.21940487117E+02  0.60438962410E+02  0.47000000000E+01 0. -1.
<mgrwt>
<rscale>  0 0.99736537E+03</rscale>
<asrwt>0</asrwt>
<pdfrwt beam="1">  1        2 0.80949322E-01 0.99736537E+03</pdfrwt>
<pdfrwt beam="2">  1       -2 0.72712428E-01 0.99736537E+03</pdfrwt>
<totfact> 0.11992297E+02</totfact>
</mgrwt>
</event>
<event>
 9    1  0.4388925E-036  0.1000164E+04  0.7818608E-02  0.8680882E-01
          1   -1    0    0  501    0  0.00000000000E+00  0.00000000000E+00  0.36084581253E+03  0.36084581253E+03  0.00000000000E+00 0.  1.
         -1   -1    0    0    0  501 -0.00000000000E+00 -0.00000000000E+00 -0.69304385617E+03  0.69304385617E+03  0.00000000000E+00 0.  1.
         36    2    1    2    0    0  0.00000000000E+00 -0.14210854715E-13 -0.33219804363E+03  0.10538896687E+04  0.10001639334E+04 0.  0.
         25    2    3    3    0    0 -0.62677618697E+02 -0.10937148080E+03 -0.12745238534E+03  0.21841484760E+03  0.12478113008E+03 0.  0.
         35    2    3    3    0    0  0.62677618697E+02  0.10937148080E+03 -0.20474565829E+03  0.83547482110E+03  0.80012923169E+03 0.  0.
         22    1    5    5    0    0  0.19786326461E+03  0.17802179432E+03  0.24444909411E+03  0.36138205592E+03  0.00000000000E+00 0. -1.
         22    1    5    5    0    0 -0.13518564591E+03 -0.68650313515E+02 -0.44919475240E+03  0.47409276518E+03  0.00000000000E+00 0. -1.
          5    1    4    4  502    0 -0.31462289203E+02 -0.12833838344E+03 -0.68519440951E+02  0.14892152327E+03  0.47000000000E+01 0. -1.
         -5    1    4    4    0  502 -0.31215329494E+02  0.18966902639E+02 -0.58932944389E+02  0.69493324323E+02  0.47000000000E+01 0. -1.
<mgrwt>
<rscale>  0 0.10001639E+04</rscale>
<asrwt>0</asrwt>
<pdfrwt beam="1">  1        1 0.55514741E-01 0.10001639E+04</pdfrwt>
<pdfrwt beam="2">  1       -1 0.10662213E+00 0.10001639E+04</pdfrwt>
<totfact> 0.67892303E+01</totfact>
</mgrwt>
</event>
<event>
 9    1  0.4388925E-036  0.9998017E+03  0.7818608E-02  0.8681227E-01
         -1   -1    0    0    0  501 -0.00000000000E+00  0.00000000000E+00  0.20101362741E+03  0.20101362741E+03  0.00000000000E+00 0.  1.
          1   -1    0    0  501    0  0.00000000000E+00 -0.00000000000E+00 -0.12432034756E+04  0.12432034756E+04  0.00000000000E+00 0.  1.
         36    2    1    2    0    0  0.00000000000E+00  0.28421709430E-13 -0.10421898481E+04  0.14442171030E+04  0.99980166079E+03 0.  0.
         25    2    3    3    0    0  0.84081991765E+02  0.84900434695E+02 -0.29934080412E+03  0.34592048291E+03  0.12561129860E+03 0.  0.
         35    2    3    3    0    0 -0.84081991765E+02 -0.84900434695E+02 -0.74284904403E+03  0.10982966201E+04  0.80009555570E+03 0.  0.
         22    1    5    5    0    0  0.16165100319E+02 -0.70108723733E+02  0.16751388303E+03  0.18231139465E+03  0.00000000000E+00 0.  1.
         22    1    5    5    0    0 -0.10024709208E+03 -0.14791710962E+02 -0.91036292706E+03  0.91598522540E+03  0.00000000000E+00 0.  1.
          5    1    4    4  502    0  0.10946730895E+03  0.67837513087E+02 -0.28292136313E+03  0.31088841668E+03  0.47000000000E+01 0. -1.
         -5    1    4    4    0  502 -0.25385317181E+02  0.17062921608E+02 -0.16419440990E+02  0.35032066233E+02  0.47000000000E+01 0. -1.
<mgrwt>
<rscale>  0 0.99980166E+03</rscale>
<asrwt>0</asrwt>
<pdfrwt beam="1">  1        1 0.19126207E+00 0.99980166E+03</pdfrwt>
<pdfrwt beam="2">  1       -1 0.30925174E-01 0.99980166E+03</pdfrwt>
<totfact> 0.10563871E+02</totfact>
</mgrwt>
</event>
<event>
 9    1  0.4388925E-036  0.9999289E+03  0.7818608E-02  0.8681106E-01
          2   -1    0    0  501    0  0.00000000000E+00  0.00000000000E+00  0.60926447521E+03  0.60926447521E+03  0.00000000000E+00 0. -1.
         -2   -1    0    0    0  501 -0.00000000000E+00 -0.00000000000E+00 -0.41027249114E+03  0.41027249114E+03  0.00000000000E+00 0. -1.
         36    2    1    2    0    0 -0.71054273576E-14 -0.14210854715E-13  0.19899198407E+03  0.10195369664E+04  0.99992890549E+03 0.  0.
         25    2    3    3    0    0  0.10384108568E+02  0.86720530403E+02  0.14819769702E+03  0.21256529252E+03  0.12487259939E+03 0.  0.
         35    2    3    3    0    0 -0.10384108568E+02 -0.86720530403E+02  0.50794287046E+02  0.80697167383E+03  0.80062159768E+03 0.  0.
         22    1    5    5    0    0  0.49273262292E+02 -0.14863143088E+03 -0.35720146879E+03  0.39001544319E+03  0.00000000000E+00 0.  1.
         22    1    5    5    0    0 -0.59657370860E+02  0.61910900472E+02  0.40799575583E+03  0.41695623064E+03  0.00000000000E+00 0.  1.
          5    1    4    4  502    0  0.63332622185E+02  0.39543924133E+02  0.10654420687E+03  0.13018640861E+03  0.47000000000E+01 0.  1.
         -5    1    4    4    0  502 -0.52948513617E+02  0.47176606270E+02  0.41653490151E+02  0.82378883915E+02  0.47000000000E+01 0.  1.
<mgrwt>
<rscale>  0 0.99992891E+03</rscale>
<asrwt>0</asrwt>
<pdfrwt beam="1">  1        2 0.93732996E-01 0.99992891E+03</pdfrwt>
<pdfrwt beam="2">  1       -2 0.63118845E-01 0.99992891E+03</pdfrwt>
<totfact> 0.13695669E+02</totfact>
</mgrwt>
</event>
<event>
 9    1  0.4388925E-036  0.1001754E+04  0.7818608E-02  0.8679370E-01
          2   -1    0    0  501    0  0.00000000000E+00  0.00000000000E+00  0.11804191174E+04  0.11804191174E+04  0.00000000000E+00 0.  1.
         -2   -1    0    0    0  501 -0.00000000000E+00 -0.00000000000E+00 -0.21253274700E+03  0.21253274700E+03  0.00000000000E+00 0.  1.
         36    2    1    2    0    0  0.28421709430E-13  0.14210854715E-13  0.96788637037E+03  0.13929518644E+04  0.10017538972E+04 0.  0.
         25    2    3    3    0    0  0.12691631166E+03  0.40521618891E+02  0.23889740575E+03  0.30269963857E+03  0.12963544637E+03 0.  0.
         35    2    3    3    0    0 -0.12691631166E+03 -0.40521618891E+02  0.72898896463E+03  0.10902522258E+04  0.79967196622E+03 0.  0.
         22    1    5    5    0    0  0.23067455330E+03 -0.13242780460E+03  0.66409358813E+03  0.71537973606E+03  0.00000000000E+00 0.  1.
         22    1    5    5    0    0 -0.35759086496E+03  0.91906185706E+02  0.64895376500E+02  0.37487248974E+03  0.00000000000E+00 0.  1.
          5    1    4    4  502    0  0.73417515008E+02 -0.52714614605E+01  0.25670980426E+02  0.78096152606E+02  0.47000000000E+01 0. -1.
         -5    1    4    4    0  502  0.53498796651E+02  0.45793080351E+02  0.21322642532E+03  0.22460348596E+03  0.47000000000E+01 0. -1.
<mgrwt>
<rscale>  0 0.10017539E+04</rscale>
<asrwt>0</asrwt>
<pdfrwt beam="1">  1        2 0.18160294E+00 0.10017539E+04</pdfrwt>
<pdfrwt beam="2">  1       -2 0.32697346E-01 0.10017539E+04</pdfrwt>
<totfact> 0.20450923E+02</totfact>
</mgrwt>
</event>
<event>
 9    1  0.4388925E-036  0.9996655E+03  0.7818608E-02  0.8681357E-01
         -2   -1    0    0    0  501 -0.00000000000E+00  0.00000000000E+00  0.21419656264E+03  0.21419656264E+03  0.00000000000E+00 0.  1.
          2   -1    0    0  501    0  0.00000000000E+00 -0.00000000000E+00 -0.11663715295E+04  0.11663715295E+04  0.00000000000E+00 0.  1.
         36    2    1    2    0    0  0.00000000000E+00  0.28421709430E-13 -0.95217496685E+03  0.13805680921E+04  0.99966548882E+03 0.  0.
         25    2    3    3    0    0 -0.32658992081E+01  0.80519821612E+02 -0.33904096591E+03  0.36948502205E+03  0.12278557402E+03 0.  0.
         35    2    3    3    0    0  0.32658992081E+01 -0.80519821612E+02 -0.61313400094E+03  0.10110830701E+04  0.79991347266E+03 0.  0.
         22    1    5    5    0    0 -0.18023035505E+03 -0.39806801202E+03 -0.34567439613E+03  0.55716416900E+03  0.00000000000E+00 0.  1.
         22    1    5    5    0    0  0.18349625426E+03  0.31754819041E+03 -0.26745960481E+03  0.45391890109E+03  0.00000000000E+00 0.  1.
          5    1    4    4  502    0 -0.20585837833E+02  0.55726260156E+02 -0.47138661335E+02  0.75982472866E+02  0.47000000000E+01 0.  1.
         -5    1    4    4    0  502  0.17319938625E+02  0.24793561456E+02 -0.29190230458E+03  0.29350254919E+03  0.47000000000E+01 0.  1.
<mgrwt>
<rscale>  0 0.99966549E+03</rscale>
<asrwt>0</asrwt>
<pdfrwt beam="1">  1        2 0.17944177E+00 0.99966549E+03</pdfrwt>
<pdfrwt beam="2">  1       -2 0.32953318E-01 0.99966549E+03</pdfrwt>
<totfact> 0.20550406E+02</totfact>
</mgrwt>
</event>
<event>
 9    1  0.4388925E-036  0.9987809E+03  0.7818608E-02  0.8682200E-01
         -1   -1    0    0    0  501 -0.00000000000E+00  0.00000000000E+00  0.70779392431E+03  0.70779392431E+03  0.00000000000E+00 0. -1.
          1   -1    0    0  501    0  0.00000000000E+00 -0.00000000000E+00 -0.35234950214E+03  0.35234950214E+03  0.00000000000E+00 0. -1.
         36    2    1    2    0    0  0.71054273576E-14  0.00000000000E+00  0.35544442217E+03  0.10601434265E+04  0.99878093063E+03 0.  0.
         25    2    3    3    0    0 -0.14381464908E+02 -0.82171205837E+02  0.18024584641E+03  0.23745093247E+03  0.13013626158E+03 0.  0.
         35    2    3    3    0    0  0.14381464908E+02  0.82171205837E+02  0.17519857576E+03  0.82269249398E+03  0.79948074718E+03 0.  0.
         22    1    5    5    0    0  0.31588089094E+03 -0.15477196826E+03  0.25058572339E+03  0.43188922675E+03  0.00000000000E+00 0.  1.
         22    1    5    5    0    0 -0.30149942603E+03  0.23694317410E+03 -0.75387147625E+02  0.39080326723E+03  0.00000000000E+00 0.  1.
          5    1    4    4  502    0 -0.39089321729E+02  0.23039642100E+02  0.42900489135E+02  0.62620620800E+02  0.47000000000E+01 0.  1.
         -5    1    4    4    0  502  0.24707856821E+02 -0.10521084794E+03  0.13734535728E+03  0.17483031167E+03  0.47000000000E+01 0.  1.
<mgrwt>
<rscale>  0 0.99878093E+03</rscale>
<asrwt>0</asrwt>
<pdfrwt beam="1">  1        1 0.54207616E-01 0.99878093E+03</pdfrwt>
<pdfrwt beam="2">  1       -1 0.10889137E+00 0.99878093E+03</pdfrwt>
<totfact> 0.66730277E+01</totfact>
</mgrwt>
</event>
<event>
 9    1  0.4388925E-036  0.1000206E+04  0.7818608E-02  0.8680842E-01
          1   -1    0    0  501    0  0.00000000000E+00  0.00000000000E+00  0.41962594728E+04  0.41962594728E+04  0.00000000000E+00 0. -1.
         -1   -1    0    0    0  501 -0.00000000000E+00 -0.00000000000E+00 -0.59601435144E+02  0.59601435144E+02  0.00000000000E+00 0. -1.
         36    2    1    2    0    0 -0.56843418861E-13 -0.14210854715E-13  0.41366580377E+04  0.42558609080E+04  0.10002061524E+04 0.  0.
         25    2    3    3    0    0 -0.10380775043E+03  0.82974448936E+02  0.58747780575E+03  0.61515261617E+03  0.12498704215E+03 0.  0.
         35    2    3    3    0    0  0.10380775043E+03 -0.82974448936E+02  0.35491802319E+04  0.36407082918E+04  0.80025979471E+03 0.  0.
         22    1    5    5    0    0  0.30082120072E+03  0.10433475258E+03  0.60199000480E+03  0.68100741647E+03  0.00000000000E+00 0. -1.
         22    1    5    5    0    0 -0.19701345029E+03 -0.18730920151E+03  0.29471902271E+04  0.29597008753E+04  0.00000000000E+00 0. -1.
          5    1    4    4  502    0 -0.95412057030E+02  0.71178968017E+02  0.24591853151E+03  0.27325431425E+03  0.47000000000E+01 0. -1.
         -5    1    4    4    0  502 -0.83956934006E+01  0.11795480919E+02  0.34155927423E+03  0.34189830192E+03  0.47000000000E+01 0. -1.
<mgrwt>
<rscale>  0 0.10002062E+04</rscale>
<asrwt>0</asrwt>
<pdfrwt beam="1">  1        1 0.64557815E+00 0.10002062E+04</pdfrwt>
<pdfrwt beam="2">  1       -1 0.91694548E-02 0.10002062E+04</pdfrwt>
<totfact> 0.56243633E+00</totfact>
</mgrwt>
</event>
<event>
 9    1  0.4388925E-036  0.1000187E+04  0.7818608E-02  0.8680860E-01
         -1   -1    0    0    0  501 -0.00000000000E+00  0.00000000000E+00  0.16063588529E+03  0.16063588529E+03  0.00000000000E+00 0.  1.
          1   -1    0    0  501    0  0.00000000000E+00 -0.00000000000E+00 -0.15568954547E+04  0.15568954547E+04  0.00000000000E+00 0.  1.
         36    2    1    2    0    0  0.14210854715E-13  0.00000000000E+00 -0.13962595694E+04  0.17175313400E+04  0.10001865419E+04 0.  0.
         25    2    3    3    0    0  0.50670467511E+02 -0.56706602741E+02 -0.64003629996E+02  0.16168598310E+03  0.12752551668E+03 0.  0.
         35    2    3    3    0    0 -0.50670467511E+02  0.56706602741E+02 -0.13322559394E+04  0.15558453569E+04  0.79997859433E+03 0.  0.
         22    1    5    5    0    0 -0.27413003195E+03  0.13211127742E+03 -0.12781556648E+04  0.13138807280E+04  0.00000000000E+00 0. -1.
         22    1    5    5    0    0  0.22345956443E+03 -0.75404674683E+02 -0.54100274600E+02  0.24196462885E+03  0.00000000000E+00 0. -1.
          5    1    4    4  502    0  0.92835938221E+01 -0.89040183258E+02 -0.17412544159E+02  0.91321553004E+02  0.47000000000E+01 0. -1.
         -5    1    4    4    0  502  0.41386873689E+02  0.32333580517E+02 -0.46591085836E+02  0.70364430093E+02  0.47000000000E+01 0. -1.
<mgrwt>
<rscale>  0 0.10001865E+04</rscale>
<asrwt>0</asrwt>
<pdfrwt beam="1">  1        1 0.23952237E+00 0.10001865E+04</pdfrwt>
<pdfrwt beam="2">  1       -1 0.24713214E-01 0.10001865E+04</pdfrwt>
<totfact> 0.91800953E+01</totfact>
</mgrwt>
</event>
<event>
 9    1  0.4388925E-036  0.1000107E+04  0.7818608E-02  0.8680936E-01
         -1   -1    0    0    0  501 -0.00000000000E+00  0.00000000000E+00  0.66319868739E+03  0.66319868739E+03  0.00000000000E+00 0. -1.
          1   -1    0    0  501    0  0.00000000000E+00 -0.00000000000E+00 -0.37704184865E+03  0.37704184865E+03  0.00000000000E+00 0. -1.
         36    2    1    2    0    0 -0.14210854715E-13  0.71054273576E-14  0.28615683874E+03  0.10402405360E+04  0.10001073125E+04 0.  0.
         25    2    3    3    0    0 -0.12136260331E+03 -0.59166172843E+02  0.29968472928E+02  0.19015481304E+03  0.13050373965E+03 0.  0.
         35    2    3    3    0    0  0.12136260331E+03  0.59166172843E+02  0.25618836581E+03  0.85008572299E+03  0.79923947610E+03 0.  0.
         22    1    5    5    0    0 -0.19008473137E+03  0.31003795559E+03 -0.19752164403E+02  0.36420583055E+03  0.00000000000E+00 0. -1.
         22    1    5    5    0    0  0.31144733468E+03 -0.25087178275E+03  0.27594053021E+03  0.48587989244E+03  0.00000000000E+00 0. -1.
          5    1    4    4  502    0 -0.10295300321E+03 -0.80535639514E+02 -0.20262132345E+02  0.13235540831E+03  0.47000000000E+01 0. -1.
         -5    1    4    4    0  502 -0.18409600105E+02  0.21369466670E+02  0.50230605273E+02  0.57799404736E+02  0.47000000000E+01 0. -1.
<mgrwt>
<rscale>  0 0.10001073E+04</rscale>
<asrwt>0</asrwt>
<pdfrwt beam="1">  1        1 0.58006438E-01 0.10001073E+04</pdfrwt>
<pdfrwt beam="2">  1       -1 0.10203057E+00 0.10001073E+04</pdfrwt>
<totfact> 0.70831970E+01</totfact>
</mgrwt>
</event>
<event>
 9    1  0.4388925E-036  0.9999265E+03  0.7818608E-02  0.8681108E-01
          2   -1    0    0  501    0  0.00000000000E+00  0.00000000000E+00  0.27185314504E+04  0.27185314504E+04  0.00000000000E+00 0. -1.
         -2   -1    0    0    0  501 -0.00000000000E+00 -0.00000000000E+00 -0.91947904067E+02  0.91947904067E+02  0.00000000000E+00 0. -1.
         36    2    1    2    0    0  0.71054273576E-14  0.28421709430E-13  0.26265835463E+04  0.28104793545E+04  0.99992653531E+03 0.  0.
         25    2    3    3    0    0 -0.51874389220E+02 -0.12105900218E+03  0.35906347987E+03  0.40228175879E+03  0.12473089678E+03 0.  0.
         35    2    3    3    0    0  0.51874389220E+02  0.12105900218E+03  0.22675200664E+04  0.24081975957E+04  0.80026381509E+03 0.  0.
         22    1    5    5    0    0 -0.28149778600E+03  0.31631083401E+03  0.11186012015E+04  0.11960611168E+04  0.00000000000E+00 0. -1.
         22    1    5    5    0    0  0.33337217522E+03 -0.19525183183E+03  0.11489188649E+04  0.12121364788E+04  0.00000000000E+00 0. -1.
          5    1    4    4  502    0  0.11870848160E+02 -0.93385924021E+02  0.28690704189E+03  0.30199269615E+03  0.47000000000E+01 0. -1.
         -5    1    4    4    0  502 -0.63745237381E+02 -0.27673078160E+02  0.72156437987E+02  0.10028906265E+03  0.47000000000E+01 0. -1.
<mgrwt>
<rscale>  0 0.99992654E+03</rscale>
<asrwt>0</asrwt>
<pdfrwt beam="1">  1        2 0.41823555E+00 0.99992654E+03</pdfrwt>
<pdfrwt beam="2">  1       -2 0.14145833E-01 0.99992654E+03</pdfrwt>
<totfact> 0.11242802E+02</totfact>
</mgrwt>
</event>
<event>
 9    1  0.4388925E-036  0.9992893E+03  0.7818608E-02  0.8681715E-01
         -2   -1    0    0    0  501 -0.00000000000E+00  0.00000000000E+00  0.19268492149E+03  0.19268492149E+03  0.00000000000E+00 0.  1.
          2   -1    0    0  501    0  0.00000000000E+00 -0.00000000000E+00 -0.12956112866E+04  0.12956112866E+04  0.00000000000E+00 0.  1.
         36    2    1    2    0    0  0.00000000000E+00  0.19539925233E-13 -0.11029263651E+04  0.14882962081E+04  0.99928926550E+03 0.  0.
         25    2    3    3    0    0 -0.95853794711E+02  0.67442958914E+01 -0.61862906881E+02  0.17183912144E+03  0.12832859744E+03 0.  0.
         35    2    3    3    0    0  0.95853794711E+02 -0.67442958914E+01 -0.10410634582E+04  0.13164570867E+04  0.80000793836E+03 0.  0.
         22    1    5    5    0    0 -0.18530400580E+03  0.25402328056E+03 -0.15412606576E+03  0.35017173755E+03  0.00000000000E+00 0. -1.
         22    1    5    5    0    0  0.28115780051E+03 -0.26076757645E+03 -0.88693739248E+03  0.96628534911E+03  0.00000000000E+00 0. -1.
          5    1    4    4  502    0 -0.67863060134E+02  0.91399435643E+01 -0.10180484587E+03  0.12278131023E+03  0.47000000000E+01 0.  1.
         -5    1    4    4    0  502 -0.27990734577E+02 -0.23956476729E+01  0.39941938991E+02  0.49057811206E+02  0.47000000000E+01 0.  1.
<mgrwt>
<rscale>  0 0.99928927E+03</rscale>
<asrwt>0</asrwt>
<pdfrwt beam="1">  1        2 0.19932481E+00 0.99928927E+03</pdfrwt>
<pdfrwt beam="2">  1       -2 0.29643834E-01 0.99928927E+03</pdfrwt>
<totfact> 0.20949332E+02</totfact>
</mgrwt>
</event>
<event>
 9    1  0.4388925E-036  0.9994321E+03  0.7818608E-02  0.8681579E-01
         -2   -1    0    0    0  501 -0.00000000000E+00  0.00000000000E+00  0.32897123793E+03  0.32897123793E+03  0.00000000000E+00 0. -1.
          2   -1    0    0  501    0  0.00000000000E+00 -0.00000000000E+00 -0.75908202459E+03  0.75908202459E+03  0.00000000000E+00 0. -1.
         36    2    1    2    0    0  0.42632564146E-13  0.00000000000E+00 -0.43011078665E+03  0.10880532625E+04  0.99943214541E+03 0.  0.
         25    2    3    3    0    0  0.92562788985E+02  0.55460638540E+02 -0.18332094142E+03  0.24680823899E+03  0.12515585060E+03 0.  0.
         35    2    3    3    0    0 -0.92562788985E+02 -0.55460638540E+02 -0.24678984524E+03  0.84124502353E+03  0.79695935252E+03 0.  0.
         22    1    5    5    0    0  0.27192461358E+03 -0.26842100796E+03 -0.11718386450E+03  0.39965596591E+03  0.00000000000E+00 0.  1.
         22    1    5    5    0    0 -0.36448740256E+03  0.21296036942E+03 -0.12960598074E+03  0.44158905763E+03  0.00000000000E+00 0.  1.
          5    1    4    4  502    0  0.33349984144E+02 -0.17644930364E+02 -0.13634935221E+03  0.14155140712E+03  0.47000000000E+01 0. -1.
         -5    1    4    4    0  502  0.59212804841E+02  0.73105568904E+02 -0.46971589207E+02  0.10525683187E+03  0.47000000000E+01 0. -1.
<mgrwt>
<rscale>  0 0.99943215E+03</rscale>
<asrwt>0</asrwt>
<pdfrwt beam="1">  1        2 0.11678185E+00 0.99943215E+03</pdfrwt>
<pdfrwt beam="2">  1       -2 0.50610960E-01 0.99943215E+03</pdfrwt>
<totfact> 0.16494098E+02</totfact>
</mgrwt>
</event>
<event>
 9    1  0.4388925E-036  0.9984713E+03  0.7818608E-02  0.8682495E-01
         -2   -1    0    0    0  501 -0.00000000000E+00  0.00000000000E+00  0.15369790216E+03  0.15369790216E+03  0.00000000000E+00 0.  1.
          2   -1    0    0  501    0  0.00000000000E+00 -0.00000000000E+00 -0.16215981479E+04  0.16215981479E+04  0.00000000000E+00 0.  1.
         36    2    1    2    0    0 -0.21316282073E-13 -0.21316282073E-13 -0.14679002457E+04  0.17752960501E+04  0.99847129850E+03 0.  0.
         25    2    3    3    0    0 -0.50399605765E+01 -0.34794131351E+02 -0.38864310374E+02  0.13530643482E+03  0.12474519591E+03 0.  0.
         35    2    3    3    0    0  0.50399605765E+01  0.34794131351E+02 -0.14290359354E+04  0.16399896152E+04  0.80385707732E+03 0.  0.
         22    1    5    5    0    0  0.27023742409E+03 -0.26141868154E+03 -0.47055588972E+03  0.60232120815E+03  0.00000000000E+00 0. -1.
         22    1    5    5    0    0 -0.26519746352E+03  0.29621281289E+03 -0.95848004564E+03  0.10376684071E+04  0.00000000000E+00 0. -1.
          5    1    4    4  502    0 -0.39920815215E+02 -0.52478965855E+01 -0.69230738223E+02  0.80225912403E+02  0.47000000000E+01 0. -1.
         -5    1    4    4    0  502  0.34880854639E+02 -0.29546234766E+02  0.30366427849E+02  0.55080522414E+02  0.47000000000E+01 0. -1.
<mgrwt>
<rscale>  0 0.99847130E+03</rscale>
<asrwt>0</asrwt>
<pdfrwt beam="1">  1        2 0.24947664E+00 0.99847130E+03</pdfrwt>
<pdfrwt beam="2">  1       -2 0.23645831E-01 0.99847130E+03</pdfrwt>
<totfact> 0.20475658E+02</totfact>
</mgrwt>
</event>
<event>
 9    1  0.4388925E-036  0.1000122E+04  0.7818608E-02  0.8680922E-01
          1   -1    0    0  501    0  0.00000000000E+00  0.00000000000E+00  0.67956625500E+03  0.67956625500E+03  0.00000000000E+00 0.  1.
         -1   -1    0    0    0  501 -0.00000000000E+00 -0.00000000000E+00 -0.36797142993E+03  0.36797142993E+03  0.00000000000E+00 0.  1.
         36    2    1    2    0    0  0.00000000000E+00 -0.28421709430E-13  0.31159482507E+03  0.10475376849E+04  0.10001219257E+04 0.  0.
         25    2    3    3    0    0  0.11184985789E+03 -0.62087600797E+02  0.11979466720E+03  0.21516737716E+03  0.12482378388E+03 0.  0.
         35    2    3    3    0    0 -0.11184985789E+03  0.62087600797E+02  0.19180015787E+03  0.83237030777E+03  0.79980483107E+03 0.  0.
         22    1    5    5    0    0 -0.34552962333E+03  0.26762324779E+03 -0.47737695996E+02  0.43964964572E+03  0.00000000000E+00 0.  1.
         22    1    5    5    0    0  0.23367976544E+03 -0.20553564700E+03  0.23953785387E+03  0.39272066205E+03  0.00000000000E+00 0.  1.
          5    1    4    4  502    0  0.12034104896E+03 -0.17493158432E+02  0.49546834500E+02  0.13139618513E+03  0.47000000000E+01 0.  1.
         -5    1    4    4    0  502 -0.84911910729E+01 -0.44594442365E+02  0.70247832700E+02  0.83771192033E+02  0.47000000000E+01 0.  1.
<mgrwt>
<rscale>  0 0.10001219E+04</rscale>
<asrwt>0</asrwt>
<pdfrwt beam="1">  1        1 0.10454865E+00 0.10001219E+04</pdfrwt>
<pdfrwt beam="2">  1       -1 0.56610989E-01 0.10001219E+04</pdfrwt>
<totfact> 0.10373357E+02</totfact>
</mgrwt>
</event>
<event>
 9    1  0.4388925E-036  0.9905988E+03  0.7818608E-02  0.8690043E-01
          1   -1    0    0  501    0  0.00000000000E+00  0.00000000000E+00  0.10821504414E+04  0.10821504414E+04  0.00000000000E+00 0. -1.
         -1   -1    0    0    0  501 -0.00000000000E+00 -0.00000000000E+00 -0.22669813004E+03  0.22669813004E+03  0.00000000000E+00 0. -1.
         36    2    1    2    0    0  0.17763568394E-13  0.00000000000E+00  0.85545231141E+03  0.13088485715E+04  0.99059877144E+03 0.  0.
         25    2    3    3    0    0  0.12988920908E+02  0.10368458309E+03  0.26044790939E+03  0.30730260221E+03  0.12523007220E+03 0.  0.
         35    2    3    3    0    0 -0.12988920908E+02 -0.10368458309E+03  0.59500440201E+03  0.10015459693E+04  0.79883971190E+03 0.  0.
         22    1    5    5    0    0  0.22897840145E+03  0.14337262535E+03 -0.45199051234E+02  0.27391562982E+03  0.00000000000E+00 0. -1.
         22    1    5    5    0    0 -0.24196732236E+03 -0.24705720844E+03  0.64020345325E+03  0.72763033944E+03  0.00000000000E+00 0. -1.
          5    1    4    4  502    0 -0.26902951419E+02  0.86510114957E+02  0.77822386489E+02  0.11952482012E+03  0.47000000000E+01 0.  1.
         -5    1    4    4    0  502  0.39891872327E+02  0.17174468129E+02  0.18262552290E+03  0.18777778210E+03  0.47000000000E+01 0.  1.
<mgrwt>
<rscale>  0 0.99059877E+03</rscale>
<asrwt>0</asrwt>
<pdfrwt beam="1">  1        1 0.16648468E+00 0.99059877E+03</pdfrwt>
<pdfrwt beam="2">  1       -1 0.34876636E-01 0.99059877E+03</pdfrwt>
<totfact> 0.11358280E+02</totfact>
</mgrwt>
</event>
<event>
 9    1  0.4388925E-036  0.1005258E+04  0.7818608E-02  0.8676047E-01
          2   -1    0    0  501    0  0.00000000000E+00  0.00000000000E+00  0.47165191985E+03  0.47165191985E+03  0.00000000000E+00 0. -1.
         -2   -1    0    0    0  501 -0.00000000000E+00 -0.00000000000E+00 -0.53564012497E+03  0.53564012497E+03  0.00000000000E+00 0. -1.
         36    2    1    2    0    0  0.00000000000E+00 -0.71054273576E-14 -0.63988205117E+02  0.10072920448E+04  0.10052575656E+04 0.  0.
         25    2    3    3    0    0  0.11915181290E+03 -0.44717308024E+02 -0.77085169991E+02  0.19463724345E+03  0.12547804967E+03 0.  0.
         35    2    3    3    0    0 -0.11915181290E+03  0.44717308024E+02  0.13096964874E+02  0.81265480138E+03  0.80252071846E+03 0.  0.
         22    1    5    5    0    0  0.84701770988E+02 -0.36309880321E+02 -0.36449557780E+03  0.37596518942E+03  0.00000000000E+00 0. -1.
         22    1    5    5    0    0 -0.20385358389E+03  0.81027188344E+02  0.37759254267E+03  0.43668961196E+03  0.00000000000E+00 0. -1.
          5    1    4    4  502    0 -0.17831772981E+02 -0.22308273388E+02 -0.42657439820E+02  0.51549765869E+02  0.47000000000E+01 0. -1.
         -5    1    4    4    0  502  0.13698358588E+03 -0.22409034635E+02 -0.34427730171E+02  0.14308747758E+03  0.47000000000E+01 0. -1.
<mgrwt>
<rscale>  0 0.10052576E+04</rscale>
<asrwt>0</asrwt>
<pdfrwt beam="1">  1        2 0.72561834E-01 0.10052576E+04</pdfrwt>
<pdfrwt beam="2">  1       -2 0.82406173E-01 0.10052576E+04</pdfrwt>
<totfact> 0.10240900E+02</totfact>
</mgrwt>
</event>
<event>
 9    1  0.4388925E-036  0.1000296E+04  0.7818608E-02  0.8680756E-01
          2   -1    0    0  501    0  0.00000000000E+00  0.00000000000E+00  0.38319408190E+03  0.38319408190E+03  0.00000000000E+00 0. -1.
         -2   -1    0    0    0  501 -0.00000000000E+00 -0.00000000000E+00 -0.65279674293E+03  0.65279674293E+03  0.00000000000E+00 0. -1.
         36    2    1    2    0    0 -0.28421709430E-13  0.28421709430E-13 -0.26960266103E+03  0.10359908248E+04  0.10002956534E+04 0.  0.
         25    2    3    3    0    0  0.70956185959E+02  0.11255004359E+03 -0.11313459987E+03  0.21399879736E+03  0.12366792205E+03 0.  0.
         35    2    3    3    0    0 -0.70956185959E+02 -0.11255004359E+03 -0.15646806116E+03  0.82199202747E+03  0.79591855514E+03 0.  0.
         22    1    5    5    0    0 -0.36221767704E+03 -0.25677720007E+03 -0.21241759490E+03  0.49219651631E+03  0.00000000000E+00 0.  1.
         22    1    5    5    0    0  0.29126149109E+03  0.14422715648E+03  0.55949533741E+02  0.32979551116E+03  0.00000000000E+00 0.  1.
          5    1    4    4  502    0 -0.32621619609E+02  0.26069468209E+02 -0.48918274807E+02  0.64489339031E+02  0.47000000000E+01 0. -1.
         -5    1    4    4    0  502  0.10357780557E+03  0.86480575381E+02 -0.64216325062E+02  0.14950945833E+03  0.47000000000E+01 0. -1.
<mgrwt>
<rscale>  0 0.10002957E+04</rscale>
<asrwt>0</asrwt>
<pdfrwt beam="1">  1        2 0.58952936E-01 0.10002957E+04</pdfrwt>
<pdfrwt beam="2">  1       -2 0.10043027E+00 0.10002957E+04</pdfrwt>
<totfact> 0.81038884E+01</totfact>
</mgrwt>
</event>
<event>
 9    1  0.4388925E-036  0.9996279E+03  0.7818608E-02  0.8681392E-01
          1   -1    0    0  501    0  0.00000000000E+00  0.00000000000E+00  0.47247347591E+03  0.47247347591E+03  0.00000000000E+00 0.  1.
         -1   -1    0    0    0  501 -0.00000000000E+00 -0.00000000000E+00 -0.52873654261E+03  0.52873654261E+03  0.00000000000E+00 0.  1.
         36    2    1    2    0    0  0.00000000000E+00  0.00000000000E+00 -0.56263066698E+02  0.10012100185E+04  0.99962791503E+03 0.  0.
         25    2    3    3    0    0  0.84717176268E+02 -0.59605976582E+02  0.84293269694E+02  0.18309093124E+03  0.12524799953E+03 0.  0.
         35    2    3    3    0    0 -0.84717176268E+02  0.59605976582E+02 -0.14055633639E+03  0.81811908728E+03  0.79927022018E+03 0.  0.
         22    1    5    5    0    0 -0.48980405204E+01 -0.21341347417E+02 -0.46953858688E+03  0.47004885754E+03  0.00000000000E+00 0.  1.
         22    1    5    5    0    0 -0.79819135748E+02  0.80947323999E+02  0.32898225048E+03  0.34807022974E+03  0.00000000000E+00 0.  1.
          5    1    4    4  502    0  0.10978267584E+03 -0.16604643737E+02  0.46724639944E+02  0.12055385554E+03  0.47000000000E+01 0. -1.
         -5    1    4    4    0  502 -0.25065499571E+02 -0.43001332846E+02  0.37568629750E+02  0.62537075696E+02  0.47000000000E+01 0. -1.
<mgrwt>
<rscale>  0 0.99962792E+03</rscale>
<asrwt>0</asrwt>
<pdfrwt beam="1">  1        1 0.72688227E-01 0.99962792E+03</pdfrwt>
<pdfrwt beam="2">  1       -1 0.81344083E-01 0.99962792E+03</pdfrwt>
<totfact> 0.85395319E+01</totfact>
</mgrwt>
</event>
<event>
 9    1  0.4388925E-036  0.9989847E+03  0.7818608E-02  0.8682005E-01
          2   -1    0    0  501    0  0.00000000000E+00  0.00000000000E+00  0.36392059448E+03  0.36392059448E+03  0.00000000000E+00 0. -1.
         -2   -1    0    0    0  501 -0.00000000000E+00 -0.00000000000E+00 -0.68556887291E+03  0.68556887291E+03  0.00000000000E+00 0. -1.
         36    2    1    2    0    0 -0.71054273576E-14  0.28421709430E-13 -0.32164827843E+03  0.10494894674E+04  0.99898474820E+03 0.  0.
         25    2    3    3    0    0 -0.59291387417E+02 -0.11872865130E+03 -0.17361712060E+02  0.18350199283E+03  0.12553720988E+03 0.  0.
         35    2    3    3    0    0  0.59291387417E+02  0.11872865130E+03 -0.30428656637E+03  0.86598747455E+03  0.79983250143E+03 0.  0.
         22    1    5    5    0    0 -0.66549040412E+01  0.46081092732E+03 -0.14689881608E+03  0.48370472466E+03  0.00000000000E+00 0.  1.
         22    1    5    5    0    0  0.65946291458E+02 -0.34208227603E+03 -0.15738775028E+03  0.38228274990E+03  0.00000000000E+00 0.  1.
          5    1    4    4  502    0 -0.24583218018E+02  0.47566412070E+01  0.36326569628E+02  0.44369695791E+02  0.47000000000E+01 0. -1.
         -5    1    4    4    0  502 -0.34708169399E+02 -0.12348529251E+03 -0.53688281688E+02  0.13913229704E+03  0.47000000000E+01 0. -1.
<mgrwt>
<rscale>  0 0.99898475E+03</rscale>
<asrwt>0</asrwt>
<pdfrwt beam="1">  1        2 0.55987785E-01 0.99898475E+03</pdfrwt>
<pdfrwt beam="2">  1       -2 0.10547213E+00 0.99898475E+03</pdfrwt>
<totfact> 0.76104649E+01</totfact>
</mgrwt>
</event>
<event>
 9    1  0.4388925E-036  0.1000359E+04  0.7818608E-02  0.8680696E-01
          1   -1    0    0  501    0  0.00000000000E+00  0.00000000000E+00  0.10730093468E+04  0.10730093468E+04  0.00000000000E+00 0.  1.
         -1   -1    0    0    0  501 -0.00000000000E+00 -0.00000000000E+00 -0.23315710538E+03  0.23315710538E+03  0.00000000000E+00 0.  1.
         36    2    1    2    0    0  0.00000000000E+00  0.14210854715E-13  0.83985224146E+03  0.13061664522E+04  0.10003594421E+04 0.  0.
         25    2    3    3    0    0  0.47658730359E+02 -0.60807328539E+02  0.31046111321E+03  0.34380282158E+03  0.12587847919E+03 0.  0.
         35    2    3    3    0    0 -0.47658730359E+02  0.60807328539E+02  0.52939112825E+03  0.96236363064E+03  0.79994993914E+03 0.  0.
         22    1    5    5    0    0 -0.36524744301E+03 -0.10822934187E+03  0.84496895555E+02  0.39020380627E+03  0.00000000000E+00 0. -1.
         22    1    5    5    0    0  0.31758871265E+03  0.16903667041E+03  0.44489423269E+03  0.57215982438E+03  0.00000000000E+00 0. -1.
          5    1    4    4  502    0  0.58963679583E+01 -0.88522199763E+02  0.13783760368E+03  0.16398854226E+03  0.47000000000E+01 0. -1.
         -5    1    4    4    0  502  0.41762362400E+02  0.27714871224E+02  0.17262350953E+03  0.17981427931E+03  0.47000000000E+01 0. -1.
<mgrwt>
<rscale>  0 0.10003594E+04</rscale>
<asrwt>0</asrwt>
<pdfrwt beam="1">  1        1 0.16507836E+00 0.10003594E+04</pdfrwt>
<pdfrwt beam="2">  1       -1 0.35870324E-01 0.10003594E+04</pdfrwt>
<totfact> 0.10982110E+02</totfact>
</mgrwt>
</event>
<event>
 9    1  0.4388925E-036  0.9992706E+03  0.7818608E-02  0.8681733E-01
          2   -1    0    0  501    0  0.00000000000E+00  0.00000000000E+00  0.20172444659E+03  0.20172444659E+03  0.00000000000E+00 0. -1.
         -2   -1    0    0    0  501 -0.00000000000E+00 -0.00000000000E+00 -0.12375071233E+04  0.12375071233E+04  0.00000000000E+00 0. -1.
         36    2    1    2    0    0  0.35527136788E-13 -0.28421709430E-13 -0.10357826767E+04  0.14392315699E+04  0.99927061320E+03 0.  0.
         25    2    3    3    0    0  0.33319770130E+02 -0.12862506042E+03 -0.13460188722E+03  0.22700316446E+03  0.12553149159E+03 0.  0.
         35    2    3    3    0    0 -0.33319770130E+02  0.12862506042E+03 -0.90118078948E+03  0.12122284054E+04  0.79982265431E+03 0.  0.
         22    1    5    5    0    0  0.34074004715E+03 -0.84797681730E+02 -0.24812160903E+03  0.42995204317E+03  0.00000000000E+00 0. -1.
         22    1    5    5    0    0 -0.37405981728E+03  0.21342274215E+03 -0.65305918045E+03  0.78227636225E+03  0.00000000000E+00 0. -1.
          5    1    4    4  502    0  0.25083156936E+02 -0.54414226278E+01  0.17220152579E+02  0.31263357097E+02  0.47000000000E+01 0.  1.
         -5    1    4    4    0  502  0.82366131937E+01 -0.12318363779E+03 -0.15182203980E+03  0.19573980736E+03  0.47000000000E+01 0.  1.
<mgrwt>
<rscale>  0 0.99927061E+03</rscale>
<asrwt>0</asrwt>
<pdfrwt beam="1">  1        2 0.31034530E-01 0.99927061E+03</pdfrwt>
<pdfrwt beam="2">  1       -2 0.19038571E+00 0.99927061E+03</pdfrwt>
<totfact> 0.28933533E+01</totfact>
</mgrwt>
</event>
<event>
 9    1  0.4388925E-036  0.1000160E+04  0.7818608E-02  0.8680886E-01
         -1   -1    0    0    0  501 -0.00000000000E+00  0.00000000000E+00  0.42580292824E+03  0.42580292824E+03  0.00000000000E+00 0. -1.
          1   -1    0    0  501    0  0.00000000000E+00 -0.00000000000E+00 -0.58731354969E+03  0.58731354969E+03  0.00000000000E+00 0. -1.
         36    2    1    2    0    0  0.14210854715E-13  0.71054273576E-14 -0.16151062145E+03  0.10131164779E+04  0.10001596458E+04 0.  0.
         25    2    3    3    0    0 -0.12473090055E+03 -0.32652926384E+02  0.95882681371E+01  0.18356178815E+03  0.13030343061E+03 0.  0.
         35    2    3    3    0    0  0.12473090055E+03  0.32652926384E+02 -0.17109888959E+03  0.82955468979E+03  0.80141259172E+03 0.  0.
         22    1    5    5    0    0 -0.33439231900E+02  0.42736839295E+02  0.31429270638E+03  0.31894282395E+03  0.00000000000E+00 0.  1.
         22    1    5    5    0    0  0.15817013245E+03 -0.10083912911E+02 -0.48539159597E+03  0.51061186584E+03  0.00000000000E+00 0.  1.
          5    1    4    4  502    0 -0.11545261210E+03 -0.59065534526E+02  0.45742235296E+02  0.13759536729E+03  0.47000000000E+01 0. -1.
         -5    1    4    4    0  502 -0.92782884571E+01  0.26412608143E+02 -0.36153967159E+02  0.45966420862E+02  0.47000000000E+01 0. -1.
<mgrwt>
<rscale>  0 0.10001596E+04</rscale>
<asrwt>0</asrwt>
<pdfrwt beam="1">  1        1 0.90355930E-01 0.10001596E+04</pdfrwt>
<pdfrwt beam="2">  1       -1 0.65508143E-01 0.10001596E+04</pdfrwt>
<totfact> 0.97278054E+01</totfact>
</mgrwt>
</event>
<event>
 9    1  0.4388925E-036  0.9998817E+03  0.7818608E-02  0.8681151E-01
          1   -1    0    0  501    0  0.00000000000E+00  0.00000000000E+00  0.30516686291E+03  0.30516686291E+03  0.00000000000E+00 0. -1.
         -1   -1    0    0    0  501 -0.00000000000E+00 -0.00000000000E+00 -0.81903005080E+03  0.81903005080E+03  0.00000000000E+00 0. -1.
         36    2    1    2    0    0 -0.35527136788E-13 -0.35527136788E-14 -0.51386318789E+03  0.11241969137E+04  0.99988165546E+03 0.  0.
         25    2    3    3    0    0 -0.10585527849E+02 -0.30985094145E+02 -0.25094704169E+03  0.28105181507E+03  0.12224391832E+03 0.  0.
         35    2    3    3    0    0  0.10585527849E+02  0.30985094145E+02 -0.26291614620E+03  0.84314509864E+03  0.80043527407E+03 0.  0.
         22    1    5    5    0    0 -0.39198201726E+03 -0.15319304095E+02 -0.89418928437E+02  0.40234354437E+03  0.00000000000E+00 0. -1.
         22    1    5    5    0    0  0.40256754511E+03  0.46304398239E+02 -0.17349721777E+03  0.44080155427E+03  0.00000000000E+00 0. -1.
          5    1    4    4  502    0 -0.83036012299E+01  0.26071551231E+02 -0.20697288662E+03  0.20882658206E+03  0.47000000000E+01 0.  1.
         -5    1    4    4    0  502 -0.22819266188E+01 -0.57056645375E+02 -0.43974155067E+02  0.72225233018E+02  0.47000000000E+01 0.  1.
<mgrwt>
<rscale>  0 0.99988166E+03</rscale>
<asrwt>0</asrwt>
<pdfrwt beam="1">  1        1 0.46948749E-01 0.99988166E+03</pdfrwt>
<pdfrwt beam="2">  1       -1 0.12600462E+00 0.99988166E+03</pdfrwt>
<totfact> 0.56433864E+01</totfact>
</mgrwt>
</event>
<event>
 9    1  0.4388925E-036  0.1000393E+04  0.7818608E-02  0.8680664E-01
          2   -1    0    0  501    0  0.00000000000E+00  0.00000000000E+00  0.11266476408E+04  0.11266476408E+04  0.00000000000E+00 0.  1.
         -2   -1    0    0    0  501 -0.00000000000E+00 -0.00000000000E+00 -0.22207146905E+03  0.22207146905E+03  0.00000000000E+00 0.  1.
         36    2    1    2    0    0  0.14210854715E-13 -0.14210854715E-13  0.90457617173E+03  0.13487191098E+04  0.10003925164E+04 0.  0.
         25    2    3    3    0    0  0.12548327416E+03 -0.37297235085E+02  0.96113774221E+02  0.20392938639E+03  0.12333775253E+03 0.  0.
         35    2    3    3    0    0 -0.12548327416E+03  0.37297235085E+02  0.80846239751E+03  0.11447897234E+04  0.79987181903E+03 0.  0.
         22    1    5    5    0    0  0.12810971030E+03 -0.17922138088E+03 -0.48205432194E+02  0.22551311476E+03  0.00000000000E+00 0. -1.
         22    1    5    5    0    0 -0.25359298446E+03  0.21651861596E+03  0.85666782970E+03  0.91927660868E+03  0.00000000000E+00 0. -1.
          5    1    4    4  502    0  0.69592987178E+02 -0.20086000460E+01 -0.17915826303E+02  0.72043633796E+02  0.47000000000E+01 0.  1.
         -5    1    4    4    0  502  0.55890286981E+02 -0.35288635039E+02  0.11402960052E+03  0.13188575259E+03  0.47000000000E+01 0.  1.
<mgrwt>
<rscale>  0 0.10003925E+04</rscale>
<asrwt>0</asrwt>
<pdfrwt beam="1">  1        2 0.17333040E+00 0.10003925E+04</pdfrwt>
<pdfrwt beam="2">  1       -2 0.34164842E-01 0.10003925E+04</pdfrwt>
<totfact> 0.20301927E+02</totfact>
</mgrwt>
</event>
<event>
 9    1  0.4388925E-036  0.1001137E+04  0.7818608E-02  0.8679956E-01
          2   -1    0    0  501    0  0.00000000000E+00  0.00000000000E+00  0.20945054696E+04  0.20945054696E+04  0.00000000000E+00 0. -1.
         -2   -1    0    0    0  501 -0.00000000000E+00 -0.00000000000E+00 -0.11963148003E+03  0.11963148003E+03  0.00000000000E+00 0. -1.
         36    2    1    2    0    0  0.00000000000E+00 -0.28421709430E-13  0.19748739896E+04  0.22141369497E+04  0.10011369322E+04 0.  0.
         25    2    3    3    0    0 -0.63580320383E+02  0.12370668834E+03  0.31504275918E+03  0.36629682056E+03  0.12480231871E+03 0.  0.
         35    2    3    3    0    0  0.63580320383E+02 -0.12370668834E+03  0.16598312304E+04  0.18478401291E+04  0.80007976313E+03 0.  0.
         22    1    5    5    0    0 -0.10008128514E+03  0.30052267986E+03  0.98036138316E+03  0.10302614165E+04  0.00000000000E+00 0. -1.
         22    1    5    5    0    0  0.16366160552E+03 -0.42422936820E+03  0.67946984727E+03  0.81757871261E+03  0.00000000000E+00 0. -1.
          5    1    4    4  502    0 -0.73230245222E+02  0.77249213782E+02  0.10031789740E+03  0.14634165635E+03  0.47000000000E+01 0.  1.
         -5    1    4    4    0  502  0.96499248390E+01  0.46457474557E+02  0.21472486179E+03  0.21995516421E+03  0.47000000000E+01 0.  1.
<mgrwt>
<rscale>  0 0.10011369E+04</rscale>
<asrwt>0</asrwt>
<pdfrwt beam="1">  1        2 0.32223158E+00 0.10011369E+04</pdfrwt>
<pdfrwt beam="2">  1       -2 0.18404845E-01 0.10011369E+04</pdfrwt>
<totfact> 0.17079381E+02</totfact>
</mgrwt>
</event>
<event>
 9    1  0.4388925E-036  0.9999691E+03  0.7818608E-02  0.8681067E-01
          1   -1    0    0  501    0  0.00000000000E+00  0.00000000000E+00  0.13480780609E+04  0.13480780609E+04  0.00000000000E+00 0. -1.
         -1   -1    0    0    0  501 -0.00000000000E+00 -0.00000000000E+00 -0.18543775942E+03  0.18543775942E+03  0.00000000000E+00 0. -1.
         36    2    1    2    0    0  0.00000000000E+00  0.00000000000E+00  0.11626403015E+04  0.15335158204E+04  0.99996914982E+03 0.  0.
         25    2    3    3    0    0 -0.71079970175E-01 -0.13258584239E+03  0.30965718793E+03  0.35940300491E+03  0.12531534324E+03 0.  0.
         35    2    3    3    0    0  0.71079970175E-01  0.13258584239E+03  0.85298311358E+03  0.11741128154E+04  0.79585281346E+03 0.  0.
         22    1    5    5    0    0 -0.25433408207E+02  0.46881261738E+03  0.48615950901E+03  0.67585737894E+03  0.00000000000E+00 0. -1.
         22    1    5    5    0    0  0.25504488178E+02 -0.33622677499E+03  0.36682360457E+03  0.49825543650E+03  0.00000000000E+00 0. -1.
          5    1    4    4  502    0  0.28983639881E+02 -0.58045278977E+02  0.36198075272E+02  0.74442571460E+02  0.47000000000E+01 0.  1.
         -5    1    4    4    0  502 -0.29054719851E+02 -0.74540563411E+02  0.27345911266E+03  0.28496043345E+03  0.47000000000E+01 0.  1.
<mgrwt>
<rscale>  0 0.99996915E+03</rscale>
<asrwt>0</asrwt>
<pdfrwt beam="1">  1        1 0.20739662E+00 0.99996915E+03</pdfrwt>
<pdfrwt beam="2">  1       -1 0.28528887E-01 0.99996915E+03</pdfrwt>
<totfact> 0.10161888E+02</totfact>
</mgrwt>
</event>
<event>
 9    1  0.4388925E-036  0.9999407E+03  0.7818608E-02  0.8681094E-01
         -2   -1    0    0    0  501 -0.00000000000E+00  0.00000000000E+00  0.18986009419E+03  0.18986009419E+03  0.00000000000E+00 0. -1.
          2   -1    0    0  501    0  0.00000000000E+00 -0.00000000000E+00 -0.13166028186E+04  0.13166028186E+04  0.00000000000E+00 0. -1.
         36    2    1    2    0    0  0.00000000000E+00  0.00000000000E+00 -0.11267427245E+04  0.15064629128E+04  0.99994066854E+03 0.  0.
         25    2    3    3    0    0 -0.85612639943E+02  0.10813851584E+03 -0.24848166940E+03  0.31019632983E+03  0.12431878494E+03 0.  0.
         35    2    3    3    0    0  0.85612639943E+02 -0.10813851584E+03 -0.87826105505E+03  0.11962665830E+04  0.80042975584E+03 0.  0.
         22    1    5    5    0    0  0.80088085500E+02  0.25828278078E+03 -0.76701983782E+03  0.81329178521E+03  0.00000000000E+00 0. -1.
         22    1    5    5    0    0  0.55245544430E+01 -0.36642129662E+03 -0.11124121724E+03  0.38297479778E+03  0.00000000000E+00 0. -1.
          5    1    4    4  502    0 -0.80915412760E+02  0.62697548550E+02 -0.24327785722E+03  0.26397820446E+03  0.47000000000E+01 0. -1.
         -5    1    4    4    0  502 -0.46972271832E+01  0.45440967293E+02 -0.52038121765E+01  0.46218125372E+02  0.47000000000E+01 0. -1.
<mgrwt>
<rscale>  0 0.99994067E+03</rscale>
<asrwt>0</asrwt>
<pdfrwt beam="1">  1        2 0.20255427E+00 0.99994067E+03</pdfrwt>
<pdfrwt beam="2">  1       -2 0.29209246E-01 0.99994067E+03</pdfrwt>
<totfact> 0.20924734E+02</totfact>
</mgrwt>
</event>
<event>
 9    1  0.4388925E-036  0.1002250E+04  0.7818608E-02  0.8678898E-01
          1   -1    0    0  501    0  0.00000000000E+00  0.00000000000E+00  0.37576025531E+03  0.37576025531E+03  0.00000000000E+00 0. -1.
         -1   -1    0    0    0  501 -0.00000000000E+00 -0.00000000000E+00 -0.66831493956E+03  0.66831493956E+03  0.00000000000E+00 0. -1.
         36    2    1    2    0    0 -0.28421709430E-13 -0.14210854715E-13 -0.29255468425E+03  0.10440751949E+04  0.10022498537E+04 0.  0.
         25    2    3    3    0    0  0.13613476671E+03  0.37841471717E+02 -0.82207451624E+02  0.20615371079E+03  0.12560507823E+03 0.  0.
         35    2    3    3    0    0 -0.13613476671E+03 -0.37841471717E+02 -0.21034723262E+03  0.83792148408E+03  0.79868755062E+03 0.  0.
         22    1    5    5    0    0  0.68091920757E+02 -0.20260960634E+03 -0.44002780539E+03  0.48919488118E+03  0.00000000000E+00 0. -1.
         22    1    5    5    0    0 -0.20422668747E+03  0.16476813462E+03  0.22968057277E+03  0.34872660290E+03  0.00000000000E+00 0. -1.
          5    1    4    4  502    0  0.15437956362E+03  0.13915007937E+02 -0.52799805173E+02  0.16381876124E+03  0.47000000000E+01 0.  1.
         -5    1    4    4    0  502 -0.18244796903E+02  0.23926463781E+02 -0.29407646451E+02  0.42334949544E+02  0.47000000000E+01 0.  1.
<mgrwt>
<rscale>  0 0.10022499E+04</rscale>
<asrwt>0</asrwt>
<pdfrwt beam="1">  1        1 0.57809271E-01 0.10022499E+04</pdfrwt>
<pdfrwt beam="2">  1       -1 0.10281768E+00 0.10022499E+04</pdfrwt>
<totfact> 0.69905777E+01</totfact>
</mgrwt>
</event>
<event>
 9    1  0.4388925E-036  0.1000587E+04  0.7818608E-02  0.8680479E-01
         -1   -1    0    0    0  501 -0.00000000000E+00  0.00000000000E+00  0.96575392504E+03  0.96575392504E+03  0.00000000000E+00 0.  1.
          1   -1    0    0  501    0  0.00000000000E+00 -0.00000000000E+00 -0.25916917874E+03  0.25916917874E+03  0.00000000000E+00 0.  1.
         36    2    1    2    0    0  0.00000000000E+00  0.00000000000E+00  0.70658474630E+03  0.12249231038E+04  0.10005871309E+04 0.  0.
         25    2    3    3    0    0  0.62501097272E+02  0.13264774951E+01  0.29553322684E+03  0.32713960577E+03  0.12558776531E+03 0.  0.
         35    2    3    3    0    0 -0.62501097272E+02 -0.13264774951E+01  0.41105151946E+03  0.89778349800E+03  0.79570328071E+03 0.  0.
         22    1    5    5    0    0 -0.11734625468E+03  0.18859286757E+03  0.59044259531E+03  0.63084060708E+03  0.00000000000E+00 0.  1.
         22    1    5    5    0    0  0.54845157407E+02 -0.18991934507E+03 -0.17939107584E+03  0.26694289092E+03  0.00000000000E+00 0.  1.
          5    1    4    4  502    0 -0.19228552158E+02 -0.34080040314E+02  0.16079261268E+03  0.16555222940E+03  0.47000000000E+01 0.  1.
         -5    1    4    4    0  502  0.81729649430E+02  0.35406517809E+02  0.13474061416E+03  0.16158737637E+03  0.47000000000E+01 0.  1.
<mgrwt>
<rscale>  0 0.10005871E+04</rscale>
<asrwt>0</asrwt>
<pdfrwt beam="1">  1        1 0.39872182E-01 0.10005871E+04</pdfrwt>
<pdfrwt beam="2">  1       -1 0.14857752E+00 0.10005871E+04</pdfrwt>
<totfact> 0.44701160E+01</totfact>
</mgrwt>
</event>
<event>
 9    1  0.4388925E-036  0.9994188E+03  0.7818608E-02  0.8681592E-01
         -2   -1    0    0    0  501 -0.00000000000E+00  0.00000000000E+00  0.25162493041E+03  0.25162493041E+03  0.00000000000E+00 0.  1.
          2   -1    0    0  501    0  0.00000000000E+00 -0.00000000000E+00 -0.99238772595E+03  0.99238772595E+03  0.00000000000E+00 0.  1.
         36    2    1    2    0    0  0.21316282073E-13  0.00000000000E+00 -0.74076279554E+03  0.12440126564E+04  0.99941881607E+03 0.  0.
         25    2    3    3    0    0 -0.34369816607E+02 -0.76694647773E+02 -0.27900575497E+03  0.31719630459E+03  0.12532330610E+03 0.  0.
         35    2    3    3    0    0  0.34369816607E+02  0.76694647773E+02 -0.46175704057E+03  0.92681635176E+03  0.79919061061E+03 0.  0.
         22    1    5    5    0    0 -0.23913020382E+03  0.25107575476E+02 -0.57737060851E+03  0.62543621921E+03  0.00000000000E+00 0. -1.
         22    1    5    5    0    0  0.27350002043E+03  0.51587072298E+02  0.11561356794E+03  0.30138013255E+03  0.00000000000E+00 0. -1.
          5    1    4    4  502    0 -0.44936967188E+02 -0.94922028122E+01 -0.21710676434E+02  0.51018392815E+02  0.47000000000E+01 0.  1.
         -5    1    4    4    0  502  0.10567150581E+02 -0.67202444961E+02 -0.25729507853E+03  0.26617791178E+03  0.47000000000E+01 0.  1.
<mgrwt>
<rscale>  0 0.99941882E+03</rscale>
<asrwt>0</asrwt>
<pdfrwt beam="1">  1        2 0.15267503E+00 0.99941882E+03</pdfrwt>
<pdfrwt beam="2">  1       -2 0.38711528E-01 0.99941882E+03</pdfrwt>
<totfact> 0.19414614E+02</totfact>
</mgrwt>
</event>
<event>
 9    1  0.4388925E-036  0.1000930E+04  0.7818608E-02  0.8680153E-01
          2   -1    0    0  501    0  0.00000000000E+00  0.00000000000E+00  0.35271860268E+04  0.35271860268E+04  0.00000000000E+00 0.  1.
         -2   -1    0    0    0  501 -0.00000000000E+00 -0.00000000000E+00 -0.71009962618E+02  0.71009962618E+02  0.00000000000E+00 0.  1.
         36    2    1    2    0    0  0.14210854715E-13 -0.21316282073E-13  0.34561760642E+04  0.35981959894E+04  0.10009302631E+04 0.  0.
         25    2    3    3    0    0 -0.66160360544E+02 -0.51338148109E+02  0.10773593214E+04  0.10871864948E+04  0.11940924743E+03 0.  0.
         35    2    3    3    0    0  0.66160360544E+02  0.51338148109E+02  0.23788167428E+04  0.25110094946E+04  0.79961665029E+03 0.  0.
         22    1    5    5    0    0 -0.42904245632E+02 -0.32930085294E+03  0.16348377800E+04  0.16682249228E+04  0.00000000000E+00 0.  1.
         22    1    5    5    0    0  0.10906460618E+03  0.38063900105E+03  0.74397896281E+03  0.84278457185E+03  0.00000000000E+00 0.  1.
          5    1    4    4  502    0  0.86632327976E+01  0.29762330793E+02  0.14777438522E+03  0.15106358550E+03  0.47000000000E+01 0.  1.
         -5    1    4    4    0  502 -0.74823593341E+02 -0.81100478902E+02  0.92958493616E+03  0.93612290931E+03  0.47000000000E+01 0.  1.
<mgrwt>
<rscale>  0 0.10009303E+04</rscale>
<asrwt>0</asrwt>
<pdfrwt beam="1">  1        2 0.54264387E+00 0.10009303E+04</pdfrwt>
<pdfrwt beam="2">  1       -2 0.10924612E-01 0.10009303E+04</pdfrwt>
<totfact> 0.47648319E+01</totfact>
</mgrwt>
</event>
<event>
 9    1  0.4388925E-036  0.1000648E+04  0.7818608E-02  0.8680421E-01
         -2   -1    0    0    0  501 -0.00000000000E+00  0.00000000000E+00  0.15873976781E+03  0.15873976781E+03  0.00000000000E+00 0. -1.
          2   -1    0    0  501    0  0.00000000000E+00 -0.00000000000E+00 -0.15769470178E+04  0.15769470178E+04  0.00000000000E+00 0. -1.
         36    2    1    2    0    0  0.28421709430E-13  0.28421709430E-13 -0.14182072500E+04  0.17356867856E+04  0.10006481968E+04 0.  0.
         25    2    3    3    0    0 -0.58682905358E+02  0.12556909353E+03 -0.30129944191E+03  0.35478144781E+03  0.12600492603E+03 0.  0.
         35    2    3    3    0    0  0.58682905358E+02 -0.12556909353E+03 -0.11169078081E+04  0.13809053378E+04  0.80012825195E+03 0.  0.
         22    1    5    5    0    0 -0.30579125190E+03  0.83738342380E+01 -0.15364959790E+03  0.34232529818E+03  0.00000000000E+00 0. -1.
         22    1    5    5    0    0  0.36447415726E+03 -0.13394292777E+03 -0.96325821020E+03  0.10385800396E+04  0.00000000000E+00 0. -1.
          5    1    4    4  502    0 -0.77183551779E+02  0.13790511440E+03 -0.22377044966E+03  0.27398982715E+03  0.47000000000E+01 0.  1.
         -5    1    4    4    0  502  0.18500646421E+02 -0.12336020872E+02 -0.77528992247E+02  0.80791620653E+02  0.47000000000E+01 0.  1.
<mgrwt>
<rscale>  0 0.10006482E+04</rscale>
<asrwt>0</asrwt>
<pdfrwt beam="1">  1        2 0.24260724E+00 0.10006482E+04</pdfrwt>
<pdfrwt beam="2">  1       -2 0.24421502E-01 0.10006482E+04</pdfrwt>
<totfact> 0.20495195E+02</totfact>
</mgrwt>
</event>
<event>
 9    1  0.4388925E-036  0.1000000E+04  0.7818608E-02  0.8681038E-01
          1   -1    0    0  501    0  0.00000000000E+00  0.00000000000E+00  0.23486362223E+04  0.23486362223E+04  0.00000000000E+00 0. -1.
         -1   -1    0    0    0  501 -0.00000000000E+00 -0.00000000000E+00 -0.10644475243E+03  0.10644475243E+03  0.00000000000E+00 0. -1.
         36    2    1    2    0    0  0.21316282073E-13  0.28421709430E-13  0.22421914699E+04  0.24550809748E+04  0.10000000025E+04 0.  0.
         25    2    3    3    0    0 -0.59327651878E+00 -0.10524828803E+03  0.19386176038E+03  0.25362795289E+03  0.12516869513E+03 0.  0.
         35    2    3    3    0    0  0.59327651878E+00  0.10524828803E+03  0.20483297095E+04  0.22014530219E+04  0.79978950634E+03 0.  0.
         22    1    5    5    0    0  0.17849454648E+03  0.38977385290E+03  0.14860789848E+04  0.15466786055E+04  0.00000000000E+00 0. -1.
         22    1    5    5    0    0 -0.17790126997E+03 -0.28452556488E+03  0.56225072472E+03  0.65477441640E+03  0.00000000000E+00 0. -1.
          5    1    4    4  502    0 -0.59196453617E+02 -0.29076852417E+02  0.64161961465E+02  0.92133222924E+02  0.47000000000E+01 0.  1.
         -5    1    4    4    0  502  0.58603177099E+02 -0.76171435610E+02  0.12969979891E+03  0.16149472997E+03  0.47000000000E+01 0.  1.
<mgrwt>
<rscale>  0 0.10000000E+04</rscale>
<asrwt>0</asrwt>
<pdfrwt beam="1">  1        1 0.36132861E+00 0.10000000E+04</pdfrwt>
<pdfrwt beam="2">  1       -1 0.16376117E-01 0.10000000E+04</pdfrwt>
<totfact> 0.50312554E+01</totfact>
</mgrwt>
</event>
<event>
 9    1  0.4388925E-036  0.1000076E+04  0.7818608E-02  0.8680966E-01
         -2   -1    0    0    0  501 -0.00000000000E+00  0.00000000000E+00  0.62565102358E+03  0.62565102358E+03  0.00000000000E+00 0.  1.
          2   -1    0    0  501    0  0.00000000000E+00 -0.00000000000E+00 -0.39964413280E+03  0.39964413280E+03  0.00000000000E+00 0.  1.
         36    2    1    2    0    0 -0.35527136788E-14  0.00000000000E+00  0.22600689078E+03  0.10252951564E+04  0.10000755187E+04 0.  0.
         25    2    3    3    0    0  0.95468308106E+01 -0.13575154775E+03  0.39917532877E+01  0.18460693385E+03  0.12467622563E+03 0.  0.
         35    2    3    3    0    0 -0.95468308106E+01  0.13575154775E+03  0.22201513749E+03  0.84068822253E+03  0.79934119219E+03 0.  0.
         22    1    5    5    0    0 -0.19941937064E+03 -0.72833261683E+02  0.43712977141E+03  0.48595802951E+03  0.00000000000E+00 0. -1.
         22    1    5    5    0    0  0.18987253983E+03  0.20858480943E+03 -0.21511463392E+03  0.35473019301E+03  0.00000000000E+00 0. -1.
          5    1    4    4  502    0  0.40253623420E+02 -0.14211737721E+03  0.19923245048E+02  0.14911984709E+03  0.47000000000E+01 0. -1.
         -5    1    4    4    0  502 -0.30706792609E+02  0.63658294602E+01 -0.15931491760E+02  0.35487086761E+02  0.47000000000E+01 0. -1.
<mgrwt>
<rscale>  0 0.10000755E+04</rscale>
<asrwt>0</asrwt>
<pdfrwt beam="1">  1        2 0.61483713E-01 0.10000755E+04</pdfrwt>
<pdfrwt beam="2">  1       -2 0.96254003E-01 0.10000755E+04</pdfrwt>
<totfact> 0.85683810E+01</totfact>
</mgrwt>
</event>
<event>
 9    1  0.4388925E-036  0.9995103E+03  0.7818608E-02  0.8681504E-01
         -2   -1    0    0    0  501 -0.00000000000E+00  0.00000000000E+00  0.81020646310E+02  0.81020646310E+02  0.00000000000E+00 0. -1.
          2   -1    0    0  501    0  0.00000000000E+00 -0.00000000000E+00 -0.30826118110E+04  0.30826118110E+04  0.00000000000E+00 0. -1.
         36    2    1    2    0    0  0.00000000000E+00 -0.28421709430E-13 -0.30015911647E+04  0.31636324573E+04  0.99951028258E+03 0.  0.
         25    2    3    3    0    0 -0.10428698146E+03  0.93378670436E+02 -0.60153775040E+03  0.62988439171E+03  0.12373896385E+03 0.  0.
         35    2    3    3    0    0  0.10428698146E+03 -0.93378670436E+02 -0.24000534143E+04  0.25337480656E+04  0.80001719848E+03 0.  0.
         22    1    5    5    0    0  0.86232943181E+02 -0.20266578699E+03 -0.11963940800E+03  0.25064542616E+03  0.00000000000E+00 0.  1.
         22    1    5    5    0    0  0.18054038282E+02  0.10928711655E+03 -0.22804140063E+04  0.22831026394E+04  0.00000000000E+00 0.  1.
          5    1    4    4  502    0 -0.37910837825E+02  0.74377440515E+02 -0.13909280224E+03  0.16229027364E+03  0.47000000000E+01 0. -1.
         -5    1    4    4    0  502 -0.66376143638E+02  0.19001229922E+02 -0.46244494816E+03  0.46759411808E+03  0.47000000000E+01 0. -1.
<mgrwt>
<rscale>  0 0.99951028E+03</rscale>
<asrwt>0</asrwt>
<pdfrwt beam="1">  1        2 0.47424788E+00 0.99951028E+03</pdfrwt>
<pdfrwt beam="2">  1       -2 0.12464717E-01 0.99951028E+03</pdfrwt>
<totfact> 0.80100338E+01</totfact>
</mgrwt>
</event>
<event>
 9    1  0.4388925E-036  0.9991768E+03  0.7818608E-02  0.8681822E-01
          2   -1    0    0  501    0  0.00000000000E+00  0.00000000000E+00  0.11283668476E+04  0.11283668476E+04  0.00000000000E+00 0.  1.
         -2   -1    0    0    0  501 -0.00000000000E+00 -0.00000000000E+00 -0.22119453738E+03  0.22119453738E+03  0.00000000000E+00 0.  1.
         36    2    1    2    0    0  0.14210854715E-13  0.71054273576E-14  0.90717231019E+03  0.13495613850E+04  0.99917682688E+03 0.  0.
         25    2    3    3    0    0  0.30218431332E+02 -0.46470383417E+02 -0.26301231456E+01  0.13710897728E+03  0.12537664844E+03 0.  0.
         35    2    3    3    0    0 -0.30218431332E+02  0.46470383417E+02  0.90980243334E+03  0.12124524077E+04  0.79951718121E+03 0.  0.
         22    1    5    5    0    0  0.34570474943E+03 -0.91752944754E+02  0.23574848564E+03  0.42837801663E+03  0.00000000000E+00 0. -1.
         22    1    5    5    0    0 -0.37592318076E+03  0.13822332817E+03  0.67405394770E+03  0.78407439105E+03  0.00000000000E+00 0. -1.
          5    1    4    4  502    0  0.58197683867E+02 -0.76099384712E+02 -0.47214029870E+01  0.96033683711E+02  0.47000000000E+01 0. -1.
         -5    1    4    4    0  502 -0.27979252535E+02  0.29629001295E+02  0.20912798414E+01  0.41075293566E+02  0.47000000000E+01 0. -1.
<mgrwt>
<rscale>  0 0.99917683E+03</rscale>
<asrwt>0</asrwt>
<pdfrwt beam="1">  1        2 0.17359490E+00 0.99917683E+03</pdfrwt>
<pdfrwt beam="2">  1       -2 0.34029929E-01 0.99917683E+03</pdfrwt>
<totfact> 0.20403284E+02</totfact>
</mgrwt>
</event>
<event>
 9    1  0.4388925E-036  0.9987715E+03  0.7818608E-02  0.8682209E-01
         -2   -1    0    0    0  501 -0.00000000000E+00  0.00000000000E+00  0.81362799756E+02  0.81362799756E+02  0.00000000000E+00 0. -1.
          2   -1    0    0  501    0  0.00000000000E+00 -0.00000000000E+00 -0.30651122816E+04  0.30651122816E+04  0.00000000000E+00 0. -1.
         36    2    1    2    0    0 -0.35527136788E-14  0.00000000000E+00 -0.29837494819E+04  0.31464750814E+04  0.99877147896E+03 0.  0.
         25    2    3    3    0    0 -0.27899326679E+02  0.24858766560E+02 -0.98906678997E+03  0.99752115309E+03  0.12409272800E+03 0.  0.
         35    2    3    3    0    0  0.27899326679E+02 -0.24858766560E+02 -0.19946826919E+04  0.21489539283E+04  0.79865362569E+03 0.  0.
         22    1    5    5    0    0  0.57054433712E+02 -0.16654499580E+03 -0.19965407001E+04  0.20042872078E+04  0.00000000000E+00 0.  1.
         22    1    5    5    0    0 -0.29155107033E+02  0.14168622924E+03  0.18580082434E+01  0.14466672049E+03  0.00000000000E+00 0.  1.
          5    1    4    4  502    0 -0.79883819718E+01  0.64841927347E+02 -0.81928747849E+03  0.82190166821E+03  0.47000000000E+01 0. -1.
         -5    1    4    4    0  502 -0.19910944707E+02 -0.39983160787E+02 -0.16977931148E+03  0.17561948489E+03  0.47000000000E+01 0. -1.
<mgrwt>
<rscale>  0 0.99877148E+03</rscale>
<asrwt>0</asrwt>
<pdfrwt beam="1">  1        2 0.47155576E+00 0.99877148E+03</pdfrwt>
<pdfrwt beam="2">  1       -2 0.12517353E-01 0.99877148E+03</pdfrwt>
<totfact> 0.81753374E+01</totfact>
</mgrwt>
</event>
<event>
 9    1  0.4388925E-036  0.1001075E+04  0.7818608E-02  0.8680015E-01
         -2   -1    0    0    0  501 -0.00000000000E+00  0.00000000000E+00  0.42115603584E+03  0.42115603584E+03  0.00000000000E+00 0.  1.
          2   -1    0    0  501    0  0.00000000000E+00 -0.00000000000E+00 -0.59488062593E+03  0.59488062593E+03  0.00000000000E+00 0.  1.
         36    2    1    2    0    0  0.14210854715E-13 -0.71054273576E-14 -0.17372459009E+03  0.10160366618E+04  0.10010745551E+04 0.  0.
         25    2    3    3    0    0  0.53093139695E+02  0.30360891265E+02 -0.16121534156E+03  0.21381436764E+03  0.12643390469E+03 0.  0.
         35    2    3    3    0    0 -0.53093139695E+02 -0.30360891265E+02 -0.12509248536E+02  0.80222229413E+03  0.79978963653E+03 0.  0.
         22    1    5    5    0    0  0.28001774620E+03 -0.24991009598E+03  0.98656094154E+02  0.38806960609E+03  0.00000000000E+00 0. -1.
         22    1    5    5    0    0 -0.33311088589E+03  0.21954920472E+03 -0.11116534269E+03  0.41415268804E+03  0.00000000000E+00 0. -1.
          5    1    4    4  502    0  0.75020563464E+02 -0.17892638878E+02 -0.54454957185E+02  0.94528640265E+02  0.47000000000E+01 0.  1.
         -5    1    4    4    0  502 -0.21927423769E+02  0.48253530143E+02 -0.10676038437E+03  0.11928572738E+03  0.47000000000E+01 0.  1.
<mgrwt>
<rscale>  0 0.10010746E+04</rscale>
<asrwt>0</asrwt>
<pdfrwt beam="1">  1        2 0.91520096E-01 0.10010746E+04</pdfrwt>
<pdfrwt beam="2">  1       -2 0.64793236E-01 0.10010746E+04</pdfrwt>
<totfact> 0.13328612E+02</totfact>
</mgrwt>
</event>
<event>
 9    1  0.4388925E-036  0.1000555E+04  0.7818608E-02  0.8680510E-01
          2   -1    0    0  501    0  0.00000000000E+00  0.00000000000E+00  0.48958546508E+03  0.48958546508E+03  0.00000000000E+00 0. -1.
         -2   -1    0    0    0  501 -0.00000000000E+00 -0.00000000000E+00 -0.51120276560E+03  0.51120276560E+03  0.00000000000E+00 0. -1.
         36    2    1    2    0    0 -0.28421709430E-13  0.14210854715E-13 -0.21617300524E+02  0.10007882307E+04  0.10005547336E+04 0.  0.
         25    2    3    3    0    0 -0.11913730222E+03 -0.64514739784E+02  0.29002189773E+02  0.18682363797E+03  0.12532396525E+03 0.  0.
         35    2    3    3    0    0  0.11913730222E+03  0.64514739784E+02 -0.50619490297E+02  0.81396459270E+03  0.80101197054E+03 0.  0.
         22    1    5    5    0    0  0.37805702631E+03  0.50733648088E+01 -0.27395031428E+03  0.46690644552E+03  0.00000000000E+00 0.  1.
         22    1    5    5    0    0 -0.25891972410E+03  0.59441374975E+02  0.22333082398E+03  0.34705814718E+03  0.00000000000E+00 0.  1.
          5    1    4    4  502    0 -0.80910624086E+02  0.20236752755E+02 -0.13270693681E+02  0.84582838465E+02  0.47000000000E+01 0.  1.
         -5    1    4    4    0  502 -0.38226678131E+02 -0.84751492539E+02  0.42272883454E+02  0.10224079951E+03  0.47000000000E+01 0.  1.
<mgrwt>
<rscale>  0 0.10005547E+04</rscale>
<asrwt>0</asrwt>
<pdfrwt beam="1">  1        2 0.75320841E-01 0.10005547E+04</pdfrwt>
<pdfrwt beam="2">  1       -2 0.78646579E-01 0.10005547E+04</pdfrwt>
<totfact> 0.10929944E+02</totfact>
</mgrwt>
</event>
<event>
 9    1  0.4388925E-036  0.1000610E+04  0.7818608E-02  0.8680457E-01
         -1   -1    0    0    0  501 -0.00000000000E+00  0.00000000000E+00  0.41807488656E+03  0.41807488656E+03  0.00000000000E+00 0. -1.
          1   -1    0    0  501    0  0.00000000000E+00 -0.00000000000E+00 -0.59870887235E+03  0.59870887235E+03  0.00000000000E+00 0. -1.
         36    2    1    2    0    0 -0.71054273576E-14  0.28421709430E-13 -0.18063398579E+03  0.10167837589E+04  0.10006101017E+04 0.  0.
         25    2    3    3    0    0  0.32905771921E+02  0.13640221049E+03 -0.35206690505E+02  0.19091919452E+03  0.12458842213E+03 0.  0.
         35    2    3    3    0    0 -0.32905771921E+02 -0.13640221049E+03 -0.14542729528E+03  0.82586456439E+03  0.80075890732E+03 0.  0.
         22    1    5    5    0    0  0.18638348486E+03  0.23343420693E+03  0.11849995782E+03  0.32136050224E+03  0.00000000000E+00 0. -1.
         22    1    5    5    0    0 -0.21928925678E+03 -0.36983641742E+03 -0.26392725311E+03  0.50450406215E+03  0.00000000000E+00 0. -1.
          5    1    4    4  502    0  0.60885582764E+02  0.55715456723E+02  0.24956298629E+02  0.86349135187E+02  0.47000000000E+01 0. -1.
         -5    1    4    4    0  502 -0.27979810843E+02  0.80686753764E+02 -0.60162989134E+02  0.10457005933E+03  0.47000000000E+01 0. -1.
<mgrwt>
<rscale>  0 0.10006101E+04</rscale>
<asrwt>0</asrwt>
<pdfrwt beam="1">  1        1 0.92109057E-01 0.10006101E+04</pdfrwt>
<pdfrwt beam="2">  1       -1 0.64319213E-01 0.10006101E+04</pdfrwt>
<totfact> 0.98028927E+01</totfact>
</mgrwt>
</event>
<event>
 9    1  0.4388925E-036  0.9999880E+03  0.7818608E-02  0.8681049E-01
          2   -1    0    0  501    0  0.00000000000E+00  0.00000000000E+00  0.87534036081E+03  0.87534036081E+03  0.00000000000E+00 0.  1.
         -2   -1    0    0    0  501 -0.00000000000E+00 -0.00000000000E+00 -0.28559634396E+03  0.28559634396E+03  0.00000000000E+00 0.  1.
         36    2    1    2    0    0  0.28421709430E-13  0.00000000000E+00  0.58974401685E+03  0.11609367048E+04  0.99998801347E+03 0.  0.
         25    2    3    3    0    0 -0.49003217691E+02 -0.10826681543E+03  0.23668834976E+02  0.17397686696E+03  0.12483876730E+03 0.  0.
         35    2    3    3    0    0  0.49003217691E+02  0.10826681543E+03  0.56607518187E+03  0.98695983781E+03  0.79970343957E+03 0.  0.
         22    1    5    5    0    0 -0.13180586364E+03  0.29399298410E+03 -0.42981156301E+02  0.32504159763E+03  0.00000000000E+00 0.  1.
         22    1    5    5    0    0  0.18080908133E+03 -0.18572616867E+03  0.60905633817E+03  0.66191824019E+03  0.00000000000E+00 0.  1.
          5    1    4    4  502    0 -0.51678299245E+02 -0.26280843647E+01 -0.24859674357E+02  0.57599017782E+02  0.47000000000E+01 0.  1.
         -5    1    4    4    0  502  0.26750815539E+01 -0.10563873106E+03  0.48528509333E+02  0.11637784918E+03  0.47000000000E+01 0.  1.
<mgrwt>
<rscale>  0 0.99998801E+03</rscale>
<asrwt>0</asrwt>
<pdfrwt beam="1">  1        2 0.13466775E+00 0.99998801E+03</pdfrwt>
<pdfrwt beam="2">  1       -2 0.43937899E-01 0.99998801E+03</pdfrwt>
<totfact> 0.18116024E+02</totfact>
</mgrwt>
</event>
<event>
 9    1  0.4388925E-036  0.1000344E+04  0.7818608E-02  0.8680710E-01
         -2   -1    0    0    0  501 -0.00000000000E+00  0.00000000000E+00  0.19887762780E+03  0.19887762780E+03  0.00000000000E+00 0.  1.
          2   -1    0    0  501    0  0.00000000000E+00 -0.00000000000E+00 -0.12579200096E+04  0.12579200096E+04  0.00000000000E+00 0.  1.
         36    2    1    2    0    0 -0.71054273576E-14 -0.14210854715E-13 -0.10590423818E+04  0.14567976374E+04  0.10003442357E+04 0.  0.
         25    2    3    3    0    0 -0.58752071480E+02 -0.49945639752E+02 -0.27904637629E+02  0.14945574663E+03  0.12494790340E+03 0.  0.
         35    2    3    3    0    0  0.58752071480E+02  0.49945639752E+02 -0.10311377442E+04  0.13073418907E+04  0.79996962383E+03 0.  0.
         22    1    5    5    0    0  0.34531067246E+03  0.50348673875E+02 -0.94614130408E+03  0.10084432640E+04  0.00000000000E+00 0. -1.
         22    1    5    5    0    0 -0.28655860098E+03 -0.40303412309E+00 -0.84996440069E+02  0.29889862672E+03  0.00000000000E+00 0. -1.
          5    1    4    4  502    0 -0.48183474057E+02 -0.32035659192E+02  0.45029762048E+02  0.73469041794E+02  0.47000000000E+01 0. -1.
         -5    1    4    4    0  502 -0.10568597423E+02 -0.17909980559E+02 -0.72934399677E+02  0.75986704832E+02  0.47000000000E+01 0. -1.
<mgrwt>
<rscale>  0 0.10003442E+04</rscale>
<asrwt>0</asrwt>
<pdfrwt beam="1">  1        2 0.19352615E+00 0.10003442E+04</pdfrwt>
<pdfrwt beam="2">  1       -2 0.30596559E-01 0.10003442E+04</pdfrwt>
<totfact> 0.20799997E+02</totfact>
</mgrwt>
</event>
<event>
 9    1  0.4388925E-036  0.9984950E+03  0.7818608E-02  0.8682472E-01
         -1   -1    0    0    0  501 -0.00000000000E+00  0.00000000000E+00  0.39984605203E+03  0.39984605203E+03  0.00000000000E+00 0. -1.
          1   -1    0    0  501    0  0.00000000000E+00 -0.00000000000E+00 -0.62336013288E+03  0.62336013288E+03  0.00000000000E+00 0. -1.
         36    2    1    2    0    0  0.28421709430E-13  0.00000000000E+00 -0.22351408085E+03  0.10232061849E+04  0.99849504381E+03 0.  0.
         25    2    3    3    0    0 -0.81223259505E+02 -0.11177332502E+03 -0.29378532565E+02  0.18789327174E+03  0.12389628452E+03 0.  0.
         35    2    3    3    0    0  0.81223259505E+02  0.11177332502E+03 -0.19413554829E+03  0.83531291318E+03  0.80060511973E+03 0.  0.
         22    1    5    5    0    0  0.14050856764E+03 -0.35059833748E+02 -0.48389926181E+03  0.50510429132E+03  0.00000000000E+00 0. -1.
         22    1    5    5    0    0 -0.59285308136E+02  0.14683315877E+03  0.28976371353E+03  0.33020862186E+03  0.00000000000E+00 0. -1.
          5    1    4    4  502    0 -0.29092307587E+02  0.70116530520E+01 -0.47999104757E+02  0.56758520917E+02  0.47000000000E+01 0. -1.
         -5    1    4    4    0  502 -0.52130951918E+02 -0.11878497807E+03  0.18620572192E+02  0.13113475082E+03  0.47000000000E+01 0. -1.
<mgrwt>
<rscale>  0 0.99849504E+03</rscale>
<asrwt>0</asrwt>
<pdfrwt beam="1">  1        1 0.95901558E-01 0.99849504E+03</pdfrwt>
<pdfrwt beam="2">  1       -1 0.61514778E-01 0.99849504E+03</pdfrwt>
<totfact> 0.10073413E+02</totfact>
</mgrwt>
</event>
<event>
 9    1  0.4388925E-036  0.1000892E+04  0.7818608E-02  0.8680189E-01
          1   -1    0    0  501    0  0.00000000000E+00  0.00000000000E+00  0.55408922668E+03  0.55408922668E+03  0.00000000000E+00 0.  1.
         -1   -1    0    0    0  501 -0.00000000000E+00 -0.00000000000E+00 -0.45199640589E+03  0.45199640589E+03  0.00000000000E+00 0.  1.
         36    2    1    2    0    0  0.00000000000E+00  0.00000000000E+00  0.10209282079E+03  0.10060856326E+04  0.10008922799E+04 0.  0.
         25    2    3    3    0    0 -0.65005574569E+02 -0.12331519628E+03  0.44869820332E+02  0.19208074993E+03  0.12429541970E+03 0.  0.
         35    2    3    3    0    0  0.65005574569E+02  0.12331519628E+03  0.57223000460E+02  0.81400488265E+03  0.79993569419E+03 0.  0.
         22    1    5    5    0    0  0.96471638194E+02  0.44048599316E+03 -0.94948341887E+02  0.46081436043E+03  0.00000000000E+00 0.  1.
         22    1    5    5    0    0 -0.31466063625E+02 -0.31717079688E+03  0.15217134235E+03  0.35319052222E+03  0.00000000000E+00 0.  1.
          5    1    4    4  502    0 -0.44851694063E+02  0.11052862561E+02  0.30085424963E+02  0.55326874359E+02  0.47000000000E+01 0.  1.
         -5    1    4    4    0  502 -0.20153880506E+02 -0.13436805885E+03  0.14784395369E+02  0.13675387557E+03  0.47000000000E+01 0.  1.
<mgrwt>
<rscale>  0 0.10008923E+04</rscale>
<asrwt>0</asrwt>
<pdfrwt beam="1">  1        1 0.85244496E-01 0.10008923E+04</pdfrwt>
<pdfrwt beam="2">  1       -1 0.69537909E-01 0.10008923E+04</pdfrwt>
<totfact> 0.94050862E+01</totfact>
</mgrwt>
</event>
<event>
 9    1  0.4388925E-036  0.9998630E+03  0.7818608E-02  0.8681168E-01
          1   -1    0    0  501    0  0.00000000000E+00  0.00000000000E+00  0.18741959620E+03  0.18741959620E+03  0.00000000000E+00 0. -1.
         -1   -1    0    0    0  501 -0.00000000000E+00 -0.00000000000E+00 -0.13335398334E+04  0.13335398334E+04  0.00000000000E+00 0. -1.
         36    2    1    2    0    0  0.24868995752E-13  0.00000000000E+00 -0.11461202372E+04  0.15209594296E+04  0.99986298480E+03 0.  0.
         25    2    3    3    0    0  0.62899240780E+01 -0.13697515842E+03 -0.21623344555E+03  0.28627621801E+03  0.12804457371E+03 0.  0.
         35    2    3    3    0    0 -0.62899240780E+01  0.13697515842E+03 -0.92988679169E+03  0.12346832116E+04  0.80059442324E+03 0.  0.
         22    1    5    5    0    0 -0.37114316035E+03  0.17396769697E+03 -0.30797469998E+03  0.51269915242E+03  0.00000000000E+00 0. -1.
         22    1    5    5    0    0  0.36485323627E+03 -0.36992538553E+02 -0.62191209171E+03  0.72198405920E+03  0.00000000000E+00 0. -1.
          5    1    4    4  502    0 -0.29168843639E+02 -0.12829794349E+03 -0.21155151864E+03  0.24917327060E+03  0.47000000000E+01 0.  1.
         -5    1    4    4    0  502  0.35458767717E+02 -0.86772149287E+01 -0.46819269044E+01  0.37102947409E+02  0.47000000000E+01 0.  1.
<mgrwt>
<rscale>  0 0.99986298E+03</rscale>
<asrwt>0</asrwt>
<pdfrwt beam="1">  1        1 0.28833785E-01 0.99986298E+03</pdfrwt>
<pdfrwt beam="2">  1       -1 0.20515997E+00 0.99986298E+03</pdfrwt>
<totfact> 0.22790114E+01</totfact>
</mgrwt>
</event>
<event>
 9    1  0.4388925E-036  0.1000135E+04  0.7818608E-02  0.8680909E-01
         -2   -1    0    0    0  501 -0.00000000000E+00  0.00000000000E+00  0.16450675480E+03  0.16450675480E+03  0.00000000000E+00 0. -1.
          2   -1    0    0  501    0  0.00000000000E+00 -0.00000000000E+00 -0.15201050939E+04  0.15201050939E+04  0.00000000000E+00 0. -1.
         36    2    1    2    0    0  0.00000000000E+00 -0.17763568394E-13 -0.13555983392E+04  0.16846118487E+04  0.10001351028E+04 0.  0.
         25    2    3    3    0    0  0.77890037660E+02 -0.25108097338E+02 -0.60920598148E+02  0.16097942237E+03  0.12452220938E+03 0.  0.
         35    2    3    3    0    0 -0.77890037660E+02  0.25108097338E+02 -0.12946777410E+04  0.15236324264E+04  0.79910452578E+03 0.  0.
         22    1    5    5    0    0 -0.14151125961E+01 -0.22897568009E+03 -0.29433416354E+02  0.23086400892E+03  0.00000000000E+00 0. -1.
         22    1    5    5    0    0 -0.76474925064E+02  0.25408377742E+03 -0.12652443246E+04  0.12927684175E+04  0.00000000000E+00 0. -1.
          5    1    4    4  502    0  0.80337216320E+02  0.84725821994E+00 -0.90609729316E+02  0.12118993035E+03  0.47000000000E+01 0.  1.
         -5    1    4    4    0  502 -0.24471786598E+01 -0.25955355558E+02  0.29689131168E+02  0.39789492018E+02  0.47000000000E+01 0.  1.
<mgrwt>
<rscale>  0 0.10001351E+04</rscale>
<asrwt>0</asrwt>
<pdfrwt beam="1">  1        2 0.23386233E+00 0.10001351E+04</pdfrwt>
<pdfrwt beam="2">  1       -2 0.25308731E-01 0.10001351E+04</pdfrwt>
<totfact> 0.20715677E+02</totfact>
</mgrwt>
</event>
<event>
 9    1  0.4388925E-036  0.9998382E+03  0.7818608E-02  0.8681192E-01
          2   -1    0    0  501    0  0.00000000000E+00  0.00000000000E+00  0.28147290298E+04  0.28147290298E+04  0.00000000000E+00 0. -1.
         -2   -1    0    0    0  501 -0.00000000000E+00 -0.00000000000E+00 -0.88789764903E+02  0.88789764903E+02  0.00000000000E+00 0. -1.
         36    2    1    2    0    0  0.00000000000E+00 -0.35527136788E-14  0.27259392649E+04  0.29035187947E+04  0.99983824456E+03 0.  0.
         25    2    3    3    0    0  0.11661799816E+03 -0.27490386175E+02  0.72197402794E+03  0.74272702327E+03  0.12665486665E+03 0.  0.
         35    2    3    3    0    0 -0.11661799816E+03  0.27490386175E+02  0.20039652369E+04  0.21607917714E+04  0.79924272266E+03 0.  0.
         22    1    5    5    0    0 -0.45263032093E+03  0.53801331855E+02  0.93938509179E+03  0.10441327221E+04  0.00000000000E+00 0. -1.
         22    1    5    5    0    0  0.33601232277E+03 -0.26310945680E+02  0.10645801451E+04  0.11166590493E+04  0.00000000000E+00 0. -1.
          5    1    4    4  502    0 -0.22024562749E+02  0.27527412814E+00  0.22147966152E+03  0.22262184890E+03  0.47000000000E+01 0.  1.
         -5    1    4    4    0  502  0.13864256091E+03 -0.27765660303E+02  0.50049436642E+03  0.52010517437E+03  0.47000000000E+01 0.  1.
<mgrwt>
<rscale>  0 0.99983824E+03</rscale>
<asrwt>0</asrwt>
<pdfrwt beam="1">  1        2 0.43303517E+00 0.99983824E+03</pdfrwt>
<pdfrwt beam="2">  1       -2 0.13659966E-01 0.99983824E+03</pdfrwt>
<totfact> 0.10346906E+02</totfact>
</mgrwt>
</event>
<event>
 9    1  0.4388925E-036  0.9978099E+03  0.7818608E-02  0.8683126E-01
         -1   -1    0    0    0  501 -0.00000000000E+00  0.00000000000E+00  0.24485173035E+03  0.24485173035E+03  0.00000000000E+00 0. -1.
          1   -1    0    0  501    0  0.00000000000E+00 -0.00000000000E+00 -0.10165585737E+04  0.10165585737E+04  0.00000000000E+00 0. -1.
         36    2    1    2    0    0 -0.42632564146E-13  0.00000000000E+00 -0.77170684337E+03  0.12614103041E+04  0.99780985319E+03 0.  0.
         25    2    3    3    0    0 -0.46145053676E+02 -0.53873016998E+02 -0.29395985951E+03  0.32691544296E+03  0.12421610163E+03 0.  0.
         35    2    3    3    0    0  0.46145053676E+02  0.53873016998E+02 -0.47774698386E+03  0.93449486112E+03  0.80000424807E+03 0.  0.
         22    1    5    5    0    0  0.41427525817E+03 -0.33682752481E+01 -0.34456596078E+03  0.53885159009E+03  0.00000000000E+00 0.  1.
         22    1    5    5    0    0 -0.36813020450E+03  0.57241292246E+02 -0.13318102308E+03  0.39564327103E+03  0.00000000000E+00 0.  1.
          5    1    4    4  502    0  0.31573996019E+02 -0.21558335738E+00 -0.21434000082E+02  0.38450878538E+02  0.47000000000E+01 0. -1.
         -5    1    4    4    0  502 -0.77719049695E+02 -0.53657433640E+02 -0.27252585943E+03  0.28846456442E+03  0.47000000000E+01 0. -1.
<mgrwt>
<rscale>  0 0.99780985E+03</rscale>
<asrwt>0</asrwt>
<pdfrwt beam="1">  1        1 0.15639362E+00 0.99780985E+03</pdfrwt>
<pdfrwt beam="2">  1       -1 0.37669498E-01 0.99780985E+03</pdfrwt>
<totfact> 0.11157542E+02</totfact>
</mgrwt>
</event>
<event>
 9    1  0.4388925E-036  0.1000333E+04  0.7818608E-02  0.8680721E-01
         -2   -1    0    0    0  501 -0.00000000000E+00  0.00000000000E+00  0.93615011652E+02  0.93615011652E+02  0.00000000000E+00 0. -1.
          2   -1    0    0  501    0  0.00000000000E+00 -0.00000000000E+00 -0.26722886799E+04  0.26722886799E+04  0.00000000000E+00 0. -1.
         36    2    1    2    0    0 -0.28421709430E-13 -0.21316282073E-13 -0.25786736683E+04  0.27659036916E+04  0.10003326165E+04 0.  0.
         25    2    3    3    0    0  0.59690984449E+02  0.13203739895E+02 -0.13289037461E+03  0.19215465228E+03  0.12460419880E+03 0.  0.
         35    2    3    3    0    0 -0.59690984449E+02 -0.13203739895E+02 -0.24457832937E+04  0.25737490393E+04  0.79911879300E+03 0.  0.
         22    1    5    5    0    0  0.16247727690E+03  0.19364970439E+03 -0.24465818042E+03  0.35179070307E+03  0.00000000000E+00 0. -1.
         22    1    5    5    0    0 -0.22216826135E+03 -0.20685344429E+03 -0.22011251133E+04  0.22219583362E+04  0.00000000000E+00 0. -1.
          5    1    4    4  502    0 -0.81258004578E+01  0.50916276331E+02 -0.20915330772E+02  0.55839384755E+02  0.47000000000E+01 0. -1.
         -5    1    4    4    0  502  0.67816784907E+02 -0.37712536436E+02 -0.11197504383E+03  0.13631526753E+03  0.47000000000E+01 0. -1.
<mgrwt>
<rscale>  0 0.10003326E+04</rscale>
<asrwt>0</asrwt>
<pdfrwt beam="1">  1        2 0.41112130E+00 0.10003326E+04</pdfrwt>
<pdfrwt beam="2">  1       -2 0.14402311E-01 0.10003326E+04</pdfrwt>
<totfact> 0.11666620E+02</totfact>
</mgrwt>
</event>
<event>
 9    1  0.4388925E-036  0.1000108E+04  0.7818608E-02  0.8680935E-01
          2   -1    0    0  501    0  0.00000000000E+00  0.00000000000E+00  0.51080392202E+03  0.51080392202E+03  0.00000000000E+00 0.  1.
         -2   -1    0    0    0  501 -0.00000000000E+00 -0.00000000000E+00 -0.48953053936E+03  0.48953053936E+03  0.00000000000E+00 0.  1.
         36    2    1    2    0    0  0.00000000000E+00  0.56843418861E-13  0.21273382664E+02  0.10003344614E+04  0.10001082331E+04 0.  0.
         25    2    3    3    0    0  0.55916896651E+02 -0.12873226233E+03 -0.30363662814E+02  0.19030890413E+03  0.12488727828E+03 0.  0.
         35    2    3    3    0    0 -0.55916896651E+02  0.12873226233E+03  0.51637045478E+02  0.81002555726E+03  0.79610069982E+03 0.  0.
         22    1    5    5    0    0 -0.40961271955E+02  0.46594093728E+03  0.64933462602E+02  0.47222360953E+03  0.00000000000E+00 0. -1.
         22    1    5    5    0    0 -0.14955624697E+02 -0.33720867496E+03 -0.13296417123E+02  0.33780194772E+03  0.00000000000E+00 0. -1.
          5    1    4    4  502    0  0.41108580048E+02 -0.26746695516E+02  0.41636444810E+02  0.64505694408E+02  0.47000000000E+01 0.  1.
         -5    1    4    4    0  502  0.14808316603E+02 -0.10198556681E+03 -0.72000107624E+02  0.12580320972E+03  0.47000000000E+01 0.  1.
<mgrwt>
<rscale>  0 0.10001082E+04</rscale>
<asrwt>0</asrwt>
<pdfrwt beam="1">  1        2 0.78585218E-01 0.10001082E+04</pdfrwt>
<pdfrwt beam="2">  1       -2 0.75312391E-01 0.10001082E+04</pdfrwt>
<totfact> 0.11478452E+02</totfact>
</mgrwt>
</event>
<event>
 9    1  0.4388925E-036  0.1000816E+04  0.7818608E-02  0.8680261E-01
         -1   -1    0    0    0  501 -0.00000000000E+00  0.00000000000E+00  0.68112134686E+03  0.68112134686E+03  0.00000000000E+00 0.  1.
          1   -1    0    0  501    0  0.00000000000E+00 -0.00000000000E+00 -0.36764139454E+03  0.36764139454E+03  0.00000000000E+00 0.  1.
         36    2    1    2    0    0  0.00000000000E+00  0.00000000000E+00  0.31347995233E+03  0.10487627414E+04  0.10008164703E+04 0.  0.
         25    2    3    3    0    0 -0.49824211480E+02 -0.11836095119E+03  0.11876238722E+03  0.21522174011E+03  0.12539587706E+03 0.  0.
         35    2    3    3    0    0  0.49824211480E+02  0.11836095119E+03  0.19471756511E+03  0.83354100129E+03  0.80023990394E+03 0.  0.
         22    1    5    5    0    0 -0.13553432901E+02  0.43032494986E+03  0.26765678102E+03  0.50695503789E+03  0.00000000000E+00 0.  1.
         22    1    5    5    0    0  0.63377644380E+02 -0.31196399867E+03 -0.72939215910E+02  0.32658596340E+03  0.00000000000E+00 0.  1.
          5    1    4    4  502    0 -0.33672200900E+02 -0.42875129546E+02  0.12617549722E+03  0.13752977840E+03  0.47000000000E+01 0. -1.
         -5    1    4    4    0  502 -0.16152010580E+02 -0.75485821645E+02 -0.74131100052E+01  0.77691961715E+02  0.47000000000E+01 0. -1.
<mgrwt>
<rscale>  0 0.10008165E+04</rscale>
<asrwt>0</asrwt>
<pdfrwt beam="1">  1        1 0.56560215E-01 0.10008165E+04</pdfrwt>
<pdfrwt beam="2">  1       -1 0.10478790E+00 0.10008165E+04</pdfrwt>
<totfact> 0.68926723E+01</totfact>
</mgrwt>
</event>
<event>
 9    1  0.4388925E-036  0.9999881E+03  0.7818608E-02  0.8681049E-01
         -1   -1    0    0    0  501 -0.00000000000E+00  0.00000000000E+00  0.22585535668E+03  0.22585535668E+03  0.00000000000E+00 0.  1.
          1   -1    0    0  501    0  0.00000000000E+00 -0.00000000000E+00 -0.11068766861E+04  0.11068766861E+04  0.00000000000E+00 0.  1.
         36    2    1    2    0    0  0.35527136788E-14  0.42632564146E-13 -0.88102132941E+03  0.13327320428E+04  0.99998805741E+03 0.  0.
         25    2    3    3    0    0 -0.23189806194E+02 -0.12045985399E+03 -0.24790073028E+03  0.30353361239E+03  0.12501815165E+03 0.  0.
         35    2    3    3    0    0  0.23189806194E+02  0.12045985399E+03 -0.63312059913E+03  0.10291984304E+04  0.80209685981E+03 0.  0.
         22    1    5    5    0    0  0.11267053497E+03 -0.29913192556E+03 -0.80572320408E+02  0.32964595729E+03  0.00000000000E+00 0. -1.
         22    1    5    5    0    0 -0.89480728777E+02  0.41959177956E+03 -0.55254827872E+03  0.69955247310E+03  0.00000000000E+00 0. -1.
          5    1    4    4  502    0 -0.40623207267E+01  0.21146170138E+02 -0.65100460474E+01  0.22981158820E+02  0.47000000000E+01 0.  1.
         -5    1    4    4    0  502 -0.19127485467E+02 -0.14160602413E+03 -0.24139068423E+03  0.28055245357E+03  0.47000000000E+01 0.  1.
<mgrwt>
<rscale>  0 0.99998806E+03</rscale>
<asrwt>0</asrwt>
<pdfrwt beam="1">  1        1 0.17028872E+00 0.99998806E+03</pdfrwt>
<pdfrwt beam="2">  1       -1 0.34746978E-01 0.99998806E+03</pdfrwt>
<totfact> 0.10933553E+02</totfact>
</mgrwt>
</event>
<event>
 9    1  0.4388925E-036  0.9999088E+03  0.7818608E-02  0.8681125E-01
          1   -1    0    0  501    0  0.00000000000E+00  0.00000000000E+00  0.13473658417E+04  0.13473658417E+04  0.00000000000E+00 0. -1.
         -1   -1    0    0    0  501 -0.00000000000E+00 -0.00000000000E+00 -0.18551338947E+03  0.18551338947E+03  0.00000000000E+00 0. -1.
         36    2    1    2    0    0  0.21316282073E-13  0.00000000000E+00  0.11618524522E+04  0.15328792312E+04  0.99990880415E+03 0.  0.
         25    2    3    3    0    0 -0.46333522685E+02  0.96245496621E+02  0.79403328016E+02  0.18258276672E+03  0.12498634829E+03 0.  0.
         35    2    3    3    0    0  0.46333522685E+02 -0.96245496621E+02  0.10824491242E+04  0.13502964645E+04  0.80012151857E+03 0.  0.
         22    1    5    5    0    0  0.28283291503E+03  0.88565163672E+02  0.99421723375E+03  0.10374517598E+04  0.00000000000E+00 0.  1.
         22    1    5    5    0    0 -0.23649939234E+03 -0.18481066029E+03  0.88231890474E+02  0.31284470466E+03  0.00000000000E+00 0.  1.
          5    1    4    4  502    0 -0.66196423068E+02  0.38159693363E+02 -0.65748059099E+01  0.76833890292E+02  0.47000000000E+01 0.  1.
         -5    1    4    4    0  502  0.19862900383E+02  0.58085803257E+02  0.85978133925E+02  0.10574887642E+03  0.47000000000E+01 0.  1.
<mgrwt>
<rscale>  0 0.99990880E+03</rscale>
<asrwt>0</asrwt>
<pdfrwt beam="1">  1        1 0.20728705E+00 0.99990880E+03</pdfrwt>
<pdfrwt beam="2">  1       -1 0.28540522E-01 0.99990880E+03</pdfrwt>
<totfact> 0.10166965E+02</totfact>
</mgrwt>
</event>
<event>
 9    1  0.4388925E-036  0.1000007E+04  0.7818608E-02  0.8681032E-01
          1   -1    0    0  501    0  0.00000000000E+00  0.00000000000E+00  0.17777583953E+04  0.17777583953E+04  0.00000000000E+00 0. -1.
         -1   -1    0    0    0  501 -0.00000000000E+00 -0.00000000000E+00 -0.14062838690E+03  0.14062838690E+03  0.00000000000E+00 0. -1.
         36    2    1    2    0    0  0.00000000000E+00  0.14210854715E-13  0.16371300084E+04  0.19183867822E+04  0.10000065908E+04 0.  0.
         25    2    3    3    0    0  0.81477656912E+02  0.78928486637E+02  0.45979073259E+03  0.49032818201E+03  0.12706649328E+03 0.  0.
         35    2    3    3    0    0 -0.81477656912E+02 -0.78928486637E+02  0.11773392758E+04  0.14280586002E+04  0.80022201960E+03 0.  0.
         22    1    5    5    0    0 -0.58808899901E+02  0.22071491125E+03  0.16561211614E+02  0.22901491760E+03  0.00000000000E+00 0. -1.
         22    1    5    5    0    0 -0.22668757011E+02 -0.29964339788E+03  0.11607780642E+04  0.11990436826E+04  0.00000000000E+00 0. -1.
          5    1    4    4  502    0  0.12596596362E+02  0.28711544135E+02  0.34911417377E+03  0.35055074288E+03  0.47000000000E+01 0.  1.
         -5    1    4    4    0  502  0.68881060550E+02  0.50216942501E+02  0.11067655882E+03  0.13977743913E+03  0.47000000000E+01 0.  1.
<mgrwt>
<rscale>  0 0.10000066E+04</rscale>
<asrwt>0</asrwt>
<pdfrwt beam="1">  1        1 0.27350128E+00 0.10000066E+04</pdfrwt>
<pdfrwt beam="2">  1       -1 0.21635138E-01 0.10000066E+04</pdfrwt>
<totfact> 0.80063452E+01</totfact>
</mgrwt>
</event>
<event>
 9    1  0.4388925E-036  0.9989793E+03  0.7818608E-02  0.8682011E-01
          2   -1    0    0  501    0  0.00000000000E+00  0.00000000000E+00  0.66625005052E+02  0.66625005052E+02  0.00000000000E+00 0.  1.
         -2   -1    0    0    0  501 -0.00000000000E+00 -0.00000000000E+00 -0.37446885113E+04  0.37446885113E+04  0.00000000000E+00 0.  1.
         36    2    1    2    0    0 -0.28421709430E-13 -0.35527136788E-14 -0.36780635062E+04  0.38113135163E+04  0.99897926101E+03 0.  0.
         25    2    3    3    0    0 -0.97180743119E+02  0.19230220118E+02 -0.32304235509E+03  0.36050533452E+03  0.12567352481E+03 0.  0.
         35    2    3    3    0    0  0.97180743119E+02 -0.19230220118E+02 -0.33550211511E+04  0.34508081818E+04  0.80130910693E+03 0.  0.
         22    1    5    5    0    0 -0.19769999214E+03 -0.11484981671E+03 -0.28435523007E+04  0.28527294744E+04  0.00000000000E+00 0. -1.
         22    1    5    5    0    0  0.29488073526E+03  0.95619596587E+02 -0.51146885040E+03  0.59807870737E+03  0.00000000000E+00 0. -1.
          5    1    4    4  502    0  0.15162116655E+02  0.31415050894E+02 -0.14781691603E+03  0.15194974784E+03  0.47000000000E+01 0.  1.
         -5    1    4    4    0  502 -0.11234285977E+03 -0.12184830776E+02 -0.17522543906E+03  0.20855558668E+03  0.47000000000E+01 0.  1.
<mgrwt>
<rscale>  0 0.99897926E+03</rscale>
<asrwt>0</asrwt>
<pdfrwt beam="1">  1        2 0.10249998E-01 0.99897926E+03</pdfrwt>
<pdfrwt beam="2">  1       -2 0.57610606E+00 0.99897926E+03</pdfrwt>
<totfact> 0.10582245E+00</totfact>
</mgrwt>
</event>
<event>
 9    1  0.4388925E-036  0.9999154E+03  0.7818608E-02  0.8681118E-01
         -2   -1    0    0    0  501 -0.00000000000E+00  0.00000000000E+00  0.89091258610E+02  0.89091258610E+02  0.00000000000E+00 0.  1.
          2   -1    0    0  501    0  0.00000000000E+00 -0.00000000000E+00 -0.28056369448E+04  0.28056369448E+04  0.00000000000E+00 0.  1.
         36    2    1    2    0    0  0.00000000000E+00 -0.28421709430E-13 -0.27165456862E+04  0.28947282034E+04  0.99991544966E+03 0.  0.
         25    2    3    3    0    0  0.48638118090E+01  0.10993049516E+03 -0.75940496578E+03  0.77749547019E+03  0.12527942244E+03 0.  0.
         35    2    3    3    0    0 -0.48638118090E+01 -0.10993049516E+03 -0.19571407204E+04  0.21172327333E+04  0.80010391619E+03 0.  0.
         22    1    5    5    0    0  0.33284607619E+02  0.33924209617E+03 -0.10555809234E+04  0.11092538712E+04  0.00000000000E+00 0.  1.
         22    1    5    5    0    0 -0.38148419428E+02 -0.44917259133E+03 -0.90155979703E+03  0.10079788620E+04  0.00000000000E+00 0.  1.
          5    1    4    4  502    0 -0.37015822458E+02  0.48876893340E+02 -0.58150374540E+03  0.58474594290E+03  0.47000000000E+01 0.  1.
         -5    1    4    4    0  502  0.41879634267E+02  0.61053601817E+02 -0.17790122037E+03  0.19274952729E+03  0.47000000000E+01 0.  1.
<mgrwt>
<rscale>  0 0.99991545E+03</rscale>
<asrwt>0</asrwt>
<pdfrwt beam="1">  1        2 0.43163639E+00 0.99991545E+03</pdfrwt>
<pdfrwt beam="2">  1       -2 0.13706349E-01 0.99991545E+03</pdfrwt>
<totfact> 0.10428058E+02</totfact>
</mgrwt>
</event>
<event>
 9    1  0.4388925E-036  0.9997363E+03  0.7818608E-02  0.8681289E-01
         -2   -1    0    0    0  501 -0.00000000000E+00  0.00000000000E+00  0.12747549357E+03  0.12747549357E+03  0.00000000000E+00 0. -1.
          2   -1    0    0  501    0  0.00000000000E+00 -0.00000000000E+00 -0.19601269950E+04  0.19601269950E+04  0.00000000000E+00 0. -1.
         36    2    1    2    0    0  0.00000000000E+00  0.00000000000E+00 -0.18326515015E+04  0.20876024886E+04  0.99973627754E+03 0.  0.
         25    2    3    3    0    0  0.45204672224E+02 -0.13183012695E+03 -0.33762885749E+03  0.38581321620E+03  0.12424148914E+03 0.  0.
         35    2    3    3    0    0 -0.45204672224E+02  0.13183012695E+03 -0.14950226440E+04  0.17017892724E+04  0.80098150848E+03 0.  0.
         22    1    5    5    0    0  0.21895266178E+03  0.66722218521E+02 -0.13922848561E+04  0.14109745721E+04  0.00000000000E+00 0.  1.
         22    1    5    5    0    0 -0.26415733400E+03  0.65107908429E+02 -0.10273778783E+03  0.29081470027E+03  0.00000000000E+00 0.  1.
          5    1    4    4  502    0  0.79805212856E+02 -0.58299259318E+02 -0.13443324088E+03  0.16691932749E+03  0.47000000000E+01 0. -1.
         -5    1    4    4    0  502 -0.34600540631E+02 -0.73530867631E+02 -0.20319561661E+03  0.21889388871E+03  0.47000000000E+01 0. -1.
<mgrwt>
<rscale>  0 0.99973628E+03</rscale>
<asrwt>0</asrwt>
<pdfrwt beam="1">  1        2 0.30155798E+00 0.99973628E+03</pdfrwt>
<pdfrwt beam="2">  1       -2 0.19611615E-01 0.99973628E+03</pdfrwt>
<totfact> 0.18270792E+02</totfact>
</mgrwt>
</event>
<event>
 9    1  0.4388925E-036  0.1000152E+04  0.7818608E-02  0.8680893E-01
          2   -1    0    0  501    0  0.00000000000E+00  0.00000000000E+00  0.20455834691E+03  0.20455834691E+03  0.00000000000E+00 0. -1.
         -2   -1    0    0    0  501 -0.00000000000E+00 -0.00000000000E+00 -0.12225175325E+04  0.12225175325E+04  0.00000000000E+00 0. -1.
         36    2    1    2    0    0  0.00000000000E+00  0.31974423109E-13 -0.10179591856E+04  0.14270758794E+04  0.10001523194E+04 0.  0.
         25    2    3    3    0    0  0.35102439665E+02  0.12032522101E+02 -0.38555187283E+03  0.40727815833E+03  0.12588998672E+03 0.  0.
         35    2    3    3    0    0 -0.35102439665E+02 -0.12032522101E+02 -0.63240731276E+03  0.10197977211E+04  0.79916920599E+03 0.  0.
         22    1    5    5    0    0 -0.31825334587E+03 -0.26670042464E+03 -0.38044473400E+03  0.56316294648E+03  0.00000000000E+00 0.  1.
         22    1    5    5    0    0  0.28315090620E+03  0.25466790254E+03 -0.25196257876E+03  0.45663477459E+03  0.00000000000E+00 0.  1.
          5    1    4    4  502    0 -0.10855265131E+02 -0.12528167678E+02 -0.33187013910E+03  0.33231712413E+03  0.47000000000E+01 0.  1.
         -5    1    4    4    0  502  0.45957704796E+02  0.24560689779E+02 -0.53681733730E+02  0.74961034203E+02  0.47000000000E+01 0.  1.
<mgrwt>
<rscale>  0 0.10001523E+04</rscale>
<asrwt>0</asrwt>
<pdfrwt beam="1">  1        2 0.31470515E-01 0.10001523E+04</pdfrwt>
<pdfrwt beam="2">  1       -2 0.18807962E+00 0.10001523E+04</pdfrwt>
<totfact> 0.29561569E+01</totfact>
</mgrwt>
</event>
<event>
 9    1  0.4388925E-036  0.9997136E+03  0.7818608E-02  0.8681311E-01
          2   -1    0    0  501    0  0.00000000000E+00  0.00000000000E+00  0.58758719675E+03  0.58758719675E+03  0.00000000000E+00 0. -1.
         -2   -1    0    0    0  501 -0.00000000000E+00 -0.00000000000E+00 -0.42522505267E+03  0.42522505267E+03  0.00000000000E+00 0. -1.
         36    2    1    2    0    0  0.00000000000E+00  0.00000000000E+00  0.16236214409E+03  0.10128122494E+04  0.99971355234E+03 0.  0.
         25    2    3    3    0    0 -0.20855700578E+02 -0.11090096499E+03 -0.52021486500E+02  0.17646483239E+03  0.12529811544E+03 0.  0.
         35    2    3    3    0    0  0.20855700578E+02  0.11090096499E+03  0.21438363059E+03  0.83634741702E+03  0.80048902342E+03 0.  0.
         22    1    5    5    0    0 -0.47621812937E+02  0.40332027257E+03 -0.82089057300E+02  0.41433524188E+03  0.00000000000E+00 0.  1.
         22    1    5    5    0    0  0.68477513515E+02 -0.29241930759E+03  0.29647268789E+03  0.42201217514E+03  0.00000000000E+00 0.  1.
          5    1    4    4  502    0  0.46269108008E+02 -0.64833498295E+02 -0.97103861255E-01  0.79789173992E+02  0.47000000000E+01 0. -1.
         -5    1    4    4    0  502 -0.67124808586E+02 -0.46067466691E+02 -0.51924382639E+02  0.96675658402E+02  0.47000000000E+01 0. -1.
<mgrwt>
<rscale>  0 0.99971355E+03</rscale>
<asrwt>0</asrwt>
<pdfrwt beam="1">  1        2 0.90398031E-01 0.99971355E+03</pdfrwt>
<pdfrwt beam="2">  1       -2 0.65419238E-01 0.99971355E+03</pdfrwt>
<totfact> 0.13250764E+02</totfact>
</mgrwt>
</event>
<event>
 9    1  0.4388925E-036  0.9999126E+03  0.7818608E-02  0.8681121E-01
         -2   -1    0    0    0  501 -0.00000000000E+00  0.00000000000E+00  0.38950810627E+03  0.38950810627E+03  0.00000000000E+00 0. -1.
          2   -1    0    0  501    0  0.00000000000E+00 -0.00000000000E+00 -0.64172299113E+03  0.64172299113E+03  0.00000000000E+00 0. -1.
         36    2    1    2    0    0  0.00000000000E+00 -0.14210854715E-13 -0.25221488486E+03  0.10312310974E+04  0.99991261023E+03 0.  0.
         25    2    3    3    0    0  0.12071611195E+03 -0.66680673542E+02 -0.11014736431E+02  0.18459290834E+03  0.12220689621E+03 0.  0.
         35    2    3    3    0    0 -0.12071611195E+03  0.66680673542E+02 -0.24120014843E+03  0.84663818906E+03  0.79974997322E+03 0.  0.
         22    1    5    5    0    0 -0.11993864435E+03  0.31500499909E+03  0.16132029322E+03  0.37368123430E+03  0.00000000000E+00 0.  1.
         22    1    5    5    0    0 -0.77746759622E+00 -0.24832432555E+03 -0.40252044165E+03  0.47295695477E+03  0.00000000000E+00 0.  1.
          5    1    4    4  502    0  0.75807624863E+02  0.25707991207E+02 -0.15467049732E+02  0.81664046108E+02  0.47000000000E+01 0.  1.
         -5    1    4    4    0  502  0.44908487085E+02 -0.92388664749E+02  0.44523133013E+01  0.10292886223E+03  0.47000000000E+01 0.  1.
<mgrwt>
<rscale>  0 0.99991261E+03</rscale>
<asrwt>0</asrwt>
<pdfrwt beam="1">  1        2 0.98726614E-01 0.99991261E+03</pdfrwt>
<pdfrwt beam="2">  1       -2 0.59924324E-01 0.99991261E+03</pdfrwt>
<totfact> 0.14353206E+02</totfact>
</mgrwt>
</event>
<event>
 9    1  0.4388925E-036  0.9997014E+03  0.7818608E-02  0.8681322E-01
          1   -1    0    0  501    0  0.00000000000E+00  0.00000000000E+00  0.88728025990E+03  0.88728025990E+03  0.00000000000E+00 0. -1.
         -1   -1    0    0    0  501 -0.00000000000E+00 -0.00000000000E+00 -0.28159167226E+03  0.28159167226E+03  0.00000000000E+00 0. -1.
         36    2    1    2    0    0  0.00000000000E+00  0.00000000000E+00  0.60568858764E+03  0.11688719322E+04  0.99970141972E+03 0.  0.
         25    2    3    3    0    0 -0.49176109884E+02 -0.77027474922E+02  0.23719827646E+03  0.28342555388E+03  0.12536147957E+03 0.  0.
         35    2    3    3    0    0  0.49176109884E+02  0.77027474922E+02  0.36849031119E+03  0.88544637828E+03  0.79992415747E+03 0.  0.
         22    1    5    5    0    0 -0.13558742004E+03 -0.76217711308E+02 -0.20872561570E+03  0.26030649366E+03  0.00000000000E+00 0.  1.
         22    1    5    5    0    0  0.18476352992E+03  0.15324518623E+03  0.57721592689E+03  0.62513988462E+03  0.00000000000E+00 0.  1.
          5    1    4    4  502    0 -0.51883152906E+02 -0.92501581043E+02  0.10195343984E+03  0.14719034597E+03  0.47000000000E+01 0. -1.
         -5    1    4    4    0  502  0.27070430221E+01  0.15474106121E+02  0.13524483662E+03  0.13623520791E+03  0.47000000000E+01 0. -1.
<mgrwt>
<rscale>  0 0.99970142E+03</rscale>
<asrwt>0</asrwt>
<pdfrwt beam="1">  1        1 0.13650465E+00 0.99970142E+03</pdfrwt>
<pdfrwt beam="2">  1       -1 0.43321796E-01 0.99970142E+03</pdfrwt>
<totfact> 0.11071568E+02</totfact>
</mgrwt>
</event>
<event>
 9    1  0.4388925E-036  0.1000281E+04  0.7818608E-02  0.8680771E-01
          1   -1    0    0  501    0  0.00000000000E+00  0.00000000000E+00  0.10917903831E+04  0.10917903831E+04  0.00000000000E+00 0.  1.
         -1   -1    0    0    0  501 -0.00000000000E+00 -0.00000000000E+00 -0.22911025112E+03  0.22911025112E+03  0.00000000000E+00 0.  1.
         36    2    1    2    0    0  0.00000000000E+00 -0.14210854715E-13  0.86268013201E+03  0.13209006343E+04  0.10002806983E+04 0.  0.
         25    2    3    3    0    0  0.85811373699E+02  0.10679219184E+03  0.22124565918E+03  0.28681128819E+03  0.12059398506E+03 0.  0.
         35    2    3    3    0    0 -0.85811373699E+02 -0.10679219184E+03  0.64143447283E+03  0.10340893461E+04  0.79945883486E+03 0.  0.
         22    1    5    5    0    0  0.25330469464E+03  0.19675874133E+03  0.41854893836E+03  0.52731440755E+03  0.00000000000E+00 0.  1.
         22    1    5    5    0    0 -0.33911606834E+03 -0.30355093316E+03  0.22288553448E+03  0.50677493852E+03  0.00000000000E+00 0.  1.
          5    1    4    4  502    0  0.36010853647E+02  0.11296904469E+03  0.19905509619E+03  0.23174082065E+03  0.47000000000E+01 0. -1.
         -5    1    4    4    0  502  0.49800520052E+02 -0.61768528513E+01  0.22190562992E+02  0.55070467534E+02  0.47000000000E+01 0. -1.
<mgrwt>
<rscale>  0 0.10002807E+04</rscale>
<asrwt>0</asrwt>
<pdfrwt beam="1">  1        1 0.16796775E+00 0.10002807E+04</pdfrwt>
<pdfrwt beam="2">  1       -1 0.35247732E-01 0.10002807E+04</pdfrwt>
<totfact> 0.10951846E+02</totfact>
</mgrwt>
</event>
<event>
 9    1  0.4388925E-036  0.9961588E+03  0.7818608E-02  0.8684705E-01
         -1   -1    0    0    0  501 -0.00000000000E+00  0.00000000000E+00  0.18669630312E+03  0.18669630312E+03  0.00000000000E+00 0.  1.
          1   -1    0    0  501    0  0.00000000000E+00 -0.00000000000E+00 -0.13288056560E+04  0.13288056560E+04  0.00000000000E+00 0.  1.
         36    2    1    2    0    0 -0.28421709430E-13  0.14210854715E-13 -0.11421093528E+04  0.15155019591E+04  0.99615882977E+03 0.  0.
         25    2    3    3    0    0  0.10526785197E+03  0.76510773215E+02 -0.27260779562E+03  0.32676740231E+03  0.12460620332E+03 0.  0.
         35    2    3    3    0    0 -0.10526785197E+03 -0.76510773215E+02 -0.86950155721E+03  0.11887345568E+04  0.80007603974E+03 0.  0.
         22    1    5    5    0    0 -0.37401718201E+03  0.86440830322E+02 -0.76776861228E+03  0.85838773965E+03  0.00000000000E+00 0. -1.
         22    1    5    5    0    0  0.26874933004E+03 -0.16295160354E+03 -0.10173294494E+03  0.33034681712E+03  0.00000000000E+00 0. -1.
          5    1    4    4  502    0  0.75589086231E+02 -0.14821513555E+02 -0.78113095412E+02  0.10980497665E+03  0.47000000000E+01 0.  1.
         -5    1    4    4    0  502  0.29678765740E+02  0.91332286770E+02 -0.19449470021E+03  0.21696242567E+03  0.47000000000E+01 0.  1.
<mgrwt>
<rscale>  0 0.99615883E+03</rscale>
<asrwt>0</asrwt>
<pdfrwt beam="1">  1        1 0.20443164E+00 0.99615883E+03</pdfrwt>
<pdfrwt beam="2">  1       -1 0.28722509E-01 0.99615883E+03</pdfrwt>
<totfact> 0.10377795E+02</totfact>
</mgrwt>
</event>
<event>
 9    1  0.4388925E-036  0.1000033E+04  0.7818608E-02  0.8681007E-01
          2   -1    0    0  501    0  0.00000000000E+00  0.00000000000E+00  0.14751595068E+04  0.14751595068E+04  0.00000000000E+00 0.  1.
         -2   -1    0    0    0  501 -0.00000000000E+00 -0.00000000000E+00 -0.16948433483E+03  0.16948433483E+03  0.00000000000E+00 0.  1.
         36    2    1    2    0    0 -0.28421709430E-13  0.00000000000E+00  0.13056751720E+04  0.16446438416E+04  0.10000328550E+04 0.  0.
         25    2    3    3    0    0 -0.65956819145E+02 -0.10394603945E+03  0.13284577754E+03  0.21967059068E+03  0.12430642256E+03 0.  0.
         35    2    3    3    0    0  0.65956819145E+02  0.10394603945E+03  0.11728293944E+04  0.14249732509E+04  0.79991555576E+03 0.  0.
         22    1    5    5    0    0 -0.17498377941E+03 -0.23941771544E+03  0.83591008746E+03  0.88695312155E+03  0.00000000000E+00 0. -1.
         22    1    5    5    0    0  0.24094059856E+03  0.34336375490E+03  0.33691930697E+03  0.53802012938E+03  0.00000000000E+00 0. -1.
          5    1    4    4  502    0  0.91116694249E+01 -0.60070304467E+01  0.87215554985E+02  0.88021304045E+02  0.47000000000E+01 0.  1.
         -5    1    4    4    0  502 -0.75068488570E+02 -0.97939009006E+02  0.45630222554E+02  0.13164928664E+03  0.47000000000E+01 0.  1.
<mgrwt>
<rscale>  0 0.10000329E+04</rscale>
<asrwt>0</asrwt>
<pdfrwt beam="1">  1        2 0.22694761E+00 0.10000329E+04</pdfrwt>
<pdfrwt beam="2">  1       -2 0.26074514E-01 0.10000329E+04</pdfrwt>
<totfact> 0.20830240E+02</totfact>
</mgrwt>
</event>
<event>
 9    1  0.4388925E-036  0.1000354E+04  0.7818608E-02  0.8680701E-01
         -4   -1    0    0    0  501 -0.00000000000E+00  0.00000000000E+00  0.30992558446E+03  0.30992558446E+03  0.00000000000E+00 0. -1.
          4   -1    0    0  501    0  0.00000000000E+00 -0.00000000000E+00 -0.80721616598E+03  0.80721616598E+03  0.00000000000E+00 0. -1.
         36    2    1    2    0    0  0.00000000000E+00 -0.71054273576E-14 -0.49729058152E+03  0.11171417504E+04  0.10003538215E+04 0.  0.
         25    2    3    3    0    0  0.11272837932E+03 -0.38065867924E+02 -0.11257153018E+02  0.17433488398E+03  0.12692214335E+03 0.  0.
         35    2    3    3    0    0 -0.11272837932E+03  0.38065867924E+02 -0.48603342850E+03  0.94280686646E+03  0.79906169725E+03 0.  0.
         22    1    5    5    0    0  0.33287752686E+03  0.94683233560E+02 -0.29474405477E+03  0.45458378813E+03  0.00000000000E+00 0.  1.
         22    1    5    5    0    0 -0.44560590618E+03 -0.56617365636E+02 -0.19128937373E+03  0.48822307833E+03  0.00000000000E+00 0.  1.
          5    1    4    4  502    0  0.77904323547E+02 -0.45725291612E+02  0.49960374141E+02  0.10333448072E+03  0.47000000000E+01 0. -1.
         -5    1    4    4    0  502  0.34824055771E+02  0.76594236876E+01 -0.61217527159E+02  0.71000403260E+02  0.47000000000E+01 0. -1.
<mgrwt>
<rscale>  0 0.10003538E+04</rscale>
<asrwt>0</asrwt>
<pdfrwt beam="1">  1        4 0.12418710E+00 0.10003538E+04</pdfrwt>
<pdfrwt beam="2">  1       -4 0.47680859E-01 0.10003538E+04</pdfrwt>
<totfact> 0.44034028E+00</totfact>
</mgrwt>
</event>
<event>
 9    1  0.4388925E-036  0.1002318E+04  0.7818608E-02  0.8678834E-01
          2   -1    0    0  501    0  0.00000000000E+00  0.00000000000E+00  0.12299422360E+04  0.12299422360E+04  0.00000000000E+00 0.  1.
         -2   -1    0    0    0  501 -0.00000000000E+00 -0.00000000000E+00 -0.20420498291E+03  0.20420498291E+03  0.00000000000E+00 0.  1.
         36    2    1    2    0    0  0.71054273576E-14  0.00000000000E+00  0.10257372531E+04  0.14341472189E+04  0.10023179800E+04 0.  0.
         25    2    3    3    0    0 -0.28509272665E+02  0.28088073316E+02  0.39614180662E+03  0.41703180561E+03  0.12403820962E+03 0.  0.
         35    2    3    3    0    0  0.28509272665E+02 -0.28088073316E+02  0.62959544645E+03  0.10171154133E+04  0.79782931711E+03 0.  0.
         22    1    5    5    0    0 -0.10024282496E+03 -0.18115968241E+03 -0.12135133388E+03  0.23998666780E+03  0.00000000000E+00 0. -1.
         22    1    5    5    0    0  0.12875209762E+03  0.15307160910E+03  0.75094678032E+03  0.77712874547E+03  0.00000000000E+00 0. -1.
          5    1    4    4  502    0  0.35842224891E+02 -0.35606338988E+01  0.26509830436E+03  0.26757530561E+03  0.47000000000E+01 0. -1.
         -5    1    4    4    0  502 -0.64351497556E+02  0.31648707215E+02  0.13104350226E+03  0.14945650000E+03  0.47000000000E+01 0. -1.
<mgrwt>
<rscale>  0 0.10023180E+04</rscale>
<asrwt>0</asrwt>
<pdfrwt beam="1">  1        2 0.18922188E+00 0.10023180E+04</pdfrwt>
<pdfrwt beam="2">  1       -2 0.31416152E-01 0.10023180E+04</pdfrwt>
<totfact> 0.20578418E+02</totfact>
</mgrwt>
</event>
<event>
 9    1  0.4388925E-036  0.9997877E+03  0.7818608E-02  0.8681240E-01
          2   -1    0    0  501    0  0.00000000000E+00  0.00000000000E+00  0.27826555327E+04  0.27826555327E+04  0.00000000000E+00 0.  1.
         -2   -1    0    0    0  501 -0.00000000000E+00 -0.00000000000E+00 -0.89804089249E+02  0.89804089249E+02  0.00000000000E+00 0.  1.
         36    2    1    2    0    0  0.00000000000E+00 -0.21316282073E-13  0.26928514434E+04  0.28724596219E+04  0.99978766907E+03 0.  0.
         25    2    3    3    0    0  0.65781845831E+02 -0.54673921459E+02  0.81895603713E+03  0.83293123988E+03  0.12557456223E+03 0.  0.
         35    2    3    3    0    0 -0.65781845831E+02  0.54673921459E+02  0.18738954063E+04  0.20395283821E+04  0.80054702456E+03 0.  0.
         22    1    5    5    0    0 -0.20377913131E+03  0.24385824311E+03  0.26529602424E+03  0.41397434410E+03  0.00000000000E+00 0.  1.
         22    1    5    5    0    0  0.13799728548E+03 -0.18918432165E+03  0.16085993821E+04  0.16255540380E+04  0.00000000000E+00 0.  1.
          5    1    4    4  502    0  0.76695656061E+02 -0.21610465691E+02  0.24031303303E+03  0.25322258930E+03  0.47000000000E+01 0.  1.
         -5    1    4    4    0  502 -0.10913810229E+02 -0.33063455768E+02  0.57864300410E+03  0.57970865058E+03  0.47000000000E+01 0.  1.
<mgrwt>
<rscale>  0 0.99978767E+03</rscale>
<asrwt>0</asrwt>
<pdfrwt beam="1">  1        2 0.42810079E+00 0.99978767E+03</pdfrwt>
<pdfrwt beam="2">  1       -2 0.13816016E-01 0.99978767E+03</pdfrwt>
<totfact> 0.10645569E+02</totfact>
</mgrwt>
</event>
<event>
 9    1  0.4388925E-036  0.9995790E+03  0.7818608E-02  0.8681439E-01
          2   -1    0    0  501    0  0.00000000000E+00  0.00000000000E+00  0.15423445296E+04  0.15423445296E+04  0.00000000000E+00 0.  1.
         -2   -1    0    0    0  501 -0.00000000000E+00 -0.00000000000E+00 -0.16195444025E+03  0.16195444025E+03  0.00000000000E+00 0.  1.
         36    2    1    2    0    0  0.00000000000E+00  0.00000000000E+00  0.13803900893E+04  0.17042989698E+04  0.99957900130E+03 0.  0.
         25    2    3    3    0    0  0.93495153546E+01  0.10728066919E+03  0.38749412720E+03  0.42468945859E+03  0.13642903724E+03 0.  0.
         35    2    3    3    0    0 -0.93495153546E+01 -0.10728066919E+03  0.99289596213E+03  0.12796095112E+04  0.79997597103E+03 0.  0.
         22    1    5    5    0    0  0.31643205935E+03 -0.21508983897E+03  0.23857074041E+03  0.45089786559E+03  0.00000000000E+00 0. -1.
         22    1    5    5    0    0 -0.32578157471E+03  0.10780916978E+03  0.75432522172E+03  0.82871164565E+03  0.00000000000E+00 0. -1.
          5    1    4    4  502    0 -0.50572228417E+02  0.53134031720E+02  0.28383876439E+03  0.29320182432E+03  0.47000000000E+01 0.  1.
         -5    1    4    4    0  502  0.59921743771E+02  0.54146637474E+02  0.10365536281E+03  0.13148763427E+03  0.47000000000E+01 0.  1.
<mgrwt>
<rscale>  0 0.99957900E+03</rscale>
<asrwt>0</asrwt>
<pdfrwt beam="1">  1        2 0.23728376E+00 0.99957900E+03</pdfrwt>
<pdfrwt beam="2">  1       -2 0.24916069E-01 0.99957900E+03</pdfrwt>
<totfact> 0.20690770E+02</totfact>
</mgrwt>
</event>
<event>
 9    1  0.4388925E-036  0.1000197E+04  0.7818608E-02  0.8680851E-01
          1   -1    0    0  501    0  0.00000000000E+00  0.00000000000E+00  0.18002085199E+03  0.18002085199E+03  0.00000000000E+00 0. -1.
         -1   -1    0    0    0  501 -0.00000000000E+00 -0.00000000000E+00 -0.13892745435E+04  0.13892745435E+04  0.00000000000E+00 0. -1.
         36    2    1    2    0    0  0.00000000000E+00  0.00000000000E+00 -0.12092536915E+04  0.15692953955E+04  0.10001967546E+04 0.  0.
         25    2    3    3    0    0  0.81819012900E+02  0.10901791656E+03 -0.28013536189E+03  0.33590998254E+03  0.12562021489E+03 0.  0.
         35    2    3    3    0    0 -0.81819012900E+02 -0.10901791656E+03 -0.92911832961E+03  0.12333854129E+04  0.79962456780E+03 0.  0.
         22    1    5    5    0    0 -0.30360315631E+02  0.29366490780E+03 -0.71688701935E+03  0.77529853950E+03  0.00000000000E+00 0. -1.
         22    1    5    5    0    0 -0.51458697270E+02 -0.40268282436E+03 -0.21223131026E+03  0.45808687343E+03  0.00000000000E+00 0. -1.
          5    1    4    4  502    0  0.97237645711E+02  0.94686251909E+02 -0.14346197862E+03  0.19754512232E+03  0.47000000000E+01 0. -1.
         -5    1    4    4    0  502 -0.15418632811E+02  0.14331664650E+02 -0.13667338327E+03  0.13836486022E+03  0.47000000000E+01 0. -1.
<mgrwt>
<rscale>  0 0.10001968E+04</rscale>
<asrwt>0</asrwt>
<pdfrwt beam="1">  1        1 0.27695516E-01 0.10001968E+04</pdfrwt>
<pdfrwt beam="2">  1       -1 0.21373455E+00 0.10001968E+04</pdfrwt>
<totfact> 0.20274082E+01</totfact>
</mgrwt>
</event>
<event>
 9    1  0.4388925E-036  0.9981384E+03  0.7818608E-02  0.8682813E-01
          2   -1    0    0  501    0  0.00000000000E+00  0.00000000000E+00  0.13707806297E+04  0.13707806297E+04  0.00000000000E+00 0.  1.
         -2   -1    0    0    0  501 -0.00000000000E+00 -0.00000000000E+00 -0.18169941992E+03  0.18169941992E+03  0.00000000000E+00 0.  1.
         36    2    1    2    0    0 -0.28421709430E-13  0.71054273576E-14  0.11890812097E+04  0.15524800496E+04  0.99813835762E+03 0.  0.
         25    2    3    3    0    0 -0.76507983734E+02 -0.16926489843E+02  0.39891429271E+03  0.42529267965E+03  0.12490505514E+03 0.  0.
         35    2    3    3    0    0  0.76507983734E+02  0.16926489843E+02  0.79016691703E+03  0.11271873699E+04  0.80002976977E+03 0.  0.
         22    1    5    5    0    0 -0.33635078654E+03  0.15142855356E+03  0.38767135352E+03  0.53511824560E+03  0.00000000000E+00 0.  1.
         22    1    5    5    0    0  0.41285877027E+03 -0.13450206371E+03  0.40249556351E+03  0.59206912433E+03  0.00000000000E+00 0.  1.
          5    1    4    4  502    0 -0.38758615620E+02 -0.24521214676E+02  0.31503589424E+02  0.55839828085E+02  0.47000000000E+01 0.  1.
         -5    1    4    4    0  502 -0.37749368114E+02  0.75947248328E+01  0.36741070328E+03  0.36945285156E+03  0.47000000000E+01 0.  1.
<mgrwt>
<rscale>  0 0.99813836E+03</rscale>
<asrwt>0</asrwt>
<pdfrwt beam="1">  1        2 0.21088932E+00 0.99813836E+03</pdfrwt>
<pdfrwt beam="2">  1       -2 0.27953758E-01 0.99813836E+03</pdfrwt>
<totfact> 0.21086068E+02</totfact>
</mgrwt>
</event>
<event>
 9    1  0.4388925E-036  0.9979298E+03  0.7818608E-02  0.8683012E-01
         -1   -1    0    0    0  501 -0.00000000000E+00  0.00000000000E+00  0.37051098413E+03  0.37051098413E+03  0.00000000000E+00 0.  1.
          1   -1    0    0  501    0  0.00000000000E+00 -0.00000000000E+00 -0.67195294464E+03  0.67195294464E+03  0.00000000000E+00 0.  1.
         36    2    1    2    0    0  0.00000000000E+00 -0.71054273576E-14 -0.30144196051E+03  0.10424639288E+04  0.99792975065E+03 0.  0.
         25    2    3    3    0    0 -0.92353559771E+02  0.56398219426E+02 -0.14645338211E+03  0.22084987219E+03  0.12496452999E+03 0.  0.
         35    2    3    3    0    0  0.92353559771E+02 -0.56398219426E+02 -0.15498857839E+03  0.82161405659E+03  0.79957379859E+03 0.  0.
         22    1    5    5    0    0  0.31795561591E+02 -0.20448155512E+03 -0.44479628214E+03  0.49057863460E+03  0.00000000000E+00 0.  1.
         22    1    5    5    0    0  0.60557998180E+02  0.14808333569E+03  0.28980770375E+03  0.33103542198E+03  0.00000000000E+00 0.  1.
          5    1    4    4  502    0 -0.22531898081E+02 -0.17679030962E+02  0.12850565482E+02  0.31740535599E+02  0.47000000000E+01 0.  1.
         -5    1    4    4    0  502 -0.69821661690E+02  0.74077250388E+02 -0.15930394760E+03  0.18910933659E+03  0.47000000000E+01 0.  1.
<mgrwt>
<rscale>  0 0.99792975E+03</rscale>
<asrwt>0</asrwt>
<pdfrwt beam="1">  1        1 0.10337737E+00 0.99792975E+03</pdfrwt>
<pdfrwt beam="2">  1       -1 0.57001691E-01 0.99792975E+03</pdfrwt>
<totfact> 0.10417379E+02</totfact>
</mgrwt>
</event>
<event>
 9    1  0.4388925E-036  0.1001932E+04  0.7818608E-02  0.8679200E-01
         -3   -1    0    0    0  501 -0.00000000000E+00  0.00000000000E+00  0.44165964977E+03  0.44165964977E+03  0.00000000000E+00 0.  1.
          3   -1    0    0  501    0  0.00000000000E+00 -0.00000000000E+00 -0.56823647790E+03  0.56823647790E+03  0.00000000000E+00 0.  1.
         36    2    1    2    0    0  0.42632564146E-13 -0.10658141036E-13 -0.12657682813E+03  0.10098961277E+04  0.10019323806E+04 0.  0.
         25    2    3    3    0    0 -0.12293371746E+03 -0.10823020344E+02  0.45714988768E+02  0.18208557231E+03  0.12583901934E+03 0.  0.
         35    2    3    3    0    0  0.12293371746E+03  0.10823020344E+02 -0.17229181689E+03  0.82781055536E+03  0.80022247453E+03 0.  0.
         22    1    5    5    0    0  0.45973852473E+03 -0.65032475688E+02 -0.10603369493E+03  0.47626870407E+03  0.00000000000E+00 0. -1.
         22    1    5    5    0    0 -0.33680480728E+03  0.75855496032E+02 -0.66258121964E+02  0.35154185129E+03  0.00000000000E+00 0. -1.
          5    1    4    4  502    0  0.24671218330E+02 -0.13572229715E+02  0.75771313656E+01  0.29536034823E+02  0.47000000000E+01 0.  1.
         -5    1    4    4    0  502 -0.14760493579E+03  0.27492093711E+01  0.38137857403E+02  0.15254953749E+03  0.47000000000E+01 0.  1.
<mgrwt>
<rscale>  0 0.10019324E+04</rscale>
<asrwt>0</asrwt>
<pdfrwt beam="1">  1        3 0.87420996E-01 0.10019324E+04</pdfrwt>
<pdfrwt beam="2">  1       -3 0.67947639E-01 0.10019324E+04</pdfrwt>
<totfact> 0.10066641E+01</totfact>
</mgrwt>
</event>
<event>
 9    1  0.4388925E-036  0.1000391E+04  0.7818608E-02  0.8680666E-01
         -1   -1    0    0    0  501 -0.00000000000E+00  0.00000000000E+00  0.36942255171E+03  0.36942255171E+03  0.00000000000E+00 0. -1.
          1   -1    0    0  501    0  0.00000000000E+00 -0.00000000000E+00 -0.67726130747E+03  0.67726130747E+03  0.00000000000E+00 0. -1.
         36    2    1    2    0    0  0.00000000000E+00 -0.56843418861E-13 -0.30783875576E+03  0.10466838592E+04  0.10003911243E+04 0.  0.
         25    2    3    3    0    0 -0.82299407835E+01 -0.13168548697E+03 -0.10043130033E+03  0.20838034748E+03  0.12620270887E+03 0.  0.
         35    2    3    3    0    0  0.82299407835E+01  0.13168548697E+03 -0.20740745543E+03  0.83830351170E+03  0.80145250998E+03 0.  0.
         22    1    5    5    0    0 -0.27572090782E+02 -0.33317414977E+03 -0.15702284083E+03  0.36935268621E+03  0.00000000000E+00 0. -1.
         22    1    5    5    0    0  0.35802031566E+02  0.46485963674E+03 -0.50384614600E+02  0.46895082549E+03  0.00000000000E+00 0. -1.
          5    1    4    4  502    0 -0.55344543986E+01 -0.35850253382E-01  0.25260344379E+02  0.26283197463E+02  0.47000000000E+01 0. -1.
         -5    1    4    4    0  502 -0.26954863849E+01 -0.13164963672E+03 -0.12569164471E+03  0.18209715001E+03  0.47000000000E+01 0. -1.
<mgrwt>
<rscale>  0 0.10003911E+04</rscale>
<asrwt>0</asrwt>
<pdfrwt beam="1">  1        1 0.10419405E+00 0.10003911E+04</pdfrwt>
<pdfrwt beam="2">  1       -1 0.56834239E-01 0.10003911E+04</pdfrwt>
<totfact> 0.10349178E+02</totfact>
</mgrwt>
</event>
<event>
 9    1  0.4388925E-036  0.9853267E+03  0.7818608E-02  0.8695138E-01
         -4   -1    0    0    0  501 -0.00000000000E+00  0.00000000000E+00  0.14612036249E+04  0.14612036249E+04  0.00000000000E+00 0. -1.
          4   -1    0    0  501    0  0.00000000000E+00 -0.00000000000E+00 -0.16610770000E+03  0.16610770000E+03  0.00000000000E+00 0. -1.
         36    2    1    2    0    0 -0.28421709430E-13 -0.42632564146E-13  0.12950959249E+04  0.16273113249E+04  0.98532669376E+03 0.  0.
         25    2    3    3    0    0  0.74878211933E+02 -0.86856748613E+02  0.18464916201E+03  0.25427968200E+03  0.13195454614E+03 0.  0.
         35    2    3    3    0    0 -0.74878211933E+02  0.86856748613E+02  0.11104467629E+04  0.13730316429E+04  0.79935789092E+03 0.  0.
         22    1    5    5    0    0 -0.27816519153E+03  0.29038534564E+03  0.26906586192E+03  0.48383464200E+03  0.00000000000E+00 0. -1.
         22    1    5    5    0    0  0.20328697960E+03 -0.20352859703E+03  0.84138090100E+03  0.88919700092E+03  0.00000000000E+00 0. -1.
          5    1    4    4  502    0  0.61765441041E+02 -0.12210124020E+03  0.14572128210E+03  0.19995115559E+03  0.47000000000E+01 0.  1.
         -5    1    4    4    0  502  0.13112770892E+02  0.35244491588E+02  0.38927879907E+02  0.54328526410E+02  0.47000000000E+01 0.  1.
<mgrwt>
<rscale>  0 0.98532669E+03</rscale>
<asrwt>0</asrwt>
<pdfrwt beam="1">  1        4 0.25555032E-01 0.98532669E+03</pdfrwt>
<pdfrwt beam="2">  1       -4 0.22480055E+00 0.98532669E+03</pdfrwt>
<totfact> 0.22518071E+00</totfact>
</mgrwt>
</event>
<event>
 9    1  0.4388925E-036  0.9995945E+03  0.7818608E-02  0.8681424E-01
          2   -1    0    0  501    0  0.00000000000E+00  0.00000000000E+00  0.17446645456E+04  0.17446645456E+04  0.00000000000E+00 0.  1.
         -2   -1    0    0    0  501 -0.00000000000E+00 -0.00000000000E+00 -0.14317783828E+03  0.14317783828E+03  0.00000000000E+00 0.  1.
         36    2    1    2    0    0  0.14210854715E-13 -0.28421709430E-13  0.16014867073E+04  0.18878423838E+04  0.99959451410E+03 0.  0.
         25    2    3    3    0    0  0.81740770366E+02  0.83624371507E+02  0.15785859248E+03  0.23323961771E+03  0.12572507706E+03 0.  0.
         35    2    3    3    0    0 -0.81740770366E+02 -0.83624371507E+02  0.14436281148E+04  0.16546027661E+04  0.79998349406E+03 0.  0.
         22    1    5    5    0    0 -0.16775037493E+03 -0.24637457693E+03  0.14399619946E+04  0.14704867107E+04  0.00000000000E+00 0. -1.
         22    1    5    5    0    0  0.86009604560E+02  0.16275020543E+03  0.36661202476E+01  0.18411605547E+03  0.00000000000E+00 0. -1.
          5    1    4    4  502    0 -0.14612914570E+01  0.86795371958E+02  0.65835480421E+02  0.10905032072E+03  0.47000000000E+01 0. -1.
         -5    1    4    4    0  502  0.83202061823E+02 -0.31710004514E+01  0.92023112057E+02  0.12418929700E+03  0.47000000000E+01 0. -1.
<mgrwt>
<rscale>  0 0.99959451E+03</rscale>
<asrwt>0</asrwt>
<pdfrwt beam="1">  1        2 0.26840992E+00 0.99959451E+03</pdfrwt>
<pdfrwt beam="2">  1       -2 0.22027361E-01 0.99959451E+03</pdfrwt>
<totfact> 0.19767376E+02</totfact>
</mgrwt>
</event>
<event>
 9    1  0.4388925E-036  0.1000071E+04  0.7818608E-02  0.8680971E-01
          2   -1    0    0  501    0  0.00000000000E+00  0.00000000000E+00  0.65920587827E+03  0.65920587827E+03  0.00000000000E+00 0. -1.
         -2   -1    0    0    0  501 -0.00000000000E+00 -0.00000000000E+00 -0.37929782433E+03  0.37929782433E+03  0.00000000000E+00 0. -1.
         36    2    1    2    0    0  0.28421709430E-13  0.00000000000E+00  0.27990805394E+03  0.10385037026E+04  0.10000707083E+04 0.  0.
         25    2    3    3    0    0 -0.71222655654E+02 -0.42985927247E+02 -0.63761317371E+02  0.16417744251E+03  0.12636562198E+03 0.  0.
         35    2    3    3    0    0  0.71222655654E+02  0.42985927247E+02  0.34366937131E+03  0.87432626009E+03  0.79963573938E+03 0.  0.
         22    1    5    5    0    0 -0.32846715224E+03  0.13355578445E+03  0.29571167040E+03  0.46170684387E+03  0.00000000000E+00 0. -1.
         22    1    5    5    0    0  0.39968980790E+03 -0.90569857204E+02  0.47957700906E+02  0.41261941622E+03  0.00000000000E+00 0. -1.
          5    1    4    4  502    0  0.31771942820E+02 -0.27145648798E+02 -0.25252240683E+00  0.42053494109E+02  0.47000000000E+01 0. -1.
         -5    1    4    4    0  502 -0.10299459847E+03 -0.15840278449E+02 -0.63508794964E+02  0.12212394840E+03  0.47000000000E+01 0. -1.
<mgrwt>
<rscale>  0 0.10000707E+04</rscale>
<asrwt>0</asrwt>
<pdfrwt beam="1">  1        2 0.10141629E+00 0.10000707E+04</pdfrwt>
<pdfrwt beam="2">  1       -2 0.58353512E-01 0.10000707E+04</pdfrwt>
<totfact> 0.14683827E+02</totfact>
</mgrwt>
</event>
<event>
 9    1  0.4388925E-036  0.1000208E+04  0.7818608E-02  0.8680840E-01
          1   -1    0    0  501    0  0.00000000000E+00  0.00000000000E+00  0.20577879754E+04  0.20577879754E+04  0.00000000000E+00 0.  1.
         -1   -1    0    0    0  501 -0.00000000000E+00 -0.00000000000E+00 -0.12154030425E+03  0.12154030425E+03  0.00000000000E+00 0.  1.
         36    2    1    2    0    0  0.88817841970E-15 -0.28421709430E-13  0.19362476712E+04  0.21793282797E+04  0.10002083315E+04 0.  0.
         25    2    3    3    0    0 -0.41497848923E+01 -0.13120946508E+03  0.46865347081E+03  0.50246938757E+03  0.12492503874E+03 0.  0.
         35    2    3    3    0    0  0.41497848923E+01  0.13120946508E+03  0.14675942004E+04  0.16768588921E+04  0.80049351193E+03 0.  0.
         22    1    5    5    0    0 -0.35713051649E+02 -0.14133117600E+03  0.13802136673E+04  0.13878903742E+04  0.00000000000E+00 0. -1.
         22    1    5    5    0    0  0.39862836541E+02  0.27254064108E+03  0.87380533036E+02  0.28896851789E+03  0.00000000000E+00 0. -1.
          5    1    4    4  502    0 -0.70042161307E+01 -0.15255271377E+03  0.35163829470E+03  0.38339662208E+03  0.47000000000E+01 0. -1.
         -5    1    4    4    0  502  0.28544312384E+01  0.21343248690E+02  0.11701517611E+03  0.11907276549E+03  0.47000000000E+01 0. -1.
<mgrwt>
<rscale>  0 0.10002083E+04</rscale>
<asrwt>0</asrwt>
<pdfrwt beam="1">  1        1 0.31658274E+00 0.10002083E+04</pdfrwt>
<pdfrwt beam="2">  1       -1 0.18698510E-01 0.10002083E+04</pdfrwt>
<totfact> 0.64826275E+01</totfact>
</mgrwt>
</event>
<event>
 9    1  0.4388925E-036  0.1000121E+04  0.7818608E-02  0.8680923E-01
          2   -1    0    0  501    0  0.00000000000E+00  0.00000000000E+00  0.37706037562E+04  0.37706037562E+04  0.00000000000E+00 0. -1.
         -2   -1    0    0    0  501 -0.00000000000E+00 -0.00000000000E+00 -0.66318364256E+02  0.66318364256E+02  0.00000000000E+00 0. -1.
         36    2    1    2    0    0  0.00000000000E+00  0.00000000000E+00  0.37042853919E+04  0.38369221205E+04  0.10001205395E+04 0.  0.
         25    2    3    3    0    0 -0.52767644159E+02  0.12872915296E+03  0.65425017081E+03  0.68047683161E+03  0.12509921366E+03 0.  0.
         35    2    3    3    0    0  0.52767644159E+02 -0.12872915296E+03  0.30500352211E+04  0.31564452888E+04  0.80067246252E+03 0.  0.
         22    1    5    5    0    0  0.10810081863E+03 -0.30518100668E+03  0.29008088779E+04  0.29188205461E+04  0.00000000000E+00 0. -1.
         22    1    5    5    0    0 -0.55333174472E+02  0.17645185372E+03  0.14922634321E+03  0.23762474279E+03  0.00000000000E+00 0. -1.
          5    1    4    4  502    0  0.10224394361E+02  0.37246543850E+02  0.38379537676E+02  0.54652741752E+02  0.47000000000E+01 0. -1.
         -5    1    4    4    0  502 -0.62992038519E+02  0.91482609113E+02  0.61587063314E+03  0.62582408986E+03  0.47000000000E+01 0. -1.
<mgrwt>
<rscale>  0 0.10001205E+04</rscale>
<asrwt>0</asrwt>
<pdfrwt beam="1">  1        2 0.58009272E+00 0.10001205E+04</pdfrwt>
<pdfrwt beam="2">  1       -2 0.10202828E-01 0.10001205E+04</pdfrwt>
<totfact> 0.34255197E+01</totfact>
</mgrwt>
</event>
<event>
 9    1  0.4388925E-036  0.9994701E+03  0.7818608E-02  0.8681543E-01
         -2   -1    0    0    0  501 -0.00000000000E+00  0.00000000000E+00  0.47795316752E+03  0.47795316752E+03  0.00000000000E+00 0. -1.
          2   -1    0    0  501    0  0.00000000000E+00 -0.00000000000E+00 -0.52250960612E+03  0.52250960612E+03  0.00000000000E+00 0. -1.
         36    2    1    2    0    0 -0.14210854715E-13 -0.14210854715E-13 -0.44556438605E+02  0.10004627736E+04  0.99947010222E+03 0.  0.
         25    2    3    3    0    0  0.35644461832E+02 -0.86040165393E+02  0.95893653830E+02  0.18299672634E+03  0.12497508266E+03 0.  0.
         35    2    3    3    0    0 -0.35644461832E+02  0.86040165393E+02 -0.14045009243E+03  0.81746604730E+03  0.79990691478E+03 0.  0.
         22    1    5    5    0    0  0.30803503734E+03 -0.11308280699E+03  0.11212576177E+03  0.34676431754E+03  0.00000000000E+00 0.  1.
         22    1    5    5    0    0 -0.34367949917E+03  0.19912297238E+03 -0.25257585420E+03  0.47070172977E+03  0.00000000000E+00 0.  1.
          5    1    4    4  502    0  0.73088586455E+02 -0.37806019962E+02  0.89103554468E+02  0.12137862264E+03  0.47000000000E+01 0.  1.
         -5    1    4    4    0  502 -0.37444124623E+02 -0.48234145431E+02  0.67900993624E+01  0.61618103700E+02  0.47000000000E+01 0.  1.
<mgrwt>
<rscale>  0 0.99947010E+03</rscale>
<asrwt>0</asrwt>
<pdfrwt beam="1">  1        2 0.80386093E-01 0.99947010E+03</pdfrwt>
<pdfrwt beam="2">  1       -2 0.73531257E-01 0.99947010E+03</pdfrwt>
<totfact> 0.11793512E+02</totfact>
</mgrwt>
</event>
<event>
 9    1  0.4388925E-036  0.1000267E+04  0.7818608E-02  0.8680784E-01
         -2   -1    0    0    0  501 -0.00000000000E+00  0.00000000000E+00  0.22378531376E+03  0.22378531376E+03  0.00000000000E+00 0.  1.
          2   -1    0    0  501    0  0.00000000000E+00 -0.00000000000E+00 -0.11177378938E+04  0.11177378938E+04  0.00000000000E+00 0.  1.
         36    2    1    2    0    0  0.00000000000E+00  0.00000000000E+00 -0.89395258007E+03  0.13415232076E+04  0.10002666150E+04 0.  0.
         25    2    3    3    0    0 -0.11040893223E+03  0.91965452110E+02 -0.17121409508E+03  0.25450869583E+03  0.12170716167E+03 0.  0.
         35    2    3    3    0    0  0.11040893223E+03 -0.91965452110E+02 -0.72273848499E+03  0.10870145118E+04  0.79912568122E+03 0.  0.
         22    1    5    5    0    0  0.31679615045E+03 -0.15113643490E+03 -0.78797857579E+03  0.86261941712E+03  0.00000000000E+00 0.  1.
         22    1    5    5    0    0 -0.20638721822E+03  0.59170982793E+02  0.65240090802E+02  0.22439509463E+03  0.00000000000E+00 0.  1.
          5    1    4    4  502    0 -0.53175729452E+02  0.11142595878E+03 -0.13854309705E+03  0.18563319270E+03  0.47000000000E+01 0.  1.
         -5    1    4    4    0  502 -0.57233202776E+02 -0.19460506665E+02 -0.32670998031E+02  0.68875503134E+02  0.47000000000E+01 0.  1.
<mgrwt>
<rscale>  0 0.10002666E+04</rscale>
<asrwt>0</asrwt>
<pdfrwt beam="1">  1        2 0.17195967E+00 0.10002666E+04</pdfrwt>
<pdfrwt beam="2">  1       -2 0.34428510E-01 0.10002666E+04</pdfrwt>
<totfact> 0.20262501E+02</totfact>
</mgrwt>
</event>
<event>
 9    1  0.4388925E-036  0.1000488E+04  0.7818608E-02  0.8680573E-01
         -3   -1    0    0    0  501 -0.00000000000E+00  0.00000000000E+00  0.15781160136E+03  0.15781160136E+03  0.00000000000E+00 0.  1.
          3   -1    0    0  501    0  0.00000000000E+00 -0.00000000000E+00 -0.15857138333E+04  0.15857138333E+04  0.00000000000E+00 0.  1.
         36    2    1    2    0    0 -0.28421709430E-13 -0.28421709430E-13 -0.14279022320E+04  0.17435254347E+04  0.10004879596E+04 0.  0.
         25    2    3    3    0    0 -0.87015875385E+02 -0.99148814206E+02 -0.35583338028E+03  0.39962160408E+03  0.12521095002E+03 0.  0.
         35    2    3    3    0    0  0.87015875385E+02  0.99148814206E+02 -0.10720688517E+04  0.13439038306E+04  0.79958966551E+03 0.  0.
         22    1    5    5    0    0 -0.18212117927E+03 -0.77306751059E+02 -0.99298600572E+03  0.10125046495E+04  0.00000000000E+00 0. -1.
         22    1    5    5    0    0  0.26913705466E+03  0.17645556526E+03 -0.79082845961E+02  0.33139918109E+03  0.00000000000E+00 0. -1.
          5    1    4    4  502    0 -0.82097345370E+02 -0.64444071911E+02 -0.34807389227E+03  0.36341510288E+03  0.47000000000E+01 0.  1.
         -5    1    4    4    0  502 -0.49185300153E+01 -0.34704742295E+02 -0.77594880055E+01  0.36206501203E+02  0.47000000000E+01 0.  1.
<mgrwt>
<rscale>  0 0.10004880E+04</rscale>
<asrwt>0</asrwt>
<pdfrwt beam="1">  1        3 0.24395598E+00 0.10004880E+04</pdfrwt>
<pdfrwt beam="2">  1       -3 0.24278707E-01 0.10004880E+04</pdfrwt>
<totfact> 0.51299080E+00</totfact>
</mgrwt>
</event>
<event>
 9    1  0.4388925E-036  0.9994824E+03  0.7818608E-02  0.8681531E-01
          2   -1    0    0  501    0  0.00000000000E+00  0.00000000000E+00  0.12998610572E+04  0.12998610572E+04  0.00000000000E+00 0. -1.
         -2   -1    0    0    0  501 -0.00000000000E+00 -0.00000000000E+00 -0.19212918757E+03  0.19212918757E+03  0.00000000000E+00 0. -1.
         36    2    1    2    0    0 -0.42632564146E-13  0.00000000000E+00  0.11077318697E+04  0.14919902448E+04  0.99948236380E+03 0.  0.
         25    2    3    3    0    0 -0.83885510781E+02 -0.86721662724E+02  0.28867751411E+03  0.33666030152E+03  0.12429008715E+03 0.  0.
         35    2    3    3    0    0  0.83885510781E+02  0.86721662724E+02  0.81905435557E+03  0.11553299433E+04  0.80584106051E+03 0.  0.
         22    1    5    5    0    0 -0.27878032128E+03  0.28568799549E+03  0.36187256028E+03  0.53878367475E+03  0.00000000000E+00 0.  1.
         22    1    5    5    0    0  0.36266583206E+03 -0.19896633276E+03  0.45718179529E+03  0.61654626855E+03  0.00000000000E+00 0.  1.
          5    1    4    4  502    0 -0.80022830274E+02  0.38080131539E+01  0.10880787316E+03  0.13520132244E+03  0.47000000000E+01 0. -1.
         -5    1    4    4    0  502 -0.38626805072E+01 -0.90529675878E+02  0.17986964095E+03  0.20145897908E+03  0.47000000000E+01 0. -1.
<mgrwt>
<rscale>  0 0.99948236E+03</rscale>
<asrwt>0</asrwt>
<pdfrwt beam="1">  1        2 0.19997862E+00 0.99948236E+03</pdfrwt>
<pdfrwt beam="2">  1       -2 0.29558337E-01 0.99948236E+03</pdfrwt>
<totfact> 0.20940409E+02</totfact>
</mgrwt>
</event>
<event>
 9    1  0.4388925E-036  0.9999211E+03  0.7818608E-02  0.8681113E-01
         -2   -1    0    0    0  501 -0.00000000000E+00  0.00000000000E+00  0.23047538597E+03  0.23047538597E+03  0.00000000000E+00 0.  1.
          2   -1    0    0  501    0  0.00000000000E+00 -0.00000000000E+00 -0.10845434371E+04  0.10845434371E+04  0.00000000000E+00 0.  1.
         36    2    1    2    0    0 -0.14210854715E-13 -0.71054273576E-14 -0.85406805110E+03  0.13150188230E+04  0.99992113140E+03 0.  0.
         25    2    3    3    0    0 -0.11000104723E+03  0.55044379200E+02 -0.24823086092E+03  0.30368906386E+03  0.12441211002E+03 0.  0.
         35    2    3    3    0    0  0.11000104723E+03 -0.55044379200E+02 -0.60583719018E+03  0.10113297592E+04  0.80038682318E+03 0.  0.
         22    1    5    5    0    0 -0.12474444167E+03 -0.11041948035E+03  0.14614682724E+03  0.22161347541E+03  0.00000000000E+00 0.  1.
         22    1    5    5    0    0  0.23474548890E+03  0.55375101153E+02 -0.75198401742E+03  0.78971628377E+03  0.00000000000E+00 0.  1.
          5    1    4    4  502    0  0.26199559684E+02  0.67797849109E+01 -0.21930517255E+02  0.35148541906E+02  0.47000000000E+01 0.  1.
         -5    1    4    4    0  502 -0.13620060692E+03  0.48264594289E+02 -0.22630034367E+03  0.26854052195E+03  0.47000000000E+01 0.  1.
<mgrwt>
<rscale>  0 0.99992113E+03</rscale>
<asrwt>0</asrwt>
<pdfrwt beam="1">  1        2 0.16685284E+00 0.99992113E+03</pdfrwt>
<pdfrwt beam="2">  1       -2 0.35457752E-01 0.99992113E+03</pdfrwt>
<totfact> 0.20088643E+02</totfact>
</mgrwt>
</event>
<event>
 9    1  0.4388925E-036  0.1006845E+04  0.7818608E-02  0.8674546E-01
          1   -1    0    0  501    0  0.00000000000E+00  0.00000000000E+00  0.58326488325E+03  0.58326488325E+03  0.00000000000E+00 0. -1.
         -1   -1    0    0    0  501 -0.00000000000E+00 -0.00000000000E+00 -0.43450984655E+03  0.43450984655E+03  0.00000000000E+00 0. -1.
         36    2    1    2    0    0 -0.28421709430E-13 -0.28421709430E-13  0.14875503670E+03  0.10177747298E+04  0.10068452412E+04 0.  0.
         25    2    3    3    0    0 -0.24678881889E+02  0.14386765557E+03  0.80373352441E+01  0.19205991240E+03  0.12456107603E+03 0.  0.
         35    2    3    3    0    0  0.24678881889E+02 -0.14386765557E+03  0.14071770145E+03  0.82571481740E+03  0.80043521827E+03 0.  0.
         22    1    5    5    0    0 -0.32308701026E+03  0.68500249599E+02 -0.10901390540E+03  0.34779524431E+03  0.00000000000E+00 0. -1.
         22    1    5    5    0    0  0.34776589215E+03 -0.21236790517E+03  0.24973160686E+03  0.47791957310E+03  0.00000000000E+00 0. -1.
          5    1    4    4  502    0  0.46930410646E+02  0.89281297314E+02  0.12731337024E+02  0.10177323045E+03  0.47000000000E+01 0.  1.
         -5    1    4    4    0  502 -0.71609292535E+02  0.54586358254E+02 -0.46940017798E+01  0.90286681950E+02  0.47000000000E+01 0.  1.
<mgrwt>
<rscale>  0 0.10068452E+04</rscale>
<asrwt>0</asrwt>
<pdfrwt beam="1">  1        1 0.89733059E-01 0.10068452E+04</pdfrwt>
<pdfrwt beam="2">  1       -1 0.66847668E-01 0.10068452E+04</pdfrwt>
<totfact> 0.94384657E+01</totfact>
</mgrwt>
</event>
<event>
 9    1  0.4388925E-036  0.9999185E+03  0.7818608E-02  0.8681116E-01
         -2   -1    0    0    0  501 -0.00000000000E+00  0.00000000000E+00  0.63096594704E+03  0.63096594704E+03  0.00000000000E+00 0.  1.
          2   -1    0    0  501    0  0.00000000000E+00 -0.00000000000E+00 -0.39615329545E+03  0.39615329545E+03  0.00000000000E+00 0.  1.
         36    2    1    2    0    0  0.56843418861E-13  0.00000000000E+00  0.23481265160E+03  0.10271192425E+04  0.99991847515E+03 0.  0.
         25    2    3    3    0    0 -0.10921294543E+03 -0.18636807190E+02  0.13437703484E+03  0.21298531004E+03  0.12259998682E+03 0.  0.
         35    2    3    3    0    0  0.10921294543E+03  0.18636807190E+02  0.10043561675E+03  0.81413393245E+03  0.80028241816E+03 0.  0.
         22    1    5    5    0    0 -0.26877889513E+03  0.21560662514E+03 -0.75958013017E+02  0.35284264342E+03  0.00000000000E+00 0.  1.
         22    1    5    5    0    0  0.37799184056E+03 -0.19696981795E+03  0.17639362977E+03  0.46129128903E+03  0.00000000000E+00 0.  1.
          5    1    4    4  502    0 -0.13092994626E+03 -0.14494969127E+01  0.12996906239E+03  0.18455026158E+03  0.47000000000E+01 0.  1.
         -5    1    4    4    0  502  0.21717000838E+02 -0.17187310278E+02  0.44079724528E+01  0.28435048463E+02  0.47000000000E+01 0.  1.
<mgrwt>
<rscale>  0 0.99991848E+03</rscale>
<asrwt>0</asrwt>
<pdfrwt beam="1">  1        2 0.60946661E-01 0.99991848E+03</pdfrwt>
<pdfrwt beam="2">  1       -2 0.97071684E-01 0.99991848E+03</pdfrwt>
<totfact> 0.84792346E+01</totfact>
</mgrwt>
</event>
<event>
 9    1  0.4388925E-036  0.9994057E+03  0.7818608E-02  0.8681604E-01
          1   -1    0    0  501    0  0.00000000000E+00  0.00000000000E+00  0.10173012497E+04  0.10173012497E+04  0.00000000000E+00 0.  1.
         -1   -1    0    0    0  501 -0.00000000000E+00 -0.00000000000E+00 -0.24545621986E+03  0.24545621986E+03  0.00000000000E+00 0.  1.
         36    2    1    2    0    0  0.71054273576E-14 -0.28421709430E-13  0.77184502985E+03  0.12627574696E+04  0.99940566181E+03 0.  0.
         25    2    3    3    0    0 -0.30728523557E+02  0.12063466845E+03  0.67292292584E+02  0.18897330899E+03  0.12524253861E+03 0.  0.
         35    2    3    3    0    0  0.30728523557E+02 -0.12063466845E+03  0.70455273727E+03  0.10737841606E+04  0.80070025511E+03 0.  0.
         22    1    5    5    0    0 -0.17859712781E+03 -0.41089908113E+03  0.33563694952E+03  0.55980992384E+03  0.00000000000E+00 0.  1.
         22    1    5    5    0    0  0.20932565137E+03  0.29026441269E+03  0.36891578774E+03  0.51397423675E+03  0.00000000000E+00 0.  1.
          5    1    4    4  502    0 -0.13094266879E+02  0.44901178721E+02  0.95241273203E+02  0.10621000799E+03  0.47000000000E+01 0.  1.
         -5    1    4    4    0  502 -0.17634256678E+02  0.75733489727E+02 -0.27948980619E+02  0.82763301000E+02  0.47000000000E+01 0.  1.
<mgrwt>
<rscale>  0 0.99940566E+03</rscale>
<asrwt>0</asrwt>
<pdfrwt beam="1">  1        1 0.15650788E+00 0.99940566E+03</pdfrwt>
<pdfrwt beam="2">  1       -1 0.37762496E-01 0.99940566E+03</pdfrwt>
<totfact> 0.11092535E+02</totfact>
</mgrwt>
</event>
<event>
 9    1  0.4388925E-036  0.1000244E+04  0.7818608E-02  0.8680806E-01
         -2   -1    0    0    0  501 -0.00000000000E+00  0.00000000000E+00  0.15061848648E+03  0.15061848648E+03  0.00000000000E+00 0.  1.
          2   -1    0    0  501    0  0.00000000000E+00 -0.00000000000E+00 -0.16606323945E+04  0.16606323945E+04  0.00000000000E+00 0.  1.
         36    2    1    2    0    0 -0.42632564146E-13  0.00000000000E+00 -0.15100139080E+04  0.18112508810E+04  0.10002438460E+04 0.  0.
         25    2    3    3    0    0  0.10459350816E+03 -0.80935920322E+02 -0.36858670267E+03  0.41103551399E+03  0.12491441562E+03 0.  0.
         35    2    3    3    0    0 -0.10459350816E+03  0.80935920322E+02 -0.11414272054E+04  0.14002153670E+04  0.80016034875E+03 0.  0.
         22    1    5    5    0    0  0.19902498500E+03 -0.24692206772E+03 -0.25283632393E+03  0.40559543745E+03  0.00000000000E+00 0. -1.
         22    1    5    5    0    0 -0.30361849316E+03  0.32785798804E+03 -0.88859088144E+03  0.99461992957E+03  0.00000000000E+00 0. -1.
          5    1    4    4  502    0  0.11564076892E+03 -0.10412548385E+03 -0.31017693063E+03  0.34705435039E+03  0.47000000000E+01 0.  1.
         -5    1    4    4    0  502 -0.11047260762E+02  0.23189563530E+02 -0.58409772038E+02  0.63981163607E+02  0.47000000000E+01 0.  1.
<mgrwt>
<rscale>  0 0.10002438E+04</rscale>
<asrwt>0</asrwt>
<pdfrwt beam="1">  1        2 0.25548189E+00 0.10002438E+04</pdfrwt>
<pdfrwt beam="2">  1       -2 0.23172076E-01 0.10002438E+04</pdfrwt>
<totfact> 0.20170101E+02</totfact>
</mgrwt>
</event>
<event>
 9    1  0.4388925E-036  0.1011050E+04  0.7818608E-02  0.8670586E-01
         -2   -1    0    0    0  501 -0.00000000000E+00  0.00000000000E+00  0.32587884783E+03  0.32587884783E+03  0.00000000000E+00 0.  1.
          2   -1    0    0  501    0  0.00000000000E+00 -0.00000000000E+00 -0.78420335153E+03  0.78420335153E+03  0.00000000000E+00 0.  1.
         36    2    1    2    0    0  0.00000000000E+00  0.14210854715E-13 -0.45832450370E+03  0.11100821994E+04  0.10110495233E+04 0.  0.
         25    2    3    3    0    0  0.12571880160E+03  0.49894128535E+02 -0.14946538459E+02  0.18454589390E+03  0.12465611419E+03 0.  0.
         35    2    3    3    0    0 -0.12571880160E+03 -0.49894128535E+02 -0.44337796525E+03  0.92553630546E+03  0.80108600757E+03 0.  0.
         22    1    5    5    0    0  0.11066159722E+03 -0.22875398551E+03 -0.55371735798E+03  0.60924320884E+03  0.00000000000E+00 0.  1.
         22    1    5    5    0    0 -0.23638039882E+03  0.17885985698E+03  0.11033939274E+03  0.31629309662E+03  0.00000000000E+00 0.  1.
          5    1    4    4  502    0  0.15092767229E+01 -0.27134668078E+02  0.20156496853E+02  0.34160540003E+02  0.47000000000E+01 0. -1.
         -5    1    4    4    0  502  0.12420952488E+03  0.77028796613E+02 -0.35103035313E+02  0.15038535390E+03  0.47000000000E+01 0. -1.
<mgrwt>
<rscale>  0 0.10110495E+04</rscale>
<asrwt>0</asrwt>
<pdfrwt beam="1">  1        2 0.12064667E+00 0.10110495E+04</pdfrwt>
<pdfrwt beam="2">  1       -2 0.50135208E-01 0.10110495E+04</pdfrwt>
<totfact> 0.16122277E+02</totfact>
</mgrwt>
</event>
<event>
 9    1  0.4388925E-036  0.1000039E+04  0.7818608E-02  0.8681001E-01
          2   -1    0    0  501    0  0.00000000000E+00  0.00000000000E+00  0.81557452940E+03  0.81557452940E+03  0.00000000000E+00 0. -1.
         -2   -1    0    0    0  501 -0.00000000000E+00 -0.00000000000E+00 -0.30655600791E+03  0.30655600791E+03  0.00000000000E+00 0. -1.
         36    2    1    2    0    0  0.71054273576E-14  0.00000000000E+00  0.50901852149E+03  0.11221305373E+04  0.10000385430E+04 0.  0.
         25    2    3    3    0    0 -0.20165478175E+02 -0.38032820128E+02 -0.54481396545E+02  0.14298461044E+03  0.12499293715E+03 0.  0.
         35    2    3    3    0    0  0.20165478175E+02  0.38032820128E+02  0.56349991804E+03  0.97914592686E+03  0.79958829815E+03 0.  0.
         22    1    5    5    0    0 -0.23903313273E+03 -0.15518030847E+03  0.58954149198E+03  0.65481061189E+03  0.00000000000E+00 0. -1.
         22    1    5    5    0    0  0.25919861091E+03  0.19321312860E+03 -0.26041573942E+02  0.32433531497E+03  0.00000000000E+00 0. -1.
          5    1    4    4  502    0 -0.29760000435E+02 -0.51790682552E+02 -0.87268526933E+02  0.10585753737E+03  0.47000000000E+01 0. -1.
         -5    1    4    4    0  502  0.95945222597E+01  0.13757862424E+02  0.32787130389E+02  0.37127073073E+02  0.47000000000E+01 0. -1.
<mgrwt>
<rscale>  0 0.10000385E+04</rscale>
<asrwt>0</asrwt>
<pdfrwt beam="1">  1        2 0.12547300E+00 0.10000385E+04</pdfrwt>
<pdfrwt beam="2">  1       -2 0.47162463E-01 0.10000385E+04</pdfrwt>
<totfact> 0.17312009E+02</totfact>
</mgrwt>
</event>
<event>
 9    1  0.4388925E-036  0.9988899E+03  0.7818608E-02  0.8682096E-01
         -2   -1    0    0    0  501 -0.00000000000E+00  0.00000000000E+00  0.36111325256E+03  0.36111325256E+03  0.00000000000E+00 0. -1.
          2   -1    0    0  501    0  0.00000000000E+00 -0.00000000000E+00 -0.69076732698E+03  0.69076732698E+03  0.00000000000E+00 0. -1.
         36    2    1    2    0    0  0.14210854715E-13  0.00000000000E+00 -0.32965407442E+03  0.10518805795E+04  0.99888985620E+03 0.  0.
         25    2    3    3    0    0 -0.55231527283E+02 -0.68665673299E+02 -0.17881698979E+03  0.23433617919E+03  0.12317642933E+03 0.  0.
         35    2    3    3    0    0  0.55231527283E+02  0.68665673299E+02 -0.15083708463E+03  0.81754440035E+03  0.79866233425E+03 0.  0.
         22    1    5    5    0    0  0.30114773453E+03  0.32408860106E+03 -0.13532782328E+03  0.46264132879E+03  0.00000000000E+00 0.  1.
         22    1    5    5    0    0 -0.24591620725E+03 -0.25542292776E+03 -0.15509261353E+02  0.35490307156E+03  0.00000000000E+00 0.  1.
          5    1    4    4  502    0 -0.37500481245E+02 -0.70502525703E+02 -0.31663326326E+02  0.86032252430E+02  0.47000000000E+01 0.  1.
         -5    1    4    4    0  502 -0.17731046038E+02  0.18368524041E+01 -0.14715366347E+03  0.14830392676E+03  0.47000000000E+01 0.  1.
<mgrwt>
<rscale>  0 0.99888986E+03</rscale>
<asrwt>0</asrwt>
<pdfrwt beam="1">  1        2 0.10627190E+00 0.99888986E+03</pdfrwt>
<pdfrwt beam="2">  1       -2 0.55555885E-01 0.99888986E+03</pdfrwt>
<totfact> 0.15351238E+02</totfact>
</mgrwt>
</event>
<event>
 9    1  0.4388925E-036  0.1001280E+04  0.7818608E-02  0.8679820E-01
         -2   -1    0    0    0  501 -0.00000000000E+00  0.00000000000E+00  0.18620621115E+03  0.18620621115E+03  0.00000000000E+00 0. -1.
          2   -1    0    0  501    0  0.00000000000E+00 -0.00000000000E+00 -0.13460369083E+04  0.13460369083E+04  0.00000000000E+00 0. -1.
         36    2    1    2    0    0  0.71054273576E-14 -0.14210854715E-13 -0.11598306972E+04  0.15322431195E+04  0.10012800463E+04 0.  0.
         25    2    3    3    0    0 -0.20948266663E+01 -0.11586896391E+03 -0.35371488084E+03  0.39132534145E+03  0.12079445697E+03 0.  0.
         35    2    3    3    0    0  0.20948266663E+01  0.11586896391E+03 -0.80611581632E+03  0.11409177780E+04  0.79902481925E+03 0.  0.
         22    1    5    5    0    0  0.22473076158E+03 -0.27453095860E+03 -0.40624152500E+03  0.53935455784E+03  0.00000000000E+00 0.  1.
         22    1    5    5    0    0 -0.22263593492E+03  0.39039992251E+03 -0.39987429132E+03  0.60156322018E+03  0.00000000000E+00 0.  1.
          5    1    4    4  502    0 -0.52317533469E+02 -0.16468567550E+02 -0.13642334867E+03  0.14711137987E+03  0.47000000000E+01 0.  1.
         -5    1    4    4    0  502  0.50222706803E+02 -0.99400396360E+02 -0.21729153218E+03  0.24421396158E+03  0.47000000000E+01 0.  1.
<mgrwt>
<rscale>  0 0.10012800E+04</rscale>
<asrwt>0</asrwt>
<pdfrwt beam="1">  1        2 0.20708259E+00 0.10012800E+04</pdfrwt>
<pdfrwt beam="2">  1       -2 0.28647111E-01 0.10012800E+04</pdfrwt>
<totfact> 0.20843569E+02</totfact>
</mgrwt>
</event>
<event>
 9    1  0.4388925E-036  0.9985941E+03  0.7818608E-02  0.8682378E-01
         -1   -1    0    0    0  501 -0.00000000000E+00  0.00000000000E+00  0.20063705678E+03  0.20063705678E+03  0.00000000000E+00 0.  1.
          1   -1    0    0  501    0  0.00000000000E+00 -0.00000000000E+00 -0.12425299788E+04  0.12425299788E+04  0.00000000000E+00 0.  1.
         36    2    1    2    0    0  0.28421709430E-13  0.00000000000E+00 -0.10418929221E+04  0.14431670356E+04  0.99859412759E+03 0.  0.
         25    2    3    3    0    0  0.11814283534E+03  0.69084285757E+02 -0.16364106939E+03  0.24703983450E+03  0.12457893946E+03 0.  0.
         35    2    3    3    0    0 -0.11814283534E+03 -0.69084285757E+02 -0.87825185268E+03  0.11961272011E+04  0.80041464033E+03 0.  0.
         22    1    5    5    0    0  0.32678881904E+03 -0.13635524327E+03 -0.30489557123E+03  0.46727400310E+03  0.00000000000E+00 0. -1.
         22    1    5    5    0    0 -0.44493165438E+03  0.67270957517E+02 -0.57335628145E+03  0.72885319802E+03  0.00000000000E+00 0. -1.
          5    1    4    4  502    0  0.12266748876E+03  0.73853071335E+02 -0.17924877391E+03  0.22946416255E+03  0.47000000000E+01 0. -1.
         -5    1    4    4    0  502 -0.45246534226E+01 -0.47687855776E+01  0.15607704516E+02  0.17575671957E+02  0.47000000000E+01 0. -1.
<mgrwt>
<rscale>  0 0.99859413E+03</rscale>
<asrwt>0</asrwt>
<pdfrwt beam="1">  1        1 0.19115846E+00 0.99859413E+03</pdfrwt>
<pdfrwt beam="2">  1       -1 0.30867240E-01 0.99859413E+03</pdfrwt>
<totfact> 0.10611200E+02</totfact>
</mgrwt>
</event>
<event>
 9    1  0.4388925E-036  0.1000209E+04  0.7818608E-02  0.8680839E-01
         -1   -1    0    0    0  501 -0.00000000000E+00  0.00000000000E+00  0.10492980948E+04  0.10492980948E+04  0.00000000000E+00 0.  1.
          1   -1    0    0  501    0  0.00000000000E+00 -0.00000000000E+00 -0.23835422076E+03  0.23835422076E+03  0.00000000000E+00 0.  1.
         36    2    1    2    0    0  0.14210854715E-13  0.00000000000E+00  0.81094387402E+03  0.12876523155E+04  0.10002092376E+04 0.  0.
         25    2    3    3    0    0 -0.53585478087E+02  0.52305802366E+02 -0.14614473940E+01  0.14562933042E+03  0.12489381741E+03 0.  0.
         35    2    3    3    0    0  0.53585478087E+02 -0.52305802366E+02  0.81240532141E+03  0.11420229851E+04  0.79912877052E+03 0.  0.
         22    1    5    5    0    0  0.22333946281E+03 -0.12659793607E+03  0.90083679781E+03  0.93670405644E+03  0.00000000000E+00 0. -1.
         22    1    5    5    0    0 -0.16975398472E+03  0.74292133705E+02 -0.88431476397E+02  0.20531892869E+03  0.00000000000E+00 0. -1.
          5    1    4    4  502    0 -0.31731036090E+02 -0.39556217070E+02  0.26549627455E+01  0.50996978219E+02  0.47000000000E+01 0.  1.
         -5    1    4    4    0  502 -0.21854441997E+02  0.91862019437E+02 -0.41164101395E+01  0.94632352198E+02  0.47000000000E+01 0.  1.
<mgrwt>
<rscale>  0 0.10002092E+04</rscale>
<asrwt>0</asrwt>
<pdfrwt beam="1">  1        1 0.36669881E-01 0.10002092E+04</pdfrwt>
<pdfrwt beam="2">  1       -1 0.16143047E+00 0.10002092E+04</pdfrwt>
<totfact> 0.38891584E+01</totfact>
</mgrwt>
</event>
<event>
 9    1  0.4388925E-036  0.9999960E+03  0.7818608E-02  0.8681042E-01
          2   -1    0    0  501    0  0.00000000000E+00  0.00000000000E+00  0.29197240486E+03  0.29197240486E+03  0.00000000000E+00 0. -1.
         -2   -1    0    0    0  501 -0.00000000000E+00 -0.00000000000E+00 -0.85623853071E+03  0.85623853071E+03  0.00000000000E+00 0. -1.
         36    2    1    2    0    0 -0.21316282073E-13  0.35527136788E-14 -0.56426612585E+03  0.11482109356E+04  0.99999604588E+03 0.  0.
         25    2    3    3    0    0  0.60966932620E+02 -0.29355778740E+02  0.33915118558E+02  0.14631488813E+03  0.12521614354E+03 0.  0.
         35    2    3    3    0    0 -0.60966932620E+02  0.29355778740E+02 -0.59818124441E+03  0.10018960474E+04  0.80087212469E+03 0.  0.
         22    1    5    5    0    0  0.21447573024E+03 -0.72785600373E+02 -0.66337868326E+03  0.70097707516E+03  0.00000000000E+00 0. -1.
         22    1    5    5    0    0 -0.27544266286E+03  0.10214137911E+03  0.65197438854E+02  0.30091897229E+03  0.00000000000E+00 0. -1.
          5    1    4    4  502    0  0.71651702460E+02 -0.31730407766E+02  0.71931842422E+02  0.10647565542E+03  0.47000000000E+01 0. -1.
         -5    1    4    4    0  502 -0.10684769840E+02  0.23746290256E+01 -0.38016723864E+02  0.39839232709E+02  0.47000000000E+01 0. -1.
<mgrwt>
<rscale>  0 0.99999605E+03</rscale>
<asrwt>0</asrwt>
<pdfrwt beam="1">  1        2 0.44918832E-01 0.99999605E+03</pdfrwt>
<pdfrwt beam="2">  1       -2 0.13172900E+00 0.99999605E+03</pdfrwt>
<totfact> 0.54783973E+01</totfact>
</mgrwt>
</event>
<event>
 9    1  0.4388925E-036  0.9975536E+03  0.7818608E-02  0.8683371E-01
          2   -1    0    0  501    0  0.00000000000E+00  0.00000000000E+00  0.65123117710E+03  0.65123117710E+03  0.00000000000E+00 0. -1.
         -2   -1    0    0    0  501 -0.00000000000E+00 -0.00000000000E+00 -0.38201226797E+03  0.38201226797E+03  0.00000000000E+00 0. -1.
         36    2    1    2    0    0  0.00000000000E+00  0.14210854715E-13  0.26921890913E+03  0.10332434451E+04  0.99755360545E+03 0.  0.
         25    2    3    3    0    0  0.12794243931E+03  0.15609890868E+02  0.86366437842E+02  0.20303625312E+03  0.13096420131E+03 0.  0.
         35    2    3    3    0    0 -0.12794243931E+03 -0.15609890868E+02  0.18285247129E+03  0.83020719195E+03  0.79949735387E+03 0.  0.
         22    1    5    5    0    0  0.21671768057E+03 -0.28967735949E+03  0.13948745084E+03  0.38773222024E+03  0.00000000000E+00 0.  1.
         22    1    5    5    0    0 -0.34466011988E+03  0.27406746862E+03  0.43365020445E+02  0.44247497171E+03  0.00000000000E+00 0.  1.
          5    1    4    4  502    0  0.47410217005E+02  0.47547822572E+02  0.94360355546E+02  0.11590725088E+03  0.47000000000E+01 0.  1.
         -5    1    4    4    0  502  0.80532222303E+02 -0.31937931704E+02 -0.79939177045E+01  0.87129002237E+02  0.47000000000E+01 0.  1.
<mgrwt>
<rscale>  0 0.99755361E+03</rscale>
<asrwt>0</asrwt>
<pdfrwt beam="1">  1        2 0.10018941E+00 0.99755361E+03</pdfrwt>
<pdfrwt beam="2">  1       -2 0.58771118E-01 0.99755361E+03</pdfrwt>
<totfact> 0.14683741E+02</totfact>
</mgrwt>
</event>
<event>
 9    1  0.4388925E-036  0.9998308E+03  0.7818608E-02  0.8681199E-01
         -1   -1    0    0    0  501 -0.00000000000E+00  0.00000000000E+00  0.28168013570E+03  0.28168013570E+03  0.00000000000E+00 0. -1.
          1   -1    0    0  501    0  0.00000000000E+00 -0.00000000000E+00 -0.88723123653E+03  0.88723123653E+03  0.00000000000E+00 0. -1.
         36    2    1    2    0    0  0.00000000000E+00 -0.21316282073E-13 -0.60555110083E+03  0.11689113722E+04  0.99983081590E+03 0.  0.
         25    2    3    3    0    0  0.90328564757E+02 -0.34040619146E+02  0.52674076638E+01  0.15781016008E+03  0.12473286527E+03 0.  0.
         35    2    3    3    0    0 -0.90328564757E+02  0.34040619146E+02 -0.61081850849E+03  0.10111012122E+04  0.79994274641E+03 0.  0.
         22    1    5    5    0    0 -0.20656840598E+03  0.23614005471E+03 -0.69555246080E+03  0.76303725827E+03  0.00000000000E+00 0. -1.
         22    1    5    5    0    0  0.11623984122E+03 -0.20209943557E+03  0.84733952303E+02  0.24806395388E+03  0.00000000000E+00 0. -1.
          5    1    4    4  502    0  0.48829066863E+02 -0.81091147671E+02  0.15371085172E+01  0.94786627242E+02  0.47000000000E+01 0.  1.
         -5    1    4    4    0  502  0.41499497895E+02  0.47050528525E+02  0.37302991466E+01  0.63023532840E+02  0.47000000000E+01 0.  1.
<mgrwt>
<rscale>  0 0.99983082E+03</rscale>
<asrwt>0</asrwt>
<pdfrwt beam="1">  1        1 0.13649711E+00 0.99983082E+03</pdfrwt>
<pdfrwt beam="2">  1       -1 0.43335407E-01 0.99983082E+03</pdfrwt>
<totfact> 0.11066219E+02</totfact>
</mgrwt>
</event>
<event>
 9    1  0.4388925E-036  0.1002519E+04  0.7818608E-02  0.8678643E-01
         -2   -1    0    0    0  501 -0.00000000000E+00  0.00000000000E+00  0.12695807296E+03  0.12695807296E+03  0.00000000000E+00 0.  1.
          2   -1    0    0  501    0  0.00000000000E+00 -0.00000000000E+00 -0.19790870584E+04  0.19790870584E+04  0.00000000000E+00 0.  1.
         36    2    1    2    0    0  0.14210854715E-13  0.00000000000E+00 -0.18521289854E+04  0.21060451314E+04  0.10025189857E+04 0.  0.
         25    2    3    3    0    0  0.87738652405E+02 -0.70447725166E+02 -0.16783485635E+03  0.23801956113E+03  0.12579276357E+03 0.  0.
         35    2    3    3    0    0 -0.87738652405E+02  0.70447725166E+02 -0.16842941291E+04  0.18680255702E+04  0.80000741537E+03 0.  0.
         22    1    5    5    0    0  0.27868304059E+03 -0.19677925984E+03 -0.56033841430E+03  0.65602244836E+03  0.00000000000E+00 0. -1.
         22    1    5    5    0    0 -0.36642169299E+03  0.26722698501E+03 -0.11239557148E+04  0.12120031219E+04  0.00000000000E+00 0. -1.
          5    1    4    4  502    0  0.87903800253E+02  0.91313052171E+01 -0.97898880754E+02  0.13197249595E+03  0.47000000000E+01 0. -1.
         -5    1    4    4    0  502 -0.16514784808E+00 -0.79579030383E+02 -0.69935975596E+02  0.10604706518E+03  0.47000000000E+01 0. -1.
<mgrwt>
<rscale>  0 0.10025190E+04</rscale>
<asrwt>0</asrwt>
<pdfrwt beam="1">  1        2 0.30447493E+00 0.10025190E+04</pdfrwt>
<pdfrwt beam="2">  1       -2 0.19532011E-01 0.10025190E+04</pdfrwt>
<totfact> 0.17948422E+02</totfact>
</mgrwt>
</event>
<event>
 9    1  0.4388925E-036  0.9990434E+03  0.7818608E-02  0.8681949E-01
          2   -1    0    0  501    0  0.00000000000E+00  0.00000000000E+00  0.15370097257E+04  0.15370097257E+04  0.00000000000E+00 0. -1.
         -2   -1    0    0    0  501 -0.00000000000E+00 -0.00000000000E+00 -0.16234246790E+03  0.16234246790E+03  0.00000000000E+00 0. -1.
         36    2    1    2    0    0 -0.14210854715E-13  0.00000000000E+00  0.13746672578E+04  0.16993521936E+04  0.99904344663E+03 0.  0.
         25    2    3    3    0    0  0.69783056048E+02 -0.10386162273E+03  0.36918461976E+03  0.40829680039E+03  0.12145814978E+03 0.  0.
         35    2    3    3    0    0 -0.69783056048E+02  0.10386162273E+03  0.10054826381E+04  0.12910553932E+04  0.80010735616E+03 0.  0.
         22    1    5    5    0    0  0.29628246253E+03  0.23472699754E+03  0.28868894723E+03  0.47562734281E+03  0.00000000000E+00 0.  1.
         22    1    5    5    0    0 -0.36606551858E+03 -0.13086537481E+03  0.71679369083E+03  0.81542805043E+03  0.00000000000E+00 0.  1.
          5    1    4    4  502    0  0.32698720967E+02  0.23004052183E+02  0.11356367302E+03  0.12048730472E+03  0.47000000000E+01 0. -1.
         -5    1    4    4    0  502  0.37084335081E+02 -0.12686567491E+03  0.25562094674E+03  0.28780949566E+03  0.47000000000E+01 0. -1.
<mgrwt>
<rscale>  0 0.99904345E+03</rscale>
<asrwt>0</asrwt>
<pdfrwt beam="1">  1        2 0.23646302E+00 0.99904345E+03</pdfrwt>
<pdfrwt beam="2">  1       -2 0.24975765E-01 0.99904345E+03</pdfrwt>
<totfact> 0.20746766E+02</totfact>
</mgrwt>
</event>
<event>
 9    1  0.4388925E-036  0.1003931E+04  0.7818608E-02  0.8677303E-01
         -1   -1    0    0    0  501 -0.00000000000E+00  0.00000000000E+00  0.27382934588E+03  0.27382934588E+03  0.00000000000E+00 0. -1.
          1   -1    0    0  501    0  0.00000000000E+00 -0.00000000000E+00 -0.92016972876E+03  0.92016972876E+03  0.00000000000E+00 0. -1.
         36    2    1    2    0    0  0.28421709430E-13  0.00000000000E+00 -0.64634038288E+03  0.11939990746E+04  0.10039312226E+04 0.  0.
         25    2    3    3    0    0 -0.79287818369E+02  0.21299046688E+02 -0.26589928306E+03  0.30434707149E+03  0.12322541806E+03 0.  0.
         35    2    3    3    0    0  0.79287818369E+02 -0.21299046688E+02 -0.38044109981E+03  0.88965200316E+03  0.80000315547E+03 0.  0.
         22    1    5    5    0    0 -0.30522701193E+03 -0.17310672057E+03 -0.31414227479E+03  0.47097222246E+03  0.00000000000E+00 0. -1.
         22    1    5    5    0    0  0.38451483030E+03  0.15180767388E+03 -0.66298825028E+02  0.41867978070E+03  0.00000000000E+00 0. -1.
          5    1    4    4  502    0 -0.11250711307E+03  0.15177409589E+02 -0.21290885033E+03  0.24133062964E+03  0.47000000000E+01 0.  1.
         -5    1    4    4    0  502  0.33219294705E+02  0.61216370992E+01 -0.52990432734E+02  0.63016441845E+02  0.47000000000E+01 0.  1.
<mgrwt>
<rscale>  0 0.10039312E+04</rscale>
<asrwt>0</asrwt>
<pdfrwt beam="1">  1        1 0.14156458E+00 0.10039312E+04</pdfrwt>
<pdfrwt beam="2">  1       -1 0.42127591E-01 0.10039312E+04</pdfrwt>
<totfact> 0.10928640E+02</totfact>
</mgrwt>
</event>
<event>
 9    1  0.4388925E-036  0.1000035E+04  0.7818608E-02  0.8681004E-01
          1   -1    0    0  501    0  0.00000000000E+00  0.00000000000E+00  0.10860939181E+04  0.10860939181E+04  0.00000000000E+00 0.  1.
         -1   -1    0    0    0  501 -0.00000000000E+00 -0.00000000000E+00 -0.23019898256E+03  0.23019898256E+03  0.00000000000E+00 0.  1.
         36    2    1    2    0    0  0.14210854715E-13 -0.42632564146E-13  0.85589493554E+03  0.13162929007E+04  0.10000354292E+04 0.  0.
         25    2    3    3    0    0 -0.15981032036E+01 -0.11062257725E+03  0.27171929419E+03  0.31877385002E+03  0.12468153066E+03 0.  0.
         35    2    3    3    0    0  0.15981032036E+01  0.11062257725E+03  0.58417564134E+03  0.99751905064E+03  0.80096389926E+03 0.  0.
         22    1    5    5    0    0  0.10526557860E+03 -0.21066764033E+03  0.61496581570E+03  0.65851700905E+03  0.00000000000E+00 0. -1.
         22    1    5    5    0    0 -0.10366747540E+03  0.32129021758E+03 -0.30790174361E+02  0.33900204159E+03  0.00000000000E+00 0. -1.
          5    1    4    4  502    0  0.26892822448E+02  0.45373559888E-01  0.39290473404E+01  0.27581757939E+02  0.47000000000E+01 0. -1.
         -5    1    4    4    0  502 -0.28490925652E+02 -0.11066795081E+03  0.26779024685E+03  0.29119209208E+03  0.47000000000E+01 0. -1.
<mgrwt>
<rscale>  0 0.10000354E+04</rscale>
<asrwt>0</asrwt>
<pdfrwt beam="1">  1        1 0.16709137E+00 0.10000354E+04</pdfrwt>
<pdfrwt beam="2">  1       -1 0.35415229E-01 0.10000354E+04</pdfrwt>
<totfact> 0.10972046E+02</totfact>
</mgrwt>
</event>
<event>
 9    1  0.4388925E-036  0.1000422E+04  0.7818608E-02  0.8680636E-01
         -2   -1    0    0    0  501 -0.00000000000E+00  0.00000000000E+00  0.96229713832E+02  0.96229713832E+02  0.00000000000E+00 0.  1.
          2   -1    0    0  501    0  0.00000000000E+00 -0.00000000000E+00 -0.26001418388E+04  0.26001418388E+04  0.00000000000E+00 0.  1.
         36    2    1    2    0    0  0.00000000000E+00  0.00000000000E+00 -0.25039121250E+04  0.26963715526E+04  0.10004217212E+04 0.  0.
         25    2    3    3    0    0 -0.98065228002E+02  0.82566772268E+02 -0.32031069098E+03  0.36715458767E+03  0.12557663663E+03 0.  0.
         35    2    3    3    0    0  0.98065228002E+02 -0.82566772268E+02 -0.21836014340E+04  0.23292169650E+04  0.80043887119E+03 0.  0.
         22    1    5    5    0    0  0.20177429804E+03 -0.61226342135E+02 -0.84043435662E+02  0.22699081787E+03  0.00000000000E+00 0.  1.
         22    1    5    5    0    0 -0.10370907004E+03 -0.21340430133E+02 -0.20995579983E+04  0.21022261471E+04  0.00000000000E+00 0.  1.
          5    1    4    4  502    0 -0.22939831929E+02 -0.13456847494E+02 -0.17652436658E+03  0.17857845511E+03  0.47000000000E+01 0. -1.
         -5    1    4    4    0  502 -0.75125396073E+02  0.96023619762E+02 -0.14378632440E+03  0.18857613256E+03  0.47000000000E+01 0. -1.
<mgrwt>
<rscale>  0 0.10004217E+04</rscale>
<asrwt>0</asrwt>
<pdfrwt beam="1">  1        2 0.40002181E+00 0.10004217E+04</pdfrwt>
<pdfrwt beam="2">  1       -2 0.14804572E-01 0.10004217E+04</pdfrwt>
<totfact> 0.12356633E+02</totfact>
</mgrwt>
</event>
<event>
 9    1  0.4388925E-036  0.9996134E+03  0.7818608E-02  0.8681406E-01
         -1   -1    0    0    0  501 -0.00000000000E+00  0.00000000000E+00  0.12291307672E+03  0.12291307672E+03  0.00000000000E+00 0.  1.
          1   -1    0    0  501    0  0.00000000000E+00 -0.00000000000E+00 -0.20323851731E+04  0.20323851731E+04  0.00000000000E+00 0.  1.
         36    2    1    2    0    0 -0.14210854715E-13 -0.28421709430E-13 -0.19094720964E+04  0.21552982498E+04  0.99961335464E+03 0.  0.
         25    2    3    3    0    0 -0.11541936868E+03  0.27851573585E+02 -0.25907225521E+03  0.31742786867E+03  0.13980228027E+03 0.  0.
         35    2    3    3    0    0  0.11541936868E+03 -0.27851573585E+02 -0.16503998412E+04  0.18378703811E+04  0.79990659538E+03 0.  0.
         22    1    5    5    0    0  0.29631900009E+03 -0.33264791293E+03 -0.10510319595E+04  0.11415462162E+04  0.00000000000E+00 0. -1.
         22    1    5    5    0    0 -0.18089963141E+03  0.30479633935E+03 -0.59936788164E+03  0.69632416493E+03  0.00000000000E+00 0. -1.
          5    1    4    4  502    0  0.27813411715E+02 -0.59536450446E+01 -0.83214529181E+02  0.88066904268E+02  0.47000000000E+01 0.  1.
         -5    1    4    4    0  502 -0.14323278040E+03  0.33805218630E+02 -0.17585772603E+03  0.22936096440E+03  0.47000000000E+01 0.  1.
<mgrwt>
<rscale>  0 0.99961335E+03</rscale>
<asrwt>0</asrwt>
<pdfrwt beam="1">  1        1 0.31267466E+00 0.99961335E+03</pdfrwt>
<pdfrwt beam="2">  1       -1 0.18909703E-01 0.99961335E+03</pdfrwt>
<totfact> 0.66306467E+01</totfact>
</mgrwt>
</event>
<event>
 9    1  0.4388925E-036  0.9997189E+03  0.7818608E-02  0.8681306E-01
          2   -1    0    0  501    0  0.00000000000E+00  0.00000000000E+00  0.43517888599E+03  0.43517888599E+03  0.00000000000E+00 0.  1.
         -2   -1    0    0    0  501 -0.00000000000E+00 -0.00000000000E+00 -0.57415344626E+03  0.57415344626E+03  0.00000000000E+00 0.  1.
         36    2    1    2    0    0  0.00000000000E+00 -0.14210854715E-13 -0.13897456027E+03  0.10093323322E+04  0.99971887475E+03 0.  0.
         25    2    3    3    0    0 -0.35423678766E+02 -0.84150132761E+02 -0.13300514293E+03  0.20436600180E+03  0.12545522223E+03 0.  0.
         35    2    3    3    0    0  0.35423678766E+02  0.84150132761E+02 -0.59694173400E+01  0.80496633045E+03  0.79974938409E+03 0.  0.
         22    1    5    5    0    0  0.15164306484E+03  0.11381991713E+03 -0.37322160153E+03  0.41862268990E+03  0.00000000000E+00 0.  1.
         22    1    5    5    0    0 -0.11621938608E+03 -0.29669784371E+02  0.36725218419E+03  0.38634364055E+03  0.00000000000E+00 0.  1.
          5    1    4    4  502    0 -0.24654066841E+02  0.15073265793E+02  0.90926798727E+01  0.30656046398E+02  0.47000000000E+01 0.  1.
         -5    1    4    4    0  502 -0.10769611924E+02 -0.99223398554E+02 -0.14209782280E+03  0.17370995540E+03  0.47000000000E+01 0.  1.
<mgrwt>
<rscale>  0 0.99971887E+03</rscale>
<asrwt>0</asrwt>
<pdfrwt beam="1">  1        2 0.66950598E-01 0.99971887E+03</pdfrwt>
<pdfrwt beam="2">  1       -2 0.88331299E-01 0.99971887E+03</pdfrwt>
<totfact> 0.95393433E+01</totfact>
</mgrwt>
</event>
<event>
 9    1  0.4388925E-036  0.9991819E+03  0.7818608E-02  0.8681817E-01
         -2   -1    0    0    0  501 -0.00000000000E+00  0.00000000000E+00  0.27318362310E+03  0.27318362310E+03  0.00000000000E+00 0.  1.
          2   -1    0    0  501    0  0.00000000000E+00 -0.00000000000E+00 -0.91363874051E+03  0.91363874051E+03  0.00000000000E+00 0.  1.
         36    2    1    2    0    0 -0.14210854715E-13  0.14210854715E-13 -0.64045511741E+03  0.11868223636E+04  0.99918194807E+03 0.  0.
         25    2    3    3    0    0 -0.56496288473E+02  0.62575551972E+02 -0.25143258452E+03  0.29318976519E+03  0.12503744853E+03 0.  0.
         35    2    3    3    0    0  0.56496288473E+02 -0.62575551972E+02 -0.38902253288E+03  0.89363259842E+03  0.80008322040E+03 0.  0.
         22    1    5    5    0    0 -0.17697744350E+03  0.28070040078E+03 -0.34084398286E+03  0.47569775190E+03  0.00000000000E+00 0.  1.
         22    1    5    5    0    0  0.23347373197E+03 -0.34327595276E+03 -0.48178550023E+02  0.41793484653E+03  0.00000000000E+00 0.  1.
          5    1    4    4  502    0 -0.95125087615E+02  0.39062939989E+02 -0.19694085550E+03  0.22222170493E+03  0.47000000000E+01 0.  1.
         -5    1    4    4    0  502  0.38628799142E+02  0.23512611984E+02 -0.54491729022E+02  0.70968060261E+02  0.47000000000E+01 0.  1.
<mgrwt>
<rscale>  0 0.99918195E+03</rscale>
<asrwt>0</asrwt>
<pdfrwt beam="1">  1        2 0.14055981E+00 0.99918195E+03</pdfrwt>
<pdfrwt beam="2">  1       -2 0.42028249E-01 0.99918195E+03</pdfrwt>
<totfact> 0.18629842E+02</totfact>
</mgrwt>
</event>
<event>
 9    1  0.4388925E-036  0.9988042E+03  0.7818608E-02  0.8682178E-01
          2   -1    0    0  501    0  0.00000000000E+00  0.00000000000E+00  0.12610081367E+04  0.12610081367E+04  0.00000000000E+00 0.  1.
         -2   -1    0    0    0  501 -0.00000000000E+00 -0.00000000000E+00 -0.19778019524E+03  0.19778019524E+03  0.00000000000E+00 0.  1.
         36    2    1    2    0    0  0.00000000000E+00 -0.14210854715E-13  0.10632279415E+04  0.14587883319E+04  0.99880415591E+03 0.  0.
         25    2    3    3    0    0  0.10744906113E+03 -0.88019483071E+02  0.17383263475E+03  0.25434794624E+03  0.12321673067E+03 0.  0.
         35    2    3    3    0    0 -0.10744906113E+03  0.88019483071E+02  0.88939530670E+03  0.12044403857E+04  0.80022490647E+03 0.  0.
         22    1    5    5    0    0  0.25349727189E+03  0.12354577748E+03  0.45159058658E+02  0.28559370891E+03  0.00000000000E+00 0. -1.
         22    1    5    5    0    0 -0.36094633301E+03 -0.35526294414E+02  0.84423624804E+03  0.91884667677E+03  0.00000000000E+00 0. -1.
          5    1    4    4  502    0 -0.13666386911E+01 -0.19401826290E+02  0.10785480251E+03  0.10969524597E+03  0.47000000000E+01 0.  1.
         -5    1    4    4    0  502  0.10881569982E+03 -0.68617656780E+02  0.65977832245E+02  0.14465270027E+03  0.47000000000E+01 0.  1.
<mgrwt>
<rscale>  0 0.99880416E+03</rscale>
<asrwt>0</asrwt>
<pdfrwt beam="1">  1        2 0.19400125E+00 0.99880416E+03</pdfrwt>
<pdfrwt beam="2">  1       -2 0.30427723E-01 0.99880416E+03</pdfrwt>
<totfact> 0.20924390E+02</totfact>
</mgrwt>
</event>
<event>
 9    1  0.4388925E-036  0.1000048E+04  0.7818608E-02  0.8680992E-01
          2   -1    0    0  501    0  0.00000000000E+00  0.00000000000E+00  0.14856027270E+04  0.14856027270E+04  0.00000000000E+00 0. -1.
         -2   -1    0    0    0  501 -0.00000000000E+00 -0.00000000000E+00 -0.16829810281E+03  0.16829810281E+03  0.00000000000E+00 0. -1.
         36    2    1    2    0    0  0.00000000000E+00 -0.14210854715E-13  0.13173046242E+04  0.16539008298E+04  0.10000482398E+04 0.  0.
         25    2    3    3    0    0  0.13742378624E+03  0.32649946875E+02  0.24671441831E+03  0.31052963690E+03  0.12493732484E+03 0.  0.
         35    2    3    3    0    0 -0.13742378624E+03 -0.32649946875E+02  0.10705902059E+04  0.13433711929E+04  0.79908163347E+03 0.  0.
         22    1    5    5    0    0  0.32215205492E+03  0.87817300378E+02  0.39096992426E+03  0.51415105408E+03  0.00000000000E+00 0.  1.
         22    1    5    5    0    0 -0.45957584116E+03 -0.12046724725E+03  0.67962028160E+03  0.82922013881E+03  0.00000000000E+00 0.  1.
          5    1    4    4  502    0 -0.16688300200E+02 -0.15232054665E+02  0.13042442756E+02  0.26508680954E+02  0.47000000000E+01 0. -1.
         -5    1    4    4    0  502  0.15411208644E+03  0.47882001541E+02  0.23367197555E+03  0.28402095595E+03  0.47000000000E+01 0. -1.
<mgrwt>
<rscale>  0 0.10000482E+04</rscale>
<asrwt>0</asrwt>
<pdfrwt beam="1">  1        2 0.22855426E+00 0.10000482E+04</pdfrwt>
<pdfrwt beam="2">  1       -2 0.25892017E-01 0.10000482E+04</pdfrwt>
<totfact> 0.20807383E+02</totfact>
</mgrwt>
</event>
<event>
 9    1  0.4388925E-036  0.1000199E+04  0.7818608E-02  0.8680849E-01
         -2   -1    0    0    0  501 -0.00000000000E+00  0.00000000000E+00  0.15890158626E+04  0.15890158626E+04  0.00000000000E+00 0.  1.
          2   -1    0    0  501    0  0.00000000000E+00 -0.00000000000E+00 -0.15739262314E+03  0.15739262314E+03  0.00000000000E+00 0.  1.
         36    2    1    2    0    0 -0.14210854715E-13 -0.28421709430E-13  0.14316232395E+04  0.17464084857E+04  0.10001987299E+04 0.  0.
         25    2    3    3    0    0 -0.88456286322E+02 -0.11212162581E+03  0.26260220910E+03  0.32410814850E+03  0.12526131937E+03 0.  0.
         35    2    3    3    0    0  0.88456286322E+02  0.11212162581E+03  0.11690210303E+04  0.14223003372E+04  0.79745363899E+03 0.  0.
         22    1    5    5    0    0  0.98799612808E+02  0.42018816008E+03  0.37953700794E+03  0.57477629889E+03  0.00000000000E+00 0.  1.
         22    1    5    5    0    0 -0.10343326486E+02 -0.30806653427E+03  0.78948402241E+03  0.84752403835E+03  0.00000000000E+00 0.  1.
          5    1    4    4  502    0  0.22517351247E+02 -0.63327085195E+02  0.11220187766E+03  0.13087666781E+03  0.47000000000E+01 0. -1.
         -5    1    4    4    0  502 -0.11097363757E+03 -0.48794540618E+02  0.15040033144E+03  0.19323148068E+03  0.47000000000E+01 0. -1.
<mgrwt>
<rscale>  0 0.10001987E+04</rscale>
<asrwt>0</asrwt>
<pdfrwt beam="1">  1        2 0.24214251E-01 0.10001987E+04</pdfrwt>
<pdfrwt beam="2">  1       -2 0.24446397E+00 0.10001987E+04</pdfrwt>
<totfact> 0.16951856E+01</totfact>
</mgrwt>
</event>
<event>
 9    1  0.4388925E-036  0.9987234E+03  0.7818608E-02  0.8682255E-01
         -2   -1    0    0    0  501 -0.00000000000E+00  0.00000000000E+00  0.35294513026E+03  0.35294513026E+03  0.00000000000E+00 0.  1.
          2   -1    0    0  501    0  0.00000000000E+00 -0.00000000000E+00 -0.70651800059E+03  0.70651800059E+03  0.00000000000E+00 0.  1.
         36    2    1    2    0    0  0.00000000000E+00  0.21316282073E-13 -0.35357287033E+03  0.10594631308E+04  0.99872336059E+03 0.  0.
         25    2    3    3    0    0  0.64227449233E+02  0.54208623072E+02  0.51315574209E+02  0.15856789298E+03  0.12428494871E+03 0.  0.
         35    2    3    3    0    0 -0.64227449233E+02 -0.54208623072E+02 -0.40488844454E+03  0.90089523787E+03  0.80038355620E+03 0.  0.
         22    1    5    5    0    0 -0.20148113461E+03 -0.20527449387E+03 -0.56993804061E+03  0.63840554162E+03  0.00000000000E+00 0.  1.
         22    1    5    5    0    0  0.13725368538E+03  0.15106587080E+03  0.16504959607E+03  0.26248969624E+03  0.00000000000E+00 0.  1.
          5    1    4    4  502    0 -0.37579061612E+02  0.17356028994E+02  0.14637704603E+02  0.44156200132E+02  0.47000000000E+01 0. -1.
         -5    1    4    4    0  502  0.10180651084E+03  0.36852594079E+02  0.36677869606E+02  0.11441169284E+03  0.47000000000E+01 0. -1.
<mgrwt>
<rscale>  0 0.99872336E+03</rscale>
<asrwt>0</asrwt>
<pdfrwt beam="1">  1        2 0.10869508E+00 0.99872336E+03</pdfrwt>
<pdfrwt beam="2">  1       -2 0.54299252E-01 0.99872336E+03</pdfrwt>
<totfact> 0.15647182E+02</totfact>
</mgrwt>
</event>
<event>
 9    1  0.4388925E-036  0.9982415E+03  0.7818608E-02  0.8682714E-01
         -2   -1    0    0    0  501 -0.00000000000E+00  0.00000000000E+00  0.32019977453E+03  0.32019977453E+03  0.00000000000E+00 0. -1.
          2   -1    0    0  501    0  0.00000000000E+00 -0.00000000000E+00 -0.77801908122E+03  0.77801908122E+03  0.00000000000E+00 0. -1.
         36    2    1    2    0    0 -0.28421709430E-13  0.00000000000E+00 -0.45781930669E+03  0.10982188558E+04  0.99824152266E+03 0.  0.
         25    2    3    3    0    0 -0.11156881080E+03 -0.80106214821E+02 -0.13947284092E+03  0.22619039532E+03  0.11333497423E+03 0.  0.
         35    2    3    3    0    0  0.11156881080E+03  0.80106214821E+02 -0.31834646577E+03  0.87202846044E+03  0.80014033666E+03 0.  0.
         22    1    5    5    0    0 -0.20467984284E+02 -0.33045307883E+03  0.80282130036E+01  0.33118367697E+03  0.00000000000E+00 0. -1.
         22    1    5    5    0    0  0.13203679508E+03  0.41055929365E+03 -0.32637467877E+03  0.54084478347E+03  0.00000000000E+00 0. -1.
          5    1    4    4  502    0 -0.43701131056E+02  0.12777643287E+02 -0.89813251983E+02  0.10080459938E+03  0.47000000000E+01 0. -1.
         -5    1    4    4    0  502 -0.67867679741E+02 -0.92883858109E+02 -0.49659588934E+02  0.12538579594E+03  0.47000000000E+01 0. -1.
<mgrwt>
<rscale>  0 0.99824152E+03</rscale>
<asrwt>0</asrwt>
<pdfrwt beam="1">  1        2 0.11969524E+00 0.99824152E+03</pdfrwt>
<pdfrwt beam="2">  1       -2 0.49261505E-01 0.99824152E+03</pdfrwt>
<totfact> 0.16873957E+02</totfact>
</mgrwt>
</event>
<event>
 9    1  0.4388925E-036  0.9998683E+03  0.7818608E-02  0.8681163E-01
          2   -1    0    0  501    0  0.00000000000E+00  0.00000000000E+00  0.96586580899E+03  0.96586580899E+03  0.00000000000E+00 0. -1.
         -2   -1    0    0    0  501 -0.00000000000E+00 -0.00000000000E+00 -0.25876696375E+03  0.25876696375E+03  0.00000000000E+00 0. -1.
         36    2    1    2    0    0  0.71054273576E-14  0.00000000000E+00  0.70709884524E+03  0.12246327727E+04  0.99986831689E+03 0.  0.
         25    2    3    3    0    0  0.44290134752E+02  0.12780885015E+03  0.15997173314E+03  0.24516979905E+03  0.12735994955E+03 0.  0.
         35    2    3    3    0    0 -0.44290134752E+02 -0.12780885015E+03  0.54712711210E+03  0.97946297369E+03  0.80106361908E+03 0.  0.
         22    1    5    5    0    0  0.35423745074E+03 -0.19253647217E+03  0.33012524939E+03  0.52109226141E+03  0.00000000000E+00 0. -1.
         22    1    5    5    0    0 -0.39852758549E+03  0.64727622024E+02  0.21700186271E+03  0.45837071227E+03  0.00000000000E+00 0. -1.
          5    1    4    4  502    0 -0.33170638305E+02  0.78981497434E+02  0.11379355297E+03  0.14251116055E+03  0.47000000000E+01 0.  1.
         -5    1    4    4    0  502  0.77460773057E+02  0.48827352714E+02  0.46178180164E+02  0.10265863850E+03  0.47000000000E+01 0.  1.
<mgrwt>
<rscale>  0 0.99986832E+03</rscale>
<asrwt>0</asrwt>
<pdfrwt beam="1">  1        2 0.14859474E+00 0.99986832E+03</pdfrwt>
<pdfrwt beam="2">  1       -2 0.39810303E-01 0.99986832E+03</pdfrwt>
<totfact> 0.19131650E+02</totfact>
</mgrwt>
</event>
<event>
 9    1  0.4388925E-036  0.1002984E+04  0.7818608E-02  0.8678201E-01
          2   -1    0    0  501    0  0.00000000000E+00  0.00000000000E+00  0.22513074881E+03  0.22513074881E+03  0.00000000000E+00 0.  1.
         -2   -1    0    0    0  501 -0.00000000000E+00 -0.00000000000E+00 -0.11171035656E+04  0.11171035656E+04  0.00000000000E+00 0.  1.
         36    2    1    2    0    0  0.71054273576E-14  0.00000000000E+00 -0.89197281676E+03  0.13422343144E+04  0.10029842715E+04 0.  0.
         25    2    3    3    0    0 -0.60374763326E+02 -0.57926172775E+02 -0.88418354648E+01  0.14775243913E+03  0.12145802434E+03 0.  0.
         35    2    3    3    0    0  0.60374763326E+02  0.57926172775E+02 -0.88313098129E+03  0.11944818752E+04  0.79991628726E+03 0.  0.
         22    1    5    5    0    0  0.38978259249E+02 -0.10992720321E+03 -0.98836065328E+03  0.99521860697E+03  0.00000000000E+00 0.  1.
         22    1    5    5    0    0  0.21396504078E+02  0.16785337598E+03  0.10522967199E+03  0.19926326827E+03  0.00000000000E+00 0.  1.
          5    1    4    4  502    0  0.15620183851E+02 -0.32872466259E+02 -0.46462540665E+02  0.59206814359E+02  0.47000000000E+01 0.  1.
         -5    1    4    4    0  502 -0.75994947178E+02 -0.25053706516E+02  0.37620705200E+02  0.88545624773E+02  0.47000000000E+01 0.  1.
<mgrwt>
<rscale>  0 0.10029843E+04</rscale>
<asrwt>0</asrwt>
<pdfrwt beam="1">  1        2 0.34635500E-01 0.10029843E+04</pdfrwt>
<pdfrwt beam="2">  1       -2 0.17186208E+00 0.10029843E+04</pdfrwt>
<totfact> 0.34757404E+01</totfact>
</mgrwt>
</event>
<event>
 9    1  0.4388925E-036  0.9998156E+03  0.7818608E-02  0.8681214E-01
         -1   -1    0    0    0  501 -0.00000000000E+00  0.00000000000E+00  0.55537858468E+03  0.55537858468E+03  0.00000000000E+00 0.  1.
          1   -1    0    0  501    0  0.00000000000E+00 -0.00000000000E+00 -0.44997736454E+03  0.44997736454E+03  0.00000000000E+00 0.  1.
         36    2    1    2    0    0 -0.14210854715E-13 -0.42632564146E-13  0.10540122015E+03  0.10053559492E+04  0.99981556671E+03 0.  0.
         25    2    3    3    0    0 -0.47880058278E+02  0.12191146991E+03 -0.31853956293E+02  0.18353036253E+03  0.12455445781E+03 0.  0.
         35    2    3    3    0    0  0.47880058278E+02 -0.12191146991E+03  0.13725517644E+03  0.82182558670E+03  0.79962704120E+03 0.  0.
         22    1    5    5    0    0  0.15234431554E+03 -0.43329215803E+03  0.17440992359E+03  0.49129391013E+03  0.00000000000E+00 0.  1.
         22    1    5    5    0    0 -0.10446425726E+03  0.31138068812E+03 -0.37154747152E+02  0.33053167657E+03  0.00000000000E+00 0.  1.
          5    1    4    4  502    0  0.26733246945E+02  0.90547478152E+02  0.45955803432E+01  0.94639958002E+02  0.47000000000E+01 0.  1.
         -5    1    4    4    0  502 -0.74613305223E+02  0.31363991758E+02 -0.36449536637E+02  0.88890404524E+02  0.47000000000E+01 0.  1.
<mgrwt>
<rscale>  0 0.99981557E+03</rscale>
<asrwt>0</asrwt>
<pdfrwt beam="1">  1        1 0.69227287E-01 0.99981557E+03</pdfrwt>
<pdfrwt beam="2">  1       -1 0.85442859E-01 0.99981557E+03</pdfrwt>
<totfact> 0.82248170E+01</totfact>
</mgrwt>
</event>
<event>
 9    1  0.4388925E-036  0.1001539E+04  0.7818608E-02  0.8679574E-01
         -1   -1    0    0    0  501 -0.00000000000E+00  0.00000000000E+00  0.17121167211E+03  0.17121167211E+03  0.00000000000E+00 0. -1.
          1   -1    0    0  501    0  0.00000000000E+00 -0.00000000000E+00 -0.14646785825E+04  0.14646785825E+04  0.00000000000E+00 0. -1.
         36    2    1    2    0    0  0.71054273576E-14  0.14210854715E-13 -0.12934669104E+04  0.16358902546E+04  0.10015389542E+04 0.  0.
         25    2    3    3    0    0  0.34999908233E+02 -0.24937236942E+02 -0.46478254866E+03  0.48308751578E+03  0.12451454132E+03 0.  0.
         35    2    3    3    0    0 -0.34999908233E+02  0.24937236942E+02 -0.82868436172E+03  0.11528027388E+04  0.80024341541E+03 0.  0.
         22    1    5    5    0    0  0.14921293498E+03 -0.12581165771E+03 -0.88659754812E+03  0.90782613176E+03  0.00000000000E+00 0.  1.
         22    1    5    5    0    0 -0.18421284321E+03  0.15074889465E+03  0.57913186402E+02  0.24497660705E+03  0.00000000000E+00 0.  1.
          5    1    4    4  502    0  0.24085341513E+02 -0.59705949126E+02 -0.11919687281E+03  0.13555400594E+03  0.47000000000E+01 0.  1.
         -5    1    4    4    0  502  0.10914566720E+02  0.34768712184E+02 -0.34558567585E+03  0.34753350984E+03  0.47000000000E+01 0.  1.
<mgrwt>
<rscale>  0 0.10015390E+04</rscale>
<asrwt>0</asrwt>
<pdfrwt beam="1">  1        1 0.22533516E+00 0.10015390E+04</pdfrwt>
<pdfrwt beam="2">  1       -1 0.26340258E-01 0.10015390E+04</pdfrwt>
<totfact> 0.95903179E+01</totfact>
</mgrwt>
</event>
<event>
 9    1  0.4388925E-036  0.1000206E+04  0.7818608E-02  0.8680842E-01
         -4   -1    0    0    0  501 -0.00000000000E+00  0.00000000000E+00  0.15315287123E+03  0.15315287123E+03  0.00000000000E+00 0.  1.
          4   -1    0    0  501    0  0.00000000000E+00 -0.00000000000E+00 -0.16330270564E+04  0.16330270564E+04  0.00000000000E+00 0.  1.
         36    2    1    2    0    0  0.28421709430E-13 -0.14210854715E-13 -0.14798741852E+04  0.17861799277E+04  0.10002055438E+04 0.  0.
         25    2    3    3    0    0 -0.13280811635E+03 -0.22227622833E+02 -0.34329699989E+03  0.38977290591E+03  0.12624589128E+03 0.  0.
         35    2    3    3    0    0  0.13280811635E+03  0.22227622833E+02 -0.11365771853E+04  0.13964070217E+04  0.80000800572E+03 0.  0.
         22    1    5    5    0    0  0.31900089209E+03 -0.30068234288E+03 -0.62731833327E+03  0.76531021928E+03  0.00000000000E+00 0.  1.
         22    1    5    5    0    0 -0.18619277574E+03  0.32290996571E+03 -0.50925885204E+03  0.63109680246E+03  0.00000000000E+00 0.  1.
          5    1    4    4  502    0 -0.21142040902E+02 -0.61876202978E+02 -0.10964835924E+03  0.12775172434E+03  0.47000000000E+01 0.  1.
         -5    1    4    4    0  502 -0.11166607545E+03  0.39648580145E+02 -0.23364864065E+03  0.26202118157E+03  0.47000000000E+01 0.  1.
<mgrwt>
<rscale>  0 0.10002055E+04</rscale>
<asrwt>0</asrwt>
<pdfrwt beam="1">  1        4 0.25123494E+00 0.10002055E+04</pdfrwt>
<pdfrwt beam="2">  1       -4 0.23561980E-01 0.10002055E+04</pdfrwt>
<totfact> 0.17000105E+00</totfact>
</mgrwt>
</event>
<event>
 9    1  0.4388925E-036  0.1002149E+04  0.7818608E-02  0.8678994E-01
         -2   -1    0    0    0  501 -0.00000000000E+00  0.00000000000E+00  0.14740511060E+03  0.14740511060E+03  0.00000000000E+00 0.  1.
          2   -1    0    0  501    0  0.00000000000E+00 -0.00000000000E+00 -0.17033046327E+04  0.17033046327E+04  0.00000000000E+00 0.  1.
         36    2    1    2    0    0 -0.14210854715E-13 -0.71054273576E-14 -0.15558995221E+04  0.18507097433E+04  0.10021493058E+04 0.  0.
         25    2    3    3    0    0 -0.46453425538E+02  0.19699986118E+02 -0.54793350813E+03  0.56443787423E+03  0.12574964944E+03 0.  0.
         35    2    3    3    0    0  0.46453425538E+02 -0.19699986118E+02 -0.10079660140E+04  0.12862718691E+04  0.79746713139E+03 0.  0.
         22    1    5    5    0    0 -0.13018437638E+03 -0.20793408406E+03  0.46624774029E+00  0.24532584975E+03  0.00000000000E+00 0. -1.
         22    1    5    5    0    0  0.17663780191E+03  0.18823409795E+03 -0.10084322617E+04  0.10409460193E+04  0.00000000000E+00 0. -1.
          5    1    4    4  502    0 -0.82519117549E+02  0.37633761231E+02 -0.30832231919E+03  0.32141942576E+03  0.47000000000E+01 0.  1.
         -5    1    4    4    0  502  0.36065692010E+02 -0.17933775113E+02 -0.23961118895E+03  0.24301844848E+03  0.47000000000E+01 0.  1.
<mgrwt>
<rscale>  0 0.10021493E+04</rscale>
<asrwt>0</asrwt>
<pdfrwt beam="1">  1        2 0.26204686E+00 0.10021493E+04</pdfrwt>
<pdfrwt beam="2">  1       -2 0.22677710E-01 0.10021493E+04</pdfrwt>
<totfact> 0.19820205E+02</totfact>
</mgrwt>
</event>
<event>
 9    1  0.4388925E-036  0.9984841E+03  0.7818608E-02  0.8682483E-01
         -4   -1    0    0    0  501 -0.00000000000E+00  0.00000000000E+00  0.22351478101E+03  0.22351478101E+03  0.00000000000E+00 0. -1.
          4   -1    0    0  501    0  0.00000000000E+00 -0.00000000000E+00 -0.11151056873E+04  0.11151056873E+04  0.00000000000E+00 0. -1.
         36    2    1    2    0    0  0.14210854715E-13  0.00000000000E+00 -0.89159090631E+03  0.13386204683E+04  0.99848405798E+03 0.  0.
         25    2    3    3    0    0  0.11571392518E+03 -0.43467196351E+02 -0.26005387923E+03  0.31163638062E+03  0.11920614071E+03 0.  0.
         35    2    3    3    0    0 -0.11571392518E+03  0.43467196351E+02 -0.63153702708E+03  0.10269840877E+04  0.80036128730E+03 0.  0.
         22    1    5    5    0    0  0.32596442826E+03  0.12026762346E+03 -0.18246459678E+03  0.39244163748E+03  0.00000000000E+00 0. -1.
         22    1    5    5    0    0 -0.44167835345E+03 -0.76800427108E+02 -0.44907243030E+03  0.63454245024E+03  0.00000000000E+00 0. -1.
          5    1    4    4  502    0  0.53931814308E+02 -0.80615993923E+02 -0.12304444303E+03  0.15674694265E+03  0.47000000000E+01 0.  1.
         -5    1    4    4    0  502  0.61782110876E+02  0.37148797572E+02 -0.13700943620E+03  0.15488943797E+03  0.47000000000E+01 0.  1.
<mgrwt>
<rscale>  0 0.99848406E+03</rscale>
<asrwt>0</asrwt>
<pdfrwt beam="1">  1        4 0.17155472E+00 0.99848406E+03</pdfrwt>
<pdfrwt beam="2">  1       -4 0.34386889E-01 0.99848406E+03</pdfrwt>
<totfact> 0.32103966E+00</totfact>
</mgrwt>
</event>
<event>
 9    1  0.4388925E-036  0.9996581E+03  0.7818608E-02  0.8681364E-01
          2   -1    0    0  501    0  0.00000000000E+00  0.00000000000E+00  0.84036815678E+03  0.84036815678E+03  0.00000000000E+00 0.  1.
         -2   -1    0    0    0  501 -0.00000000000E+00 -0.00000000000E+00 -0.29728526656E+03  0.29728526656E+03  0.00000000000E+00 0.  1.
         36    2    1    2    0    0 -0.28421709430E-13  0.00000000000E+00  0.54308289023E+03  0.11376534233E+04  0.99965808453E+03 0.  0.
         25    2    3    3    0    0 -0.42461723878E+02  0.11849705261E+03  0.16604755767E+03  0.24317965056E+03  0.12537943039E+03 0.  0.
         35    2    3    3    0    0  0.42461723878E+02 -0.11849705261E+03  0.37703533255E+03  0.89447377277E+03  0.80130090398E+03 0.  0.
         22    1    5    5    0    0  0.40020175559E+03 -0.12185715994E+03  0.72342682560E+02  0.42455161798E+03  0.00000000000E+00 0.  1.
         22    1    5    5    0    0 -0.35774003171E+03  0.33601073244E+01  0.30469264999E+03  0.46992215480E+03  0.00000000000E+00 0.  1.
          5    1    4    4  502    0 -0.68210622058E+02  0.69307548665E+02  0.15978572099E+03  0.18710903745E+03  0.47000000000E+01 0.  1.
         -5    1    4    4    0  502  0.25748898179E+02  0.49189503946E+02  0.62618366829E+01  0.56070613110E+02  0.47000000000E+01 0.  1.
<mgrwt>
<rscale>  0 0.99965808E+03</rscale>
<asrwt>0</asrwt>
<pdfrwt beam="1">  1        2 0.12928741E+00 0.99965808E+03</pdfrwt>
<pdfrwt beam="2">  1       -2 0.45736195E-01 0.99965808E+03</pdfrwt>
<totfact> 0.17683939E+02</totfact>
</mgrwt>
</event>
<event>
 9    1  0.4388925E-036  0.1000786E+04  0.7818608E-02  0.8680289E-01
         -2   -1    0    0    0  501 -0.00000000000E+00  0.00000000000E+00  0.17457549251E+03  0.17457549251E+03  0.00000000000E+00 0.  1.
          2   -1    0    0  501    0  0.00000000000E+00 -0.00000000000E+00 -0.14342982784E+04  0.14342982784E+04  0.00000000000E+00 0.  1.
         36    2    1    2    0    0  0.00000000000E+00  0.42632564146E-13 -0.12597227859E+04  0.16088737709E+04  0.10007863475E+04 0.  0.
         25    2    3    3    0    0  0.12070763368E+03  0.36860091067E+02 -0.12604540614E+03  0.21615688240E+03  0.12209567665E+03 0.  0.
         35    2    3    3    0    0 -0.12070763368E+03 -0.36860091067E+02 -0.11336773797E+04  0.13927168885E+04  0.79906628702E+03 0.  0.
         22    1    5    5    0    0  0.89955770298E+02  0.34915554900E+03 -0.61304897345E+03  0.71121774574E+03  0.00000000000E+00 0.  1.
         22    1    5    5    0    0 -0.21066340398E+03 -0.38601564007E+03 -0.52062840627E+03  0.68149914275E+03  0.00000000000E+00 0.  1.
          5    1    4    4  502    0  0.52422091381E+02  0.76948182567E+02 -0.87931283640E+02  0.12815263988E+03  0.47000000000E+01 0.  1.
         -5    1    4    4    0  502  0.68285542303E+02 -0.40088091500E+02 -0.38114122503E+02  0.88004242522E+02  0.47000000000E+01 0.  1.
<mgrwt>
<rscale>  0 0.10007863E+04</rscale>
<asrwt>0</asrwt>
<pdfrwt beam="1">  1        2 0.22066128E+00 0.10007863E+04</pdfrwt>
<pdfrwt beam="2">  1       -2 0.26857767E-01 0.10007863E+04</pdfrwt>
<totfact> 0.20841449E+02</totfact>
</mgrwt>
</event>
<event>
 9    1  0.4388925E-036  0.1001045E+04  0.7818608E-02  0.8680043E-01
          1   -1    0    0  501    0  0.00000000000E+00  0.00000000000E+00  0.10267872648E+04  0.10267872648E+04  0.00000000000E+00 0.  1.
         -1   -1    0    0    0  501 -0.00000000000E+00 -0.00000000000E+00 -0.24398725319E+03  0.24398725319E+03  0.00000000000E+00 0.  1.
         36    2    1    2    0    0 -0.14210854715E-13  0.00000000000E+00  0.78280001163E+03  0.12707745180E+04  0.10010454622E+04 0.  0.
         25    2    3    3    0    0 -0.78658067874E+02  0.10518140194E+03  0.85339516537E+02  0.20104467637E+03  0.12603931870E+03 0.  0.
         35    2    3    3    0    0  0.78658067874E+02 -0.10518140194E+03  0.69746049509E+03  0.10697298416E+04  0.80038776411E+03 0.  0.
         22    1    5    5    0    0 -0.74966242172E+02  0.33279202088E+03  0.35947862736E+03  0.49557577640E+03  0.00000000000E+00 0.  1.
         22    1    5    5    0    0  0.15362431005E+03 -0.43797342281E+03  0.33798186774E+03  0.57415406525E+03  0.00000000000E+00 0.  1.
          5    1    4    4  502    0 -0.10394995597E+03  0.71892096698E+02  0.27346170737E+02  0.12939849291E+03  0.47000000000E+01 0. -1.
         -5    1    4    4    0  502  0.25291888094E+02  0.33289305239E+02  0.57993345800E+02  0.71646183456E+02  0.47000000000E+01 0. -1.
<mgrwt>
<rscale>  0 0.10010455E+04</rscale>
<asrwt>0</asrwt>
<pdfrwt beam="1">  1        1 0.15796727E+00 0.10010455E+04</pdfrwt>
<pdfrwt beam="2">  1       -1 0.37536501E-01 0.10010455E+04</pdfrwt>
<totfact> 0.11017733E+02</totfact>
</mgrwt>
</event>
<event>
 9    1  0.4388925E-036  0.9974703E+03  0.7818608E-02  0.8683451E-01
          1   -1    0    0  501    0  0.00000000000E+00  0.00000000000E+00  0.15320489572E+04  0.15320489572E+04  0.00000000000E+00 0.  1.
         -1   -1    0    0    0  501 -0.00000000000E+00 -0.00000000000E+00 -0.16235562362E+03  0.16235562362E+03  0.00000000000E+00 0.  1.
         36    2    1    2    0    0  0.00000000000E+00  0.53290705182E-13  0.13696933336E+04  0.16944045808E+04  0.99747032812E+03 0.  0.
         25    2    3    3    0    0 -0.12548468899E+03 -0.15676788908E+01  0.36114527836E+03  0.40206721370E+03  0.12443177835E+03 0.  0.
         35    2    3    3    0    0  0.12548468899E+03  0.15676788908E+01  0.10085480552E+04  0.12923373671E+04  0.79825924737E+03 0.  0.
         22    1    5    5    0    0  0.16728020603E+03  0.28196892267E+03  0.94711918995E+03  0.10022593979E+04  0.00000000000E+00 0. -1.
         22    1    5    5    0    0 -0.41795517037E+02 -0.28040124378E+03  0.61428865282E+02  0.29007796925E+03  0.00000000000E+00 0. -1.
          5    1    4    4  502    0 -0.48829111421E+02  0.26213512126E+02  0.28510075672E+03  0.29047540657E+03  0.47000000000E+01 0.  1.
         -5    1    4    4    0  502 -0.76655577568E+02 -0.27781191017E+02  0.76044521636E+02  0.11159180712E+03  0.47000000000E+01 0.  1.
<mgrwt>
<rscale>  0 0.99747033E+03</rscale>
<asrwt>0</asrwt>
<pdfrwt beam="1">  1        1 0.23569983E+00 0.99747033E+03</pdfrwt>
<pdfrwt beam="2">  1       -1 0.24977789E-01 0.99747033E+03</pdfrwt>
<totfact> 0.93935026E+01</totfact>
</mgrwt>
</event>
<event>
 9    1  0.4388925E-036  0.9993652E+03  0.7818608E-02  0.8681643E-01
          2   -1    0    0  501    0  0.00000000000E+00  0.00000000000E+00  0.12226106887E+04  0.12226106887E+04  0.00000000000E+00 0. -1.
         -2   -1    0    0    0  501 -0.00000000000E+00 -0.00000000000E+00 -0.20422092828E+03  0.20422092828E+03  0.00000000000E+00 0. -1.
         36    2    1    2    0    0  0.28421709430E-13 -0.28421709430E-13  0.10183897604E+04  0.14268316170E+04  0.99936517804E+03 0.  0.
         25    2    3    3    0    0 -0.72710234161E+01  0.12998083099E+03  0.25678156038E+03  0.31398074536E+03  0.12529666596E+03 0.  0.
         35    2    3    3    0    0  0.72710234161E+01 -0.12998083099E+03  0.76160820003E+03  0.11128508716E+04  0.80090082275E+03 0.  0.
         22    1    5    5    0    0 -0.29399491182E+03 -0.52881721163E+02  0.74359946452E+03  0.80135488283E+03  0.00000000000E+00 0. -1.
         22    1    5    5    0    0  0.30126593523E+03 -0.77099109829E+02  0.18008735510E+02  0.31149598877E+03  0.00000000000E+00 0. -1.
          5    1    4    4  502    0 -0.58180836249E+02  0.31096628606E+02  0.12546684248E+03  0.14183098596E+03  0.47000000000E+01 0.  1.
         -5    1    4    4    0  502  0.50909812833E+02  0.98884202386E+02  0.13131471790E+03  0.17214975940E+03  0.47000000000E+01 0.  1.
<mgrwt>
<rscale>  0 0.99936518E+03</rscale>
<asrwt>0</asrwt>
<pdfrwt beam="1">  1        2 0.18809395E+00 0.99936518E+03</pdfrwt>
<pdfrwt beam="2">  1       -2 0.31418605E-01 0.99936518E+03</pdfrwt>
<totfact> 0.20780817E+02</totfact>
</mgrwt>
</event>
<event>
 9    1  0.4388925E-036  0.9999453E+03  0.7818608E-02  0.8681090E-01
          2   -1    0    0  501    0  0.00000000000E+00  0.00000000000E+00  0.15806049002E+04  0.15806049002E+04  0.00000000000E+00 0.  1.
         -2   -1    0    0    0  501 -0.00000000000E+00 -0.00000000000E+00 -0.15814998575E+03  0.15814998575E+03  0.00000000000E+00 0.  1.
         36    2    1    2    0    0 -0.28421709430E-13 -0.19539925233E-13  0.14224549145E+04  0.17387548860E+04  0.99994528339E+03 0.  0.
         25    2    3    3    0    0  0.11328218816E+03 -0.87731817298E+01  0.41212946681E+03  0.44516011304E+03  0.12412496106E+03 0.  0.
         35    2    3    3    0    0 -0.11328218816E+03  0.87731817298E+01  0.10103254477E+04  0.12935947729E+04  0.79982504554E+03 0.  0.
         22    1    5    5    0    0  0.15513318037E+03 -0.24288968798E+03  0.84014441318E+03  0.88820287050E+03  0.00000000000E+00 0.  1.
         22    1    5    5    0    0 -0.26841536853E+03  0.25166286971E+03  0.17018103450E+03  0.40539190243E+03  0.00000000000E+00 0.  1.
          5    1    4    4  502    0  0.60972107877E+01 -0.73104448081E+01 -0.68666337321E+01  0.12643545448E+02  0.47000000000E+01 0.  1.
         -5    1    4    4    0  502  0.10718497737E+03 -0.14627369217E+01  0.41899610054E+03  0.43251656760E+03  0.47000000000E+01 0.  1.
<mgrwt>
<rscale>  0 0.99994528E+03</rscale>
<asrwt>0</asrwt>
<pdfrwt beam="1">  1        2 0.24316997E+00 0.99994528E+03</pdfrwt>
<pdfrwt beam="2">  1       -2 0.24330768E-01 0.99994528E+03</pdfrwt>
<totfact> 0.20532789E+02</totfact>
</mgrwt>
</event>
<event>
 9    1  0.4388925E-036  0.9995484E+03  0.7818608E-02  0.8681468E-01
         -2   -1    0    0    0  501 -0.00000000000E+00  0.00000000000E+00  0.14852968061E+03  0.14852968061E+03  0.00000000000E+00 0.  1.
          2   -1    0    0  501    0  0.00000000000E+00 -0.00000000000E+00 -0.16816455173E+04  0.16816455173E+04  0.00000000000E+00 0.  1.
         36    2    1    2    0    0  0.00000000000E+00  0.14210854715E-13 -0.15331158367E+04  0.18301751979E+04  0.99954844121E+03 0.  0.
         25    2    3    3    0    0 -0.23230325932E+02  0.67723933411E+02 -0.68725133578E+02  0.15934425721E+03  0.12466462658E+03 0.  0.
         35    2    3    3    0    0  0.23230325932E+02 -0.67723933411E+02 -0.14643907031E+04  0.16708309407E+04  0.80131749128E+03 0.  0.
         22    1    5    5    0    0  0.14014710016E+03 -0.39810096724E+03 -0.56239435187E+03  0.70314507523E+03  0.00000000000E+00 0. -1.
         22    1    5    5    0    0 -0.11691677423E+03  0.33037703383E+03 -0.90199635121E+03  0.96768586544E+03  0.00000000000E+00 0. -1.
          5    1    4    4  502    0 -0.63636304968E+02  0.68611512049E+02 -0.72514319801E+02  0.11848010581E+03  0.47000000000E+01 0.  1.
         -5    1    4    4    0  502  0.40405979036E+02 -0.88757863783E+00  0.37891862228E+01  0.40864151403E+02  0.47000000000E+01 0.  1.
<mgrwt>
<rscale>  0 0.99954844E+03</rscale>
<asrwt>0</asrwt>
<pdfrwt beam="1">  1        2 0.25871469E+00 0.99954844E+03</pdfrwt>
<pdfrwt beam="2">  1       -2 0.22850721E-01 0.99954844E+03</pdfrwt>
<totfact> 0.20114967E+02</totfact>
</mgrwt>
</event>
<event>
 9    1  0.4388925E-036  0.9996339E+03  0.7818608E-02  0.8681387E-01
          1   -1    0    0  501    0  0.00000000000E+00  0.00000000000E+00  0.91214534216E+03  0.91214534216E+03  0.00000000000E+00 0.  1.
         -1   -1    0    0    0  501 -0.00000000000E+00 -0.00000000000E+00 -0.27387849583E+03  0.27387849583E+03  0.00000000000E+00 0.  1.
         36    2    1    2    0    0  0.00000000000E+00 -0.35527136788E-14  0.63826684633E+03  0.11860238380E+04  0.99963392158E+03 0.  0.
         25    2    3    3    0    0  0.12393030573E+03 -0.29340144539E+02  0.47415847175E+02  0.18409714600E+03  0.12419312316E+03 0.  0.
         35    2    3    3    0    0 -0.12393030573E+03  0.29340144539E+02  0.59085099916E+03  0.10019266920E+04  0.79908236633E+03 0.  0.
         22    1    5    5    0    0  0.30294517843E+03  0.66802550858E+02  0.45821520026E+03  0.55335299013E+03  0.00000000000E+00 0.  1.
         22    1    5    5    0    0 -0.42687548416E+03 -0.37462406319E+02  0.13263579890E+03  0.44857370187E+03  0.00000000000E+00 0.  1.
          5    1    4    4  502    0 -0.19448202874E+02  0.17076687881E+02  0.95038577055E+00  0.26321836887E+02  0.47000000000E+01 0. -1.
         -5    1    4    4    0  502  0.14337850860E+03 -0.46416832421E+02  0.46465461404E+02  0.15777530911E+03  0.47000000000E+01 0. -1.
<mgrwt>
<rscale>  0 0.99963392E+03</rscale>
<asrwt>0</asrwt>
<pdfrwt beam="1">  1        1 0.14033005E+00 0.99963392E+03</pdfrwt>
<pdfrwt beam="2">  1       -1 0.42135153E-01 0.99963392E+03</pdfrwt>
<totfact> 0.11097343E+02</totfact>
</mgrwt>
</event>
<event>
 9    1  0.4388925E-036  0.1000467E+04  0.7818608E-02  0.8680594E-01
         -2   -1    0    0    0  501 -0.00000000000E+00  0.00000000000E+00  0.50527085653E+03  0.50527085653E+03  0.00000000000E+00 0.  1.
          2   -1    0    0  501    0  0.00000000000E+00 -0.00000000000E+00 -0.49524599824E+03  0.49524599824E+03  0.00000000000E+00 0.  1.
         36    2    1    2    0    0 -0.21316282073E-13  0.00000000000E+00  0.10024858288E+02  0.10005168548E+04  0.10004666306E+04 0.  0.
         25    2    3    3    0    0 -0.58165361190E+02  0.68494396393E+02 -0.10414918909E+03  0.18644053172E+03  0.12585041399E+03 0.  0.
         35    2    3    3    0    0  0.58165361190E+02 -0.68494396393E+02  0.11417404738E+03  0.81407632305E+03  0.80100552749E+03 0.  0.
         22    1    5    5    0    0 -0.23849056354E+03 -0.29601762228E+03 -0.86368724318E+02  0.38982526616E+03  0.00000000000E+00 0. -1.
         22    1    5    5    0    0  0.29665592473E+03  0.22752322588E+03  0.20054277169E+03  0.42425105689E+03  0.00000000000E+00 0. -1.
          5    1    4    4  502    0 -0.88996271589E+02  0.12152269548E+02 -0.66343132822E+02  0.11176544763E+03  0.47000000000E+01 0. -1.
         -5    1    4    4    0  502  0.30830910399E+02  0.56342126845E+02 -0.37806056266E+02  0.74675084090E+02  0.47000000000E+01 0. -1.
<mgrwt>
<rscale>  0 0.10004666E+04</rscale>
<asrwt>0</asrwt>
<pdfrwt beam="1">  1        2 0.76191692E-01 0.10004666E+04</pdfrwt>
<pdfrwt beam="2">  1       -2 0.77733978E-01 0.10004666E+04</pdfrwt>
<totfact> 0.11076643E+02</totfact>
</mgrwt>
</event>
<event>
 9    1  0.4388925E-036  0.9959067E+03  0.7818608E-02  0.8684946E-01
         -1   -1    0    0    0  501 -0.00000000000E+00  0.00000000000E+00  0.36665794445E+03  0.36665794445E+03  0.00000000000E+00 0. -1.
          1   -1    0    0  501    0  0.00000000000E+00 -0.00000000000E+00 -0.67626397209E+03  0.67626397209E+03  0.00000000000E+00 0. -1.
         36    2    1    2    0    0  0.28421709430E-13 -0.71054273576E-14 -0.30960602764E+03  0.10429219165E+04  0.99590673843E+03 0.  0.
         25    2    3    3    0    0  0.73891400828E+02 -0.24776812459E+02 -0.17364850007E+03  0.22761169490E+03  0.12481767714E+03 0.  0.
         35    2    3    3    0    0 -0.73891400828E+02  0.24776812459E+02 -0.13595752757E+03  0.81531022164E+03  0.80010779190E+03 0.  0.
         22    1    5    5    0    0 -0.39839300191E+03  0.10681362608E+03  0.75615530348E+02  0.41933738579E+03  0.00000000000E+00 0. -1.
         22    1    5    5    0    0  0.32450160109E+03 -0.82036813625E+02 -0.21157305792E+03  0.39597283585E+03  0.00000000000E+00 0. -1.
          5    1    4    4  502    0  0.55435968207E+02 -0.70022663309E+02 -0.14615442226E+03  0.17134621412E+03  0.47000000000E+01 0. -1.
         -5    1    4    4    0  502  0.18455432621E+02  0.45245850850E+02 -0.27494077813E+02  0.56265480777E+02  0.47000000000E+01 0. -1.
<mgrwt>
<rscale>  0 0.99590674E+03</rscale>
<asrwt>0</asrwt>
<pdfrwt beam="1">  1        1 0.10404061E+00 0.99590674E+03</pdfrwt>
<pdfrwt beam="2">  1       -1 0.56408915E-01 0.99590674E+03</pdfrwt>
<totfact> 0.10525578E+02</totfact>
</mgrwt>
</event>
<event>
 9    1  0.4388925E-036  0.1000614E+04  0.7818608E-02  0.8680453E-01
         -1   -1    0    0    0  501 -0.00000000000E+00  0.00000000000E+00  0.11318508046E+03  0.11318508046E+03  0.00000000000E+00 0.  1.
          1   -1    0    0  501    0  0.00000000000E+00 -0.00000000000E+00 -0.22114858865E+04  0.22114858865E+04  0.00000000000E+00 0.  1.
         36    2    1    2    0    0  0.00000000000E+00  0.28421709430E-13 -0.20983008060E+04  0.23246709669E+04  0.10006142273E+04 0.  0.
         25    2    3    3    0    0 -0.86561985708E+02  0.11070409726E+03 -0.39157337387E+03  0.43445666571E+03  0.12519789431E+03 0.  0.
         35    2    3    3    0    0  0.86561985708E+02 -0.11070409726E+03 -0.17067274322E+04  0.18902143012E+04  0.80015198704E+03 0.  0.
         22    1    5    5    0    0  0.11422088600E+02 -0.42646144049E+03 -0.13095236186E+04  0.13772624775E+04  0.00000000000E+00 0. -1.
         22    1    5    5    0    0  0.75139897108E+02  0.31575734323E+03 -0.39720381360E+03  0.51295182374E+03  0.00000000000E+00 0. -1.
          5    1    4    4  502    0 -0.98761803437E+02  0.11516337662E+03 -0.39228405363E+03  0.42062497056E+03  0.47000000000E+01 0. -1.
         -5    1    4    4    0  502  0.12199817729E+02 -0.44592793585E+01  0.71067975632E+00  0.13831695151E+02  0.47000000000E+01 0. -1.
<mgrwt>
<rscale>  0 0.10006142E+04</rscale>
<asrwt>0</asrwt>
<pdfrwt beam="1">  1        1 0.34022859E+00 0.10006142E+04</pdfrwt>
<pdfrwt beam="2">  1       -1 0.17413090E-01 0.10006142E+04</pdfrwt>
<totfact> 0.56829576E+01</totfact>
</mgrwt>
</event>
<event>
 9    1  0.4388925E-036  0.9994590E+03  0.7818608E-02  0.8681553E-01
         -1   -1    0    0    0  501 -0.00000000000E+00  0.00000000000E+00  0.57151981012E+03  0.57151981012E+03  0.00000000000E+00 0. -1.
          1   -1    0    0  501    0  0.00000000000E+00 -0.00000000000E+00 -0.43695694665E+03  0.43695694665E+03  0.00000000000E+00 0. -1.
         36    2    1    2    0    0  0.17763568394E-13  0.00000000000E+00  0.13456286347E+03  0.10084767568E+04  0.99945895600E+03 0.  0.
         25    2    3    3    0    0  0.18778130281E+02 -0.13950690198E+03  0.10941821825E+02  0.18833764820E+03  0.12464570746E+03 0.  0.
         35    2    3    3    0    0 -0.18778130281E+02  0.13950690198E+03  0.12362104165E+03  0.82013910857E+03  0.79845551009E+03 0.  0.
         22    1    5    5    0    0 -0.39394273112E+03 -0.81901833628E+01  0.13577603702E+03  0.41676502580E+03  0.00000000000E+00 0.  1.
         22    1    5    5    0    0  0.37516460083E+03  0.14769708535E+03 -0.12154995369E+02  0.40337408277E+03  0.00000000000E+00 0.  1.
          5    1    4    4  502    0 -0.10987750195E+02 -0.93670149364E+02 -0.49581055800E+02  0.10665457623E+03  0.47000000000E+01 0.  1.
         -5    1    4    4    0  502  0.29765880476E+02 -0.45836752620E+02  0.60522877625E+02  0.81683071975E+02  0.47000000000E+01 0.  1.
<mgrwt>
<rscale>  0 0.99945896E+03</rscale>
<asrwt>0</asrwt>
<pdfrwt beam="1">  1        1 0.67224146E-01 0.99945896E+03</pdfrwt>
<pdfrwt beam="2">  1       -1 0.87926124E-01 0.99945896E+03</pdfrwt>
<totfact> 0.80525106E+01</totfact>
</mgrwt>
</event>
<event>
 9    1  0.4388925E-036  0.1000200E+04  0.7818608E-02  0.8680847E-01
          1   -1    0    0  501    0  0.00000000000E+00  0.00000000000E+00  0.12460712383E+04  0.12460712383E+04  0.00000000000E+00 0.  1.
         -1   -1    0    0    0  501 -0.00000000000E+00 -0.00000000000E+00 -0.20071098191E+03  0.20071098191E+03  0.00000000000E+00 0.  1.
         36    2    1    2    0    0 -0.14210854715E-13  0.28421709430E-13  0.10453602564E+04  0.14467822202E+04  0.10002003434E+04 0.  0.
         25    2    3    3    0    0  0.11411995765E-01 -0.13767200028E+03  0.17825740912E+03  0.25817140644E+03  0.12618712853E+03 0.  0.
         35    2    3    3    0    0 -0.11411995765E-01  0.13767200028E+03  0.86710284725E+03  0.11886108137E+04  0.80123326131E+03 0.  0.
         22    1    5    5    0    0 -0.18074403175E+03  0.32699061044E+03  0.84742980397E+03  0.92613634903E+03  0.00000000000E+00 0. -1.
         22    1    5    5    0    0  0.18073261975E+03 -0.18931861016E+03  0.19673043279E+02  0.26247446471E+03  0.00000000000E+00 0. -1.
          5    1    4    4  502    0  0.13265661392E+02 -0.14194066247E+03  0.89908078327E+02  0.16860807212E+03  0.47000000000E+01 0. -1.
         -5    1    4    4    0  502 -0.13254249396E+02  0.42686621923E+01  0.88349330788E+02  0.89563334321E+02  0.47000000000E+01 0. -1.
<mgrwt>
<rscale>  0 0.10002003E+04</rscale>
<asrwt>0</asrwt>
<pdfrwt beam="1">  1        1 0.19170326E+00 0.10002003E+04</pdfrwt>
<pdfrwt beam="2">  1       -1 0.30878613E-01 0.10002003E+04</pdfrwt>
<totfact> 0.10539370E+02</totfact>
</mgrwt>
</event>
<event>
 9    1  0.4388925E-036  0.1000220E+04  0.7818608E-02  0.8680828E-01
         -1   -1    0    0    0  501 -0.00000000000E+00  0.00000000000E+00  0.83913383062E+03  0.83913383062E+03  0.00000000000E+00 0.  1.
          1   -1    0    0  501    0  0.00000000000E+00 -0.00000000000E+00 -0.29805743935E+03  0.29805743935E+03  0.00000000000E+00 0.  1.
         36    2    1    2    0    0 -0.14210854715E-13  0.00000000000E+00  0.54107639127E+03  0.11371912700E+04  0.10002201374E+04 0.  0.
         25    2    3    3    0    0 -0.33305050154E+02 -0.12794483106E+03  0.14668457610E+03  0.23331007312E+03  0.12425022813E+03 0.  0.
         35    2    3    3    0    0  0.33305050154E+02  0.12794483106E+03  0.39439181518E+03  0.90388119686E+03  0.80248190509E+03 0.  0.
         22    1    5    5    0    0 -0.33805179341E+03 -0.12776834402E+03  0.15297323055E+03  0.39243416521E+03  0.00000000000E+00 0. -1.
         22    1    5    5    0    0  0.37135684356E+03  0.25571317508E+03  0.24141858463E+03  0.51144703164E+03  0.00000000000E+00 0. -1.
          5    1    4    4  502    0 -0.68170446017E+02 -0.43009774407E+02  0.10477265245E+03  0.13227414376E+03  0.47000000000E+01 0. -1.
         -5    1    4    4    0  502  0.34865395863E+02 -0.84935056657E+02  0.41911923643E+02  0.10103592936E+03  0.47000000000E+01 0. -1.
<mgrwt>
<rscale>  0 0.10002201E+04</rscale>
<asrwt>0</asrwt>
<pdfrwt beam="1">  1        1 0.45854991E-01 0.10002201E+04</pdfrwt>
<pdfrwt beam="2">  1       -1 0.12909751E+00 0.10002201E+04</pdfrwt>
<totfact> 0.54679722E+01</totfact>
</mgrwt>
</event>
<event>
 9    1  0.4388925E-036  0.9994058E+03  0.7818608E-02  0.8681604E-01
         -2   -1    0    0    0  501 -0.00000000000E+00  0.00000000000E+00  0.13295855558E+03  0.13295855558E+03  0.00000000000E+00 0.  1.
          2   -1    0    0  501    0  0.00000000000E+00 -0.00000000000E+00 -0.18780511369E+04  0.18780511369E+04  0.00000000000E+00 0.  1.
         36    2    1    2    0    0  0.00000000000E+00  0.00000000000E+00 -0.17450925813E+04  0.20110096925E+04  0.99940575638E+03 0.  0.
         25    2    3    3    0    0 -0.41555498675E+02  0.13057552220E+03 -0.27883745612E+03  0.33456290070E+03  0.12411761003E+03 0.  0.
         35    2    3    3    0    0  0.41555498675E+02 -0.13057552220E+03 -0.14662551252E+04  0.16764467918E+04  0.80111979569E+03 0.  0.
         22    1    5    5    0    0 -0.22827047470E+03  0.13262933182E+03 -0.11632149361E+04  0.11927979447E+04  0.00000000000E+00 0. -1.
         22    1    5    5    0    0  0.26982597338E+03 -0.26320485403E+03 -0.30304018911E+03  0.48364884711E+03  0.00000000000E+00 0. -1.
          5    1    4    4  502    0 -0.42736985582E+02  0.28055580253E+02 -0.19616902562E+03  0.20277559551E+03  0.47000000000E+01 0. -1.
         -5    1    4    4    0  502  0.11814869070E+01  0.10251994195E+03 -0.82668430503E+02  0.13178730520E+03  0.47000000000E+01 0. -1.
<mgrwt>
<rscale>  0 0.99940576E+03</rscale>
<asrwt>0</asrwt>
<pdfrwt beam="1">  1        2 0.28893094E+00 0.99940576E+03</pdfrwt>
<pdfrwt beam="2">  1       -2 0.20455162E-01 0.99940576E+03</pdfrwt>
<totfact> 0.18908435E+02</totfact>
</mgrwt>
</event>
<event>
 9    1  0.4388925E-036  0.9994536E+03  0.7818608E-02  0.8681558E-01
          1   -1    0    0  501    0  0.00000000000E+00  0.00000000000E+00  0.14907741067E+04  0.14907741067E+04  0.00000000000E+00 0.  1.
         -1   -1    0    0    0  501 -0.00000000000E+00 -0.00000000000E+00 -0.16751491181E+03  0.16751491181E+03  0.00000000000E+00 0.  1.
         36    2    1    2    0    0  0.00000000000E+00 -0.71054273576E-14  0.13232591949E+04  0.16582890185E+04  0.99945363676E+03 0.  0.
         25    2    3    3    0    0  0.62701707293E+02  0.11097900798E+02  0.43134043026E+02  0.14728157533E+03  0.12560513232E+03 0.  0.
         35    2    3    3    0    0 -0.62701707293E+02 -0.11097900798E+02  0.12801251518E+04  0.15110074432E+04  0.80023023024E+03 0.  0.
         22    1    5    5    0    0  0.69382326218E+02  0.37792142774E+03  0.51478991832E+03  0.64237619254E+03  0.00000000000E+00 0. -1.
         22    1    5    5    0    0 -0.13208403351E+03 -0.38901932853E+03  0.76533523353E+03  0.86863125062E+03  0.00000000000E+00 0. -1.
          5    1    4    4  502    0  0.78993434768E+01 -0.89859793509E+01 -0.42017450665E+02  0.43939772560E+02  0.47000000000E+01 0. -1.
         -5    1    4    4    0  502  0.54802363816E+02  0.20083880149E+02  0.85151493691E+02  0.10334180277E+03  0.47000000000E+01 0. -1.
<mgrwt>
<rscale>  0 0.99945364E+03</rscale>
<asrwt>0</asrwt>
<pdfrwt beam="1">  1        1 0.22934985E+00 0.99945364E+03</pdfrwt>
<pdfrwt beam="2">  1       -1 0.25771526E-01 0.99945364E+03</pdfrwt>
<totfact> 0.95341931E+01</totfact>
</mgrwt>
</event>
<event>
 9    1  0.4388925E-036  0.9995394E+03  0.7818608E-02  0.8681477E-01
          2   -1    0    0  501    0  0.00000000000E+00  0.00000000000E+00  0.31092972073E+04  0.31092972073E+04  0.00000000000E+00 0.  1.
         -2   -1    0    0    0  501 -0.00000000000E+00 -0.00000000000E+00 -0.80329978244E+02  0.80329978244E+02  0.00000000000E+00 0.  1.
         36    2    1    2    0    0 -0.28421709430E-13  0.00000000000E+00  0.30289672290E+04  0.31896271855E+04  0.99953944797E+03 0.  0.
         25    2    3    3    0    0 -0.60046579954E+02  0.12332435849E+03  0.49924367192E+03  0.53275818056E+03  0.12558879664E+03 0.  0.
         35    2    3    3    0    0  0.60046579954E+02 -0.12332435849E+03  0.25297235571E+04  0.26568690049E+04  0.80039811653E+03 0.  0.
         22    1    5    5    0    0  0.33871009544E+03  0.13318386835E+03  0.17809162340E+04  0.18177252554E+04  0.00000000000E+00 0. -1.
         22    1    5    5    0    0 -0.27866351548E+03 -0.25650822684E+03  0.74880732307E+03  0.83914374953E+03  0.00000000000E+00 0. -1.
          5    1    4    4  502    0  0.30032675769E+02  0.87778064721E+01  0.40447398974E+02  0.51352639505E+02  0.47000000000E+01 0. -1.
         -5    1    4    4    0  502 -0.90079255723E+02  0.11454655202E+03  0.45879627295E+03  0.48140554106E+03  0.47000000000E+01 0. -1.
<mgrwt>
<rscale>  0 0.99953945E+03</rscale>
<asrwt>0</asrwt>
<pdfrwt beam="1">  1        2 0.47835332E+00 0.99953945E+03</pdfrwt>
<pdfrwt beam="2">  1       -2 0.12358461E-01 0.99953945E+03</pdfrwt>
<totfact> 0.77904096E+01</totfact>
</mgrwt>
</event>
<event>
 9    1  0.4388925E-036  0.9978499E+03  0.7818608E-02  0.8683088E-01
         -2   -1    0    0    0  501 -0.00000000000E+00  0.00000000000E+00  0.11064195348E+03  0.11064195348E+03  0.00000000000E+00 0. -1.
          2   -1    0    0  501    0  0.00000000000E+00 -0.00000000000E+00 -0.22498347516E+04  0.22498347516E+04  0.00000000000E+00 0. -1.
         36    2    1    2    0    0  0.14210854715E-13  0.00000000000E+00 -0.21391927981E+04  0.23604767051E+04  0.99784991242E+03 0.  0.
         25    2    3    3    0    0  0.95298443565E+02 -0.97399812599E+02 -0.43643185000E+03  0.47412296908E+03  0.12550423608E+03 0.  0.
         35    2    3    3    0    0 -0.95298443565E+02  0.97399812599E+02 -0.17027609481E+04  0.18863537360E+04  0.80022937590E+03 0.  0.
         22    1    5    5    0    0 -0.35679526933E+03 -0.79275401988E+02 -0.38310538147E+03  0.52948766453E+03  0.00000000000E+00 0.  1.
         22    1    5    5    0    0  0.26149682576E+03  0.17667521459E+03 -0.13196555667E+04  0.13568660715E+04  0.00000000000E+00 0.  1.
          5    1    4    4  502    0 -0.30265488260E+02 -0.16646925574E+02 -0.10374390609E+03  0.10944408600E+03  0.47000000000E+01 0. -1.
         -5    1    4    4    0  502  0.12556393183E+03 -0.80752887026E+02 -0.33268794391E+03  0.36467888308E+03  0.47000000000E+01 0. -1.
<mgrwt>
<rscale>  0 0.99784991E+03</rscale>
<asrwt>0</asrwt>
<pdfrwt beam="1">  1        2 0.34612840E+00 0.99784991E+03</pdfrwt>
<pdfrwt beam="2">  1       -2 0.17021840E-01 0.99784991E+03</pdfrwt>
<totfact> 0.15861362E+02</totfact>
</mgrwt>
</event>
<event>
 9    1  0.4388925E-036  0.9997675E+03  0.7818608E-02  0.8681259E-01
          2   -1    0    0  501    0  0.00000000000E+00  0.00000000000E+00  0.10506986889E+04  0.10506986889E+04  0.00000000000E+00 0. -1.
         -2   -1    0    0    0  501 -0.00000000000E+00 -0.00000000000E+00 -0.23782626021E+03  0.23782626021E+03  0.00000000000E+00 0. -1.
         36    2    1    2    0    0  0.14210854715E-13 -0.56843418861E-13  0.81287242866E+03  0.12885249491E+04  0.99976745251E+03 0.  0.
         25    2    3    3    0    0 -0.46878035705E+02  0.13810403034E+03  0.13395424695E+03  0.23255270741E+03  0.12192927466E+03 0.  0.
         35    2    3    3    0    0  0.46878035705E+02 -0.13810403034E+03  0.67891818171E+03  0.10559722417E+04  0.79553579698E+03 0.  0.
         22    1    5    5    0    0  0.26060745406E+03 -0.33549718569E+03  0.63165027931E+03  0.76122052132E+03  0.00000000000E+00 0.  1.
         22    1    5    5    0    0 -0.21372941836E+03  0.19739315535E+03  0.47267902403E+02  0.29475172035E+03  0.00000000000E+00 0.  1.
          5    1    4    4  502    0 -0.62437645757E+02  0.14739417003E+03  0.14017430894E+03  0.21282487602E+03  0.47000000000E+01 0. -1.
         -5    1    4    4    0  502  0.15559610052E+02 -0.92901396823E+01 -0.62200619908E+01  0.19727831393E+02  0.47000000000E+01 0. -1.
<mgrwt>
<rscale>  0 0.99976745E+03</rscale>
<asrwt>0</asrwt>
<pdfrwt beam="1">  1        2 0.16164595E+00 0.99976745E+03</pdfrwt>
<pdfrwt beam="2">  1       -2 0.36588656E-01 0.99976745E+03</pdfrwt>
<totfact> 0.19866585E+02</totfact>
</mgrwt>
</event>
<event>
 9    1  0.4388925E-036  0.1000177E+04  0.7818608E-02  0.8680870E-01
         -2   -1    0    0    0  501 -0.00000000000E+00  0.00000000000E+00  0.55209706530E+03  0.55209706530E+03  0.00000000000E+00 0.  1.
          2   -1    0    0  501    0  0.00000000000E+00 -0.00000000000E+00 -0.45297907441E+03  0.45297907441E+03  0.00000000000E+00 0.  1.
         36    2    1    2    0    0  0.00000000000E+00  0.28421709430E-13  0.99117990892E+02  0.10050761397E+04  0.10001768196E+04 0.  0.
         25    2    3    3    0    0 -0.13719800753E+02  0.10866901365E+03  0.10707527957E+03  0.19704940342E+03  0.12396033410E+03 0.  0.
         35    2    3    3    0    0  0.13719800753E+02 -0.10866901365E+03 -0.79572886775E+01  0.80802673630E+03  0.80052901301E+03 0.  0.
         22    1    5    5    0    0 -0.31946296139E+02 -0.42916021087E+03 -0.14830456707E+03  0.45518490424E+03  0.00000000000E+00 0.  1.
         22    1    5    5    0    0  0.45666096893E+02  0.32049119722E+03  0.14034727839E+03  0.35284183206E+03  0.00000000000E+00 0.  1.
          5    1    4    4  502    0  0.39820016253E+02  0.54706987930E+02  0.99627947137E+02  0.12052512632E+03  0.47000000000E+01 0. -1.
         -5    1    4    4    0  502 -0.53539817006E+02  0.53962025724E+02  0.74473324319E+01  0.76524277100E+02  0.47000000000E+01 0. -1.
<mgrwt>
<rscale>  0 0.10001768E+04</rscale>
<asrwt>0</asrwt>
<pdfrwt beam="1">  1        2 0.69689089E-01 0.10001768E+04</pdfrwt>
<pdfrwt beam="2">  1       -2 0.84938010E-01 0.10001768E+04</pdfrwt>
<totfact> 0.99916962E+01</totfact>
</mgrwt>
</event>
<event>
 9    1  0.4388925E-036  0.1000090E+04  0.7818608E-02  0.8680952E-01
          1   -1    0    0  501    0  0.00000000000E+00  0.00000000000E+00  0.52637839991E+03  0.52637839991E+03  0.00000000000E+00 0. -1.
         -1   -1    0    0    0  501 -0.00000000000E+00 -0.00000000000E+00 -0.47502887915E+03  0.47502887915E+03  0.00000000000E+00 0. -1.
         36    2    1    2    0    0 -0.28421709430E-13  0.14210854715E-13  0.51349520757E+02  0.10014072791E+04  0.10000898786E+04 0.  0.
         25    2    3    3    0    0  0.20123679040E+02  0.73449963052E+02 -0.11450615399E+03  0.18561262817E+03  0.12466165772E+03 0.  0.
         35    2    3    3    0    0 -0.20123679040E+02 -0.73449963052E+02  0.16585567474E+03  0.81579465088E+03  0.79511819752E+03 0.  0.
         22    1    5    5    0    0  0.21472289805E+03  0.17125710108E+03  0.33793535526E+03  0.43547126421E+03  0.00000000000E+00 0. -1.
         22    1    5    5    0    0 -0.23484657709E+03 -0.24470706413E+03 -0.17207968051E+03  0.38032338667E+03  0.00000000000E+00 0. -1.
          5    1    4    4  502    0  0.21139570131E+02 -0.33009199575E+02 -0.29111971799E+02  0.49051866264E+02  0.47000000000E+01 0. -1.
         -5    1    4    4    0  502 -0.10158910905E+01  0.10645916263E+03 -0.85394182188E+02  0.13656076191E+03  0.47000000000E+01 0. -1.
<mgrwt>
<rscale>  0 0.10000899E+04</rscale>
<asrwt>0</asrwt>
<pdfrwt beam="1">  1        1 0.80981292E-01 0.10000899E+04</pdfrwt>
<pdfrwt beam="2">  1       -1 0.73081366E-01 0.10000899E+04</pdfrwt>
<totfact> 0.91587374E+01</totfact>
</mgrwt>
</event>
<event>
 9    1  0.4388925E-036  0.1000433E+04  0.7818608E-02  0.8680626E-01
         -1   -1    0    0    0  501 -0.00000000000E+00  0.00000000000E+00  0.33797331482E+03  0.33797331482E+03  0.00000000000E+00 0. -1.
          1   -1    0    0  501    0  0.00000000000E+00 -0.00000000000E+00 -0.74034370086E+03  0.74034370086E+03  0.00000000000E+00 0. -1.
         36    2    1    2    0    0  0.28421709430E-13  0.00000000000E+00 -0.40237038604E+03  0.10783170157E+04  0.10004327357E+04 0.  0.
         25    2    3    3    0    0  0.11696706943E+03 -0.63188817636E+02 -0.12785819854E+03  0.22313667064E+03  0.12557122619E+03 0.  0.
         35    2    3    3    0    0 -0.11696706943E+03  0.63188817636E+02 -0.27451218750E+03  0.85518034504E+03  0.79893827012E+03 0.  0.
         22    1    5    5    0    0 -0.45017771999E+03  0.12060702892E+03 -0.20899832751E+03  0.51077033577E+03  0.00000000000E+00 0. -1.
         22    1    5    5    0    0  0.33321065056E+03 -0.57418211280E+02 -0.65513859989E+02  0.34441000927E+03  0.00000000000E+00 0. -1.
          5    1    4    4  502    0  0.96886018471E+02  0.15828716641E+02 -0.89437074859E+02  0.13288539876E+03  0.47000000000E+01 0.  1.
         -5    1    4    4    0  502  0.20081050960E+02 -0.79017534277E+02 -0.38421123683E+02  0.90251271880E+02  0.47000000000E+01 0.  1.
<mgrwt>
<rscale>  0 0.10004327E+04</rscale>
<asrwt>0</asrwt>
<pdfrwt beam="1">  1        1 0.11389903E+00 0.10004327E+04</pdfrwt>
<pdfrwt beam="2">  1       -1 0.51995894E-01 0.10004327E+04</pdfrwt>
<totfact> 0.10661848E+02</totfact>
</mgrwt>
</event>
<event>
 9    1  0.4388925E-036  0.1000308E+04  0.7818608E-02  0.8680745E-01
          1   -1    0    0  501    0  0.00000000000E+00  0.00000000000E+00  0.15761922307E+03  0.15761922307E+03  0.00000000000E+00 0. -1.
         -1   -1    0    0    0  501 -0.00000000000E+00 -0.00000000000E+00 -0.15870771928E+04  0.15870771928E+04  0.00000000000E+00 0. -1.
         36    2    1    2    0    0  0.00000000000E+00 -0.14210854715E-13 -0.14294579698E+04  0.17446964159E+04  0.10003077008E+04 0.  0.
         25    2    3    3    0    0  0.11717416587E+02  0.97794139127E+02 -0.94217313224E+02  0.18518835555E+03  0.12536679552E+03 0.  0.
         35    2    3    3    0    0 -0.11717416587E+02 -0.97794139127E+02 -0.13352406566E+04  0.15595080604E+04  0.79968543062E+03 0.  0.
         22    1    5    5    0    0 -0.32200740844E+03  0.40758038769E+02 -0.10982586483E+04  0.11452170307E+04  0.00000000000E+00 0.  1.
         22    1    5    5    0    0  0.31028999185E+03 -0.13855217790E+03 -0.23698200828E+03  0.41429102970E+03  0.00000000000E+00 0.  1.
          5    1    4    4  502    0  0.35792058232E+02  0.41088488661E+02  0.17584258810E+02  0.57451122625E+02  0.47000000000E+01 0.  1.
         -5    1    4    4    0  502 -0.24074641645E+02  0.56705650466E+02 -0.11180157203E+03  0.12773723292E+03  0.47000000000E+01 0.  1.
<mgrwt>
<rscale>  0 0.10003077E+04</rscale>
<asrwt>0</asrwt>
<pdfrwt beam="1">  1        1 0.24249111E-01 0.10003077E+04</pdfrwt>
<pdfrwt beam="2">  1       -1 0.24416572E+00 0.10003077E+04</pdfrwt>
<totfact> 0.12932873E+01</totfact>
</mgrwt>
</event>
<event>
 9    1  0.4388925E-036  0.9983649E+03  0.7818608E-02  0.8682597E-01
          4   -1    0    0  501    0  0.00000000000E+00  0.00000000000E+00  0.31783683229E+03  0.31783683229E+03  0.00000000000E+00 0.  1.
         -4   -1    0    0    0  501 -0.00000000000E+00 -0.00000000000E+00 -0.78399698928E+03  0.78399698928E+03  0.00000000000E+00 0.  1.
         36    2    1    2    0    0  0.14210854715E-13 -0.14210854715E-13 -0.46616015699E+03  0.11018338216E+04  0.99836490242E+03 0.  0.
         25    2    3    3    0    0  0.10354276909E+03 -0.84299863189E+02 -0.49753572067E+02  0.19026767793E+03  0.12609044122E+03 0.  0.
         35    2    3    3    0    0 -0.10354276909E+03  0.84299863189E+02 -0.41640658493E+03  0.91156614364E+03  0.79983174374E+03 0.  0.
         22    1    5    5    0    0  0.13328234949E+03  0.25445691096E+03 -0.52658018204E+03  0.59983263694E+03  0.00000000000E+00 0. -1.
         22    1    5    5    0    0 -0.23682511858E+03 -0.17015704777E+03  0.11017359712E+03  0.31173350670E+03  0.00000000000E+00 0. -1.
          5    1    4    4  502    0  0.12288668138E+03 -0.54489830308E+02 -0.73012775791E+01  0.13470588971E+03  0.47000000000E+01 0. -1.
         -5    1    4    4    0  502 -0.19343912294E+02 -0.29810032882E+02 -0.42452294488E+02  0.55561788223E+02  0.47000000000E+01 0. -1.
<mgrwt>
<rscale>  0 0.99836490E+03</rscale>
<asrwt>0</asrwt>
<pdfrwt beam="1">  1        4 0.48897975E-01 0.99836490E+03</pdfrwt>
<pdfrwt beam="2">  1       -4 0.12061492E+00 0.99836490E+03</pdfrwt>
<totfact> 0.45550850E+00</totfact>
</mgrwt>
</event>
<event>
 9    1  0.4388925E-036  0.1000632E+04  0.7818608E-02  0.8680437E-01
          1   -1    0    0  501    0  0.00000000000E+00  0.00000000000E+00  0.93231724877E+03  0.93231724877E+03  0.00000000000E+00 0.  1.
         -1   -1    0    0    0  501 -0.00000000000E+00 -0.00000000000E+00 -0.26848793705E+03  0.26848793705E+03  0.00000000000E+00 0.  1.
         36    2    1    2    0    0  0.28421709430E-13  0.35527136788E-14  0.66382931173E+03  0.12008051858E+04  0.10006316701E+04 0.  0.
         25    2    3    3    0    0  0.45103443794E+02  0.20724006411E+02 -0.34353268898E+02  0.13817709615E+03  0.12429383626E+03 0.  0.
         35    2    3    3    0    0 -0.45103443794E+02 -0.20724006411E+02  0.69818258063E+03  0.10626280897E+04  0.79953469967E+03 0.  0.
         22    1    5    5    0    0 -0.32290619783E+03 -0.19152317913E+03  0.11190236831E+03  0.39175461807E+03  0.00000000000E+00 0. -1.
         22    1    5    5    0    0  0.27780275403E+03  0.17079917272E+03  0.58628021231E+03  0.67087347160E+03  0.00000000000E+00 0. -1.
          5    1    4    4  502    0 -0.13987554064E+02 -0.85529703985E+01  0.37098108049E+02  0.40830926907E+02  0.47000000000E+01 0. -1.
         -5    1    4    4    0  502  0.59090997858E+02  0.29276976809E+02 -0.71451376947E+02  0.97346169244E+02  0.47000000000E+01 0. -1.
<mgrwt>
<rscale>  0 0.10006317E+04</rscale>
<asrwt>0</asrwt>
<pdfrwt beam="1">  1        1 0.14343342E+00 0.10006317E+04</pdfrwt>
<pdfrwt beam="2">  1       -1 0.41305837E-01 0.10006317E+04</pdfrwt>
<totfact> 0.11067376E+02</totfact>
</mgrwt>
</event>
<event>
 9    1  0.4388925E-036  0.1000500E+04  0.7818608E-02  0.8680562E-01
         -1   -1    0    0    0  501 -0.00000000000E+00  0.00000000000E+00  0.94068808679E+03  0.94068808679E+03  0.00000000000E+00 0. -1.
          1   -1    0    0  501    0  0.00000000000E+00 -0.00000000000E+00 -0.26602862868E+03  0.26602862868E+03  0.00000000000E+00 0. -1.
         36    2    1    2    0    0  0.35527136788E-14  0.00000000000E+00  0.67465945810E+03  0.12067167155E+04  0.10004997986E+04 0.  0.
         25    2    3    3    0    0  0.33059288006E+01 -0.80272313745E+02  0.27017126699E+03  0.30474688895E+03  0.11586017131E+03 0.  0.
         35    2    3    3    0    0 -0.33059288006E+01  0.80272313745E+02  0.40448819111E+03  0.90196982652E+03  0.80217473015E+03 0.  0.
         22    1    5    5    0    0  0.80979576791E+02  0.33323802150E+03  0.51053181705E+03  0.61501870463E+03  0.00000000000E+00 0. -1.
         22    1    5    5    0    0 -0.84285505592E+02 -0.25296570775E+03 -0.10604362594E+03  0.28695112189E+03  0.00000000000E+00 0. -1.
          5    1    4    4  502    0 -0.19182630894E+02 -0.22553977767E+02  0.22729707880E+03  0.22926558240E+03  0.47000000000E+01 0.  1.
         -5    1    4    4    0  502  0.22488559694E+02 -0.57718335978E+02  0.42874188187E+02  0.75481306546E+02  0.47000000000E+01 0.  1.
<mgrwt>
<rscale>  0 0.10004998E+04</rscale>
<asrwt>0</asrwt>
<pdfrwt beam="1">  1        1 0.40927482E-01 0.10004998E+04</pdfrwt>
<pdfrwt beam="2">  1       -1 0.14472124E+00 0.10004998E+04</pdfrwt>
<totfact> 0.46569280E+01</totfact>
</mgrwt>
</event>
<event>
 9    1  0.4388925E-036  0.1000124E+04  0.7818608E-02  0.8680920E-01
          1   -1    0    0  501    0  0.00000000000E+00  0.00000000000E+00  0.80929212727E+03  0.80929212727E+03  0.00000000000E+00 0. -1.
         -1   -1    0    0    0  501 -0.00000000000E+00 -0.00000000000E+00 -0.30898878651E+03  0.30898878651E+03  0.00000000000E+00 0. -1.
         36    2    1    2    0    0  0.17763568394E-13 -0.17763568394E-13  0.50030334076E+03  0.11182809138E+04  0.10001243769E+04 0.  0.
         25    2    3    3    0    0 -0.67641752583E+01 -0.15541952667E+02  0.24996763830E+03  0.27992414220E+03  0.12484549985E+03 0.  0.
         35    2    3    3    0    0  0.67641752583E+01  0.15541952667E+02  0.25033570246E+03  0.83835677157E+03  0.79992925072E+03 0.  0.
         22    1    5    5    0    0  0.20210602270E+03 -0.24449193322E+03  0.37400004856E+03  0.49040716363E+03  0.00000000000E+00 0.  1.
         22    1    5    5    0    0 -0.19534184744E+03  0.26003388589E+03 -0.12366434610E+03  0.34794960794E+03  0.00000000000E+00 0.  1.
          5    1    4    4  502    0 -0.28270631846E+02 -0.41474025616E+02  0.32879181211E+02  0.60186825658E+02  0.47000000000E+01 0. -1.
         -5    1    4    4    0  502  0.21506456588E+02  0.25932072949E+02  0.21708845709E+03  0.21973731655E+03  0.47000000000E+01 0. -1.
<mgrwt>
<rscale>  0 0.10001244E+04</rscale>
<asrwt>0</asrwt>
<pdfrwt beam="1">  1        1 0.12450648E+00 0.10001244E+04</pdfrwt>
<pdfrwt beam="2">  1       -1 0.47536737E-01 0.10001244E+04</pdfrwt>
<totfact> 0.10908710E+02</totfact>
</mgrwt>
</event>
<event>
 9    1  0.4388925E-036  0.9998806E+03  0.7818608E-02  0.8681152E-01
          2   -1    0    0  501    0  0.00000000000E+00  0.00000000000E+00  0.72833127936E+03  0.72833127936E+03  0.00000000000E+00 0.  1.
         -2   -1    0    0    0  501 -0.00000000000E+00 -0.00000000000E+00 -0.34316842599E+03  0.34316842599E+03  0.00000000000E+00 0.  1.
         36    2    1    2    0    0 -0.35527136788E-13  0.00000000000E+00  0.38516285337E+03  0.10714997053E+04  0.99988059034E+03 0.  0.
         25    2    3    3    0    0 -0.53616417673E+02 -0.46455740491E+02  0.20199152244E+03  0.24780157025E+03  0.12478856923E+03 0.  0.
         35    2    3    3    0    0  0.53616417673E+02  0.46455740491E+02  0.18317133092E+03  0.82369813510E+03  0.79993376302E+03 0.  0.
         22    1    5    5    0    0 -0.36264928929E+03  0.76636099403E+01 -0.10646683917E+02  0.36288646960E+03  0.00000000000E+00 0. -1.
         22    1    5    5    0    0  0.41626570696E+03  0.38792130551E+02  0.19381801484E+03  0.46081166550E+03  0.00000000000E+00 0. -1.
          5    1    4    4  502    0 -0.93347463219E+02 -0.21421399556E+02  0.12581739486E+03  0.15819207343E+03  0.47000000000E+01 0.  1.
         -5    1    4    4    0  502  0.39731045546E+02 -0.25034340936E+02  0.76174127583E+02  0.89609496814E+02  0.47000000000E+01 0.  1.
<mgrwt>
<rscale>  0 0.99988059E+03</rscale>
<asrwt>0</asrwt>
<pdfrwt beam="1">  1        2 0.11205097E+00 0.99988059E+03</pdfrwt>
<pdfrwt beam="2">  1       -2 0.52795142E-01 0.99988059E+03</pdfrwt>
<totfact> 0.15953724E+02</totfact>
</mgrwt>
</event>
<event>
 9    1  0.4388925E-036  0.1000415E+04  0.7818608E-02  0.8680643E-01
          2   -1    0    0  501    0  0.00000000000E+00  0.00000000000E+00  0.12456633453E+04  0.12456633453E+04  0.00000000000E+00 0. -1.
         -2   -1    0    0    0  501 -0.00000000000E+00 -0.00000000000E+00 -0.20086294723E+03  0.20086294723E+03  0.00000000000E+00 0. -1.
         36    2    1    2    0    0  0.71054273576E-14  0.00000000000E+00  0.10448003981E+04  0.14465262926E+04  0.10004151354E+04 0.  0.
         25    2    3    3    0    0  0.39344947342E+02 -0.55275724214E+01  0.16824102199E+01  0.13156216697E+03  0.12540811112E+03 0.  0.
         35    2    3    3    0    0 -0.39344947342E+02  0.55275724214E+01  0.10431179879E+04  0.13149641256E+04  0.79966051298E+03 0.  0.
         22    1    5    5    0    0  0.33999824075E+03 -0.35295122200E+02  0.77967600867E+03  0.85131617385E+03  0.00000000000E+00 0.  1.
         22    1    5    5    0    0 -0.37934318809E+03  0.40822694622E+02  0.26344197922E+03  0.46364795175E+03  0.00000000000E+00 0.  1.
          5    1    4    4  502    0  0.43422606437E+02 -0.39151162774E+02  0.46738683518E+02  0.74999538887E+02  0.47000000000E+01 0. -1.
         -5    1    4    4    0  502 -0.40776590947E+01  0.33623590353E+02 -0.45056273298E+02  0.56562628081E+02  0.47000000000E+01 0. -1.
<mgrwt>
<rscale>  0 0.10004151E+04</rscale>
<asrwt>0</asrwt>
<pdfrwt beam="1">  1        2 0.19164051E+00 0.10004151E+04</pdfrwt>
<pdfrwt beam="2">  1       -2 0.30901993E-01 0.10004151E+04</pdfrwt>
<totfact> 0.20765156E+02</totfact>
</mgrwt>
</event>
<event>
 9    1  0.4388925E-036  0.9979372E+03  0.7818608E-02  0.8683005E-01
         -1   -1    0    0    0  501 -0.00000000000E+00  0.00000000000E+00  0.24575842045E+03  0.24575842045E+03  0.00000000000E+00 0. -1.
          1   -1    0    0  501    0  0.00000000000E+00 -0.00000000000E+00 -0.10130666997E+04  0.10130666997E+04  0.00000000000E+00 0. -1.
         36    2    1    2    0    0 -0.14210854715E-13  0.14210854715E-13 -0.76730827923E+03  0.12588251201E+04  0.99793721630E+03 0.  0.
         25    2    3    3    0    0 -0.78687304644E+02  0.91765989324E+02 -0.58773379507E+02  0.18360185802E+03  0.12507055377E+03 0.  0.
         35    2    3    3    0    0  0.78687304644E+02 -0.91765989324E+02 -0.70853489972E+03  0.10752232621E+04  0.79966910066E+03 0.  0.
         22    1    5    5    0    0 -0.12141019639E+03 -0.28091225012E+03  0.95321345277E+01  0.30617476977E+03  0.00000000000E+00 0.  1.
         22    1    5    5    0    0  0.20009750103E+03  0.18914626080E+03 -0.71806703425E+03  0.76904849234E+03  0.00000000000E+00 0.  1.
          5    1    4    4  502    0 -0.46243098443E+02  0.74197492622E+02  0.25745415232E+02  0.91261210108E+02  0.47000000000E+01 0.  1.
         -5    1    4    4    0  502 -0.32444206201E+02  0.17568496702E+02 -0.84518794739E+02  0.92340647910E+02  0.47000000000E+01 0.  1.
<mgrwt>
<rscale>  0 0.99793722E+03</rscale>
<asrwt>0</asrwt>
<pdfrwt beam="1">  1        1 0.15585641E+00 0.99793722E+03</pdfrwt>
<pdfrwt beam="2">  1       -1 0.37808988E-01 0.99793722E+03</pdfrwt>
<totfact> 0.11155485E+02</totfact>
</mgrwt>
</event>
<event>
 9    1  0.4388925E-036  0.9982615E+03  0.7818608E-02  0.8682695E-01
         -2   -1    0    0    0  501 -0.00000000000E+00  0.00000000000E+00  0.11568204756E+03  0.11568204756E+03  0.00000000000E+00 0. -1.
          2   -1    0    0  501    0  0.00000000000E+00 -0.00000000000E+00 -0.21535884262E+04  0.21535884262E+04  0.00000000000E+00 0. -1.
         36    2    1    2    0    0 -0.42632564146E-13 -0.14210854715E-13 -0.20379063786E+04  0.22692704737E+04  0.99826152634E+03 0.  0.
         25    2    3    3    0    0 -0.71793030503E+02  0.77598664456E+02 -0.60703222314E+03  0.62740128874E+03  0.11818826183E+03 0.  0.
         35    2    3    3    0    0  0.71793030503E+02 -0.77598664456E+02 -0.14308741555E+04  0.16418691850E+04  0.79822163580E+03 0.  0.
         22    1    5    5    0    0 -0.17900749970E+03  0.98401815049E+02 -0.28303462939E+02  0.20622242401E+03  0.00000000000E+00 0.  1.
         22    1    5    5    0    0  0.25080053020E+03 -0.17600047951E+03 -0.14025706925E+04  0.14356467610E+04  0.00000000000E+00 0.  1.
          5    1    4    4  502    0  0.30976772724E+02  0.31003381690E+02 -0.21247124248E+03  0.21699513591E+03  0.47000000000E+01 0.  1.
         -5    1    4    4    0  502 -0.10276980323E+03  0.46595282767E+02 -0.39456098065E+03  0.41040615284E+03  0.47000000000E+01 0.  1.
<mgrwt>
<rscale>  0 0.99826153E+03</rscale>
<asrwt>0</asrwt>
<pdfrwt beam="1">  1        2 0.33132128E+00 0.99826153E+03</pdfrwt>
<pdfrwt beam="2">  1       -2 0.17797239E-01 0.99826153E+03</pdfrwt>
<totfact> 0.16725043E+02</totfact>
</mgrwt>
</event>
<event>
 9    1  0.4388925E-036  0.9998148E+03  0.7818608E-02  0.8681214E-01
          2   -1    0    0  501    0  0.00000000000E+00  0.00000000000E+00  0.23747817208E+04  0.23747817208E+04  0.00000000000E+00 0.  1.
         -2   -1    0    0    0  501 -0.00000000000E+00 -0.00000000000E+00 -0.10523385138E+03  0.10523385138E+03  0.00000000000E+00 0.  1.
         36    2    1    2    0    0  0.71054273576E-14 -0.14210854715E-13  0.22695478695E+04  0.24800155722E+04  0.99981483622E+03 0.  0.
         25    2    3    3    0    0 -0.24323896824E+01 -0.73245865072E+02  0.72016161375E+03  0.73472296900E+03  0.12575459426E+03 0.  0.
         35    2    3    3    0    0  0.24323896824E+01  0.73245865072E+02  0.15493862557E+04  0.17452926032E+04  0.80004851619E+03 0.  0.
         22    1    5    5    0    0  0.35924807361E+03  0.21125415152E+03  0.89507864805E+03  0.98734658612E+03  0.00000000000E+00 0.  1.
         22    1    5    5    0    0 -0.35681568392E+03 -0.13800828645E+03  0.65430760766E+03  0.75794601711E+03  0.00000000000E+00 0.  1.
          5    1    4    4  502    0 -0.53001101817E+02 -0.30477222797E+02  0.52515667533E+03  0.52872450440E+03  0.47000000000E+01 0. -1.
         -5    1    4    4    0  502  0.50568712134E+02 -0.42768642276E+02  0.19500493842E+03  0.20599846460E+03  0.47000000000E+01 0. -1.
<mgrwt>
<rscale>  0 0.99981484E+03</rscale>
<asrwt>0</asrwt>
<pdfrwt beam="1">  1        2 0.36535099E+00 0.99981484E+03</pdfrwt>
<pdfrwt beam="2">  1       -2 0.16189825E-01 0.99981484E+03</pdfrwt>
<totfact> 0.14568595E+02</totfact>
</mgrwt>
</event>
<event>
 9    1  0.4388925E-036  0.9998535E+03  0.7818608E-02  0.8681178E-01
          2   -1    0    0  501    0  0.00000000000E+00  0.00000000000E+00  0.14142217944E+04  0.14142217944E+04  0.00000000000E+00 0. -1.
         -2   -1    0    0    0  501 -0.00000000000E+00 -0.00000000000E+00 -0.17672386269E+03  0.17672386269E+03  0.00000000000E+00 0. -1.
         36    2    1    2    0    0 -0.14210854715E-13  0.00000000000E+00  0.12374979317E+04  0.15909456570E+04  0.99985346567E+03 0.  0.
         25    2    3    3    0    0 -0.80689551864E+02  0.76002415891E+02  0.36754370784E+03  0.40384941438E+03  0.12537464382E+03 0.  0.
         35    2    3    3    0    0  0.80689551864E+02 -0.76002415891E+02  0.86995422382E+03  0.11870962427E+04  0.80005622729E+03 0.  0.
         22    1    5    5    0    0 -0.18791881445E+01 -0.31531974230E+03  0.87892470609E+03  0.93377658473E+03  0.00000000000E+00 0. -1.
         22    1    5    5    0    0  0.82568740008E+02  0.23931732641E+03 -0.89704822669E+01  0.25331965794E+03  0.00000000000E+00 0. -1.
          5    1    4    4  502    0  0.28154980753E+02  0.40949178430E+02  0.14921998041E+03  0.15734748396E+03  0.47000000000E+01 0. -1.
         -5    1    4    4    0  502 -0.10884453262E+03  0.35053237461E+02  0.21832372743E+03  0.24650193041E+03  0.47000000000E+01 0. -1.
<mgrwt>
<rscale>  0 0.99985347E+03</rscale>
<asrwt>0</asrwt>
<pdfrwt beam="1">  1        2 0.21757258E+00 0.99985347E+03</pdfrwt>
<pdfrwt beam="2">  1       -2 0.27188288E-01 0.99985347E+03</pdfrwt>
<totfact> 0.20933751E+02</totfact>
</mgrwt>
</event>
<event>
 9    1  0.4388925E-036  0.9992472E+03  0.7818608E-02  0.8681755E-01
         -1   -1    0    0    0  501 -0.00000000000E+00  0.00000000000E+00  0.77129199347E+02  0.77129199347E+02  0.00000000000E+00 0. -1.
          1   -1    0    0  501    0  0.00000000000E+00 -0.00000000000E+00 -0.32364365172E+04  0.32364365172E+04  0.00000000000E+00 0. -1.
         36    2    1    2    0    0  0.14210854715E-13  0.00000000000E+00 -0.31593073178E+04  0.33135657165E+04  0.99924723128E+03 0.  0.
         25    2    3    3    0    0 -0.10763735703E+03  0.62780103764E+02 -0.38044171563E+03  0.41939599168E+03  0.12501982558E+03 0.  0.
         35    2    3    3    0    0  0.10763735703E+03 -0.62780103764E+02 -0.27788656022E+04  0.28941697248E+04  0.79912278098E+03 0.  0.
         22    1    5    5    0    0  0.30774615759E+03 -0.29874626872E+02 -0.26156230511E+04  0.26338344929E+04  0.00000000000E+00 0.  1.
         22    1    5    5    0    0 -0.20010880056E+03 -0.32905476892E+02 -0.16324255108E+03  0.26033523188E+03  0.00000000000E+00 0.  1.
          5    1    4    4  502    0 -0.63299464543E+02  0.23276282575E+02 -0.51193912144E+02  0.84802795842E+02  0.47000000000E+01 0.  1.
         -5    1    4    4    0  502 -0.44337892482E+02  0.39503821188E+02 -0.32924780349E+03  0.33459319584E+03  0.47000000000E+01 0.  1.
<mgrwt>
<rscale>  0 0.99924723E+03</rscale>
<asrwt>0</asrwt>
<pdfrwt beam="1">  1        1 0.49791331E+00 0.99924723E+03</pdfrwt>
<pdfrwt beam="2">  1       -1 0.11866031E-01 0.99924723E+03</pdfrwt>
<totfact> 0.19578849E+01</totfact>
</mgrwt>
</event>
<event>
 9    1  0.4388925E-036  0.9997307E+03  0.7818608E-02  0.8681294E-01
         -2   -1    0    0    0  501 -0.00000000000E+00  0.00000000000E+00  0.24605925892E+03  0.24605925892E+03  0.00000000000E+00 0.  1.
          2   -1    0    0  501    0  0.00000000000E+00 -0.00000000000E+00 -0.10154682045E+04  0.10154682045E+04  0.00000000000E+00 0.  1.
         36    2    1    2    0    0  0.00000000000E+00  0.14210854715E-13 -0.76940894557E+03  0.12615274634E+04  0.99973067144E+03 0.  0.
         25    2    3    3    0    0 -0.76047869307E+02 -0.11663737050E+03 -0.12084449730E+03  0.22267971225E+03  0.12488117192E+03 0.  0.
         35    2    3    3    0    0  0.76047869307E+02  0.11663737050E+03 -0.64856444827E+03  0.10388477512E+04  0.79948811867E+03 0.  0.
         22    1    5    5    0    0  0.23387252716E+03 -0.25522211447E+03 -0.10526353396E+03  0.36182191511E+03  0.00000000000E+00 0. -1.
         22    1    5    5    0    0 -0.15782465785E+03  0.37185948496E+03 -0.54330091431E+03  0.67702583604E+03  0.00000000000E+00 0. -1.
          5    1    4    4  502    0  0.12991139472E+02 -0.27562745938E+00 -0.63958841139E+02  0.65434463665E+02  0.47000000000E+01 0. -1.
         -5    1    4    4    0  502 -0.89039008779E+02 -0.11636174304E+03 -0.56885656158E+02  0.15724524859E+03  0.47000000000E+01 0. -1.
<mgrwt>
<rscale>  0 0.99973067E+03</rscale>
<asrwt>0</asrwt>
<pdfrwt beam="1">  1        2 0.15622588E+00 0.99973067E+03</pdfrwt>
<pdfrwt beam="2">  1       -2 0.37855271E-01 0.99973067E+03</pdfrwt>
<totfact> 0.19592405E+02</totfact>
</mgrwt>
</event>
<event>
 9    1  0.4388925E-036  0.1002824E+04  0.7818608E-02  0.8678354E-01
         -1   -1    0    0    0  501 -0.00000000000E+00  0.00000000000E+00  0.99820837800E+03  0.99820837800E+03  0.00000000000E+00 0.  1.
          1   -1    0    0  501    0  0.00000000000E+00 -0.00000000000E+00 -0.25186505956E+03  0.25186505956E+03  0.00000000000E+00 0.  1.
         36    2    1    2    0    0  0.42632564146E-13  0.14210854715E-13  0.74634331845E+03  0.12500734376E+04  0.10028236387E+04 0.  0.
         25    2    3    3    0    0 -0.11779949331E+03 -0.53652322119E+02  0.64562779594E+02  0.19109086068E+03  0.12486821947E+03 0.  0.
         35    2    3    3    0    0  0.11779949331E+03  0.53652322119E+02  0.68178053885E+03  0.10589825769E+04  0.79991505966E+03 0.  0.
         22    1    5    5    0    0  0.43002218718E+03  0.14529770758E+03  0.53614718806E+03  0.70248438599E+03  0.00000000000E+00 0. -1.
         22    1    5    5    0    0 -0.31222269387E+03 -0.91645385457E+02  0.14563335079E+03  0.35649819089E+03  0.00000000000E+00 0. -1.
          5    1    4    4  502    0 -0.11758845598E+03  0.65867354970E+01  0.30585093891E+02  0.12177014426E+03  0.47000000000E+01 0. -1.
         -5    1    4    4    0  502 -0.21103732681E+00 -0.60239057616E+02  0.33977685703E+02  0.69320716420E+02  0.47000000000E+01 0. -1.
<mgrwt>
<rscale>  0 0.10028236E+04</rscale>
<asrwt>0</asrwt>
<pdfrwt beam="1">  1        1 0.38748471E-01 0.10028236E+04</pdfrwt>
<pdfrwt beam="2">  1       -1 0.15357052E+00 0.10028236E+04</pdfrwt>
<totfact> 0.42111873E+01</totfact>
</mgrwt>
</event>
<event>
 9    1  0.4388925E-036  0.1000217E+04  0.7818608E-02  0.8680831E-01
          2   -1    0    0  501    0  0.00000000000E+00  0.00000000000E+00  0.32135416259E+03  0.32135416259E+03  0.00000000000E+00 0. -1.
         -2   -1    0    0    0  501 -0.00000000000E+00 -0.00000000000E+00 -0.77829593106E+03  0.77829593106E+03  0.00000000000E+00 0. -1.
         36    2    1    2    0    0  0.00000000000E+00 -0.14210854715E-13 -0.45694176847E+03  0.10996500936E+04  0.10002172507E+04 0.  0.
         25    2    3    3    0    0 -0.37818840213E+02 -0.12705799902E+03 -0.10863922683E+03  0.21691582290E+03  0.13295109186E+03 0.  0.
         35    2    3    3    0    0  0.37818840213E+02  0.12705799902E+03 -0.34830254164E+03  0.88273427075E+03  0.80020693102E+03 0.  0.
         22    1    5    5    0    0 -0.14201477339E+03 -0.61793892743E+02 -0.53826473577E+03  0.56010321086E+03  0.00000000000E+00 0. -1.
         22    1    5    5    0    0  0.17983361360E+03  0.18885189177E+03  0.18996219413E+03  0.32263105989E+03  0.00000000000E+00 0. -1.
          5    1    4    4  502    0 -0.12219422423E+02 -0.23258551296E+01 -0.86588032416E+02  0.87603089238E+02  0.47000000000E+01 0. -1.
         -5    1    4    4    0  502 -0.25599417790E+02 -0.12473214389E+03 -0.22051194415E+02  0.12931273366E+03  0.47000000000E+01 0. -1.
<mgrwt>
<rscale>  0 0.10002173E+04</rscale>
<asrwt>0</asrwt>
<pdfrwt beam="1">  1        2 0.49439102E-01 0.10002173E+04</pdfrwt>
<pdfrwt beam="2">  1       -2 0.11973783E+00 0.10002173E+04</pdfrwt>
<totfact> 0.63312831E+01</totfact>
</mgrwt>
</event>
<event>
 9    1  0.4388925E-036  0.1000716E+04  0.7818608E-02  0.8680356E-01
          2   -1    0    0  501    0  0.00000000000E+00  0.00000000000E+00  0.72549889140E+03  0.72549889140E+03  0.00000000000E+00 0.  1.
         -2   -1    0    0    0  501 -0.00000000000E+00 -0.00000000000E+00 -0.34508419932E+03  0.34508419932E+03  0.00000000000E+00 0.  1.
         36    2    1    2    0    0  0.00000000000E+00  0.00000000000E+00  0.38041469207E+03  0.10705830907E+04  0.10007161517E+04 0.  0.
         25    2    3    3    0    0 -0.40376326866E+02  0.75288650769E+02  0.19160818834E+03  0.24412386926E+03  0.12483644098E+03 0.  0.
         35    2    3    3    0    0  0.40376326866E+02 -0.75288650769E+02  0.18880650373E+03  0.82645922146E+03  0.80005519821E+03 0.  0.
         22    1    5    5    0    0  0.19954770249E+03 -0.11798588074E+02 -0.27043076819E+03  0.33629048847E+03  0.00000000000E+00 0. -1.
         22    1    5    5    0    0 -0.15917137562E+03 -0.63490062695E+02  0.45923727193E+03  0.49016873300E+03  0.00000000000E+00 0. -1.
          5    1    4    4  502    0  0.11601190934E+02 -0.19341399610E+02 -0.12278420289E+01  0.23071085063E+02  0.47000000000E+01 0.  1.
         -5    1    4    4    0  502 -0.51977517800E+02  0.94630050379E+02  0.19283603037E+03  0.22105278419E+03  0.47000000000E+01 0.  1.
<mgrwt>
<rscale>  0 0.10007162E+04</rscale>
<asrwt>0</asrwt>
<pdfrwt beam="1">  1        2 0.11161521E+00 0.10007162E+04</pdfrwt>
<pdfrwt beam="2">  1       -2 0.53089877E-01 0.10007162E+04</pdfrwt>
<totfact> 0.15850997E+02</totfact>
</mgrwt>
</event>
<event>
 9    1  0.4388925E-036  0.1000827E+04  0.7818608E-02  0.8680251E-01
          2   -1    0    0  501    0  0.00000000000E+00  0.00000000000E+00  0.56218456441E+03  0.56218456441E+03  0.00000000000E+00 0. -1.
         -2   -1    0    0    0  501 -0.00000000000E+00 -0.00000000000E+00 -0.44542963570E+03  0.44542963570E+03  0.00000000000E+00 0. -1.
         36    2    1    2    0    0  0.14210854715E-13  0.42632564146E-13  0.11675492871E+03  0.10076142001E+04  0.10008269895E+04 0.  0.
         25    2    3    3    0    0  0.52185593739E+02  0.84483749937E+02  0.12343825716E+03  0.20202873661E+03  0.12537051842E+03 0.  0.
         35    2    3    3    0    0 -0.52185593739E+02 -0.84483749937E+02 -0.66833284479E+01  0.80558546351E+03  0.79941380520E+03 0.  0.
         22    1    5    5    0    0 -0.16397868972E+03 -0.35391059346E+03 -0.21664463115E+03  0.44618002539E+03  0.00000000000E+00 0. -1.
         22    1    5    5    0    0  0.11179309598E+03  0.26942684352E+03  0.20996130270E+03  0.35940543812E+03  0.00000000000E+00 0. -1.
          5    1    4    4  502    0  0.11464933166E+02  0.20961629169E+02  0.12405933775E+03  0.12642643661E+03  0.47000000000E+01 0.  1.
         -5    1    4    4    0  502  0.40720660573E+02  0.63522120769E+02 -0.62108059374E+00  0.75602300002E+02  0.47000000000E+01 0.  1.
<mgrwt>
<rscale>  0 0.10008270E+04</rscale>
<asrwt>0</asrwt>
<pdfrwt beam="1">  1        2 0.86489933E-01 0.10008270E+04</pdfrwt>
<pdfrwt beam="2">  1       -2 0.68527637E-01 0.10008270E+04</pdfrwt>
<totfact> 0.12633614E+02</totfact>
</mgrwt>
</event>
<event>
 9    1  0.4388925E-036  0.9993721E+03  0.7818608E-02  0.8681636E-01
          2   -1    0    0  501    0  0.00000000000E+00  0.00000000000E+00  0.25883859555E+03  0.25883859555E+03  0.00000000000E+00 0. -1.
         -2   -1    0    0    0  501 -0.00000000000E+00 -0.00000000000E+00 -0.96464034665E+03  0.96464034665E+03  0.00000000000E+00 0. -1.
         36    2    1    2    0    0  0.00000000000E+00 -0.14210854715E-13 -0.70580175110E+03  0.12234789422E+04  0.99937210795E+03 0.  0.
         25    2    3    3    0    0 -0.72140922765E+02 -0.85017234089E+02 -0.43229604058E+02  0.17879332872E+03  0.13291355423E+03 0.  0.
         35    2    3    3    0    0  0.72140922765E+02  0.85017234089E+02 -0.66257214704E+03  0.10446856135E+04  0.79995871028E+03 0.  0.
         22    1    5    5    0    0  0.31889795467E+03 -0.20708904722E+03 -0.50250652164E+03  0.63015441224E+03  0.00000000000E+00 0. -1.
         22    1    5    5    0    0 -0.24675703190E+03  0.29210628131E+03 -0.16006562540E+03  0.41453120125E+03  0.00000000000E+00 0. -1.
          5    1    4    4  502    0 -0.79521738545E+02 -0.31781044786E+02 -0.76904203152E+02  0.11519586873E+03  0.47000000000E+01 0. -1.
         -5    1    4    4    0  502  0.73808157800E+01 -0.53236189303E+02  0.33674599094E+02  0.63597459991E+02  0.47000000000E+01 0. -1.
<mgrwt>
<rscale>  0 0.99937211E+03</rscale>
<asrwt>0</asrwt>
<pdfrwt beam="1">  1        2 0.39821323E-01 0.99937211E+03</pdfrwt>
<pdfrwt beam="2">  1       -2 0.14840621E+00 0.99937211E+03</pdfrwt>
<totfact> 0.45252750E+01</totfact>
</mgrwt>
</event>
<event>
 9    1  0.4388925E-036  0.9999184E+03  0.7818608E-02  0.8681116E-01
         -2   -1    0    0    0  501 -0.00000000000E+00  0.00000000000E+00  0.21054133073E+03  0.21054133073E+03  0.00000000000E+00 0.  1.
          2   -1    0    0  501    0  0.00000000000E+00 -0.00000000000E+00 -0.11872216397E+04  0.11872216397E+04  0.00000000000E+00 0.  1.
         36    2    1    2    0    0  0.56843418861E-13 -0.14210854715E-13 -0.97668030898E+03  0.13977629704E+04  0.99991844448E+03 0.  0.
         25    2    3    3    0    0 -0.76905015849E+02 -0.62393547601E+01 -0.34046504635E+03  0.37138662779E+03  0.12672122356E+03 0.  0.
         35    2    3    3    0    0  0.76905015849E+02  0.62393547601E+01 -0.63621526263E+03  0.10263763427E+04  0.80170145651E+03 0.  0.
         22    1    5    5    0    0  0.35543390816E+03 -0.23200061709E+03 -0.43705718725E+03  0.60924259070E+03  0.00000000000E+00 0.  1.
         22    1    5    5    0    0 -0.27852889231E+03  0.23823997185E+03 -0.19915807537E+03  0.41713375196E+03  0.00000000000E+00 0.  1.
          5    1    4    4  502    0 -0.13275183134E+02 -0.61750645903E+02 -0.13155422646E+03  0.14600677126E+03  0.47000000000E+01 0.  1.
         -5    1    4    4    0  502 -0.63629832716E+02  0.55511291143E+02 -0.20891081990E+03  0.22537985652E+03  0.47000000000E+01 0.  1.
<mgrwt>
<rscale>  0 0.99991844E+03</rscale>
<asrwt>0</asrwt>
<pdfrwt beam="1">  1        2 0.18264949E+00 0.99991844E+03</pdfrwt>
<pdfrwt beam="2">  1       -2 0.32390973E-01 0.99991844E+03</pdfrwt>
<totfact> 0.20616767E+02</totfact>
</mgrwt>
</event>
<event>
 9    1  0.4388925E-036  0.9997600E+03  0.7818608E-02  0.8681267E-01
         -4   -1    0    0    0  501 -0.00000000000E+00  0.00000000000E+00  0.43964120772E+03  0.43964120772E+03  0.00000000000E+00 0.  1.
          4   -1    0    0  501    0  0.00000000000E+00 -0.00000000000E+00 -0.56837259286E+03  0.56837259286E+03  0.00000000000E+00 0.  1.
         36    2    1    2    0    0  0.00000000000E+00  0.00000000000E+00 -0.12873138514E+03  0.10080138006E+04  0.99975999752E+03 0.  0.
         25    2    3    3    0    0 -0.12979932661E+03 -0.52507873353E+02 -0.30619348942E+02  0.18997238364E+03  0.12468769010E+03 0.  0.
         35    2    3    3    0    0  0.12979932661E+03  0.52507873353E+02 -0.98112036201E+02  0.81804141694E+03  0.79997552852E+03 0.  0.
         22    1    5    5    0    0  0.56963530801E+02  0.17676373191E+03 -0.42337466854E+03  0.46231631025E+03  0.00000000000E+00 0. -1.
         22    1    5    5    0    0  0.72835795811E+02 -0.12425585856E+03  0.32526263234E+03  0.35572510669E+03  0.00000000000E+00 0. -1.
          5    1    4    4  502    0 -0.10271802074E+03 -0.92194158074E+02 -0.31656151921E+02  0.14168611973E+03  0.47000000000E+01 0. -1.
         -5    1    4    4    0  502 -0.27081305867E+02  0.39686284721E+02  0.10368029787E+01  0.48286263915E+02  0.47000000000E+01 0. -1.
<mgrwt>
<rscale>  0 0.99976000E+03</rscale>
<asrwt>0</asrwt>
<pdfrwt beam="1">  1        4 0.87441937E-01 0.99976000E+03</pdfrwt>
<pdfrwt beam="2">  1       -4 0.67637109E-01 0.99976000E+03</pdfrwt>
<totfact> 0.52096883E+00</totfact>
</mgrwt>
</event>
<event>
 9    1  0.4388925E-036  0.9998534E+03  0.7818608E-02  0.8681178E-01
          2   -1    0    0  501    0  0.00000000000E+00  0.00000000000E+00  0.53724335564E+03  0.53724335564E+03  0.00000000000E+00 0.  1.
         -2   -1    0    0    0  501 -0.00000000000E+00 -0.00000000000E+00 -0.46520201742E+03  0.46520201742E+03  0.00000000000E+00 0.  1.
         36    2    1    2    0    0 -0.14210854715E-13 -0.14210854715E-13  0.72041338217E+02  0.10024453731E+04  0.99985337503E+03 0.  0.
         25    2    3    3    0    0 -0.12491364093E+03  0.21794972382E+02 -0.13578716409E+02  0.17901024609E+03  0.12562582598E+03 0.  0.
         35    2    3    3    0    0  0.12491364093E+03 -0.21794972382E+02  0.85620054627E+02  0.82343512697E+03  0.80909590041E+03 0.  0.
         22    1    5    5    0    0 -0.19932236459E+03  0.17416529491E+03 -0.21403321671E+03  0.34040148771E+03  0.00000000000E+00 0. -1.
         22    1    5    5    0    0  0.32423600553E+03 -0.19596026729E+03  0.29965327134E+03  0.48303363926E+03  0.00000000000E+00 0. -1.
          5    1    4    4  502    0 -0.13823460474E+03  0.37617746366E+02  0.14221387525E+02  0.14404248905E+03  0.47000000000E+01 0. -1.
         -5    1    4    4    0  502  0.13320963808E+02 -0.15822773984E+02 -0.27800103934E+02  0.34967757035E+02  0.47000000000E+01 0. -1.
<mgrwt>
<rscale>  0 0.99985338E+03</rscale>
<asrwt>0</asrwt>
<pdfrwt beam="1">  1        2 0.82652824E-01 0.99985338E+03</pdfrwt>
<pdfrwt beam="2">  1       -2 0.71569541E-01 0.99985338E+03</pdfrwt>
<totfact> 0.12119763E+02</totfact>
</mgrwt>
</event>
<event>
 9    1  0.4388925E-036  0.9994082E+03  0.7818608E-02  0.8681602E-01
          2   -1    0    0  501    0  0.00000000000E+00  0.00000000000E+00  0.15401978114E+04  0.15401978114E+04  0.00000000000E+00 0. -1.
         -2   -1    0    0    0  501 -0.00000000000E+00 -0.00000000000E+00 -0.16212475771E+03  0.16212475771E+03  0.00000000000E+00 0. -1.
         36    2    1    2    0    0  0.00000000000E+00 -0.14210854715E-13  0.13780730537E+04  0.17023225691E+04  0.99940821891E+03 0.  0.
         25    2    3    3    0    0  0.26688951028E+02 -0.73808661608E+02  0.66454028854E+02  0.16432204269E+03  0.12816230775E+03 0.  0.
         35    2    3    3    0    0 -0.26688951028E+02  0.73808661608E+02  0.13116190248E+04  0.15380005264E+04  0.79933793502E+03 0.  0.
         22    1    5    5    0    0  0.16794473294E+03  0.33273538901E+03  0.30834225260E+03  0.48372845395E+03  0.00000000000E+00 0.  1.
         22    1    5    5    0    0 -0.19463368397E+03 -0.25892672740E+03  0.10032767722E+04  0.10542720725E+04  0.00000000000E+00 0.  1.
          5    1    4    4  502    0 -0.47108417253E+02 -0.57272457823E+02  0.28608409156E+02  0.79623291038E+02  0.47000000000E+01 0.  1.
         -5    1    4    4    0  502  0.73797368282E+02 -0.16536203785E+02  0.37845619698E+02  0.84698751651E+02  0.47000000000E+01 0.  1.
<mgrwt>
<rscale>  0 0.99940822E+03</rscale>
<asrwt>0</asrwt>
<pdfrwt beam="1">  1        2 0.23695350E+00 0.99940822E+03</pdfrwt>
<pdfrwt beam="2">  1       -2 0.24942271E-01 0.99940822E+03</pdfrwt>
<totfact> 0.20710044E+02</totfact>
</mgrwt>
</event>
<event>
 9    1  0.4388925E-036  0.1003211E+04  0.7818608E-02  0.8677986E-01
         -2   -1    0    0    0  501 -0.00000000000E+00  0.00000000000E+00  0.90639721819E+03  0.90639721819E+03  0.00000000000E+00 0.  1.
          2   -1    0    0  501    0  0.00000000000E+00 -0.00000000000E+00 -0.27759150146E+03  0.27759150146E+03  0.00000000000E+00 0.  1.
         36    2    1    2    0    0  0.00000000000E+00  0.00000000000E+00  0.62880571672E+03  0.11839887196E+04  0.10032111736E+04 0.  0.
         25    2    3    3    0    0 -0.47122783648E+01 -0.10550196291E+03  0.23234524052E+03  0.28505684177E+03  0.12696543821E+03 0.  0.
         35    2    3    3    0    0  0.47122783648E+01  0.10550196291E+03  0.39646047620E+03  0.89893187788E+03  0.79984044793E+03 0.  0.
         22    1    5    5    0    0 -0.29070276167E+03 -0.63678531726E+02 -0.84796173338E+02  0.30944053073E+03  0.00000000000E+00 0.  1.
         22    1    5    5    0    0  0.29541504003E+03  0.16918049463E+03  0.48125664954E+03  0.58949134716E+03  0.00000000000E+00 0.  1.
          5    1    4    4  502    0  0.44161267501E+02 -0.34829774409E+02  0.27319424678E+02  0.62703841169E+02  0.47000000000E+01 0.  1.
         -5    1    4    4    0  502 -0.48873545866E+02 -0.70672188498E+02  0.20502581584E+03  0.22235300060E+03  0.47000000000E+01 0.  1.
<mgrwt>
<rscale>  0 0.10032112E+04</rscale>
<asrwt>0</asrwt>
<pdfrwt beam="1">  1        2 0.42706385E-01 0.10032112E+04</pdfrwt>
<pdfrwt beam="2">  1       -2 0.13944573E+00 0.10032112E+04</pdfrwt>
<totfact> 0.49660848E+01</totfact>
</mgrwt>
</event>
<event>
 9    1  0.4388925E-036  0.1001069E+04  0.7818608E-02  0.8680020E-01
         -2   -1    0    0    0  501 -0.00000000000E+00  0.00000000000E+00  0.11911797574E+03  0.11911797574E+03  0.00000000000E+00 0. -1.
          2   -1    0    0  501    0  0.00000000000E+00 -0.00000000000E+00 -0.21032505425E+04  0.21032505425E+04  0.00000000000E+00 0. -1.
         36    2    1    2    0    0  0.28421709430E-13  0.42632564146E-13 -0.19841325668E+04  0.22223685183E+04  0.10010693225E+04 0.  0.
         25    2    3    3    0    0  0.14089936230E+03 -0.55738064849E+02 -0.40675977752E+03  0.45143287936E+03  0.12401115186E+03 0.  0.
         35    2    3    3    0    0 -0.14089936230E+03  0.55738064849E+02 -0.15773727893E+04  0.17709356389E+04  0.79066349271E+03 0.  0.
         22    1    5    5    0    0  0.81474065444E+02 -0.32112333019E+03 -0.94940108659E+03  0.10055449467E+04  0.00000000000E+00 0.  1.
         22    1    5    5    0    0 -0.22237342775E+03  0.37686139504E+03 -0.62797170269E+03  0.76539069227E+03  0.00000000000E+00 0.  1.
          5    1    4    4  502    0  0.15659832075E+03 -0.38251751944E+02 -0.28615999484E+03  0.32847505725E+03  0.47000000000E+01 0. -1.
         -5    1    4    4    0  502 -0.15698958443E+02 -0.17486312905E+02 -0.12059978268E+03  0.12295782211E+03  0.47000000000E+01 0. -1.
<mgrwt>
<rscale>  0 0.10010693E+04</rscale>
<asrwt>0</asrwt>
<pdfrwt beam="1">  1        2 0.32357698E+00 0.10010693E+04</pdfrwt>
<pdfrwt beam="2">  1       -2 0.18325844E-01 0.10010693E+04</pdfrwt>
<totfact> 0.17007844E+02</totfact>
</mgrwt>
</event>
<event>
 9    1  0.4388925E-036  0.9975202E+03  0.7818608E-02  0.8683403E-01
          2   -1    0    0  501    0  0.00000000000E+00  0.00000000000E+00  0.11219899135E+04  0.11219899135E+04  0.00000000000E+00 0. -1.
         -2   -1    0    0    0  501 -0.00000000000E+00 -0.00000000000E+00 -0.22171468278E+03  0.22171468278E+03  0.00000000000E+00 0. -1.
         36    2    1    2    0    0 -0.71054273576E-14  0.00000000000E+00  0.90027523069E+03  0.13437045963E+04  0.99752020080E+03 0.  0.
         25    2    3    3    0    0  0.33461225466E+02 -0.13260102594E+03  0.19470290734E+03  0.26859608663E+03  0.12462724397E+03 0.  0.
         35    2    3    3    0    0 -0.33461225466E+02  0.13260102594E+03  0.70557232335E+03  0.10751085096E+04  0.79957696208E+03 0.  0.
         22    1    5    5    0    0 -0.27732096140E+03  0.24369824098E+03  0.71745725041E+03  0.80687090322E+03  0.00000000000E+00 0. -1.
         22    1    5    5    0    0  0.24385973593E+03 -0.11109721504E+03 -0.11884927058E+02  0.26823760640E+03  0.00000000000E+00 0. -1.
          5    1    4    4  502    0 -0.27131053270E+02 -0.42543694725E+02  0.62400070417E+01  0.51059648454E+02  0.47000000000E+01 0. -1.
         -5    1    4    4    0  502  0.60592278735E+02 -0.90057331219E+02  0.18846290029E+03  0.21753643818E+03  0.47000000000E+01 0. -1.
<mgrwt>
<rscale>  0 0.99752020E+03</rscale>
<asrwt>0</asrwt>
<pdfrwt beam="1">  1        2 0.17261383E+00 0.99752020E+03</pdfrwt>
<pdfrwt beam="2">  1       -2 0.34109952E-01 0.99752020E+03</pdfrwt>
<totfact> 0.20494913E+02</totfact>
</mgrwt>
</event>
<event>
 9    1  0.4388925E-036  0.1000210E+04  0.7818608E-02  0.8680838E-01
          2   -1    0    0  501    0  0.00000000000E+00  0.00000000000E+00  0.11470102530E+04  0.11470102530E+04  0.00000000000E+00 0.  1.
         -2   -1    0    0    0  501 -0.00000000000E+00 -0.00000000000E+00 -0.21804951363E+03  0.21804951363E+03  0.00000000000E+00 0.  1.
         36    2    1    2    0    0  0.14210854715E-13 -0.14210854715E-13  0.92896073937E+03  0.13650597666E+04  0.10002100335E+04 0.  0.
         25    2    3    3    0    0 -0.38899348965E+02  0.17805428490E+02  0.35693139535E+03  0.38027103842E+03  0.12399939127E+03 0.  0.
         35    2    3    3    0    0  0.38899348965E+02 -0.17805428490E+02  0.57202934402E+03  0.98478872822E+03  0.80047553128E+03 0.  0.
         22    1    5    5    0    0 -0.24897885288E+03  0.19049694162E+03  0.25057282761E+01  0.31350571386E+03  0.00000000000E+00 0. -1.
         22    1    5    5    0    0  0.28787820184E+03 -0.20830237011E+03  0.56952361574E+03  0.67128301437E+03  0.00000000000E+00 0. -1.
          5    1    4    4  502    0 -0.80922836613E+02 -0.80954360519E+01  0.22974131106E+03  0.24375643905E+03  0.47000000000E+01 0. -1.
         -5    1    4    4    0  502  0.42023487648E+02  0.25900864542E+02  0.12719008429E+03  0.13651459937E+03  0.47000000000E+01 0. -1.
<mgrwt>
<rscale>  0 0.10002100E+04</rscale>
<asrwt>0</asrwt>
<pdfrwt beam="1">  1        2 0.17646311E+00 0.10002100E+04</pdfrwt>
<pdfrwt beam="2">  1       -2 0.33546080E-01 0.10002100E+04</pdfrwt>
<totfact> 0.20419907E+02</totfact>
</mgrwt>
</event>
<event>
 9    1  0.4388925E-036  0.9990152E+03  0.7818608E-02  0.8681976E-01
          2   -1    0    0  501    0  0.00000000000E+00  0.00000000000E+00  0.13817060895E+03  0.13817060895E+03  0.00000000000E+00 0. -1.
         -2   -1    0    0    0  501 -0.00000000000E+00 -0.00000000000E+00 -0.18057954828E+04  0.18057954828E+04  0.00000000000E+00 0. -1.
         36    2    1    2    0    0  0.00000000000E+00  0.71054273576E-14 -0.16676248738E+04  0.19439660917E+04  0.99901523813E+03 0.  0.
         25    2    3    3    0    0  0.10412484321E+03  0.17170708042E+02 -0.12984833000E+03  0.20727618081E+03  0.12233564542E+03 0.  0.
         35    2    3    3    0    0 -0.10412484321E+03 -0.17170708042E+02 -0.15377765438E+04  0.17366899109E+04  0.80012394776E+03 0.  0.
         22    1    5    5    0    0  0.21532311633E+03 -0.37272429761E+02 -0.62781240962E+02  0.22736482283E+03  0.00000000000E+00 0. -1.
         22    1    5    5    0    0 -0.31944795954E+03  0.20101721719E+02 -0.14749953029E+04  0.15093250881E+04  0.00000000000E+00 0. -1.
          5    1    4    4  502    0  0.11664344866E+03  0.48874846236E+02 -0.10913738906E+03  0.16711524287E+03  0.47000000000E+01 0.  1.
         -5    1    4    4    0  502 -0.12518605453E+02 -0.31704138194E+02 -0.20710940939E+02  0.40160937933E+02  0.47000000000E+01 0.  1.
<mgrwt>
<rscale>  0 0.99901524E+03</rscale>
<asrwt>0</asrwt>
<pdfrwt beam="1">  1        2 0.21257018E-01 0.99901524E+03</pdfrwt>
<pdfrwt beam="2">  1       -2 0.27781468E+00 0.99901524E+03</pdfrwt>
<totfact> 0.12375186E+01</totfact>
</mgrwt>
</event>
<event>
 9    1  0.4388925E-036  0.9985226E+03  0.7818608E-02  0.8682446E-01
         -1   -1    0    0    0  501 -0.00000000000E+00  0.00000000000E+00  0.16833231949E+03  0.16833231949E+03  0.00000000000E+00 0. -1.
          1   -1    0    0  501    0  0.00000000000E+00 -0.00000000000E+00 -0.14807723092E+04  0.14807723092E+04  0.00000000000E+00 0. -1.
         36    2    1    2    0    0  0.00000000000E+00 -0.14210854715E-13 -0.13124399897E+04  0.16491046287E+04  0.99852258351E+03 0.  0.
         25    2    3    3    0    0  0.13268509966E+03 -0.33374146850E+02 -0.28592240371E+03  0.34062079693E+03  0.12470660370E+03 0.  0.
         35    2    3    3    0    0 -0.13268509966E+03  0.33374146850E+02 -0.10265175860E+04  0.13084838317E+04  0.79979523271E+03 0.  0.
         22    1    5    5    0    0 -0.45509040384E+02 -0.32881059906E+03 -0.81520280585E+03  0.88019492016E+03  0.00000000000E+00 0.  1.
         22    1    5    5    0    0 -0.87176059279E+02  0.36218474591E+03 -0.21131478013E+03  0.42828891158E+03  0.00000000000E+00 0.  1.
          5    1    4    4  502    0  0.60352684653E+01  0.33451589108E+02 -0.10111821115E+03  0.10678209543E+03  0.47000000000E+01 0. -1.
         -5    1    4    4    0  502  0.12664983120E+03 -0.66825735958E+02 -0.18480419256E+03  0.23383870149E+03  0.47000000000E+01 0. -1.
<mgrwt>
<rscale>  0 0.99852258E+03</rscale>
<asrwt>0</asrwt>
<pdfrwt beam="1">  1        1 0.22781112E+00 0.99852258E+03</pdfrwt>
<pdfrwt beam="2">  1       -1 0.25897281E-01 0.99852258E+03</pdfrwt>
<totfact> 0.96134781E+01</totfact>
</mgrwt>
</event>
<event>
 9    1  0.4388925E-036  0.9993404E+03  0.7818608E-02  0.8681666E-01
          2   -1    0    0  501    0  0.00000000000E+00  0.00000000000E+00  0.23979342714E+04  0.23979342714E+04  0.00000000000E+00 0.  1.
         -2   -1    0    0    0  501 -0.00000000000E+00 -0.00000000000E+00 -0.10411891219E+03  0.10411891219E+03  0.00000000000E+00 0.  1.
         36    2    1    2    0    0 -0.71054273576E-14  0.00000000000E+00  0.22938153592E+04  0.25020531836E+04  0.99934039816E+03 0.  0.
         25    2    3    3    0    0 -0.35193429082E+01 -0.12764707453E+03  0.29398732433E+03  0.34492261356E+03  0.12742409924E+03 0.  0.
         35    2    3    3    0    0  0.35193429082E+01  0.12764707453E+03  0.19998280348E+04  0.21571305700E+04  0.79849481256E+03 0.  0.
         22    1    5    5    0    0  0.44048449069E+02 -0.38484187925E+02 -0.63727708155E+02  0.86501557052E+02  0.00000000000E+00 0.  1.
         22    1    5    5    0    0 -0.40529106161E+02  0.16613126245E+03  0.20635557430E+04  0.20706290129E+04  0.00000000000E+00 0.  1.
          5    1    4    4  502    0 -0.29783822889E+02  0.44728799028E+01  0.12725612351E+02  0.33032014323E+02  0.47000000000E+01 0. -1.
         -5    1    4    4    0  502  0.26264479981E+02 -0.13211995443E+03  0.28126171198E+03  0.31189059923E+03  0.47000000000E+01 0. -1.
<mgrwt>
<rscale>  0 0.99934040E+03</rscale>
<asrwt>0</asrwt>
<pdfrwt beam="1">  1        2 0.36891292E+00 0.99934040E+03</pdfrwt>
<pdfrwt beam="2">  1       -2 0.16018296E-01 0.99934040E+03</pdfrwt>
<totfact> 0.14368151E+02</totfact>
</mgrwt>
</event>
<event>
 9    1  0.4388925E-036  0.9943153E+03  0.7818608E-02  0.8686470E-01
          2   -1    0    0  501    0  0.00000000000E+00  0.00000000000E+00  0.14445664369E+04  0.14445664369E+04  0.00000000000E+00 0.  1.
         -2   -1    0    0    0  501 -0.00000000000E+00 -0.00000000000E+00 -0.17110029144E+03  0.17110029144E+03  0.00000000000E+00 0.  1.
         36    2    1    2    0    0 -0.14210854715E-13 -0.14210854715E-13  0.12734661454E+04  0.16156667283E+04  0.99431531891E+03 0.  0.
         25    2    3    3    0    0  0.11090145611E+03 -0.58899960859E+02  0.15823745416E+03  0.23752898725E+03  0.12495034826E+03 0.  0.
         35    2    3    3    0    0 -0.11090145611E+03  0.58899960859E+02  0.11152286913E+04  0.13781377411E+04  0.79985014918E+03 0.  0.
         22    1    5    5    0    0 -0.58465071075E+02  0.21776328074E+03  0.11780532439E+04  0.11994367246E+04  0.00000000000E+00 0.  1.
         22    1    5    5    0    0 -0.52436385033E+02 -0.15886331988E+03 -0.62824552576E+02  0.17870101646E+03  0.00000000000E+00 0.  1.
          5    1    4    4  502    0  0.55984037699E+02 -0.96325364525E+01 -0.61025554297E+01  0.57326515840E+02  0.47000000000E+01 0. -1.
         -5    1    4    4    0  502  0.54917418409E+02 -0.49267424407E+02  0.16434000959E+03  0.18020247141E+03  0.47000000000E+01 0. -1.
<mgrwt>
<rscale>  0 0.99431532E+03</rscale>
<asrwt>0</asrwt>
<pdfrwt beam="1">  1        2 0.22224098E+00 0.99431532E+03</pdfrwt>
<pdfrwt beam="2">  1       -2 0.26323123E-01 0.99431532E+03</pdfrwt>
<totfact> 0.21316936E+02</totfact>
</mgrwt>
</event>
<event>
 9    1  0.4388925E-036  0.9998620E+03  0.7818608E-02  0.8681169E-01
          2   -1    0    0  501    0  0.00000000000E+00  0.00000000000E+00  0.74354220496E+03  0.74354220496E+03  0.00000000000E+00 0. -1.
         -2   -1    0    0    0  501 -0.00000000000E+00 -0.00000000000E+00 -0.33613562251E+03  0.33613562251E+03  0.00000000000E+00 0. -1.
         36    2    1    2    0    0  0.71054273576E-14  0.42632564146E-13  0.40740658244E+03  0.10796778275E+04  0.99986203434E+03 0.  0.
         25    2    3    3    0    0 -0.52073196164E+02  0.11371717950E+03  0.14371338767E+03  0.22769744452E+03  0.12469712816E+03 0.  0.
         35    2    3    3    0    0  0.52073196164E+02 -0.11371717950E+03  0.26369319477E+03  0.85198038295E+03  0.80043316853E+03 0.  0.
         22    1    5    5    0    0  0.24911628595E+03  0.26111010173E+03  0.22831308513E+03  0.42704130244E+03  0.00000000000E+00 0. -1.
         22    1    5    5    0    0 -0.19704308978E+03 -0.37482728123E+03  0.35380109644E+02  0.42493908051E+03  0.00000000000E+00 0. -1.
          5    1    4    4  502    0 -0.45193950827E+01  0.82445794182E+02  0.11271551257E+02  0.83467788864E+02  0.47000000000E+01 0. -1.
         -5    1    4    4    0  502 -0.47553801081E+02  0.31271385322E+02  0.13244183642E+03  0.14422965566E+03  0.47000000000E+01 0. -1.
<mgrwt>
<rscale>  0 0.99986203E+03</rscale>
<asrwt>0</asrwt>
<pdfrwt beam="1">  1        2 0.11439111E+00 0.99986203E+03</pdfrwt>
<pdfrwt beam="2">  1       -2 0.51713173E-01 0.99986203E+03</pdfrwt>
<totfact> 0.16211349E+02</totfact>
</mgrwt>
</event>
<event>
 9    1  0.4388925E-036  0.9987291E+03  0.7818608E-02  0.8682249E-01
          1   -1    0    0  501    0  0.00000000000E+00  0.00000000000E+00  0.12283861882E+04  0.12283861882E+04  0.00000000000E+00 0. -1.
         -1   -1    0    0    0  501 -0.00000000000E+00 -0.00000000000E+00 -0.20300206697E+03  0.20300206697E+03  0.00000000000E+00 0. -1.
         36    2    1    2    0    0  0.71054273576E-14 -0.14210854715E-13  0.10253841212E+04  0.14313882551E+04  0.99872906284E+03 0.  0.
         25    2    3    3    0    0  0.53181561593E+02  0.11326578681E+03  0.10316806767E+03  0.20472725956E+03  0.12494872414E+03 0.  0.
         35    2    3    3    0    0 -0.53181561593E+02 -0.11326578681E+03  0.92221605353E+03  0.12266609956E+04  0.79909782364E+03 0.  0.
         22    1    5    5    0    0 -0.69306870729E+02  0.17620746919E+03 -0.63093446359E+02  0.19958280864E+03  0.00000000000E+00 0. -1.
         22    1    5    5    0    0  0.16125309136E+02 -0.28947325600E+03  0.98530949989E+03  0.10270781870E+04  0.00000000000E+00 0. -1.
          5    1    4    4  502    0 -0.24118327312E+02  0.25160466432E+02 -0.14990267807E+02  0.38230104791E+02  0.47000000000E+01 0. -1.
         -5    1    4    4    0  502  0.77299888905E+02  0.88105320375E+02  0.11815833548E+03  0.16649715477E+03  0.47000000000E+01 0. -1.
<mgrwt>
<rscale>  0 0.99872906E+03</rscale>
<asrwt>0</asrwt>
<pdfrwt beam="1">  1        1 0.18898249E+00 0.99872906E+03</pdfrwt>
<pdfrwt beam="2">  1       -1 0.31231088E-01 0.99872906E+03</pdfrwt>
<totfact> 0.10653285E+02</totfact>
</mgrwt>
</event>
<event>
 9    1  0.4388925E-036  0.1000292E+04  0.7818608E-02  0.8680760E-01
         -2   -1    0    0    0  501 -0.00000000000E+00  0.00000000000E+00  0.51101664055E+03  0.51101664055E+03  0.00000000000E+00 0. -1.
          2   -1    0    0  501    0  0.00000000000E+00 -0.00000000000E+00 -0.48950692686E+03  0.48950692686E+03  0.00000000000E+00 0. -1.
         36    2    1    2    0    0  0.00000000000E+00  0.28421709430E-13  0.21509713692E+02  0.10005235674E+04  0.10002923279E+04 0.  0.
         25    2    3    3    0    0 -0.14713691897E+02 -0.13395379551E+03  0.27177132742E+01  0.19030832819E+03  0.13434940175E+03 0.  0.
         35    2    3    3    0    0  0.14713691897E+02  0.13395379551E+03  0.18792000418E+02  0.81021523922E+03  0.79870863431E+03 0.  0.
         22    1    5    5    0    0  0.16279014288E+03 -0.30267076854E+03 -0.37627517285E+02  0.34572540376E+03  0.00000000000E+00 0.  1.
         22    1    5    5    0    0 -0.14807645098E+03  0.43662456405E+03  0.56419517703E+02  0.46448983546E+03  0.00000000000E+00 0.  1.
          5    1    4    4  502    0 -0.47974035412E+02 -0.13213474493E+02  0.34846080975E+02  0.60929823086E+02  0.47000000000E+01 0.  1.
         -5    1    4    4    0  502  0.33260343515E+02 -0.12074032102E+03 -0.32128367701E+02  0.12937850510E+03  0.47000000000E+01 0.  1.
<mgrwt>
<rscale>  0 0.10002923E+04</rscale>
<asrwt>0</asrwt>
<pdfrwt beam="1">  1        2 0.75308758E-01 0.10002923E+04</pdfrwt>
<pdfrwt beam="2">  1       -2 0.78617945E-01 0.10002923E+04</pdfrwt>
<totfact> 0.10941127E+02</totfact>
</mgrwt>
</event>
<event>
 9    1  0.4388925E-036  0.1000596E+04  0.7818608E-02  0.8680471E-01
         -1   -1    0    0    0  501 -0.00000000000E+00  0.00000000000E+00  0.23957318222E+03  0.23957318222E+03  0.00000000000E+00 0. -1.
          1   -1    0    0  501    0  0.00000000000E+00 -0.00000000000E+00 -0.10447658055E+04  0.10447658055E+04  0.00000000000E+00 0. -1.
         36    2    1    2    0    0  0.14210854715E-13 -0.71054273576E-14 -0.80519262326E+03  0.12843389877E+04  0.10005955600E+04 0.  0.
         25    2    3    3    0    0 -0.12296403787E+03  0.28108766005E+02 -0.21302196673E+03  0.27787870206E+03  0.12620601179E+03 0.  0.
         35    2    3    3    0    0  0.12296403787E+03 -0.28108766005E+02 -0.59217065653E+03  0.10064602856E+04  0.80398131991E+03 0.  0.
         22    1    5    5    0    0  0.21560197378E+03 -0.18097003804E+03  0.94486296878E+02  0.29692090877E+03  0.00000000000E+00 0.  1.
         22    1    5    5    0    0 -0.92637935913E+02  0.15286127203E+03 -0.68665695341E+03  0.70953937687E+03  0.00000000000E+00 0.  1.
          5    1    4    4  502    0 -0.14604217258E+03  0.15520315914E+02 -0.19997820354E+03  0.24815835321E+03  0.47000000000E+01 0.  1.
         -5    1    4    4    0  502  0.23078134709E+02  0.12588450090E+02 -0.13043763189E+02  0.29720348845E+02  0.47000000000E+01 0.  1.
<mgrwt>
<rscale>  0 0.10005956E+04</rscale>
<asrwt>0</asrwt>
<pdfrwt beam="1">  1        1 0.16073320E+00 0.10005956E+04</pdfrwt>
<pdfrwt beam="2">  1       -1 0.36857412E-01 0.10005956E+04</pdfrwt>
<totfact> 0.11014640E+02</totfact>
</mgrwt>
</event>
<event>
 9    1  0.4388925E-036  0.9991071E+03  0.7818608E-02  0.8681889E-01
          2   -1    0    0  501    0  0.00000000000E+00  0.00000000000E+00  0.20831427499E+04  0.20831427499E+04  0.00000000000E+00 0. -1.
         -2   -1    0    0    0  501 -0.00000000000E+00 -0.00000000000E+00 -0.11979676647E+03  0.11979676647E+03  0.00000000000E+00 0. -1.
         36    2    1    2    0    0  0.88817841970E-15  0.28421709430E-13  0.19633459835E+04  0.22029395164E+04  0.99910713248E+03 0.  0.
         25    2    3    3    0    0 -0.52883177536E+01  0.12823849463E+03  0.47858944346E+03  0.51118624111E+03  0.12566001708E+03 0.  0.
         35    2    3    3    0    0  0.52883177536E+01 -0.12823849463E+03  0.14847565400E+04  0.16917532753E+04  0.80065853121E+03 0.  0.
         22    1    5    5    0    0  0.28353640652E+03  0.21182960688E+03  0.83991992385E+03  0.91144399425E+03  0.00000000000E+00 0.  1.
         22    1    5    5    0    0 -0.27824808876E+03 -0.34006810151E+03  0.64483661615E+03  0.78030928105E+03  0.00000000000E+00 0.  1.
          5    1    4    4  502    0 -0.82895154306E+01  0.80108853796E+02  0.44494378287E+03  0.45219819154E+03  0.47000000000E+01 0. -1.
         -5    1    4    4    0  502  0.30011976770E+01  0.48129640837E+02  0.33645660596E+02  0.58988049565E+02  0.47000000000E+01 0. -1.
<mgrwt>
<rscale>  0 0.99910713E+03</rscale>
<asrwt>0</asrwt>
<pdfrwt beam="1">  1        2 0.32048347E+00 0.99910713E+03</pdfrwt>
<pdfrwt beam="2">  1       -2 0.18430273E-01 0.99910713E+03</pdfrwt>
<totfact> 0.17297042E+02</totfact>
</mgrwt>
</event>
<event>
 9    1  0.4388925E-036  0.9996269E+03  0.7818608E-02  0.8681393E-01
         -2   -1    0    0    0  501 -0.00000000000E+00  0.00000000000E+00  0.18367643358E+03  0.18367643358E+03  0.00000000000E+00 0.  1.
          2   -1    0    0  501    0  0.00000000000E+00 -0.00000000000E+00 -0.13600737088E+04  0.13600737088E+04  0.00000000000E+00 0.  1.
         36    2    1    2    0    0  0.00000000000E+00  0.28421709430E-13 -0.11763972752E+04  0.15437501424E+04  0.99962690688E+03 0.  0.
         25    2    3    3    0    0 -0.88474022570E+02 -0.10631929664E+03 -0.26352520172E+03  0.32262808255E+03  0.12454678719E+03 0.  0.
         35    2    3    3    0    0  0.88474022570E+02  0.10631929664E+03 -0.91287207348E+03  0.12211220598E+04  0.79916970470E+03 0.  0.
         22    1    5    5    0    0 -0.56698500690E+02 -0.32709872374E+03 -0.24841645575E+03  0.41463119822E+03  0.00000000000E+00 0. -1.
         22    1    5    5    0    0  0.14517252326E+03  0.43341802038E+03 -0.66445561772E+03  0.80649086159E+03  0.00000000000E+00 0. -1.
          5    1    4    4  502    0 -0.63155003286E+02 -0.68540213133E+02 -0.26061039860E+03  0.27681435136E+03  0.47000000000E+01 0.  1.
         -5    1    4    4    0  502 -0.25319019284E+02 -0.37779083511E+02 -0.29148031120E+01  0.45813731191E+02  0.47000000000E+01 0.  1.
<mgrwt>
<rscale>  0 0.99962691E+03</rscale>
<asrwt>0</asrwt>
<pdfrwt beam="1">  1        2 0.20924211E+00 0.99962691E+03</pdfrwt>
<pdfrwt beam="2">  1       -2 0.28257912E-01 0.99962691E+03</pdfrwt>
<totfact> 0.20972469E+02</totfact>
</mgrwt>
</event>
<event>
 9    1  0.4388925E-036  0.9992557E+03  0.7818608E-02  0.8681747E-01
         -1   -1    0    0    0  501 -0.00000000000E+00  0.00000000000E+00  0.23520372843E+03  0.23520372843E+03  0.00000000000E+00 0.  1.
          1   -1    0    0  501    0  0.00000000000E+00 -0.00000000000E+00 -0.10613266019E+04  0.10613266019E+04  0.00000000000E+00 0.  1.
         36    2    1    2    0    0  0.35527136788E-14  0.00000000000E+00 -0.82612287343E+03  0.12965303303E+04  0.99925567067E+03 0.  0.
         25    2    3    3    0    0  0.31896952181E+01  0.10323151596E+03 -0.27385933137E+03  0.31868025473E+03  0.12606050662E+03 0.  0.
         35    2    3    3    0    0 -0.31896952181E+01 -0.10323151596E+03 -0.55226354206E+03  0.97785007557E+03  0.80033045072E+03 0.  0.
         22    1    5    5    0    0 -0.51847339700E+02 -0.31267493366E+03 -0.66382761250E+03  0.73560917605E+03  0.00000000000E+00 0. -1.
         22    1    5    5    0    0  0.48657644481E+02  0.20944341770E+03  0.11156407044E+03  0.24224089951E+03  0.00000000000E+00 0. -1.
          5    1    4    4  502    0  0.98075206396E+01 -0.25644540267E+02 -0.21450129903E+02  0.35157189584E+02  0.47000000000E+01 0.  1.
         -5    1    4    4    0  502 -0.66178254216E+01  0.12887605623E+03 -0.25240920147E+03  0.28352306514E+03  0.47000000000E+01 0.  1.
<mgrwt>
<rscale>  0 0.99925567E+03</rscale>
<asrwt>0</asrwt>
<pdfrwt beam="1">  1        1 0.16328102E+00 0.99925567E+03</pdfrwt>
<pdfrwt beam="2">  1       -1 0.36185189E-01 0.99925567E+03</pdfrwt>
<totfact> 0.11044458E+02</totfact>
</mgrwt>
</event>
<event>
 9    1  0.4388925E-036  0.9995713E+03  0.7818608E-02  0.8681446E-01
         -1   -1    0    0    0  501 -0.00000000000E+00  0.00000000000E+00  0.72687463714E+03  0.72687463714E+03  0.00000000000E+00 0.  1.
          1   -1    0    0  501    0  0.00000000000E+00 -0.00000000000E+00 -0.34364342941E+03  0.34364342941E+03  0.00000000000E+00 0.  1.
         36    2    1    2    0    0  0.00000000000E+00  0.00000000000E+00  0.38323120773E+03  0.10705180665E+04  0.99957129421E+03 0.  0.
         25    2    3    3    0    0 -0.46977803626E+02 -0.12841169491E+03  0.77453735522E+02  0.20073747717E+03  0.12489986458E+03 0.  0.
         35    2    3    3    0    0  0.46977803626E+02  0.12841169491E+03  0.30577747221E+03  0.86978058937E+03  0.80269666357E+03 0.  0.
         22    1    5    5    0    0 -0.34191363772E+03 -0.89102315617E+02  0.21936474914E+03  0.41589067250E+03  0.00000000000E+00 0.  1.
         22    1    5    5    0    0  0.38889144135E+03  0.21751401053E+03  0.86412723063E+02  0.45388991687E+03  0.00000000000E+00 0.  1.
          5    1    4    4  502    0 -0.43763052445E+02 -0.89026003262E+02  0.11081753185E+03  0.14880675180E+03  0.47000000000E+01 0.  1.
         -5    1    4    4    0  502 -0.32147511808E+01 -0.39385691646E+02 -0.33363796332E+02  0.51930725369E+02  0.47000000000E+01 0.  1.
<mgrwt>
<rscale>  0 0.99957129E+03</rscale>
<asrwt>0</asrwt>
<pdfrwt beam="1">  1        1 0.52868220E-01 0.99957129E+03</pdfrwt>
<pdfrwt beam="2">  1       -1 0.11182687E+00 0.99957129E+03</pdfrwt>
<totfact> 0.64777743E+01</totfact>
</mgrwt>
</event>
<event>
 9    1  0.4388925E-036  0.1000964E+04  0.7818608E-02  0.8680120E-01
         -1   -1    0    0    0  501 -0.00000000000E+00  0.00000000000E+00  0.20491766756E+03  0.20491766756E+03  0.00000000000E+00 0. -1.
          1   -1    0    0  501    0  0.00000000000E+00 -0.00000000000E+00 -0.12223564271E+04  0.12223564271E+04  0.00000000000E+00 0. -1.
         36    2    1    2    0    0  0.00000000000E+00  0.00000000000E+00 -0.10174387596E+04  0.14272740947E+04  0.10009643909E+04 0.  0.
         25    2    3    3    0    0  0.11302428759E+03 -0.80803507578E+02 -0.19308507086E+03  0.26911476419E+03  0.12584599834E+03 0.  0.
         35    2    3    3    0    0 -0.11302428759E+03  0.80803507578E+02 -0.82435368871E+03  0.11581593305E+04  0.80154247192E+03 0.  0.
         22    1    5    5    0    0  0.79100744104E+02  0.46315147171E+02 -0.93115477923E+03  0.93565551538E+03  0.00000000000E+00 0. -1.
         22    1    5    5    0    0 -0.19212503169E+03  0.34488360406E+02  0.10680109052E+03  0.22250381512E+03  0.00000000000E+00 0. -1.
          5    1    4    4  502    0 -0.18451791141E+02  0.65553463812E+01 -0.61363514698E+00  0.20147151426E+02  0.47000000000E+01 0. -1.
         -5    1    4    4    0  502  0.13147607873E+03 -0.87358853959E+02 -0.19247143571E+03  0.24896761277E+03  0.47000000000E+01 0. -1.
<mgrwt>
<rscale>  0 0.10009644E+04</rscale>
<asrwt>0</asrwt>
<pdfrwt beam="1">  1        1 0.18805484E+00 0.10009644E+04</pdfrwt>
<pdfrwt beam="2">  1       -1 0.31525795E-01 0.10009644E+04</pdfrwt>
<totfact> 0.10589052E+02</totfact>
</mgrwt>
</event>
<event>
 9    1  0.4388925E-036  0.9999876E+03  0.7818608E-02  0.8681050E-01
          2   -1    0    0  501    0  0.00000000000E+00  0.00000000000E+00  0.51703816344E+03  0.51703816344E+03  0.00000000000E+00 0. -1.
         -2   -1    0    0    0  501 -0.00000000000E+00 -0.00000000000E+00 -0.48351130551E+03  0.48351130551E+03  0.00000000000E+00 0. -1.
         36    2    1    2    0    0  0.00000000000E+00 -0.56843418861E-13  0.33526857934E+02  0.10005494690E+04  0.99998759473E+03 0.  0.
         25    2    3    3    0    0 -0.22512068138E+02 -0.13701415843E+03  0.17714876832E+02  0.18862069834E+03  0.12642894509E+03 0.  0.
         35    2    3    3    0    0  0.22512068138E+02  0.13701415843E+03  0.15811981102E+02  0.81192877062E+03  0.79981162594E+03 0.  0.
         22    1    5    5    0    0  0.58303847999E+02 -0.27176011241E+03  0.21917261151E+03  0.35396261247E+03  0.00000000000E+00 0. -1.
         22    1    5    5    0    0 -0.35791779861E+02  0.40877427084E+03 -0.20336063041E+03  0.45796615815E+03  0.00000000000E+00 0. -1.
          5    1    4    4  502    0 -0.23715869873E+02 -0.16013932486E+03  0.55611734952E+01  0.16204956803E+03  0.47000000000E+01 0. -1.
         -5    1    4    4    0  502  0.12038017348E+01  0.23125166425E+02  0.12153703336E+02  0.26571130303E+02  0.47000000000E+01 0. -1.
<mgrwt>
<rscale>  0 0.99998759E+03</rscale>
<asrwt>0</asrwt>
<pdfrwt beam="1">  1        2 0.79544333E-01 0.99998759E+03</pdfrwt>
<pdfrwt beam="2">  1       -2 0.74386355E-01 0.99998759E+03</pdfrwt>
<totfact> 0.11635421E+02</totfact>
</mgrwt>
</event>
<event>
 9    1  0.4388925E-036  0.1000856E+04  0.7818608E-02  0.8680224E-01
          2   -1    0    0  501    0  0.00000000000E+00  0.00000000000E+00  0.15819863417E+04  0.15819863417E+04  0.00000000000E+00 0. -1.
         -2   -1    0    0    0  501 -0.00000000000E+00 -0.00000000000E+00 -0.15829972371E+03  0.15829972371E+03  0.00000000000E+00 0. -1.
         36    2    1    2    0    0  0.00000000000E+00 -0.42632564146E-13  0.14236866180E+04  0.17402860654E+04  0.10008556355E+04 0.  0.
         25    2    3    3    0    0 -0.12387078062E+03 -0.21411641680E+02  0.15093134482E+03  0.23295182426E+03  0.12523519029E+03 0.  0.
         35    2    3    3    0    0  0.12387078062E+03  0.21411641680E+02  0.12727552732E+04  0.15073342411E+04  0.79771429751E+03 0.  0.
         22    1    5    5    0    0  0.12210832124E+03  0.35687787354E+03  0.10193923198E+04  0.10869374225E+04  0.00000000000E+00 0. -1.
         22    1    5    5    0    0  0.17624593793E+01 -0.33546623186E+03  0.25336295334E+03  0.42039681862E+03  0.00000000000E+00 0. -1.
          5    1    4    4  502    0 -0.85795194873E+02  0.47728857666E+02  0.87165001764E+02  0.13137232148E+03  0.47000000000E+01 0.  1.
         -5    1    4    4    0  502 -0.38075585742E+02 -0.69140499346E+02  0.63766343053E+02  0.10157950278E+03  0.47000000000E+01 0.  1.
<mgrwt>
<rscale>  0 0.10008556E+04</rscale>
<asrwt>0</asrwt>
<pdfrwt beam="1">  1        2 0.24338250E+00 0.10008556E+04</pdfrwt>
<pdfrwt beam="2">  1       -2 0.24353805E-01 0.10008556E+04</pdfrwt>
<totfact> 0.20461667E+02</totfact>
</mgrwt>
</event>
<event>
 9    1  0.4388925E-036  0.9977914E+03  0.7818608E-02  0.8683144E-01
          1   -1    0    0  501    0  0.00000000000E+00  0.00000000000E+00  0.92353416792E+03  0.92353416792E+03  0.00000000000E+00 0.  1.
         -1   -1    0    0    0  501 -0.00000000000E+00 -0.00000000000E+00 -0.26950480565E+03  0.26950480565E+03  0.00000000000E+00 0.  1.
         36    2    1    2    0    0  0.14210854715E-13  0.00000000000E+00  0.65402936228E+03  0.11930389736E+04  0.99779135381E+03 0.  0.
         25    2    3    3    0    0 -0.50453553410E+02  0.12872647972E+03  0.11029516590E+03  0.21650043152E+03  0.12486530982E+03 0.  0.
         35    2    3    3    0    0  0.50453553410E+02 -0.12872647972E+03  0.54373419638E+03  0.97653854204E+03  0.79929004758E+03 0.  0.
         22    1    5    5    0    0 -0.16402909638E+03 -0.31089382758E+03  0.59444963324E+03  0.69060182663E+03  0.00000000000E+00 0. -1.
         22    1    5    5    0    0  0.21448264978E+03  0.18216734786E+03 -0.50715436862E+02  0.28593671541E+03  0.00000000000E+00 0. -1.
          5    1    4    4  502    0 -0.69145803831E+02  0.73848031318E+02  0.11595817902E+02  0.10193736758E+03  0.47000000000E+01 0. -1.
         -5    1    4    4    0  502  0.18692250421E+02  0.54878448405E+02  0.98699347994E+02  0.11456306394E+03  0.47000000000E+01 0. -1.
<mgrwt>
<rscale>  0 0.99779135E+03</rscale>
<asrwt>0</asrwt>
<pdfrwt beam="1">  1        1 0.14208218E+00 0.99779135E+03</pdfrwt>
<pdfrwt beam="2">  1       -1 0.41462278E-01 0.99779135E+03</pdfrwt>
<totfact> 0.11179656E+02</totfact>
</mgrwt>
</event>
<event>
 9    1  0.4388925E-036  0.1000186E+04  0.7818608E-02  0.8680860E-01
          1   -1    0    0  501    0  0.00000000000E+00  0.00000000000E+00  0.39911480955E+03  0.39911480955E+03  0.00000000000E+00 0.  1.
         -1   -1    0    0    0  501 -0.00000000000E+00 -0.00000000000E+00 -0.62661969283E+03  0.62661969283E+03  0.00000000000E+00 0.  1.
         36    2    1    2    0    0  0.00000000000E+00  0.00000000000E+00 -0.22750488328E+03  0.10257345024E+04  0.10001863814E+04 0.  0.
         25    2    3    3    0    0 -0.71294263732E+02  0.40665680235E+02 -0.16786544778E+03  0.22485864054E+03  0.12508409201E+03 0.  0.
         35    2    3    3    0    0  0.71294263732E+02 -0.40665680235E+02 -0.59639435499E+02  0.80087586184E+03  0.79442351062E+03 0.  0.
         22    1    5    5    0    0 -0.71386170563E+02 -0.39533393222E+02 -0.41237663087E+03  0.42037288235E+03  0.00000000000E+00 0. -1.
         22    1    5    5    0    0  0.14268043429E+03 -0.11322870134E+01  0.35273719537E+03  0.38050297949E+03  0.00000000000E+00 0. -1.
          5    1    4    4  502    0 -0.71498967887E+01 -0.38954325750E+02 -0.82289297282E+02  0.91444950467E+02  0.47000000000E+01 0. -1.
         -5    1    4    4    0  502 -0.64144366943E+02  0.79620005986E+02 -0.85576150497E+02  0.13341369007E+03  0.47000000000E+01 0. -1.
<mgrwt>
<rscale>  0 0.10001864E+04</rscale>
<asrwt>0</asrwt>
<pdfrwt beam="1">  1        1 0.61402279E-01 0.10001864E+04</pdfrwt>
<pdfrwt beam="2">  1       -1 0.96403029E-01 0.10001864E+04</pdfrwt>
<totfact> 0.74531473E+01</totfact>
</mgrwt>
</event>
<event>
 9    1  0.4388925E-036  0.9999850E+03  0.7818608E-02  0.8681052E-01
         -2   -1    0    0    0  501 -0.00000000000E+00  0.00000000000E+00  0.22351672191E+03  0.22351672191E+03  0.00000000000E+00 0.  1.
          2   -1    0    0  501    0  0.00000000000E+00 -0.00000000000E+00 -0.11184509979E+04  0.11184509979E+04  0.00000000000E+00 0.  1.
         36    2    1    2    0    0  0.00000000000E+00  0.00000000000E+00 -0.89493427597E+03  0.13419677198E+04  0.99998500121E+03 0.  0.
         25    2    3    3    0    0 -0.10649875149E+03 -0.31648057283E+02 -0.53654314925E+02  0.17574310138E+03  0.12515298069E+03 0.  0.
         35    2    3    3    0    0  0.10649875149E+03  0.31648057283E+02 -0.84127996104E+03  0.11662246184E+04  0.79999019002E+03 0.  0.
         22    1    5    5    0    0  0.21911394585E+03  0.39288255817E+02  0.81131972104E+02  0.23693223759E+03  0.00000000000E+00 0.  1.
         22    1    5    5    0    0 -0.11261519436E+03 -0.76401985342E+01 -0.92241193315E+03  0.92929238082E+03  0.00000000000E+00 0.  1.
          5    1    4    4  502    0 -0.47349357356E+02  0.65355014091E+01  0.37169308435E+02  0.60731556132E+02  0.47000000000E+01 0.  1.
         -5    1    4    4    0  502 -0.59149394130E+02 -0.38183558692E+02 -0.90823623360E+02  0.11501154525E+03  0.47000000000E+01 0.  1.
<mgrwt>
<rscale>  0 0.99998500E+03</rscale>
<asrwt>0</asrwt>
<pdfrwt beam="1">  1        2 0.17206938E+00 0.99998500E+03</pdfrwt>
<pdfrwt beam="2">  1       -2 0.34387188E-01 0.99998500E+03</pdfrwt>
<totfact> 0.20287778E+02</totfact>
</mgrwt>
</event>
<event>
 9    1  0.4388925E-036  0.9996605E+03  0.7818608E-02  0.8681361E-01
          2   -1    0    0  501    0  0.00000000000E+00  0.00000000000E+00  0.84672606651E+02  0.84672606651E+02  0.00000000000E+00 0.  1.
         -2   -1    0    0    0  501 -0.00000000000E+00 -0.00000000000E+00 -0.29505445848E+04  0.29505445848E+04  0.00000000000E+00 0.  1.
         36    2    1    2    0    0  0.00000000000E+00  0.00000000000E+00 -0.28658719781E+04  0.30352171914E+04  0.99966054445E+03 0.  0.
         25    2    3    3    0    0 -0.65622180368E+02 -0.31865107016E+02 -0.17547856213E+03  0.22741418652E+03  0.12491129197E+03 0.  0.
         35    2    3    3    0    0  0.65622180368E+02  0.31865107016E+02 -0.26903934160E+04  0.28078030049E+04  0.80013706696E+03 0.  0.
         22    1    5    5    0    0 -0.12995940618E+03  0.46269619858E+02 -0.31260170066E+02  0.14144795229E+03  0.00000000000E+00 0.  1.
         22    1    5    5    0    0  0.19558158655E+03 -0.14404512842E+02 -0.26591332459E+04  0.26663550526E+04  0.00000000000E+00 0.  1.
          5    1    4    4  502    0 -0.89555370215E+02 -0.18080243234E+02 -0.17711930441E+03  0.19934993736E+03  0.47000000000E+01 0. -1.
         -5    1    4    4    0  502  0.23933189846E+02 -0.13784863782E+02  0.16407422823E+01  0.28064249161E+02  0.47000000000E+01 0. -1.
<mgrwt>
<rscale>  0 0.99966054E+03</rscale>
<asrwt>0</asrwt>
<pdfrwt beam="1">  1        2 0.13026554E-01 0.99966054E+03</pdfrwt>
<pdfrwt beam="2">  1       -2 0.45392995E+00 0.99966054E+03</pdfrwt>
<totfact> 0.28819461E+00</totfact>
</mgrwt>
</event>
<event>
 9    1  0.4388925E-036  0.9999864E+03  0.7818608E-02  0.8681051E-01
          1   -1    0    0  501    0  0.00000000000E+00  0.00000000000E+00  0.43299332485E+03  0.43299332485E+03  0.00000000000E+00 0.  1.
         -1   -1    0    0    0  501 -0.00000000000E+00 -0.00000000000E+00 -0.57736037395E+03  0.57736037395E+03  0.00000000000E+00 0.  1.
         36    2    1    2    0    0  0.00000000000E+00  0.00000000000E+00 -0.14436704910E+03  0.10103536988E+04  0.99998637581E+03 0.  0.
         25    2    3    3    0    0  0.11553964263E+03 -0.73515368101E+02  0.47455278815E+01  0.18517883775E+03  0.12455827371E+03 0.  0.
         35    2    3    3    0    0 -0.11553964263E+03  0.73515368101E+02 -0.14911257699E+03  0.82517486105E+03  0.79995316883E+03 0.  0.
         22    1    5    5    0    0 -0.20404085200E+02 -0.35175416629E+03  0.30857370570E+02  0.35369407333E+03  0.00000000000E+00 0. -1.
         22    1    5    5    0    0 -0.95135557427E+02  0.42526953439E+03 -0.17996994756E+03  0.47148078772E+03  0.00000000000E+00 0. -1.
          5    1    4    4  502    0  0.21908421439E+02  0.21443600834E+02 -0.34203518691E+02  0.46171177562E+02  0.47000000000E+01 0.  1.
         -5    1    4    4    0  502  0.93631221187E+02 -0.94958968935E+02  0.38949046572E+02  0.13900766019E+03  0.47000000000E+01 0.  1.
<mgrwt>
<rscale>  0 0.99998638E+03</rscale>
<asrwt>0</asrwt>
<pdfrwt beam="1">  1        1 0.66614357E-01 0.99998638E+03</pdfrwt>
<pdfrwt beam="2">  1       -1 0.88824673E-01 0.99998638E+03</pdfrwt>
<totfact> 0.79766362E+01</totfact>
</mgrwt>
</event>
<event>
 9    1  0.4388925E-036  0.9996061E+03  0.7818608E-02  0.8681413E-01
         -2   -1    0    0    0  501 -0.00000000000E+00  0.00000000000E+00  0.12131158806E+03  0.12131158806E+03  0.00000000000E+00 0.  1.
          2   -1    0    0  501    0  0.00000000000E+00 -0.00000000000E+00 -0.20591856990E+04  0.20591856990E+04  0.00000000000E+00 0.  1.
         36    2    1    2    0    0  0.14210854715E-13 -0.35527136788E-14 -0.19378741109E+04  0.21804972870E+04  0.99960609691E+03 0.  0.
         25    2    3    3    0    0  0.10782526957E+03  0.29630727151E+02 -0.54885141274E+03  0.57378150098E+03  0.12443098027E+03 0.  0.
         35    2    3    3    0    0 -0.10782526957E+03 -0.29630727151E+02 -0.13890226982E+04  0.16067157860E+04  0.79977952733E+03 0.  0.
         22    1    5    5    0    0 -0.66075903662E+02 -0.16327480568E+02 -0.14926522521E+04  0.14942032517E+04  0.00000000000E+00 0. -1.
         22    1    5    5    0    0 -0.41749365903E+02 -0.13303246583E+02  0.10362955397E+03  0.11251253432E+03  0.00000000000E+00 0. -1.
          5    1    4    4  502    0  0.94177171703E+02  0.71711785792E+02 -0.45086512238E+03  0.46616881971E+03  0.47000000000E+01 0. -1.
         -5    1    4    4    0  502  0.13648097862E+02 -0.42081058641E+02 -0.97986290369E+02  0.10761268128E+03  0.47000000000E+01 0. -1.
<mgrwt>
<rscale>  0 0.99960610E+03</rscale>
<asrwt>0</asrwt>
<pdfrwt beam="1">  1        2 0.31679778E+00 0.99960610E+03</pdfrwt>
<pdfrwt beam="2">  1       -2 0.18663323E-01 0.99960610E+03</pdfrwt>
<totfact> 0.17471489E+02</totfact>
</mgrwt>
</event>
<event>
 9    1  0.4388925E-036  0.9997475E+03  0.7818608E-02  0.8681278E-01
         -2   -1    0    0    0  501 -0.00000000000E+00  0.00000000000E+00  0.30010267381E+03  0.30010267381E+03  0.00000000000E+00 0.  1.
          2   -1    0    0  501    0  0.00000000000E+00 -0.00000000000E+00 -0.83262760292E+03  0.83262760292E+03  0.00000000000E+00 0.  1.
         36    2    1    2    0    0  0.21316282073E-13 -0.21316282073E-13 -0.53252492911E+03  0.11327302767E+04  0.99974750798E+03 0.  0.
         25    2    3    3    0    0 -0.32126127187E+02 -0.63812971085E+02  0.30786948041E+02  0.14766893863E+03  0.12551532154E+03 0.  0.
         35    2    3    3    0    0  0.32126127187E+02  0.63812971085E+02 -0.56331187715E+03  0.98506133810E+03  0.80493564063E+03 0.  0.
         22    1    5    5    0    0 -0.35199251890E+03 -0.97626201551E+02 -0.38836783912E+03  0.53315962624E+03  0.00000000000E+00 0.  1.
         22    1    5    5    0    0  0.38411864609E+03  0.16143917264E+03 -0.17494403803E+03  0.45190171186E+03  0.00000000000E+00 0.  1.
          5    1    4    4  502    0  0.43855273204E+02 -0.81693835634E+01 -0.82577024613E+01  0.45610343843E+02  0.47000000000E+01 0.  1.
         -5    1    4    4    0  502 -0.75981400391E+02 -0.55643587522E+02  0.39044650502E+02  0.10205859479E+03  0.47000000000E+01 0.  1.
<mgrwt>
<rscale>  0 0.99974751E+03</rscale>
<asrwt>0</asrwt>
<pdfrwt beam="1">  1        2 0.12809655E+00 0.99974751E+03</pdfrwt>
<pdfrwt beam="2">  1       -2 0.46169642E-01 0.99974751E+03</pdfrwt>
<totfact> 0.17571822E+02</totfact>
</mgrwt>
</event>
<event>
 9    1  0.4388925E-036  0.9992809E+03  0.7818608E-02  0.8681723E-01
          2   -1    0    0  501    0  0.00000000000E+00  0.00000000000E+00  0.31025278813E+04  0.31025278813E+04  0.00000000000E+00 0.  1.
         -2   -1    0    0    0  501 -0.00000000000E+00 -0.00000000000E+00 -0.80463610200E+02  0.80463610200E+02  0.00000000000E+00 0.  1.
         36    2    1    2    0    0  0.14210854715E-13  0.10658141036E-13  0.30220642711E+04  0.31829914915E+04  0.99928092962E+03 0.  0.
         25    2    3    3    0    0 -0.82960124907E+02  0.20402967924E+02  0.22090713942E+03  0.26762879546E+03  0.12460555562E+03 0.  0.
         35    2    3    3    0    0  0.82960124907E+02 -0.20402967924E+02  0.28011571317E+04  0.29153626961E+04  0.80346730465E+03 0.  0.
         22    1    5    5    0    0  0.32735147697E+03 -0.23034093609E+03  0.87189203377E+03  0.95938087060E+03  0.00000000000E+00 0.  1.
         22    1    5    5    0    0 -0.24439135206E+03  0.20993796816E+03  0.19292650979E+04  0.19559818255E+04  0.00000000000E+00 0.  1.
          5    1    4    4  502    0 -0.81506228699E+02 -0.25917280341E+02  0.72945846755E+02  0.11250847655E+03  0.47000000000E+01 0. -1.
         -5    1    4    4    0  502 -0.14538962080E+01  0.46320248265E+02  0.14796129266E+03  0.15512031891E+03  0.47000000000E+01 0. -1.
<mgrwt>
<rscale>  0 0.99928093E+03</rscale>
<asrwt>0</asrwt>
<pdfrwt beam="1">  1        2 0.47731189E+00 0.99928093E+03</pdfrwt>
<pdfrwt beam="2">  1       -2 0.12379019E-01 0.99928093E+03</pdfrwt>
<totfact> 0.78524281E+01</totfact>
</mgrwt>
</event>
<event>
 9    1  0.4388925E-036  0.9996782E+03  0.7818608E-02  0.8681344E-01
         -1   -1    0    0    0  501 -0.00000000000E+00  0.00000000000E+00  0.78129142833E+03  0.78129142833E+03  0.00000000000E+00 0. -1.
          1   -1    0    0  501    0  0.00000000000E+00 -0.00000000000E+00 -0.31977710282E+03  0.31977710282E+03  0.00000000000E+00 0. -1.
         36    2    1    2    0    0 -0.71054273576E-14  0.00000000000E+00  0.46151432551E+03  0.11010685312E+04  0.99967816703E+03 0.  0.
         25    2    3    3    0    0  0.23382325778E+02  0.13053869905E+03  0.16089223615E+03  0.24309810082E+03  0.12499315926E+03 0.  0.
         35    2    3    3    0    0 -0.23382325778E+02 -0.13053869905E+03  0.30062208936E+03  0.85797043033E+03  0.79256074442E+03 0.  0.
         22    1    5    5    0    0 -0.59873290928E+02  0.30777575762E+03  0.27556109255E+03  0.41742621345E+03  0.00000000000E+00 0. -1.
         22    1    5    5    0    0  0.36490965150E+02 -0.43831445667E+03  0.25060996806E+02  0.44054421688E+03  0.00000000000E+00 0. -1.
          5    1    4    4  502    0 -0.37512750042E+02  0.18411574420E+01  0.49212419525E+02  0.62085010365E+02  0.47000000000E+01 0. -1.
         -5    1    4    4    0  502  0.60895075820E+02  0.12869754161E+03  0.11167981662E+03  0.18101309046E+03  0.47000000000E+01 0. -1.
<mgrwt>
<rscale>  0 0.99967817E+03</rscale>
<asrwt>0</asrwt>
<pdfrwt beam="1">  1        1 0.49196478E-01 0.99967817E+03</pdfrwt>
<pdfrwt beam="2">  1       -1 0.12019868E+00 0.99967817E+03</pdfrwt>
<totfact> 0.59767834E+01</totfact>
</mgrwt>
</event>
<event>
 9    1  0.4388925E-036  0.1001412E+04  0.7818608E-02  0.8679694E-01
          2   -1    0    0  501    0  0.00000000000E+00  0.00000000000E+00  0.95290336992E+03  0.95290336992E+03  0.00000000000E+00 0. -1.
         -2   -1    0    0    0  501 -0.00000000000E+00 -0.00000000000E+00 -0.26309748993E+03  0.26309748993E+03  0.00000000000E+00 0. -1.
         36    2    1    2    0    0  0.00000000000E+00 -0.42632564146E-13  0.68980587999E+03  0.12160008598E+04  0.10014119727E+04 0.  0.
         25    2    3    3    0    0  0.12086054134E+03 -0.58280660258E+02  0.59263469756E+02  0.19259795927E+03  0.12481149489E+03 0.  0.
         35    2    3    3    0    0 -0.12086054134E+03  0.58280660258E+02  0.63054241023E+03  0.10234029006E+04  0.79483700215E+03 0.  0.
         22    1    5    5    0    0 -0.26855450923E+03  0.31320980857E+03  0.59866110236E+03  0.72706053674E+03  0.00000000000E+00 0. -1.
         22    1    5    5    0    0  0.14769396789E+03 -0.25492914831E+03  0.31881307874E+02  0.29634236383E+03  0.00000000000E+00 0. -1.
          5    1    4    4  502    0 -0.56323764735E+01  0.27978121372E+02  0.17593580627E+02  0.33854438697E+02  0.47000000000E+01 0.  1.
         -5    1    4    4    0  502  0.12649291781E+03 -0.86258781630E+02  0.41669889129E+02  0.15874352057E+03  0.47000000000E+01 0.  1.
<mgrwt>
<rscale>  0 0.10014120E+04</rscale>
<asrwt>0</asrwt>
<pdfrwt beam="1">  1        2 0.14660052E+00 0.10014120E+04</pdfrwt>
<pdfrwt beam="2">  1       -2 0.40476537E-01 0.10014120E+04</pdfrwt>
<totfact> 0.18889804E+02</totfact>
</mgrwt>
</event>
<event>
 9    1  0.4388925E-036  0.9998767E+03  0.7818608E-02  0.8681155E-01
          1   -1    0    0  501    0  0.00000000000E+00  0.00000000000E+00  0.35583634073E+03  0.35583634073E+03  0.00000000000E+00 0.  1.
         -1   -1    0    0    0  501 -0.00000000000E+00 -0.00000000000E+00 -0.70239698638E+03  0.70239698638E+03  0.00000000000E+00 0.  1.
         36    2    1    2    0    0  0.14210854715E-13  0.35527136788E-13 -0.34656064565E+03  0.10582333271E+04  0.99987673915E+03 0.  0.
         25    2    3    3    0    0 -0.67768440651E+02 -0.10694681931E+02  0.60340587187E+02  0.15712898605E+03  0.12783424434E+03 0.  0.
         35    2    3    3    0    0  0.67768440651E+02  0.10694681931E+02 -0.40690123284E+03  0.90110434106E+03  0.80107021067E+03 0.  0.
         22    1    5    5    0    0  0.12188570249E+03 -0.31192420827E+03  0.50588089264E+02  0.33869158678E+03  0.00000000000E+00 0. -1.
         22    1    5    5    0    0 -0.54117261835E+02  0.32261889020E+03 -0.45748932210E+03  0.56241275429E+03  0.00000000000E+00 0. -1.
          5    1    4    4  502    0 -0.78563998148E+02 -0.54332778594E+02  0.22662399924E+02  0.98285436383E+02  0.47000000000E+01 0.  1.
         -5    1    4    4    0  502  0.10795557497E+02  0.43638096663E+02  0.37678187263E+02  0.58843549667E+02  0.47000000000E+01 0.  1.
<mgrwt>
<rscale>  0 0.99987674E+03</rscale>
<asrwt>0</asrwt>
<pdfrwt beam="1">  1        1 0.54744053E-01 0.99987674E+03</pdfrwt>
<pdfrwt beam="2">  1       -1 0.10806107E+00 0.99987674E+03</pdfrwt>
<totfact> 0.67045161E+01</totfact>
</mgrwt>
</event>
<event>
 9    1  0.4388925E-036  0.1000444E+04  0.7818608E-02  0.8680616E-01
          2   -1    0    0  501    0  0.00000000000E+00  0.00000000000E+00  0.11092589976E+04  0.11092589976E+04  0.00000000000E+00 0.  1.
         -2   -1    0    0    0  501 -0.00000000000E+00 -0.00000000000E+00 -0.22557568238E+03  0.22557568238E+03  0.00000000000E+00 0.  1.
         36    2    1    2    0    0  0.28421709430E-13  0.28421709430E-13  0.88368331526E+03  0.13348346800E+04  0.10004436123E+04 0.  0.
         25    2    3    3    0    0 -0.13156862245E+03 -0.46290887280E+02  0.16280302986E+03  0.24832016411E+03  0.12531930702E+03 0.  0.
         35    2    3    3    0    0  0.13156862245E+03  0.46290887280E+02  0.72088028541E+03  0.10865145159E+04  0.80086968899E+03 0.  0.
         22    1    5    5    0    0  0.24596188902E+03 -0.23404958251E+03  0.70596435845E+03  0.78336590003E+03  0.00000000000E+00 0. -1.
         22    1    5    5    0    0 -0.11439326656E+03  0.28034046979E+03  0.14915926953E+02  0.30314861589E+03  0.00000000000E+00 0. -1.
          5    1    4    4  502    0 -0.12066710302E+02 -0.63233722435E+02  0.39298894014E+02  0.75568526658E+02  0.47000000000E+01 0. -1.
         -5    1    4    4    0  502 -0.11950191215E+03  0.16942835156E+02  0.12350413584E+03  0.17275163745E+03  0.47000000000E+01 0. -1.
<mgrwt>
<rscale>  0 0.10004436E+04</rscale>
<asrwt>0</asrwt>
<pdfrwt beam="1">  1        2 0.17065523E+00 0.10004436E+04</pdfrwt>
<pdfrwt beam="2">  1       -2 0.34703952E-01 0.10004436E+04</pdfrwt>
<totfact> 0.20200750E+02</totfact>
</mgrwt>
</event>
<event>
 9    1  0.4388925E-036  0.9995950E+03  0.7818608E-02  0.8681424E-01
         -1   -1    0    0    0  501 -0.00000000000E+00  0.00000000000E+00  0.11402878462E+03  0.11402878462E+03  0.00000000000E+00 0. -1.
          1   -1    0    0  501    0  0.00000000000E+00 -0.00000000000E+00 -0.21906532229E+04  0.21906532229E+04  0.00000000000E+00 0. -1.
         36    2    1    2    0    0 -0.35527136788E-14  0.14210854715E-13 -0.20766244382E+04  0.23046820075E+04  0.99959496702E+03 0.  0.
         25    2    3    3    0    0  0.28356922308E+02 -0.92275500722E+02 -0.62206386485E+03  0.64190039290E+03  0.12551406048E+03 0.  0.
         35    2    3    3    0    0 -0.28356922308E+02  0.92275500722E+02 -0.14545605734E+04  0.16627816146E+04  0.79986083354E+03 0.  0.
         22    1    5    5    0    0  0.16942969318E+03 -0.15124033816E+02 -0.14257715974E+04  0.14358829358E+04  0.00000000000E+00 0. -1.
         22    1    5    5    0    0 -0.19778661549E+03  0.10739953454E+03 -0.28788975965E+02  0.22689867876E+03  0.00000000000E+00 0. -1.
          5    1    4    4  502    0  0.39890896759E+02  0.96613259656E+01 -0.78363207375E+02  0.88586156558E+02  0.47000000000E+01 0. -1.
         -5    1    4    4    0  502 -0.11533974451E+02 -0.10193682669E+03 -0.54370065748E+03  0.55331423634E+03  0.47000000000E+01 0. -1.
<mgrwt>
<rscale>  0 0.99959497E+03</rscale>
<asrwt>0</asrwt>
<pdfrwt beam="1">  1        1 0.33702355E+00 0.99959497E+03</pdfrwt>
<pdfrwt beam="2">  1       -1 0.17542891E-01 0.99959497E+03</pdfrwt>
<totfact> 0.58070518E+01</totfact>
</mgrwt>
</event>
<event>
 9    1  0.4388925E-036  0.9997559E+03  0.7818608E-02  0.8681270E-01
          2   -1    0    0  501    0  0.00000000000E+00  0.00000000000E+00  0.78164944399E+03  0.78164944399E+03  0.00000000000E+00 0. -1.
         -2   -1    0    0    0  501 -0.00000000000E+00 -0.00000000000E+00 -0.31968032672E+03  0.31968032672E+03  0.00000000000E+00 0. -1.
         36    2    1    2    0    0  0.14210854715E-13 -0.56843418861E-13  0.46196911727E+03  0.11013297707E+04  0.99975586948E+03 0.  0.
         25    2    3    3    0    0  0.83983101010E+02 -0.77672927892E+02  0.17534565170E+03  0.24354952541E+03  0.12443483746E+03 0.  0.
         35    2    3    3    0    0 -0.83983101010E+02  0.77672927892E+02  0.28662346558E+03  0.85778024531E+03  0.80034223507E+03 0.  0.
         22    1    5    5    0    0  0.10596077764E+03  0.36077886732E+03  0.34687258589E+03  0.51157567215E+03  0.00000000000E+00 0. -1.
         22    1    5    5    0    0 -0.18994387865E+03 -0.28310593942E+03 -0.60249120312E+02  0.34620457315E+03  0.00000000000E+00 0. -1.
          5    1    4    4  502    0  0.17219561279E+02 -0.34641643849E+02  0.15717308513E+03  0.16193216316E+03  0.47000000000E+01 0.  1.
         -5    1    4    4    0  502  0.66763539731E+02 -0.43031284043E+02  0.18172566571E+02  0.81617362244E+02  0.47000000000E+01 0.  1.
<mgrwt>
<rscale>  0 0.99975587E+03</rscale>
<asrwt>0</asrwt>
<pdfrwt beam="1">  1        2 0.12025376E+00 0.99975587E+03</pdfrwt>
<pdfrwt beam="2">  1       -2 0.49181589E-01 0.99975587E+03</pdfrwt>
<totfact> 0.16827642E+02</totfact>
</mgrwt>
</event>
<event>
 9    1  0.4388925E-036  0.1000612E+04  0.7818608E-02  0.8680455E-01
          1   -1    0    0  501    0  0.00000000000E+00  0.00000000000E+00  0.11241384540E+04  0.11241384540E+04  0.00000000000E+00 0.  1.
         -1   -1    0    0    0  501 -0.00000000000E+00 -0.00000000000E+00 -0.22266482195E+03  0.22266482195E+03  0.00000000000E+00 0.  1.
         36    2    1    2    0    0  0.00000000000E+00  0.00000000000E+00  0.90147363201E+03  0.13468032759E+04  0.10006119901E+04 0.  0.
         25    2    3    3    0    0 -0.57070821957E+02  0.12091497969E+03  0.11259888750E+03  0.21501974630E+03  0.12520970730E+03 0.  0.
         35    2    3    3    0    0  0.57070821957E+02 -0.12091497969E+03  0.78887474452E+03  0.11317835296E+04  0.80045804658E+03 0.  0.
         22    1    5    5    0    0  0.85447890290E+01  0.76574763766E+02 -0.15134100867E+03  0.16982581891E+03  0.00000000000E+00 0. -1.
         22    1    5    5    0    0  0.48526032928E+02 -0.19748974346E+03  0.94021575318E+03  0.96195771070E+03  0.00000000000E+00 0. -1.
          5    1    4    4  502    0 -0.92618004839E+02  0.11135777797E+03  0.98971939779E+02  0.17548841671E+03  0.47000000000E+01 0. -1.
         -5    1    4    4    0  502  0.35547182882E+02  0.95572017179E+01  0.13626947716E+02  0.39531329595E+02  0.47000000000E+01 0. -1.
<mgrwt>
<rscale>  0 0.10006120E+04</rscale>
<asrwt>0</asrwt>
<pdfrwt beam="1">  1        1 0.17294437E+00 0.10006120E+04</pdfrwt>
<pdfrwt beam="2">  1       -1 0.34256127E-01 0.10006120E+04</pdfrwt>
<totfact> 0.10872283E+02</totfact>
</mgrwt>
</event>
<event>
 9    1  0.4388925E-036  0.1000345E+04  0.7818608E-02  0.8680709E-01
         -2   -1    0    0    0  501 -0.00000000000E+00  0.00000000000E+00  0.15280688018E+03  0.15280688018E+03  0.00000000000E+00 0. -1.
          2   -1    0    0  501    0  0.00000000000E+00 -0.00000000000E+00 -0.16371823263E+04  0.16371823263E+04  0.00000000000E+00 0. -1.
         36    2    1    2    0    0  0.14210854715E-13  0.00000000000E+00 -0.14843754461E+04  0.17899892065E+04  0.10003453875E+04 0.  0.
         25    2    3    3    0    0 -0.87941804145E+02 -0.10877108151E+03 -0.32270319044E+03  0.37324025238E+03  0.12492408809E+03 0.  0.
         35    2    3    3    0    0  0.87941804145E+02  0.10877108151E+03 -0.11616722557E+04  0.14167489541E+04  0.79883055791E+03 0.  0.
         22    1    5    5    0    0 -0.46292517014E+02 -0.54200620913E+01  0.11702452124E+03  0.12596472830E+03  0.00000000000E+00 0. -1.
         22    1    5    5    0    0  0.13423432116E+03  0.11419114360E+03 -0.12786967769E+04  0.12907842258E+04  0.00000000000E+00 0. -1.
          5    1    4    4  502    0 -0.82525964499E+02 -0.55955387275E+02 -0.29841538461E+03  0.31466708114E+03  0.47000000000E+01 0. -1.
         -5    1    4    4    0  502 -0.54158396465E+01 -0.52815694237E+02 -0.24287805834E+02  0.58573171240E+02  0.47000000000E+01 0. -1.
<mgrwt>
<rscale>  0 0.10003454E+04</rscale>
<asrwt>0</asrwt>
<pdfrwt beam="1">  1        2 0.25187421E+00 0.10003454E+04</pdfrwt>
<pdfrwt beam="2">  1       -2 0.23508750E-01 0.10003454E+04</pdfrwt>
<totfact> 0.20272297E+02</totfact>
</mgrwt>
</event>
<event>
 9    1  0.4388925E-036  0.1004257E+04  0.7818608E-02  0.8676994E-01
         -2   -1    0    0    0  501 -0.00000000000E+00  0.00000000000E+00  0.31136385350E+03  0.31136385350E+03  0.00000000000E+00 0. -1.
          2   -1    0    0  501    0  0.00000000000E+00 -0.00000000000E+00 -0.80977000061E+03  0.80977000061E+03  0.00000000000E+00 0. -1.
         36    2    1    2    0    0  0.28421709430E-13  0.42632564146E-13 -0.49840614711E+03  0.11211338541E+04  0.10042571540E+04 0.  0.
         25    2    3    3    0    0  0.76688496597E+02 -0.11228060421E+03 -0.66541735432E+02  0.19575168501E+03  0.12410825935E+03 0.  0.
         35    2    3    3    0    0 -0.76688496597E+02  0.11228060421E+03 -0.43186441168E+03  0.92538216910E+03  0.80705466309E+03 0.  0.
         22    1    5    5    0    0  0.22935974870E+03  0.35669801521E+03 -0.18704312017E+03  0.46349163658E+03  0.00000000000E+00 0.  1.
         22    1    5    5    0    0 -0.30604824530E+03 -0.24441741100E+03 -0.24482129151E+03  0.46189053251E+03  0.00000000000E+00 0.  1.
          5    1    4    4  502    0  0.17763074611E+02 -0.27370530370E+02  0.36878575916E+02  0.49465059527E+02  0.47000000000E+01 0. -1.
         -5    1    4    4    0  502  0.58925421986E+02 -0.84910073840E+02 -0.10342031135E+03  0.14628662548E+03  0.47000000000E+01 0. -1.
<mgrwt>
<rscale>  0 0.10042572E+04</rscale>
<asrwt>0</asrwt>
<pdfrwt beam="1">  1        2 0.12458000E+00 0.10042572E+04</pdfrwt>
<pdfrwt beam="2">  1       -2 0.47902132E-01 0.10042572E+04</pdfrwt>
<totfact> 0.16941904E+02</totfact>
</mgrwt>
</event>
<event>
 9    1  0.4388925E-036  0.9999609E+03  0.7818608E-02  0.8681075E-01
         -1   -1    0    0    0  501 -0.00000000000E+00  0.00000000000E+00  0.10438941532E+03  0.10438941532E+03  0.00000000000E+00 0.  1.
          1   -1    0    0  501    0  0.00000000000E+00 -0.00000000000E+00 -0.23946913405E+04  0.23946913405E+04  0.00000000000E+00 0.  1.
         36    2    1    2    0    0  0.14210854715E-13  0.14210854715E-13 -0.22903019252E+04  0.24990807559E+04  0.99996085707E+03 0.  0.
         25    2    3    3    0    0  0.79782499271E+02 -0.11328132568E+03 -0.49613082480E+03  0.52975339611E+03  0.12367279183E+03 0.  0.
         35    2    3    3    0    0 -0.79782499271E+02  0.11328132568E+03 -0.17941711004E+04  0.19693273598E+04  0.80000150398E+03 0.  0.
         22    1    5    5    0    0 -0.18416913613E+03  0.95231447314E+02 -0.18416175048E+04  0.18532518268E+04  0.00000000000E+00 0.  1.
         22    1    5    5    0    0  0.10438663686E+03  0.18049878362E+02  0.47446404433E+02  0.11607553298E+03  0.00000000000E+00 0.  1.
          5    1    4    4  502    0  0.71748146275E+02 -0.13979498993E+03 -0.40731116385E+03  0.43659467461E+03  0.47000000000E+01 0. -1.
         -5    1    4    4    0  502  0.80343529954E+01  0.26513664251E+02 -0.88819660953E+02  0.93158721502E+02  0.47000000000E+01 0. -1.
<mgrwt>
<rscale>  0 0.99996086E+03</rscale>
<asrwt>0</asrwt>
<pdfrwt beam="1">  1        1 0.36841405E+00 0.99996086E+03</pdfrwt>
<pdfrwt beam="2">  1       -1 0.16059910E-01 0.99996086E+03</pdfrwt>
<totfact> 0.48201269E+01</totfact>
</mgrwt>
</event>
<event>
 9    1  0.4388925E-036  0.1000523E+04  0.7818608E-02  0.8680540E-01
         -1   -1    0    0    0  501 -0.00000000000E+00  0.00000000000E+00  0.38177344177E+03  0.38177344177E+03  0.00000000000E+00 0. -1.
          1   -1    0    0  501    0  0.00000000000E+00 -0.00000000000E+00 -0.65552341307E+03  0.65552341307E+03  0.00000000000E+00 0. -1.
         36    2    1    2    0    0 -0.28421709430E-13 -0.28421709430E-13 -0.27374997131E+03  0.10372968548E+04  0.10005227225E+04 0.  0.
         25    2    3    3    0    0 -0.66462552782E+02 -0.11636556356E+03 -0.99548663919E+02  0.20792214600E+03  0.12394945343E+03 0.  0.
         35    2    3    3    0    0  0.66462552782E+02  0.11636556356E+03 -0.17420130739E+03  0.82937470883E+03  0.79972376284E+03 0.  0.
         22    1    5    5    0    0  0.37573672496E+03  0.44420781903E+01 -0.29630904296E+03  0.47853617155E+03  0.00000000000E+00 0.  1.
         22    1    5    5    0    0 -0.30927417218E+03  0.11192348537E+03  0.12210773557E+03  0.35083853728E+03  0.00000000000E+00 0.  1.
          5    1    4    4  502    0 -0.80836455467E+02 -0.10884691764E+03 -0.33484785313E+02  0.13973369265E+03  0.47000000000E+01 0.  1.
         -5    1    4    4    0  502  0.14373902686E+02 -0.75186459142E+01 -0.66063878606E+02  0.68188453357E+02  0.47000000000E+01 0.  1.
<mgrwt>
<rscale>  0 0.10005227E+04</rscale>
<asrwt>0</asrwt>
<pdfrwt beam="1">  1        1 0.10084975E+00 0.10005227E+04</pdfrwt>
<pdfrwt beam="2">  1       -1 0.58734377E-01 0.10005227E+04</pdfrwt>
<totfact> 0.10211397E+02</totfact>
</mgrwt>
</event>
<event>
 9    1  0.4388925E-036  0.1000806E+04  0.7818608E-02  0.8680271E-01
          1   -1    0    0  501    0  0.00000000000E+00  0.00000000000E+00  0.23203836926E+04  0.23203836926E+04  0.00000000000E+00 0.  1.
         -1   -1    0    0    0  501 -0.00000000000E+00 -0.00000000000E+00 -0.10791451429E+03  0.10791451429E+03  0.00000000000E+00 0.  1.
         36    2    1    2    0    0  0.00000000000E+00 -0.28421709430E-13  0.22124691783E+04  0.24282982069E+04  0.10008058336E+04 0.  0.
         25    2    3    3    0    0  0.14937409854E+01 -0.67368402802E+02  0.11529305819E+03  0.18299622795E+03  0.12511753362E+03 0.  0.
         35    2    3    3    0    0 -0.14937409854E+01  0.67368402802E+02  0.20971761201E+04  0.22453019789E+04  0.79918243527E+03 0.  0.
         22    1    5    5    0    0  0.10441055312E+03 -0.21674713191E+03  0.18157321729E+04  0.18316015414E+04  0.00000000000E+00 0. -1.
         22    1    5    5    0    0 -0.10590429410E+03  0.28411553471E+03  0.28144394719E+03  0.41370043750E+03  0.00000000000E+00 0. -1.
          5    1    4    4  502    0 -0.34089929998E+02 -0.40425818545E+02  0.12611197204E+03  0.13683087964E+03  0.47000000000E+01 0. -1.
         -5    1    4    4    0  502  0.35583670984E+02 -0.26942584257E+02 -0.10818913852E+02  0.46165348305E+02  0.47000000000E+01 0. -1.
<mgrwt>
<rscale>  0 0.10008058E+04</rscale>
<asrwt>0</asrwt>
<pdfrwt beam="1">  1        1 0.35698207E+00 0.10008058E+04</pdfrwt>
<pdfrwt beam="2">  1       -1 0.16602235E-01 0.10008058E+04</pdfrwt>
<totfact> 0.51501939E+01</totfact>
</mgrwt>
</event>
<event>
 9    1  0.4388925E-036  0.1001616E+04  0.7818608E-02  0.8679501E-01
          2   -1    0    0  501    0  0.00000000000E+00  0.00000000000E+00  0.21932824826E+04  0.21932824826E+04  0.00000000000E+00 0.  1.
         -2   -1    0    0    0  501 -0.00000000000E+00 -0.00000000000E+00 -0.11435303600E+03  0.11435303600E+03  0.00000000000E+00 0.  1.
         36    2    1    2    0    0 -0.42632564146E-13  0.00000000000E+00  0.20789294466E+04  0.23076355186E+04  0.10016157161E+04 0.  0.
         25    2    3    3    0    0 -0.21832984741E+01  0.14105418757E+03  0.36047581418E+03  0.40688061675E+03  0.12533145276E+03 0.  0.
         35    2    3    3    0    0  0.21832984741E+01 -0.14105418757E+03  0.17184536325E+04  0.19007549019E+04  0.79992828401E+03 0.  0.
         22    1    5    5    0    0  0.37809304357E+03 -0.12616108243E+03  0.59655366869E+03  0.71745888241E+03  0.00000000000E+00 0. -1.
         22    1    5    5    0    0 -0.37590974510E+03 -0.14893105142E+02  0.11218999638E+04  0.11832960195E+04  0.00000000000E+00 0. -1.
          5    1    4    4  502    0 -0.52643629958E+02  0.21276997346E+02  0.13595944504E+03  0.14741479941E+03  0.47000000000E+01 0.  1.
         -5    1    4    4    0  502  0.50460331484E+02  0.11977719022E+03  0.22451636914E+03  0.25946581733E+03  0.47000000000E+01 0.  1.
<mgrwt>
<rscale>  0 0.10016157E+04</rscale>
<asrwt>0</asrwt>
<pdfrwt beam="1">  1        2 0.33742804E+00 0.10016157E+04</pdfrwt>
<pdfrwt beam="2">  1       -2 0.17592776E-01 0.10016157E+04</pdfrwt>
<totfact> 0.16177338E+02</totfact>
</mgrwt>
</event>
<event>
 9    1  0.4388925E-036  0.9993534E+03  0.7818608E-02  0.8681654E-01
         -2   -1    0    0    0  501 -0.00000000000E+00  0.00000000000E+00  0.31773792613E+03  0.31773792613E+03  0.00000000000E+00 0.  1.
          2   -1    0    0  501    0  0.00000000000E+00 -0.00000000000E+00 -0.78579484410E+03  0.78579484410E+03  0.00000000000E+00 0.  1.
         36    2    1    2    0    0  0.00000000000E+00  0.14210854715E-13 -0.46805691797E+03  0.11035327702E+04  0.99935343923E+03 0.  0.
         25    2    3    3    0    0  0.93855959800E+02 -0.72753050018E+02 -0.16884787150E+03  0.24119274476E+03  0.12474930437E+03 0.  0.
         35    2    3    3    0    0 -0.93855959800E+02  0.72753050018E+02 -0.29920904648E+03  0.86234002546E+03  0.80000144909E+03 0.  0.
         22    1    5    5    0    0  0.99723586011E+02  0.40433922326E+03 -0.93785961447E+02  0.42688500517E+03  0.00000000000E+00 0.  1.
         22    1    5    5    0    0 -0.19357954581E+03 -0.33158617324E+03 -0.20542308503E+03  0.43545502030E+03  0.00000000000E+00 0.  1.
          5    1    4    4  502    0  0.87312267583E+02 -0.42563397208E+02 -0.18273415965E+03  0.20699985013E+03  0.47000000000E+01 0. -1.
         -5    1    4    4    0  502  0.65436922171E+01 -0.30189652809E+02  0.13886288152E+02  0.34192894631E+02  0.47000000000E+01 0. -1.
<mgrwt>
<rscale>  0 0.99935344E+03</rscale>
<asrwt>0</asrwt>
<pdfrwt beam="1">  1        2 0.12089151E+00 0.99935344E+03</pdfrwt>
<pdfrwt beam="2">  1       -2 0.48882758E-01 0.99935344E+03</pdfrwt>
<totfact> 0.16918386E+02</totfact>
</mgrwt>
</event>
<event>
 9    1  0.4388925E-036  0.9985749E+03  0.7818608E-02  0.8682396E-01
         -1   -1    0    0    0  501 -0.00000000000E+00  0.00000000000E+00  0.16177117502E+03  0.16177117502E+03  0.00000000000E+00 0. -1.
          1   -1    0    0  501    0  0.00000000000E+00 -0.00000000000E+00 -0.15409913528E+04  0.15409913528E+04  0.00000000000E+00 0. -1.
         36    2    1    2    0    0  0.14210854715E-13  0.28421709430E-13 -0.13792201777E+04  0.17027625278E+04  0.99857494828E+03 0.  0.
         25    2    3    3    0    0  0.81576439520E+02  0.10295783617E+03 -0.18324241215E+03  0.25789839998E+03  0.12521490162E+03 0.  0.
         35    2    3    3    0    0 -0.81576439520E+02 -0.10295783617E+03 -0.11959777656E+04  0.14448641278E+04  0.80000906276E+03 0.  0.
         22    1    5    5    0    0  0.15264428503E+03 -0.34365423690E+03 -0.27874422832E+03  0.46807783233E+03  0.00000000000E+00 0.  1.
         22    1    5    5    0    0 -0.23422072455E+03  0.24069640073E+03 -0.91723353726E+03  0.97678629547E+03  0.00000000000E+00 0.  1.
          5    1    4    4  502    0  0.31390150524E+02  0.95503855905E+02 -0.18075519034E+03  0.20688367958E+03  0.47000000000E+01 0.  1.
         -5    1    4    4    0  502  0.50186288996E+02  0.74539802688E+01 -0.24872218103E+01  0.51014720399E+02  0.47000000000E+01 0.  1.
<mgrwt>
<rscale>  0 0.99857495E+03</rscale>
<asrwt>0</asrwt>
<pdfrwt beam="1">  1        1 0.23707559E+00 0.99857495E+03</pdfrwt>
<pdfrwt beam="2">  1       -1 0.24887873E-01 0.99857495E+03</pdfrwt>
<totfact> 0.93124415E+01</totfact>
</mgrwt>
</event>
<event>
 9    1  0.4388925E-036  0.1014733E+04  0.7818608E-02  0.8667133E-01
          1   -1    0    0  501    0  0.00000000000E+00  0.00000000000E+00  0.12916609811E+04  0.12916609811E+04  0.00000000000E+00 0. -1.
         -1   -1    0    0    0  501 -0.00000000000E+00 -0.00000000000E+00 -0.19929434906E+03  0.19929434906E+03  0.00000000000E+00 0. -1.
         36    2    1    2    0    0 -0.28421709430E-13  0.53290705182E-14  0.10923666320E+04  0.14909553302E+04  0.10147329391E+04 0.  0.
         25    2    3    3    0    0  0.15571375041E+03  0.15160784179E+02  0.20069842602E+03  0.28346255433E+03  0.12487810078E+03 0.  0.
         35    2    3    3    0    0 -0.15571375041E+03 -0.15160784179E+02  0.89166820601E+03  0.12074927758E+04  0.79905568806E+03 0.  0.
         22    1    5    5    0    0 -0.46534985797E+03 -0.12427422769E+03  0.59001446353E+03  0.76165060307E+03  0.00000000000E+00 0.  1.
         22    1    5    5    0    0  0.30963610756E+03  0.10911344351E+03  0.30165374249E+03  0.44584217276E+03  0.00000000000E+00 0.  1.
          5    1    4    4  502    0  0.46856040191E+02  0.24681994427E+02 -0.19268637330E+01  0.53202369826E+02  0.47000000000E+01 0.  1.
         -5    1    4    4    0  502  0.10885771022E+03 -0.95212102479E+01  0.20262528975E+03  0.23026018450E+03  0.47000000000E+01 0.  1.
<mgrwt>
<rscale>  0 0.10147329E+04</rscale>
<asrwt>0</asrwt>
<pdfrwt beam="1">  1        1 0.19871707E+00 0.10147329E+04</pdfrwt>
<pdfrwt beam="2">  1       -1 0.30660670E-01 0.10147329E+04</pdfrwt>
<totfact> 0.98635306E+01</totfact>
</mgrwt>
</event>
<event>
 9    1  0.4388925E-036  0.1000932E+04  0.7818608E-02  0.8680151E-01
          2   -1    0    0  501    0  0.00000000000E+00  0.00000000000E+00  0.55520591311E+03  0.55520591311E+03  0.00000000000E+00 0. -1.
         -2   -1    0    0    0  501 -0.00000000000E+00 -0.00000000000E+00 -0.45112309871E+03  0.45112309871E+03  0.00000000000E+00 0. -1.
         36    2    1    2    0    0  0.35527136788E-14 -0.14210854715E-13  0.10408281440E+03  0.10063290118E+04  0.10009319896E+04 0.  0.
         25    2    3    3    0    0 -0.19043248506E+02 -0.11638335561E+03 -0.67539151331E+02  0.18448097876E+03  0.12475561624E+03 0.  0.
         35    2    3    3    0    0  0.19043248506E+02  0.11638335561E+03  0.17162196573E+03  0.82184803306E+03  0.79502978531E+03 0.  0.
         22    1    5    5    0    0  0.14569367939E+03 -0.90048394371E+02 -0.26909015205E+03  0.31897471918E+03  0.00000000000E+00 0. -1.
         22    1    5    5    0    0 -0.12665043088E+03  0.20643174998E+03  0.44071211779E+03  0.50287331388E+03  0.00000000000E+00 0. -1.
          5    1    4    4  502    0  0.98433066429E+01 -0.13516457905E+03 -0.62605824358E+02  0.14935840572E+03  0.47000000000E+01 0. -1.
         -5    1    4    4    0  502 -0.28886555149E+02  0.18781223433E+02 -0.49333269733E+01  0.35122573042E+02  0.47000000000E+01 0. -1.
<mgrwt>
<rscale>  0 0.10009320E+04</rscale>
<asrwt>0</asrwt>
<pdfrwt beam="1">  1        2 0.85416294E-01 0.10009320E+04</pdfrwt>
<pdfrwt beam="2">  1       -2 0.69403554E-01 0.10009320E+04</pdfrwt>
<totfact> 0.12471823E+02</totfact>
</mgrwt>
</event>
<event>
 9    1  0.4388925E-036  0.9997197E+03  0.7818608E-02  0.8681305E-01
          2   -1    0    0  501    0  0.00000000000E+00  0.00000000000E+00  0.74141831900E+03  0.74141831900E+03  0.00000000000E+00 0.  1.
         -2   -1    0    0    0  501 -0.00000000000E+00 -0.00000000000E+00 -0.33700253936E+03  0.33700253936E+03  0.00000000000E+00 0.  1.
         36    2    1    2    0    0 -0.14210854715E-13  0.23092638912E-13  0.40441577964E+03  0.10784208584E+04  0.99971967316E+03 0.  0.
         25    2    3    3    0    0  0.29967284439E+01 -0.14729283311E+02 -0.75660682165E+02  0.14605684879E+03  0.12402472369E+03 0.  0.
         35    2    3    3    0    0 -0.29967284439E+01  0.14729283311E+02  0.48007646180E+03  0.93236400956E+03  0.79912658883E+03 0.  0.
         22    1    5    5    0    0 -0.21068481039E+03  0.30733822236E+03  0.55923431985E+02  0.37679212106E+03  0.00000000000E+00 0.  1.
         22    1    5    5    0    0  0.20768808194E+03 -0.29260893904E+03  0.42415302982E+03  0.55557188850E+03  0.00000000000E+00 0.  1.
          5    1    4    4  502    0 -0.53499721526E+02 -0.29523366899E+02 -0.18052308671E+02  0.63889163751E+02  0.47000000000E+01 0.  1.
         -5    1    4    4    0  502  0.56496449970E+02  0.14794083588E+02 -0.57608373494E+02  0.82167685041E+02  0.47000000000E+01 0.  1.
<mgrwt>
<rscale>  0 0.99971967E+03</rscale>
<asrwt>0</asrwt>
<pdfrwt beam="1">  1        2 0.11406436E+00 0.99971967E+03</pdfrwt>
<pdfrwt beam="2">  1       -2 0.51846545E-01 0.99971967E+03</pdfrwt>
<totfact> 0.16185355E+02</totfact>
</mgrwt>
</event>
<event>
 9    1  0.4388925E-036  0.9992111E+03  0.7818608E-02  0.8681790E-01
         -2   -1    0    0    0  501 -0.00000000000E+00  0.00000000000E+00  0.87445710766E+02  0.87445710766E+02  0.00000000000E+00 0. -1.
          2   -1    0    0  501    0  0.00000000000E+00 -0.00000000000E+00 -0.28544074431E+04  0.28544074431E+04  0.00000000000E+00 0. -1.
         36    2    1    2    0    0  0.71054273576E-14 -0.71054273576E-14 -0.27669617324E+04  0.29418531539E+04  0.99921106415E+03 0.  0.
         25    2    3    3    0    0 -0.36825747509E+01  0.42546398266E+02 -0.91147133245E+03  0.92098548409E+03  0.12494204524E+03 0.  0.
         35    2    3    3    0    0  0.36825747509E+01 -0.42546398266E+02 -0.18554903999E+04  0.20208676698E+04  0.79952345640E+03 0.  0.
         22    1    5    5    0    0 -0.34784788205E+03  0.55284764805E+02 -0.13639601307E+04  0.14087021660E+04  0.00000000000E+00 0.  1.
         22    1    5    5    0    0  0.35153045680E+03 -0.97831163071E+02 -0.49153026919E+03  0.61216550381E+03  0.00000000000E+00 0.  1.
          5    1    4    4  502    0  0.30294974835E+02 -0.15837569800E+02 -0.64911193047E+03  0.65002846276E+03  0.47000000000E+01 0. -1.
         -5    1    4    4    0  502 -0.33977549586E+02  0.58383968066E+02 -0.26235940198E+03  0.27095702133E+03  0.47000000000E+01 0. -1.
<mgrwt>
<rscale>  0 0.99921106E+03</rscale>
<asrwt>0</asrwt>
<pdfrwt beam="1">  1        2 0.43913963E+00 0.99921106E+03</pdfrwt>
<pdfrwt beam="2">  1       -2 0.13453185E-01 0.99921106E+03</pdfrwt>
<totfact> 0.10004661E+02</totfact>
</mgrwt>
</event>
<event>
 9    1  0.4388925E-036  0.1000375E+04  0.7818608E-02  0.8680681E-01
          2   -1    0    0  501    0  0.00000000000E+00  0.00000000000E+00  0.75598508918E+03  0.75598508918E+03  0.00000000000E+00 0.  1.
         -2   -1    0    0    0  501 -0.00000000000E+00 -0.00000000000E+00 -0.33094266814E+03  0.33094266814E+03  0.00000000000E+00 0.  1.
         36    2    1    2    0    0  0.00000000000E+00 -0.28421709430E-13  0.42504242105E+03  0.10869277573E+04  0.10003753745E+04 0.  0.
         25    2    3    3    0    0 -0.20985984015E+02  0.13421898384E+03  0.40958908914E+02  0.18960020902E+03  0.12575953202E+03 0.  0.
         35    2    3    3    0    0  0.20985984015E+02 -0.13421898384E+03  0.38408351213E+03  0.89732754830E+03  0.79951325035E+03 0.  0.
         22    1    5    5    0    0  0.31513380120E+02  0.15842814087E+03 -0.19210662966E+03  0.25099307980E+03  0.00000000000E+00 0. -1.
         22    1    5    5    0    0 -0.10527396105E+02 -0.29264712471E+03  0.57619014179E+03  0.64633446850E+03  0.00000000000E+00 0. -1.
          5    1    4    4  502    0 -0.39508633007E+02  0.83134025909E+01 -0.23413382732E+02  0.46907581857E+02  0.47000000000E+01 0. -1.
         -5    1    4    4    0  502  0.18522648992E+02  0.12590558125E+03  0.64372291647E+02  0.14269262716E+03  0.47000000000E+01 0. -1.
<mgrwt>
<rscale>  0 0.10003754E+04</rscale>
<asrwt>0</asrwt>
<pdfrwt beam="1">  1        2 0.11630540E+00 0.10003754E+04</pdfrwt>
<pdfrwt beam="2">  1       -2 0.50914257E-01 0.10003754E+04</pdfrwt>
<totfact> 0.16381443E+02</totfact>
</mgrwt>
</event>
<event>
 9    1  0.4388925E-036  0.9978630E+03  0.7818608E-02  0.8683076E-01
          1   -1    0    0  501    0  0.00000000000E+00  0.00000000000E+00  0.42358036423E+03  0.42358036423E+03  0.00000000000E+00 0. -1.
         -1   -1    0    0    0  501 -0.00000000000E+00 -0.00000000000E+00 -0.58768690394E+03  0.58768690394E+03  0.00000000000E+00 0. -1.
         36    2    1    2    0    0  0.00000000000E+00 -0.39079850467E-13 -0.16410653970E+03  0.10112672682E+04  0.99786298222E+03 0.  0.
         25    2    3    3    0    0 -0.68758178570E+02  0.17511838203E+02  0.89923284587E+02  0.17010488930E+03  0.12575819915E+03 0.  0.
         35    2    3    3    0    0  0.68758178570E+02 -0.17511838203E+02 -0.25402982429E+03  0.84116237887E+03  0.79874191351E+03 0.  0.
         22    1    5    5    0    0 -0.15058038809E+03  0.30724754885E+03 -0.28877485164E+03  0.44773477025E+03  0.00000000000E+00 0. -1.
         22    1    5    5    0    0  0.21933856666E+03 -0.32475938705E+03  0.34745027348E+02  0.39342760862E+03  0.00000000000E+00 0. -1.
          5    1    4    4  502    0 -0.10457244457E+02 -0.30128875457E+02 -0.19143017990E+02  0.37491975617E+02  0.47000000000E+01 0.  1.
         -5    1    4    4    0  502 -0.58300934113E+02  0.47640713660E+02  0.10906630258E+03  0.13261291368E+03  0.47000000000E+01 0.  1.
<mgrwt>
<rscale>  0 0.99786298E+03</rscale>
<asrwt>0</asrwt>
<pdfrwt beam="1">  1        1 0.65166210E-01 0.99786298E+03</pdfrwt>
<pdfrwt beam="2">  1       -1 0.90413370E-01 0.99786298E+03</pdfrwt>
<totfact> 0.79121130E+01</totfact>
</mgrwt>
</event>
<event>
 9    1  0.4388925E-036  0.1001567E+04  0.7818608E-02  0.8679548E-01
          2   -1    0    0  501    0  0.00000000000E+00  0.00000000000E+00  0.30045642112E+03  0.30045642112E+03  0.00000000000E+00 0. -1.
         -2   -1    0    0    0  501 -0.00000000000E+00 -0.00000000000E+00 -0.83467651419E+03  0.83467651419E+03  0.00000000000E+00 0. -1.
         36    2    1    2    0    0  0.00000000000E+00 -0.14210854715E-13 -0.53422009307E+03  0.11351329353E+04  0.10015666094E+04 0.  0.
         25    2    3    3    0    0 -0.86758559841E+02  0.30138463135E+02 -0.22199511705E+03  0.27132461268E+03  0.12609456288E+03 0.  0.
         35    2    3    3    0    0  0.86758559841E+02 -0.30138463135E+02 -0.31222497602E+03  0.86380832262E+03  0.80015311529E+03 0.  0.
         22    1    5    5    0    0 -0.19963565119E+03  0.29585608387E+03 -0.60054544524E+02  0.36192784351E+03  0.00000000000E+00 0. -1.
         22    1    5    5    0    0  0.28639421103E+03 -0.32599454701E+03 -0.25217043150E+03  0.50188047911E+03  0.00000000000E+00 0. -1.
          5    1    4    4  502    0  0.62984711197E+01 -0.26895028913E+00 -0.14877556642E+03  0.14898322804E+03  0.47000000000E+01 0. -1.
         -5    1    4    4    0  502 -0.93057030960E+02  0.30407413424E+02 -0.73219550623E+02  0.12234138464E+03  0.47000000000E+01 0. -1.
<mgrwt>
<rscale>  0 0.10015666E+04</rscale>
<asrwt>0</asrwt>
<pdfrwt beam="1">  1        2 0.46224065E-01 0.10015666E+04</pdfrwt>
<pdfrwt beam="2">  1       -2 0.12841177E+00 0.10015666E+04</pdfrwt>
<totfact> 0.56786156E+01</totfact>
</mgrwt>
</event>
<event>
 9    1  0.4388925E-036  0.1000519E+04  0.7818608E-02  0.8680544E-01
          2   -1    0    0  501    0  0.00000000000E+00  0.00000000000E+00  0.64097074938E+03  0.64097074938E+03  0.00000000000E+00 0. -1.
         -2   -1    0    0    0  501 -0.00000000000E+00 -0.00000000000E+00 -0.39043852713E+03  0.39043852713E+03  0.00000000000E+00 0. -1.
         36    2    1    2    0    0  0.00000000000E+00 -0.28421709430E-13  0.25053222225E+03  0.10314092765E+04  0.10005192158E+04 0.  0.
         25    2    3    3    0    0  0.59274911973E+02 -0.12520979941E+03  0.23573779240E+02  0.18835521459E+03  0.12542310288E+03 0.  0.
         35    2    3    3    0    0 -0.59274911973E+02  0.12520979941E+03  0.22695844301E+03  0.84305406192E+03  0.80002437925E+03 0.  0.
         22    1    5    5    0    0 -0.11366340227E+03  0.29490815859E+03  0.45477876519E+03  0.55381758395E+03  0.00000000000E+00 0. -1.
         22    1    5    5    0    0  0.54388490298E+02 -0.16969835918E+03 -0.22782032219E+03  0.28923647797E+03  0.00000000000E+00 0. -1.
          5    1    4    4  502    0  0.13836801315E+02 -0.46171549277E+02  0.70640148966E+02  0.85646889490E+02  0.47000000000E+01 0. -1.
         -5    1    4    4    0  502  0.45438110658E+02 -0.79038250138E+02 -0.47066369726E+02  0.10270832510E+03  0.47000000000E+01 0. -1.
<mgrwt>
<rscale>  0 0.10005192E+04</rscale>
<asrwt>0</asrwt>
<pdfrwt beam="1">  1        2 0.98610885E-01 0.10005192E+04</pdfrwt>
<pdfrwt beam="2">  1       -2 0.60067466E-01 0.10005192E+04</pdfrwt>
<totfact> 0.14301882E+02</totfact>
</mgrwt>
</event>
<event>
 9    1  0.4388925E-036  0.9999004E+03  0.7818608E-02  0.8681133E-01
          2   -1    0    0  501    0  0.00000000000E+00  0.00000000000E+00  0.16071445654E+04  0.16071445654E+04  0.00000000000E+00 0.  1.
         -2   -1    0    0    0  501 -0.00000000000E+00 -0.00000000000E+00 -0.15552440003E+03  0.15552440003E+03  0.00000000000E+00 0.  1.
         36    2    1    2    0    0 -0.71054273576E-14  0.00000000000E+00  0.14516201653E+04  0.17626689654E+04  0.99990038362E+03 0.  0.
         25    2    3    3    0    0 -0.61120013828E+02  0.97291522848E+02  0.41000757387E+03  0.44366697569E+03  0.12463096798E+03 0.  0.
         35    2    3    3    0    0  0.61120013828E+02 -0.97291522848E+02  0.10416125915E+04  0.13190019897E+04  0.80100447042E+03 0.  0.
         22    1    5    5    0    0  0.24136878154E+02  0.31124035641E+03  0.75949819749E+03  0.82115203241E+03  0.00000000000E+00 0. -1.
         22    1    5    5    0    0  0.36983135674E+02 -0.40853187925E+03  0.28211439399E+03  0.49784995730E+03  0.00000000000E+00 0. -1.
          5    1    4    4  502    0 -0.19320796456E+02  0.11240243269E+03  0.21305401659E+03  0.24170582127E+03  0.47000000000E+01 0. -1.
         -5    1    4    4    0  502 -0.41799217372E+02 -0.15110909845E+02  0.19695355728E+03  0.20196115442E+03  0.47000000000E+01 0. -1.
<mgrwt>
<rscale>  0 0.99990038E+03</rscale>
<asrwt>0</asrwt>
<pdfrwt beam="1">  1        2 0.24725300E+00 0.99990038E+03</pdfrwt>
<pdfrwt beam="2">  1       -2 0.23926832E-01 0.99990038E+03</pdfrwt>
<totfact> 0.20433000E+02</totfact>
</mgrwt>
</event>
<event>
 9    1  0.4388925E-036  0.9999483E+03  0.7818608E-02  0.8681087E-01
          2   -1    0    0  501    0  0.00000000000E+00  0.00000000000E+00  0.11241872558E+04  0.11241872558E+04  0.00000000000E+00 0. -1.
         -2   -1    0    0    0  501 -0.00000000000E+00 -0.00000000000E+00 -0.22235989223E+03  0.22235989223E+03  0.00000000000E+00 0. -1.
         36    2    1    2    0    0 -0.14210854715E-13 -0.21316282073E-13  0.90182736352E+03  0.13465471480E+04  0.99994831273E+03 0.  0.
         25    2    3    3    0    0 -0.95460008072E+02 -0.44446766642E+02  0.29590766614E+03  0.33813385151E+03  0.12523987563E+03 0.  0.
         35    2    3    3    0    0  0.95460008072E+02  0.44446766642E+02  0.60591969738E+03  0.10084132965E+04  0.79916867345E+03 0.  0.
         22    1    5    5    0    0 -0.93499001222E+02 -0.21977487296E+03 -0.78016338146E+02  0.25125605870E+03  0.00000000000E+00 0.  1.
         22    1    5    5    0    0  0.18895900929E+03  0.26422163960E+03  0.68393603553E+03  0.75715723778E+03  0.00000000000E+00 0.  1.
          5    1    4    4  502    0 -0.34578306359E+02  0.43991380802E+02  0.10062441227E+03  0.11523134643E+03  0.47000000000E+01 0.  1.
         -5    1    4    4    0  502 -0.60881701713E+02 -0.88438147444E+02  0.19528325387E+03  0.22290250508E+03  0.47000000000E+01 0.  1.
<mgrwt>
<rscale>  0 0.99994831E+03</rscale>
<asrwt>0</asrwt>
<pdfrwt beam="1">  1        2 0.17295188E+00 0.99994831E+03</pdfrwt>
<pdfrwt beam="2">  1       -2 0.34209215E-01 0.99994831E+03</pdfrwt>
<totfact> 0.20322204E+02</totfact>
</mgrwt>
</event>
<event>
 9    1  0.4388925E-036  0.1000528E+04  0.7818608E-02  0.8680536E-01
         -1   -1    0    0    0  501 -0.00000000000E+00  0.00000000000E+00  0.17273659499E+03  0.17273659499E+03  0.00000000000E+00 0. -1.
          1   -1    0    0  501    0  0.00000000000E+00 -0.00000000000E+00 -0.14488176184E+04  0.14488176184E+04  0.00000000000E+00 0. -1.
         36    2    1    2    0    0  0.00000000000E+00 -0.71054273576E-14 -0.12760810234E+04  0.16215542134E+04  0.10005275052E+04 0.  0.
         25    2    3    3    0    0  0.96232761558E+02  0.19581306093E+02 -0.40720038074E+03  0.43728374018E+03  0.12554181536E+03 0.  0.
         35    2    3    3    0    0 -0.96232761558E+02 -0.19581306093E+02 -0.86888064269E+03  0.11842704732E+04  0.79868567695E+03 0.  0.
         22    1    5    5    0    0 -0.93356653143E+02 -0.20777684587E+02 -0.10243323260E+04  0.10287875830E+04  0.00000000000E+00 0.  1.
         22    1    5    5    0    0 -0.28761084151E+01  0.11963784944E+01  0.15545168329E+03  0.15548289024E+03  0.00000000000E+00 0.  1.
          5    1    4    4  502    0  0.76517071085E+02  0.70594346715E+02 -0.27888447105E+03  0.29771977118E+03  0.47000000000E+01 0.  1.
         -5    1    4    4    0  502  0.19715690473E+02 -0.51013040622E+02 -0.12831590969E+03  0.13956396900E+03  0.47000000000E+01 0.  1.
<mgrwt>
<rscale>  0 0.10005275E+04</rscale>
<asrwt>0</asrwt>
<pdfrwt beam="1">  1        1 0.22289501E+00 0.10005275E+04</pdfrwt>
<pdfrwt beam="2">  1       -1 0.26574862E-01 0.10005275E+04</pdfrwt>
<totfact> 0.96985276E+01</totfact>
</mgrwt>
</event>
<event>
 9    1  0.4388925E-036  0.1000377E+04  0.7818608E-02  0.8680679E-01
         -2   -1    0    0    0  501 -0.00000000000E+00  0.00000000000E+00  0.11499036049E+03  0.11499036049E+03  0.00000000000E+00 0. -1.
          2   -1    0    0  501    0  0.00000000000E+00 -0.00000000000E+00 -0.21757342338E+04  0.21757342338E+04  0.00000000000E+00 0. -1.
         36    2    1    2    0    0  0.00000000000E+00  0.28421709430E-13 -0.20607438733E+04  0.22907245943E+04  0.10003768568E+04 0.  0.
         25    2    3    3    0    0 -0.86237995234E+02 -0.46396934952E+02 -0.62055430285E+03  0.64072063481E+03  0.12587939342E+03 0.  0.
         35    2    3    3    0    0  0.86237995234E+02  0.46396934952E+02 -0.14401895705E+04  0.16500039595E+04  0.79923550977E+03 0.  0.
         22    1    5    5    0    0  0.39124811176E+03 -0.13509518364E+03 -0.52596677748E+03  0.66930325311E+03  0.00000000000E+00 0.  1.
         22    1    5    5    0    0 -0.30501011653E+03  0.18149211860E+03 -0.91422279301E+03  0.98070070641E+03  0.00000000000E+00 0.  1.
          5    1    4    4  502    0  0.12386593721E+02 -0.48124126810E+02 -0.33211792016E+03  0.33584782592E+03  0.47000000000E+01 0. -1.
         -5    1    4    4    0  502 -0.98624588955E+02  0.17271918575E+01 -0.28843638269E+03  0.30487280888E+03  0.47000000000E+01 0. -1.
<mgrwt>
<rscale>  0 0.10003769E+04</rscale>
<asrwt>0</asrwt>
<pdfrwt beam="1">  1        2 0.33472833E+00 0.10003769E+04</pdfrwt>
<pdfrwt beam="2">  1       -2 0.17690825E-01 0.10003769E+04</pdfrwt>
<totfact> 0.16405059E+02</totfact>
</mgrwt>
</event>
<event>
 9    1  0.4388925E-036  0.9998547E+03  0.7818608E-02  0.8681176E-01
         -1   -1    0    0    0  501 -0.00000000000E+00  0.00000000000E+00  0.26509726915E+03  0.26509726915E+03  0.00000000000E+00 0. -1.
          1   -1    0    0  501    0  0.00000000000E+00 -0.00000000000E+00 -0.94277602308E+03  0.94277602308E+03  0.00000000000E+00 0. -1.
         36    2    1    2    0    0  0.00000000000E+00  0.49737991503E-13 -0.67767875393E+03  0.12078732922E+04  0.99985468772E+03 0.  0.
         25    2    3    3    0    0  0.11609386299E+03  0.21329413943E+02 -0.34620535370E+02  0.17445742573E+03  0.12370967222E+03 0.  0.
         35    2    3    3    0    0 -0.11609386299E+03 -0.21329413943E+02 -0.64305821856E+03  0.10334158665E+04  0.80030728583E+03 0.  0.
         22    1    5    5    0    0 -0.20122527401E+03  0.36077224185E+03 -0.27628568808E+03  0.49697283913E+03  0.00000000000E+00 0.  1.
         22    1    5    5    0    0  0.85131411021E+02 -0.38210165580E+03 -0.36677253047E+03  0.53644302737E+03  0.00000000000E+00 0.  1.
          5    1    4    4  502    0  0.58394718440E+02 -0.89174460167E+00 -0.78890426736E+02  0.98267633434E+02  0.47000000000E+01 0.  1.
         -5    1    4    4    0  502  0.57699144548E+02  0.22221158544E+02  0.44269891366E+02  0.76189792297E+02  0.47000000000E+01 0.  1.
<mgrwt>
<rscale>  0 0.99985469E+03</rscale>
<asrwt>0</asrwt>
<pdfrwt beam="1">  1        1 0.14504246E+00 0.99985469E+03</pdfrwt>
<pdfrwt beam="2">  1       -1 0.40784196E-01 0.99985469E+03</pdfrwt>
<totfact> 0.11101801E+02</totfact>
</mgrwt>
</event>
<event>
 9    1  0.4388925E-036  0.1004239E+04  0.7818608E-02  0.8677012E-01
         -2   -1    0    0    0  501 -0.00000000000E+00  0.00000000000E+00  0.11444750606E+03  0.11444750606E+03  0.00000000000E+00 0.  1.
          2   -1    0    0  501    0  0.00000000000E+00 -0.00000000000E+00 -0.22029648049E+04  0.22029648049E+04  0.00000000000E+00 0.  1.
         36    2    1    2    0    0  0.14210854715E-13  0.00000000000E+00 -0.20885172988E+04  0.23174123109E+04  0.10042386725E+04 0.  0.
         25    2    3    3    0    0  0.80556648443E+01 -0.49539790295E+02 -0.71480273008E+03  0.72739271416E+03  0.12505252145E+03 0.  0.
         35    2    3    3    0    0 -0.80556648443E+01  0.49539790295E+02 -0.13737145687E+04  0.15900195968E+04  0.79909418544E+03 0.  0.
         22    1    5    5    0    0  0.20190132416E+03  0.34504731151E+03 -0.96026256646E+03  0.10401567134E+04  0.00000000000E+00 0. -1.
         22    1    5    5    0    0 -0.20995698901E+03 -0.29550752121E+03 -0.41345200225E+03  0.54986288336E+03  0.00000000000E+00 0. -1.
          5    1    4    4  502    0 -0.23066217782E+02  0.25352170502E+02 -0.42539514225E+03  0.42679960169E+03  0.47000000000E+01 0. -1.
         -5    1    4    4    0  502  0.31121882626E+02 -0.74891960797E+02 -0.28940758783E+03  0.30059311246E+03  0.47000000000E+01 0. -1.
<mgrwt>
<rscale>  0 0.10042387E+04</rscale>
<asrwt>0</asrwt>
<pdfrwt beam="1">  1        2 0.33891763E+00 0.10042387E+04</pdfrwt>
<pdfrwt beam="2">  1       -2 0.17607310E-01 0.10042387E+04</pdfrwt>
<totfact> 0.15946247E+02</totfact>
</mgrwt>
</event>
<event>
 9    1  0.4388925E-036  0.9980795E+03  0.7818608E-02  0.8682869E-01
         -1   -1    0    0    0  501 -0.00000000000E+00  0.00000000000E+00  0.28553347124E+03  0.28553347124E+03  0.00000000000E+00 0. -1.
          1   -1    0    0  501    0  0.00000000000E+00 -0.00000000000E+00 -0.87219440371E+03  0.87219440371E+03  0.00000000000E+00 0. -1.
         36    2    1    2    0    0 -0.14210854715E-13  0.71054273576E-14 -0.58666093247E+03  0.11577278749E+04  0.99807954731E+03 0.  0.
         25    2    3    3    0    0  0.12798346785E+03  0.43528553830E+02 -0.16693674852E+03  0.24872051613E+03  0.12537748642E+03 0.  0.
         35    2    3    3    0    0 -0.12798346785E+03 -0.43528553830E+02 -0.41972418395E+03  0.90900735881E+03  0.79489086342E+03 0.  0.
         22    1    5    5    0    0  0.98882832798E+02 -0.36536818053E+03 -0.75438210780E+02  0.38595679242E+03  0.00000000000E+00 0.  1.
         22    1    5    5    0    0 -0.22686630065E+03  0.32183962670E+03 -0.34428597317E+03  0.52305056640E+03  0.00000000000E+00 0.  1.
          5    1    4    4  502    0  0.62945899621E+02 -0.42605515138E+02 -0.74574506167E+02  0.10658734995E+03  0.47000000000E+01 0. -1.
         -5    1    4    4    0  502  0.65037568229E+02  0.86134068968E+02 -0.92362242348E+02  0.14213316618E+03  0.47000000000E+01 0. -1.
<mgrwt>
<rscale>  0 0.99807955E+03</rscale>
<asrwt>0</asrwt>
<pdfrwt beam="1">  1        1 0.13418376E+00 0.99807955E+03</pdfrwt>
<pdfrwt beam="2">  1       -1 0.43928225E-01 0.99807955E+03</pdfrwt>
<totfact> 0.11118853E+02</totfact>
</mgrwt>
</event>
<event>
 9    1  0.4388925E-036  0.9994765E+03  0.7818608E-02  0.8681537E-01
         -2   -1    0    0    0  501 -0.00000000000E+00  0.00000000000E+00  0.47950007609E+03  0.47950007609E+03  0.00000000000E+00 0.  1.
          2   -1    0    0  501    0  0.00000000000E+00 -0.00000000000E+00 -0.52083064890E+03  0.52083064890E+03  0.00000000000E+00 0.  1.
         36    2    1    2    0    0  0.00000000000E+00 -0.71054273576E-14 -0.41330572807E+02  0.10003307250E+04  0.99947653455E+03 0.  0.
         25    2    3    3    0    0 -0.12955945446E+03  0.19715050611E+02  0.26695534457E+02  0.18397831378E+03  0.12633698160E+03 0.  0.
         35    2    3    3    0    0  0.12955945446E+03 -0.19715050611E+02 -0.68026107264E+02  0.81635241122E+03  0.80288814449E+03 0.  0.
         22    1    5    5    0    0  0.30849969274E+03 -0.17320239121E+03 -0.31587679687E+03  0.47428818196E+03  0.00000000000E+00 0.  1.
         22    1    5    5    0    0 -0.17894023828E+03  0.15348734060E+03  0.24785068961E+03  0.34206422926E+03  0.00000000000E+00 0.  1.
          5    1    4    4  502    0 -0.62503999429E+02 -0.23494912464E+02  0.66801094321E+02  0.94568689632E+02  0.47000000000E+01 0. -1.
         -5    1    4    4    0  502 -0.67055455028E+02  0.43209963075E+02 -0.40105559864E+02  0.89409624146E+02  0.47000000000E+01 0. -1.
<mgrwt>
<rscale>  0 0.99947653E+03</rscale>
<asrwt>0</asrwt>
<pdfrwt beam="1">  1        2 0.80127792E-01 0.99947653E+03</pdfrwt>
<pdfrwt beam="2">  1       -2 0.73769243E-01 0.99947653E+03</pdfrwt>
<totfact> 0.11753085E+02</totfact>
</mgrwt>
</event>
<event>
 9    1  0.4388925E-036  0.1000182E+04  0.7818608E-02  0.8680865E-01
          3   -1    0    0  501    0  0.00000000000E+00  0.00000000000E+00  0.31997500848E+03  0.31997500848E+03  0.00000000000E+00 0.  1.
         -3   -1    0    0    0  501 -0.00000000000E+00 -0.00000000000E+00 -0.78159529457E+03  0.78159529457E+03  0.00000000000E+00 0.  1.
         36    2    1    2    0    0 -0.28421709430E-13  0.00000000000E+00 -0.46162028609E+03  0.11015703030E+04  0.10001819055E+04 0.  0.
         25    2    3    3    0    0 -0.10245046195E+03 -0.25977076236E+02 -0.18948299410E+03  0.25031534392E+03  0.12483213010E+03 0.  0.
         35    2    3    3    0    0  0.10245046195E+03  0.25977076236E+02 -0.27213729200E+03  0.85125495913E+03  0.79962828495E+03 0.  0.
         22    1    5    5    0    0 -0.16229220655E+03  0.19170744488E+03  0.17478535347E+03  0.30600722952E+03  0.00000000000E+00 0.  1.
         22    1    5    5    0    0  0.26474266850E+03 -0.16573036864E+03 -0.44692264546E+03  0.54524772961E+03  0.00000000000E+00 0.  1.
          5    1    4    4  502    0 -0.97448736925E+02 -0.67128103623E+02 -0.16073410568E+03  0.19964964652E+03  0.47000000000E+01 0.  1.
         -5    1    4    4    0  502 -0.50017250285E+01  0.41151027386E+02 -0.28748888413E+02  0.50665697401E+02  0.47000000000E+01 0.  1.
<mgrwt>
<rscale>  0 0.10001819E+04</rscale>
<asrwt>0</asrwt>
<pdfrwt beam="1">  1        3 0.49226925E-01 0.10001819E+04</pdfrwt>
<pdfrwt beam="2">  1       -3 0.12024543E+00 0.10001819E+04</pdfrwt>
<totfact> 0.80714808E+00</totfact>
</mgrwt>
</event>
<event>
 9    1  0.4388925E-036  0.1000258E+04  0.7818608E-02  0.8680792E-01
         -1   -1    0    0    0  501 -0.00000000000E+00  0.00000000000E+00  0.13419546716E+03  0.13419546716E+03  0.00000000000E+00 0.  1.
          1   -1    0    0  501    0  0.00000000000E+00 -0.00000000000E+00 -0.18639165720E+04  0.18639165720E+04  0.00000000000E+00 0.  1.
         36    2    1    2    0    0  0.14210854715E-13  0.42632564146E-13 -0.17297211049E+04  0.19981120392E+04  0.10002582769E+04 0.  0.
         25    2    3    3    0    0 -0.76420930309E+02  0.10030132337E+02 -0.91600449255E+02  0.17375489112E+03  0.12593394198E+03 0.  0.
         35    2    3    3    0    0  0.76420930309E+02 -0.10030132337E+02 -0.16381206556E+04  0.18243571481E+04  0.79931155327E+03 0.  0.
         22    1    5    5    0    0 -0.37913358746E+02  0.29553846381E+03 -0.13701015505E+04  0.14021264797E+04  0.00000000000E+00 0. -1.
         22    1    5    5    0    0  0.11433428906E+03 -0.30556859615E+03 -0.26801910511E+03  0.42223066837E+03  0.00000000000E+00 0. -1.
          5    1    4    4  502    0  0.43418676277E+01 -0.34333951301E+02 -0.71136386658E+02  0.79247381869E+02  0.47000000000E+01 0. -1.
         -5    1    4    4    0  502 -0.80762797937E+02  0.44364083637E+02 -0.20464062597E+02  0.94507509255E+02  0.47000000000E+01 0. -1.
<mgrwt>
<rscale>  0 0.10002583E+04</rscale>
<asrwt>0</asrwt>
<pdfrwt beam="1">  1        1 0.28675640E+00 0.10002583E+04</pdfrwt>
<pdfrwt beam="2">  1       -1 0.20645456E-01 0.10002583E+04</pdfrwt>
<totfact> 0.75280648E+01</totfact>
</mgrwt>
</event>
<event>
 9    1  0.4388925E-036  0.9994448E+03  0.7818608E-02  0.8681567E-01
          2   -1    0    0  501    0  0.00000000000E+00  0.00000000000E+00  0.43023179378E+03  0.43023179378E+03  0.00000000000E+00 0.  1.
         -2   -1    0    0    0  501 -0.00000000000E+00 -0.00000000000E+00 -0.58043700227E+03  0.58043700227E+03  0.00000000000E+00 0.  1.
         36    2    1    2    0    0 -0.28421709430E-13 -0.14210854715E-13 -0.15020520850E+03  0.10106687960E+04  0.99944475117E+03 0.  0.
         25    2    3    3    0    0  0.86473739021E+02 -0.80235525550E+02  0.40501217763E+02  0.17678045788E+03  0.12528182049E+03 0.  0.
         35    2    3    3    0    0 -0.86473739021E+02  0.80235525550E+02 -0.19070642626E+03  0.83388833817E+03  0.80317206900E+03 0.  0.
         22    1    5    5    0    0 -0.33212995686E+03 -0.17635655009E+03  0.83418668710E+02  0.38518906435E+03  0.00000000000E+00 0. -1.
         22    1    5    5    0    0  0.24565621784E+03  0.25659207564E+03 -0.27412509497E+03  0.44869927383E+03  0.00000000000E+00 0. -1.
          5    1    4    4  502    0 -0.30166316972E+02 -0.31522744644E+02  0.21510153081E+02  0.48871942821E+02  0.47000000000E+01 0. -1.
         -5    1    4    4    0  502  0.11664005599E+03 -0.48712780906E+02  0.18991064682E+02  0.12790851505E+03  0.47000000000E+01 0. -1.
<mgrwt>
<rscale>  0 0.99944475E+03</rscale>
<asrwt>0</asrwt>
<pdfrwt beam="1">  1        2 0.66189507E-01 0.99944475E+03</pdfrwt>
<pdfrwt beam="2">  1       -2 0.89298000E-01 0.99944475E+03</pdfrwt>
<totfact> 0.94197124E+01</totfact>
</mgrwt>
</event>
<event>
 9    1  0.4388925E-036  0.9997484E+03  0.7818608E-02  0.8681278E-01
         -2   -1    0    0    0  501 -0.00000000000E+00  0.00000000000E+00  0.54050269024E+03  0.54050269024E+03  0.00000000000E+00 0.  1.
          2   -1    0    0  501    0  0.00000000000E+00 -0.00000000000E+00 -0.46229968284E+03  0.46229968284E+03  0.00000000000E+00 0.  1.
         36    2    1    2    0    0  0.14210854715E-13  0.28421709430E-13  0.78203007399E+02  0.10028023731E+04  0.99974841290E+03 0.  0.
         25    2    3    3    0    0 -0.40778102960E+02 -0.11149323327E+03  0.89213644631E+02  0.19426281785E+03  0.12524126022E+03 0.  0.
         35    2    3    3    0    0  0.40778102960E+02  0.11149323327E+03 -0.11010637232E+02  0.80853955523E+03  0.79970080874E+03 0.  0.
         22    1    5    5    0    0 -0.25293817662E+03  0.33874652195E+03 -0.81491780597E+02  0.43054365357E+03  0.00000000000E+00 0. -1.
         22    1    5    5    0    0  0.29371627958E+03 -0.22725328868E+03  0.70481143365E+02  0.37799590166E+03  0.00000000000E+00 0. -1.
          5    1    4    4  502    0  0.33494653798E+02 -0.64577368014E+02  0.75983853118E+02  0.10529845311E+03  0.47000000000E+01 0. -1.
         -5    1    4    4    0  502 -0.74272756758E+02 -0.46915865260E+02  0.13229791513E+02  0.88964364737E+02  0.47000000000E+01 0. -1.
<mgrwt>
<rscale>  0 0.99974841E+03</rscale>
<asrwt>0</asrwt>
<pdfrwt beam="1">  1        2 0.71123028E-01 0.99974841E+03</pdfrwt>
<pdfrwt beam="2">  1       -2 0.83154260E-01 0.99974841E+03</pdfrwt>
<totfact> 0.10260513E+02</totfact>
</mgrwt>
</event>
<event>
 9    1  0.4388925E-036  0.9994610E+03  0.7818608E-02  0.8681551E-01
          4   -1    0    0  501    0  0.00000000000E+00  0.00000000000E+00  0.43929724816E+03  0.43929724816E+03  0.00000000000E+00 0.  1.
         -4   -1    0    0    0  501 -0.00000000000E+00 -0.00000000000E+00 -0.56847746607E+03  0.56847746607E+03  0.00000000000E+00 0.  1.
         36    2    1    2    0    0 -0.21316282073E-13  0.00000000000E+00 -0.12918021791E+03  0.10077747142E+04  0.99946102773E+03 0.  0.
         25    2    3    3    0    0  0.56864766686E+02  0.78425406276E+02  0.77566120678E+02  0.17217713637E+03  0.11934955874E+03 0.  0.
         35    2    3    3    0    0 -0.56864766686E+02 -0.78425406276E+02 -0.20674633859E+03  0.83559757786E+03  0.80380042148E+03 0.  0.
         22    1    5    5    0    0  0.20176413512E+03 -0.36280224975E+03 -0.17295893681E+03  0.44972106073E+03  0.00000000000E+00 0. -1.
         22    1    5    5    0    0 -0.25862890181E+03  0.28437684347E+03 -0.33787401779E+02  0.38587651713E+03  0.00000000000E+00 0. -1.
          5    1    4    4  502    0  0.42133512344E+02 -0.20470702408E+02  0.26566522847E+01  0.47153264159E+02  0.47000000000E+01 0. -1.
         -5    1    4    4    0  502  0.14731254342E+02  0.98896108684E+02  0.74909468393E+02  0.12502387221E+03  0.47000000000E+01 0. -1.
<mgrwt>
<rscale>  0 0.99946103E+03</rscale>
<asrwt>0</asrwt>
<pdfrwt beam="1">  1        4 0.67584192E-01 0.99946103E+03</pdfrwt>
<pdfrwt beam="2">  1       -4 0.87458071E-01 0.99946103E+03</pdfrwt>
<totfact> 0.52232060E+00</totfact>
</mgrwt>
</event>
<event>
 9    1  0.4388925E-036  0.1000574E+04  0.7818608E-02  0.8680491E-01
         -4   -1    0    0    0  501 -0.00000000000E+00  0.00000000000E+00  0.89544674709E+03  0.89544674709E+03  0.00000000000E+00 0.  1.
          4   -1    0    0  501    0  0.00000000000E+00 -0.00000000000E+00 -0.27951091719E+03  0.27951091719E+03  0.00000000000E+00 0.  1.
         36    2    1    2    0    0 -0.14210854715E-13  0.00000000000E+00  0.61593582990E+03  0.11749576643E+04  0.10005741183E+04 0.  0.
         25    2    3    3    0    0  0.10042602537E+03  0.34938446344E+02  0.67700752493E+01  0.16393347622E+03  0.12458839876E+03 0.  0.
         35    2    3    3    0    0 -0.10042602537E+03 -0.34938446344E+02  0.60916575465E+03  0.10110241880E+04  0.79986305739E+03 0.  0.
         22    1    5    5    0    0  0.18494491942E+03 -0.34043954028E+03  0.26313797448E+03  0.46834314068E+03  0.00000000000E+00 0.  1.
         22    1    5    5    0    0 -0.28537094479E+03  0.30550109394E+03  0.34602778017E+03  0.54268104737E+03  0.00000000000E+00 0.  1.
          5    1    4    4  502    0  0.82901125810E+02 -0.35380668726E+02  0.12342129241E+02  0.91097785562E+02  0.47000000000E+01 0. -1.
         -5    1    4    4    0  502  0.17524899555E+02  0.70319115069E+02 -0.55720539918E+01  0.72835690662E+02  0.47000000000E+01 0. -1.
<mgrwt>
<rscale>  0 0.10005741E+04</rscale>
<asrwt>0</asrwt>
<pdfrwt beam="1">  1        4 0.43001680E-01 0.10005741E+04</pdfrwt>
<pdfrwt beam="2">  1       -4 0.13776104E+00 0.10005741E+04</pdfrwt>
<totfact> 0.40597266E+00</totfact>
</mgrwt>
</event>
<event>
 9    1  0.4388925E-036  0.1001211E+04  0.7818608E-02  0.8679886E-01
          1   -1    0    0  501    0  0.00000000000E+00  0.00000000000E+00  0.46499202405E+03  0.46499202405E+03  0.00000000000E+00 0.  1.
         -1   -1    0    0    0  501 -0.00000000000E+00 -0.00000000000E+00 -0.53894609456E+03  0.53894609456E+03  0.00000000000E+00 0.  1.
         36    2    1    2    0    0 -0.14210854715E-13  0.28421709430E-13 -0.73954070507E+02  0.10039381186E+04  0.10012105380E+04 0.  0.
         25    2    3    3    0    0 -0.83228772232E+02  0.10621053664E+03 -0.54499020273E+02  0.19123961665E+03  0.12407554612E+03 0.  0.
         35    2    3    3    0    0  0.83228772232E+02 -0.10621053664E+03 -0.19455050233E+02  0.81269850196E+03  0.80118203268E+03 0.  0.
         22    1    5    5    0    0 -0.78494598642E+02  0.15219548422E+03 -0.33358425827E+03  0.37497109861E+03  0.00000000000E+00 0.  1.
         22    1    5    5    0    0  0.16172337087E+03 -0.25840602086E+03  0.31412920803E+03  0.43772740335E+03  0.00000000000E+00 0.  1.
          5    1    4    4  502    0 -0.92458733149E+02  0.77420448147E+02 -0.85330045800E+02  0.14780341621E+03  0.47000000000E+01 0. -1.
         -5    1    4    4    0  502  0.92299609174E+01  0.28790088492E+02  0.30831025526E+02  0.43436200443E+02  0.47000000000E+01 0. -1.
<mgrwt>
<rscale>  0 0.10012105E+04</rscale>
<asrwt>0</asrwt>
<pdfrwt beam="1">  1        1 0.71537235E-01 0.10012105E+04</pdfrwt>
<pdfrwt beam="2">  1       -1 0.82914783E-01 0.10012105E+04</pdfrwt>
<totfact> 0.83816162E+01</totfact>
</mgrwt>
</event>
<event>
 9    1  0.4388925E-036  0.1001214E+04  0.7818608E-02  0.8679882E-01
         -2   -1    0    0    0  501 -0.00000000000E+00  0.00000000000E+00  0.17270528010E+03  0.17270528010E+03  0.00000000000E+00 0. -1.
          2   -1    0    0  501    0  0.00000000000E+00 -0.00000000000E+00 -0.14510706291E+04  0.14510706291E+04  0.00000000000E+00 0. -1.
         36    2    1    2    0    0 -0.14210854715E-13  0.00000000000E+00 -0.12783653490E+04  0.16237759092E+04  0.10012143815E+04 0.  0.
         25    2    3    3    0    0  0.68274641513E+02 -0.84101884278E+02 -0.94206254120E+02  0.19061122449E+03  0.12539245182E+03 0.  0.
         35    2    3    3    0    0 -0.68274641513E+02  0.84101884278E+02 -0.11841590949E+04  0.14331646847E+04  0.79999606117E+03 0.  0.
         22    1    5    5    0    0 -0.21873733105E+03  0.18709355114E+02  0.17617428629E+02  0.22024176206E+03  0.00000000000E+00 0. -1.
         22    1    5    5    0    0  0.15046268954E+03  0.65392529164E+02 -0.12017765235E+04  0.12129229227E+04  0.00000000000E+00 0. -1.
          5    1    4    4  502    0 -0.10533954100E+02 -0.94348843340E+01 -0.79583787899E+02  0.80966971833E+02  0.47000000000E+01 0. -1.
         -5    1    4    4    0  502  0.78808595612E+02 -0.74666999944E+02 -0.14622466221E+02  0.10964425266E+03  0.47000000000E+01 0. -1.
<mgrwt>
<rscale>  0 0.10012144E+04</rscale>
<asrwt>0</asrwt>
<pdfrwt beam="1">  1        2 0.22324163E+00 0.10012144E+04</pdfrwt>
<pdfrwt beam="2">  1       -2 0.26570043E-01 0.10012144E+04</pdfrwt>
<totfact> 0.20785430E+02</totfact>
</mgrwt>
</event>
<event>
 9    1  0.4388925E-036  0.9989647E+03  0.7818608E-02  0.8682025E-01
          1   -1    0    0  501    0  0.00000000000E+00  0.00000000000E+00  0.19031527334E+04  0.19031527334E+04  0.00000000000E+00 0.  1.
         -1   -1    0    0    0  501 -0.00000000000E+00 -0.00000000000E+00 -0.13108911602E+03  0.13108911602E+03  0.00000000000E+00 0.  1.
         36    2    1    2    0    0  0.00000000000E+00  0.71054273576E-14  0.17720636173E+04  0.20342418494E+04  0.99896468302E+03 0.  0.
         25    2    3    3    0    0 -0.13576429465E+03  0.90499362747E+01  0.25438377276E+03  0.31312698454E+03  0.12175204127E+03 0.  0.
         35    2    3    3    0    0  0.13576429465E+03 -0.90499362747E+01  0.15176798446E+04  0.17211148649E+04  0.80023148046E+03 0.  0.
         22    1    5    5    0    0  0.42839675760E+03 -0.10981631572E+03  0.11940401685E+04  0.12733088114E+04  0.00000000000E+00 0.  1.
         22    1    5    5    0    0 -0.29263246295E+03  0.10076637945E+03  0.32363967606E+03  0.44780605346E+03  0.00000000000E+00 0.  1.
          5    1    4    4  502    0 -0.28309582979E+02  0.38534082099E+02  0.17200477403E+02  0.51031895855E+02  0.47000000000E+01 0. -1.
         -5    1    4    4    0  502 -0.10745471167E+03 -0.29484145824E+02  0.23718329535E+03  0.26209508868E+03  0.47000000000E+01 0. -1.
<mgrwt>
<rscale>  0 0.99896468E+03</rscale>
<asrwt>0</asrwt>
<pdfrwt beam="1">  1        1 0.29279271E+00 0.99896468E+03</pdfrwt>
<pdfrwt beam="2">  1       -1 0.20167558E-01 0.99896468E+03</pdfrwt>
<totfact> 0.73456469E+01</totfact>
</mgrwt>
</event>
<event>
 9    1  0.4388925E-036  0.9991564E+03  0.7818608E-02  0.8681842E-01
         -2   -1    0    0    0  501 -0.00000000000E+00  0.00000000000E+00  0.45661032845E+03  0.45661032845E+03  0.00000000000E+00 0. -1.
          2   -1    0    0  501    0  0.00000000000E+00 -0.00000000000E+00 -0.54658939219E+03  0.54658939219E+03  0.00000000000E+00 0. -1.
         36    2    1    2    0    0  0.71054273576E-14  0.00000000000E+00 -0.89979063738E+02  0.10031997206E+04  0.99915636793E+03 0.  0.
         25    2    3    3    0    0  0.90018097866E+01  0.10047116146E+03  0.78851469147E+02  0.17935096018E+03  0.12559349452E+03 0.  0.
         35    2    3    3    0    0 -0.90018097866E+01 -0.10047116146E+03 -0.16883053289E+03  0.82384876045E+03  0.80002971470E+03 0.  0.
         22    1    5    5    0    0 -0.21094041920E+03 -0.39176848062E+03 -0.40111188023E+02  0.44675195609E+03  0.00000000000E+00 0.  1.
         22    1    5    5    0    0  0.20193860941E+03  0.29129731916E+03 -0.12871934486E+03  0.37709680437E+03  0.00000000000E+00 0.  1.
          5    1    4    4  502    0 -0.49581246450E+02  0.48077434184E+02  0.18883632689E+01  0.69248794886E+02  0.47000000000E+01 0.  1.
         -5    1    4    4    0  502  0.58583056237E+02  0.52393727276E+02  0.76963105878E+02  0.11010216529E+03  0.47000000000E+01 0.  1.
<mgrwt>
<rscale>  0 0.99915637E+03</rscale>
<asrwt>0</asrwt>
<pdfrwt beam="1">  1        2 0.84090676E-01 0.99915637E+03</pdfrwt>
<pdfrwt beam="2">  1       -2 0.70247743E-01 0.99915637E+03</pdfrwt>
<totfact> 0.12372791E+02</totfact>
</mgrwt>
</event>
<event>
 9    1  0.4388925E-036  0.1000265E+04  0.7818608E-02  0.8680785E-01
          2   -1    0    0  501    0  0.00000000000E+00  0.00000000000E+00  0.57788994614E+03  0.57788994614E+03  0.00000000000E+00 0.  1.
         -2   -1    0    0    0  501 -0.00000000000E+00 -0.00000000000E+00 -0.43283796496E+03  0.43283796496E+03  0.00000000000E+00 0.  1.
         36    2    1    2    0    0 -0.71054273576E-14  0.00000000000E+00  0.14505198117E+03  0.10107279111E+04  0.10002653813E+04 0.  0.
         25    2    3    3    0    0 -0.16571055601E+02 -0.11241316724E+03  0.10945169570E+03  0.20151677159E+03  0.12537150988E+03 0.  0.
         35    2    3    3    0    0  0.16571055601E+02  0.11241316724E+03  0.35600285476E+02  0.80921113951E+03  0.80040237876E+03 0.  0.
         22    1    5    5    0    0 -0.92701908040E+02  0.16831594132E+03  0.38966838016E+03  0.43447134123E+03  0.00000000000E+00 0.  1.
         22    1    5    5    0    0  0.10927296364E+03 -0.55902774077E+02 -0.35406809469E+03  0.37473979827E+03  0.00000000000E+00 0.  1.
          5    1    4    4  502    0 -0.41752462550E+02 -0.12222257782E+03  0.54826214153E+02  0.14039099122E+03  0.47000000000E+01 0.  1.
         -5    1    4    4    0  502  0.25181406949E+02  0.98094105804E+01  0.54625481544E+02  0.61125780370E+02  0.47000000000E+01 0.  1.
<mgrwt>
<rscale>  0 0.10002654E+04</rscale>
<asrwt>0</asrwt>
<pdfrwt beam="1">  1        2 0.88906145E-01 0.10002654E+04</pdfrwt>
<pdfrwt beam="2">  1       -2 0.66590456E-01 0.10002654E+04</pdfrwt>
<totfact> 0.13010156E+02</totfact>
</mgrwt>
</event>
<event>
 9    1  0.4388925E-036  0.9983588E+03  0.7818608E-02  0.8682602E-01
          1   -1    0    0  501    0  0.00000000000E+00  0.00000000000E+00  0.17022299737E+04  0.17022299737E+04  0.00000000000E+00 0. -1.
         -1   -1    0    0    0  501 -0.00000000000E+00 -0.00000000000E+00 -0.14638450815E+03  0.14638450815E+03  0.00000000000E+00 0. -1.
         36    2    1    2    0    0 -0.21316282073E-13  0.71054273576E-14  0.15558454655E+04  0.18486144818E+04  0.99835884823E+03 0.  0.
         25    2    3    3    0    0 -0.54823795359E+02  0.57732182136E+02  0.79442279124E+02  0.16826401967E+03  0.12515211230E+03 0.  0.
         35    2    3    3    0    0  0.54823795359E+02 -0.57732182136E+02  0.14764031864E+04  0.16803504621E+04  0.79841884589E+03 0.  0.
         22    1    5    5    0    0 -0.14559657754E+03  0.31212127586E+02  0.14521258320E+04  0.14597403852E+04  0.00000000000E+00 0. -1.
         22    1    5    5    0    0  0.20042037290E+03 -0.88944309722E+02  0.24277354391E+02  0.22061007692E+03  0.00000000000E+00 0. -1.
          5    1    4    4  502    0 -0.88140810126E+02  0.87077874141E+01  0.43534161183E+02  0.98802536209E+02  0.47000000000E+01 0. -1.
         -5    1    4    4    0  502  0.33317014768E+02  0.49024394722E+02  0.35908117942E+02  0.69461483464E+02  0.47000000000E+01 0. -1.
<mgrwt>
<rscale>  0 0.99835885E+03</rscale>
<asrwt>0</asrwt>
<pdfrwt beam="1">  1        1 0.26188152E+00 0.99835885E+03</pdfrwt>
<pdfrwt beam="2">  1       -1 0.22520695E-01 0.99835885E+03</pdfrwt>
<totfact> 0.84648853E+01</totfact>
</mgrwt>
</event>
<event>
 9    1  0.4388925E-036  0.1000391E+04  0.7818608E-02  0.8680665E-01
          1   -1    0    0  501    0  0.00000000000E+00  0.00000000000E+00  0.34048612269E+03  0.34048612269E+03  0.00000000000E+00 0. -1.
         -1   -1    0    0    0  501 -0.00000000000E+00 -0.00000000000E+00 -0.73481913648E+03  0.73481913648E+03  0.00000000000E+00 0. -1.
         36    2    1    2    0    0  0.10658141036E-13  0.00000000000E+00 -0.39433301379E+03  0.10753052592E+04  0.10003913607E+04 0.  0.
         25    2    3    3    0    0 -0.32322535586E+01 -0.13373878344E+03 -0.12496893163E+03  0.22144523088E+03  0.12459633521E+03 0.  0.
         35    2    3    3    0    0  0.32322535586E+01  0.13373878344E+03 -0.26936408216E+03  0.85386002830E+03  0.79913918031E+03 0.  0.
         22    1    5    5    0    0  0.18336800667E+03  0.33418146381E+03  0.10239460076E+03  0.39469701150E+03  0.00000000000E+00 0.  1.
         22    1    5    5    0    0 -0.18013575311E+03 -0.20044268038E+03 -0.37175868292E+03  0.45916301679E+03  0.00000000000E+00 0.  1.
          5    1    4    4  502    0  0.21614391885E+02 -0.30160826767E+02  0.19272383801E+02  0.42075790963E+02  0.47000000000E+01 0.  1.
         -5    1    4    4    0  502 -0.24846645443E+02 -0.10357795667E+03 -0.14424131543E+03  0.17936943991E+03  0.47000000000E+01 0.  1.
<mgrwt>
<rscale>  0 0.10003914E+04</rscale>
<asrwt>0</asrwt>
<pdfrwt beam="1">  1        1 0.52382480E-01 0.10003914E+04</pdfrwt>
<pdfrwt beam="2">  1       -1 0.11304910E+00 0.10003914E+04</pdfrwt>
<totfact> 0.63890251E+01</totfact>
</mgrwt>
</event>
<event>
 9    1  0.4388925E-036  0.9953206E+03  0.7818608E-02  0.8685507E-01
          1   -1    0    0  501    0  0.00000000000E+00  0.00000000000E+00  0.16556597833E+04  0.16556597833E+04  0.00000000000E+00 0. -1.
         -1   -1    0    0    0  501 -0.00000000000E+00 -0.00000000000E+00 -0.14958736314E+03  0.14958736314E+03  0.00000000000E+00 0. -1.
         36    2    1    2    0    0  0.00000000000E+00  0.00000000000E+00  0.15060724202E+04  0.18052471465E+04  0.99532061415E+03 0.  0.
         25    2    3    3    0    0 -0.47803095386E+02  0.12612812972E+03  0.29539792652E+03  0.34776105218E+03  0.12443622215E+03 0.  0.
         35    2    3    3    0    0  0.47803095386E+02 -0.12612812972E+03  0.12106744937E+04  0.14574860943E+04  0.80021218710E+03 0.  0.
         22    1    5    5    0    0  0.39258204941E+03  0.26222046334E+02  0.38809036638E+03  0.55265033584E+03  0.00000000000E+00 0. -1.
         22    1    5    5    0    0 -0.34477895403E+03 -0.15235017605E+03  0.82258412731E+03  0.90483575846E+03  0.00000000000E+00 0. -1.
          5    1    4    4  502    0  0.13334851027E+02  0.11911071277E+03  0.21744326172E+03  0.24833212079E+03  0.47000000000E+01 0. -1.
         -5    1    4    4    0  502 -0.61137946413E+02  0.70174169470E+01  0.77954664799E+02  0.99428931384E+02  0.47000000000E+01 0. -1.
<mgrwt>
<rscale>  0 0.99532061E+03</rscale>
<asrwt>0</asrwt>
<pdfrwt beam="1">  1        1 0.25471688E+00 0.99532061E+03</pdfrwt>
<pdfrwt beam="2">  1       -1 0.23013442E-01 0.99532061E+03</pdfrwt>
<totfact> 0.88084923E+01</totfact>
</mgrwt>
</event>
<event>
 9    1  0.4388925E-036  0.1000410E+04  0.7818608E-02  0.8680648E-01
         -2   -1    0    0    0  501 -0.00000000000E+00  0.00000000000E+00  0.56578359213E+03  0.56578359213E+03  0.00000000000E+00 0. -1.
          2   -1    0    0  501    0  0.00000000000E+00 -0.00000000000E+00 -0.44222736921E+03  0.44222736921E+03  0.00000000000E+00 0. -1.
         36    2    1    2    0    0  0.28421709430E-13  0.71054273576E-14  0.12355622293E+03  0.10080109613E+04  0.10004098950E+04 0.  0.
         25    2    3    3    0    0 -0.68656392661E+02  0.51627334817E+02  0.13641594846E+03  0.20348193794E+03  0.12416322370E+03 0.  0.
         35    2    3    3    0    0  0.68656392661E+02 -0.51627334817E+02 -0.12859725528E+02  0.80452902340E+03  0.79982654057E+03 0.  0.
         22    1    5    5    0    0 -0.32621798086E+03  0.13779019814E+03  0.64054497260E+02  0.35987121079E+03  0.00000000000E+00 0. -1.
         22    1    5    5    0    0  0.39487437352E+03 -0.18941753296E+03 -0.76914222788E+02  0.44465781261E+03  0.00000000000E+00 0. -1.
          5    1    4    4  502    0 -0.82890666385E+02  0.19663432096E+02  0.28526558599E+02  0.89963146238E+02  0.47000000000E+01 0. -1.
         -5    1    4    4    0  502  0.14234273723E+02  0.31963902722E+02  0.10788938986E+03  0.11351879170E+03  0.47000000000E+01 0. -1.
<mgrwt>
<rscale>  0 0.10004099E+04</rscale>
<asrwt>0</asrwt>
<pdfrwt beam="1">  1        2 0.68034980E-01 0.10004099E+04</pdfrwt>
<pdfrwt beam="2">  1       -2 0.87043630E-01 0.10004099E+04</pdfrwt>
<totfact> 0.96952904E+01</totfact>
</mgrwt>
</event>
<event>
 9    1  0.4388925E-036  0.9968658E+03  0.7818608E-02  0.8684028E-01
         -1   -1    0    0    0  501 -0.00000000000E+00  0.00000000000E+00  0.68999835731E+03  0.68999835731E+03  0.00000000000E+00 0. -1.
          1   -1    0    0  501    0  0.00000000000E+00 -0.00000000000E+00 -0.36005211850E+03  0.36005211850E+03  0.00000000000E+00 0. -1.
         36    2    1    2    0    0  0.71054273576E-14  0.00000000000E+00  0.32994623881E+03  0.10500504758E+04  0.99686582910E+03 0.  0.
         25    2    3    3    0    0  0.31281909883E+02 -0.55299359222E+02  0.18864667098E+03  0.23519721800E+03  0.12527405105E+03 0.  0.
         35    2    3    3    0    0 -0.31281909883E+02  0.55299359222E+02  0.14129956783E+03  0.81485325781E+03  0.79998980423E+03 0.  0.
         22    1    5    5    0    0 -0.18237867293E+03 -0.26580352272E+03  0.28664239275E+03  0.43136684429E+03  0.00000000000E+00 0. -1.
         22    1    5    5    0    0  0.15109676304E+03  0.32110288194E+03 -0.14534282492E+03  0.38348641351E+03  0.00000000000E+00 0. -1.
          5    1    4    4  502    0 -0.16315729551E+02  0.24905187844E+02  0.10696720007E+03  0.11113299827E+03  0.47000000000E+01 0.  1.
         -5    1    4    4    0  502  0.47597639434E+02 -0.80204547065E+02  0.81679470902E+02  0.12406421973E+03  0.47000000000E+01 0.  1.
<mgrwt>
<rscale>  0 0.99686583E+03</rscale>
<asrwt>0</asrwt>
<pdfrwt beam="1">  1        1 0.55392633E-01 0.99686583E+03</pdfrwt>
<pdfrwt beam="2">  1       -1 0.10615359E+00 0.99686583E+03</pdfrwt>
<totfact> 0.68813171E+01</totfact>
</mgrwt>
</event>
<event>
 9    1  0.4388925E-036  0.9991160E+03  0.7818608E-02  0.8681880E-01
          2   -1    0    0  501    0  0.00000000000E+00  0.00000000000E+00  0.26359763426E+04  0.26359763426E+04  0.00000000000E+00 0.  1.
         -2   -1    0    0    0  501 -0.00000000000E+00 -0.00000000000E+00 -0.94673914701E+02  0.94673914701E+02  0.00000000000E+00 0.  1.
         36    2    1    2    0    0 -0.14210854715E-13  0.28421709430E-13  0.25413024279E+04  0.27306502573E+04  0.99911600810E+03 0.  0.
         25    2    3    3    0    0 -0.46432117520E+02  0.10523432571E+03  0.68801813775E+03  0.70871227747E+03  0.12519556508E+03 0.  0.
         35    2    3    3    0    0  0.46432117520E+02 -0.10523432571E+03  0.18532842901E+04  0.20219379798E+04  0.80021267756E+03 0.  0.
         22    1    5    5    0    0 -0.30061765965E+03  0.18667618094E+03  0.86448329474E+03  0.93410403099E+03  0.00000000000E+00 0.  1.
         22    1    5    5    0    0  0.34704977717E+03 -0.29191050665E+03  0.98880099538E+03  0.10878339488E+04  0.00000000000E+00 0.  1.
          5    1    4    4  502    0 -0.53232390269E+02  0.11945232882E+03  0.67545989873E+03  0.68801941181E+03  0.47000000000E+01 0.  1.
         -5    1    4    4    0  502  0.68002727488E+01 -0.14218003111E+02  0.12558239021E+02  0.20692865660E+02  0.47000000000E+01 0.  1.
<mgrwt>
<rscale>  0 0.99911601E+03</rscale>
<asrwt>0</asrwt>
<pdfrwt beam="1">  1        2 0.40553477E+00 0.99911601E+03</pdfrwt>
<pdfrwt beam="2">  1       -2 0.14565220E-01 0.99911601E+03</pdfrwt>
<totfact> 0.12064032E+02</totfact>
</mgrwt>
</event>
<event>
 9    1  0.4388925E-036  0.9996855E+03  0.7818608E-02  0.8681337E-01
         -2   -1    0    0    0  501 -0.00000000000E+00  0.00000000000E+00  0.11944360732E+03  0.11944360732E+03  0.00000000000E+00 0.  1.
          2   -1    0    0  501    0  0.00000000000E+00 -0.00000000000E+00 -0.20917216669E+04  0.20917216669E+04  0.00000000000E+00 0.  1.
         36    2    1    2    0    0  0.00000000000E+00  0.14210854715E-13 -0.19722780596E+04  0.22111652743E+04  0.99968551337E+03 0.  0.
         25    2    3    3    0    0 -0.22020096992E+02  0.77726931131E+02 -0.61030746219E+03  0.62963854304E+03  0.13207246491E+03 0.  0.
         35    2    3    3    0    0  0.22020096992E+02 -0.77726931131E+02 -0.13619705974E+04  0.15815267312E+04  0.79983531605E+03 0.  0.
         22    1    5    5    0    0  0.68027828260E+02 -0.36427736435E+03 -0.28884113155E+03  0.46984570113E+03  0.00000000000E+00 0. -1.
         22    1    5    5    0    0 -0.46007731268E+02  0.28655043322E+03 -0.10731294659E+04  0.11116810301E+04  0.00000000000E+00 0. -1.
          5    1    4    4  502    0 -0.63277382959E+02  0.55796250883E+02 -0.20662030043E+03  0.22322922604E+03  0.47000000000E+01 0.  1.
         -5    1    4    4    0  502  0.41257285967E+02  0.21930680248E+02 -0.40368716175E+03  0.40640931700E+03  0.47000000000E+01 0.  1.
<mgrwt>
<rscale>  0 0.99968551E+03</rscale>
<asrwt>0</asrwt>
<pdfrwt beam="1">  1        2 0.32180333E+00 0.99968551E+03</pdfrwt>
<pdfrwt beam="2">  1       -2 0.18375940E-01 0.99968551E+03</pdfrwt>
<totfact> 0.17188829E+02</totfact>
</mgrwt>
</event>
<event>
 9    1  0.4388925E-036  0.9987494E+03  0.7818608E-02  0.8682230E-01
         -1   -1    0    0    0  501 -0.00000000000E+00  0.00000000000E+00  0.44802807628E+03  0.44802807628E+03  0.00000000000E+00 0. -1.
          1   -1    0    0  501    0  0.00000000000E+00 -0.00000000000E+00 -0.55660590879E+03  0.55660590879E+03  0.00000000000E+00 0. -1.
         36    2    1    2    0    0 -0.14210854715E-13  0.14210854715E-13 -0.10857783251E+03  0.10046339851E+04  0.99874936708E+03 0.  0.
         25    2    3    3    0    0 -0.82727371984E+02  0.83378789305E+02  0.51392925043E+02  0.18024608979E+03  0.12669482846E+03 0.  0.
         35    2    3    3    0    0  0.82727371984E+02 -0.83378789305E+02 -0.15997075755E+03  0.82438789528E+03  0.80014306098E+03 0.  0.
         22    1    5    5    0    0 -0.22017306610E+03 -0.29759597825E+03  0.84986536811E+02  0.37981871563E+03  0.00000000000E+00 0.  1.
         22    1    5    5    0    0  0.30290043809E+03  0.21421718894E+03 -0.24495729436E+03  0.44456917965E+03  0.00000000000E+00 0.  1.
          5    1    4    4  502    0  0.18200505251E+02  0.13101045956E+02 -0.26159372795E+02  0.34774970619E+02  0.47000000000E+01 0.  1.
         -5    1    4    4    0  502 -0.10092787724E+03  0.70277743349E+02  0.77552297837E+02  0.14547111917E+03  0.47000000000E+01 0.  1.
<mgrwt>
<rscale>  0 0.99874937E+03</rscale>
<asrwt>0</asrwt>
<pdfrwt beam="1">  1        1 0.85631678E-01 0.99874937E+03</pdfrwt>
<pdfrwt beam="2">  1       -1 0.68927396E-01 0.99874937E+03</pdfrwt>
<totfact> 0.95109201E+01</totfact>
</mgrwt>
</event>
<event>
 9    1  0.4388925E-036  0.1000348E+04  0.7818608E-02  0.8680706E-01
          1   -1    0    0  501    0  0.00000000000E+00  0.00000000000E+00  0.81320009615E+03  0.81320009615E+03  0.00000000000E+00 0.  1.
         -1   -1    0    0    0  501 -0.00000000000E+00 -0.00000000000E+00 -0.30764155351E+03  0.30764155351E+03  0.00000000000E+00 0.  1.
         36    2    1    2    0    0 -0.14210854715E-13 -0.10658141036E-13  0.50555854264E+03  0.11208416497E+04  0.10003482212E+04 0.  0.
         25    2    3    3    0    0 -0.47823011461E+02 -0.14327576014E+02 -0.52449500778E+02  0.14509812689E+03  0.12573860360E+03 0.  0.
         35    2    3    3    0    0  0.47823011461E+02  0.14327576014E+02  0.55800804342E+03  0.97574352278E+03  0.79888054542E+03 0.  0.
         22    1    5    5    0    0  0.11456363196E+03 -0.37495691792E+03  0.36692841794E+03  0.53698601467E+03  0.00000000000E+00 0.  1.
         22    1    5    5    0    0 -0.66740620494E+02  0.38928449393E+03  0.19107962549E+03  0.43875750810E+03  0.00000000000E+00 0.  1.
          5    1    4    4  502    0 -0.84667346262E+02  0.13438408515E+02 -0.19037506413E+02  0.87941270157E+02  0.47000000000E+01 0. -1.
         -5    1    4    4    0  502  0.36844334801E+02 -0.27765984528E+02 -0.33411994365E+02  0.57156856729E+02  0.47000000000E+01 0. -1.
<mgrwt>
<rscale>  0 0.10003482E+04</rscale>
<asrwt>0</asrwt>
<pdfrwt beam="1">  1        1 0.12510771E+00 0.10003482E+04</pdfrwt>
<pdfrwt beam="2">  1       -1 0.47329470E-01 0.10003482E+04</pdfrwt>
<totfact> 0.10909675E+02</totfact>
</mgrwt>
</event>
<event>
 9    1  0.4388925E-036  0.1000508E+04  0.7818608E-02  0.8680555E-01
          2   -1    0    0  501    0  0.00000000000E+00  0.00000000000E+00  0.13636839996E+04  0.13636839996E+04  0.00000000000E+00 0.  1.
         -2   -1    0    0    0  501 -0.00000000000E+00 -0.00000000000E+00 -0.18351308560E+03  0.18351308560E+03  0.00000000000E+00 0.  1.
         36    2    1    2    0    0  0.00000000000E+00 -0.28421709430E-13  0.11801709140E+04  0.15471970852E+04  0.10005075883E+04 0.  0.
         25    2    3    3    0    0 -0.12877644648E+03 -0.37832910103E+02  0.31725973552E+03  0.36648674338E+03  0.12507634083E+03 0.  0.
         35    2    3    3    0    0  0.12877644648E+03  0.37832910103E+02  0.86291117850E+03  0.11807103418E+04  0.79463608469E+03 0.  0.
         22    1    5    5    0    0  0.11092519271E+03  0.41321517712E+03  0.50313483346E+03  0.66045124091E+03  0.00000000000E+00 0.  1.
         22    1    5    5    0    0  0.17851253770E+02 -0.37538226702E+03  0.35977634503E+03  0.52025910093E+03  0.00000000000E+00 0.  1.
          5    1    4    4  502    0 -0.50139858126E+02 -0.10145930657E+02  0.15904734765E+02  0.53777280238E+02  0.47000000000E+01 0.  1.
         -5    1    4    4    0  502 -0.78636588351E+02 -0.27686979446E+02  0.30135500075E+03  0.31270946314E+03  0.47000000000E+01 0.  1.
<mgrwt>
<rscale>  0 0.10005076E+04</rscale>
<asrwt>0</asrwt>
<pdfrwt beam="1">  1        2 0.20979753E+00 0.10005076E+04</pdfrwt>
<pdfrwt beam="2">  1       -2 0.28232783E-01 0.10005076E+04</pdfrwt>
<totfact> 0.20906173E+02</totfact>
</mgrwt>
</event>
<event>
 9    1  0.4388925E-036  0.1000211E+04  0.7818608E-02  0.8680837E-01
         -2   -1    0    0    0  501 -0.00000000000E+00  0.00000000000E+00  0.13036385580E+03  0.13036385580E+03  0.00000000000E+00 0.  1.
          2   -1    0    0  501    0  0.00000000000E+00 -0.00000000000E+00 -0.19185182880E+04  0.19185182880E+04  0.00000000000E+00 0.  1.
         36    2    1    2    0    0 -0.28421709430E-13  0.14210854715E-13 -0.17881544322E+04  0.20488821438E+04  0.10002108607E+04 0.  0.
         25    2    3    3    0    0 -0.10268023487E+03  0.40235389486E+02 -0.51602769782E+03  0.54236272971E+03  0.12534204584E+03 0.  0.
         35    2    3    3    0    0  0.10268023487E+03 -0.40235389486E+02 -0.12721267344E+04  0.15065194141E+04  0.79945744071E+03 0.  0.
         22    1    5    5    0    0 -0.32054277106E+03  0.53973360728E+01 -0.84378388968E+03  0.90263395228E+03  0.00000000000E+00 0. -1.
         22    1    5    5    0    0  0.42322300593E+03 -0.45632725559E+02 -0.42834284471E+03  0.60388546183E+03  0.00000000000E+00 0. -1.
          5    1    4    4  502    0 -0.10362975737E+03  0.63636350617E+02 -0.28226888908E+03  0.30738660913E+03  0.47000000000E+01 0.  1.
         -5    1    4    4    0  502  0.94952250003E+00 -0.23400961131E+02 -0.23375880875E+03  0.23497612058E+03  0.47000000000E+01 0.  1.
<mgrwt>
<rscale>  0 0.10002109E+04</rscale>
<asrwt>0</asrwt>
<pdfrwt beam="1">  1        2 0.29515665E+00 0.10002109E+04</pdfrwt>
<pdfrwt beam="2">  1       -2 0.20055979E-01 0.10002109E+04</pdfrwt>
<totfact> 0.18558898E+02</totfact>
</mgrwt>
</event>
<event>
 9    1  0.4388925E-036  0.1000424E+04  0.7818608E-02  0.8680635E-01
          2   -1    0    0  501    0  0.00000000000E+00  0.00000000000E+00  0.98475970685E+03  0.98475970685E+03  0.00000000000E+00 0.  1.
         -2   -1    0    0    0  501 -0.00000000000E+00 -0.00000000000E+00 -0.25408413615E+03  0.25408413615E+03  0.00000000000E+00 0.  1.
         36    2    1    2    0    0  0.00000000000E+00  0.00000000000E+00  0.73067557070E+03  0.12388438430E+04  0.10004235492E+04 0.  0.
         25    2    3    3    0    0 -0.86160471797E+02  0.26187764358E+02  0.27089932491E+03  0.31100481172E+03  0.12340228025E+03 0.  0.
         35    2    3    3    0    0  0.86160471797E+02 -0.26187764358E+02  0.45977624579E+03  0.92783903128E+03  0.80086306312E+03 0.  0.
         22    1    5    5    0    0  0.16634854872E+03  0.12176537179E+03 -0.17544629037E+03  0.27070287444E+03  0.00000000000E+00 0.  1.
         22    1    5    5    0    0 -0.80188076921E+02 -0.14795313615E+03  0.63522253616E+03  0.65713615684E+03  0.00000000000E+00 0.  1.
          5    1    4    4  502    0 -0.11091098644E+03  0.30500865207E+02  0.25768290160E+03  0.28223061044E+03  0.47000000000E+01 0. -1.
         -5    1    4    4    0  502  0.24750514641E+02 -0.43131008491E+01  0.13216423307E+02  0.28774201274E+02  0.47000000000E+01 0. -1.
<mgrwt>
<rscale>  0 0.10004235E+04</rscale>
<asrwt>0</asrwt>
<pdfrwt beam="1">  1        2 0.15150149E+00 0.10004235E+04</pdfrwt>
<pdfrwt beam="2">  1       -2 0.39089868E-01 0.10004235E+04</pdfrwt>
<totfact> 0.19270701E+02</totfact>
</mgrwt>
</event>
<event>
 9    1  0.4388925E-036  0.9997258E+03  0.7818608E-02  0.8681299E-01
         -1   -1    0    0    0  501 -0.00000000000E+00  0.00000000000E+00  0.18260946335E+03  0.18260946335E+03  0.00000000000E+00 0. -1.
          1   -1    0    0  501    0  0.00000000000E+00 -0.00000000000E+00 -0.13682910895E+04  0.13682910895E+04  0.00000000000E+00 0. -1.
         36    2    1    2    0    0 -0.28421709430E-13 -0.71054273576E-14 -0.11856816261E+04  0.15509005528E+04  0.99972576550E+03 0.  0.
         25    2    3    3    0    0 -0.94574646064E+02  0.31960557200E+02 -0.70142049301E+02  0.17499441187E+03  0.12544838067E+03 0.  0.
         35    2    3    3    0    0  0.94574646064E+02 -0.31960557200E+02 -0.11155395768E+04  0.13759061410E+04  0.79920167689E+03 0.  0.
         22    1    5    5    0    0 -0.23219755100E+03 -0.21523943712E+03 -0.87538617314E+03  0.93088381129E+03  0.00000000000E+00 0.  1.
         22    1    5    5    0    0  0.32677219707E+03  0.18327887992E+03 -0.24015340369E+03  0.44502232967E+03  0.00000000000E+00 0.  1.
          5    1    4    4  502    0 -0.79896508907E+02  0.13936644491E+02 -0.10504695294E+03  0.13279546120E+03  0.47000000000E+01 0. -1.
         -5    1    4    4    0  502 -0.14678137157E+02  0.18023912709E+02  0.34904903635E+02  0.42198950669E+02  0.47000000000E+01 0. -1.
<mgrwt>
<rscale>  0 0.99972577E+03</rscale>
<asrwt>0</asrwt>
<pdfrwt beam="1">  1        1 0.21050632E+00 0.99972577E+03</pdfrwt>
<pdfrwt beam="2">  1       -1 0.28093764E-01 0.99972577E+03</pdfrwt>
<totfact> 0.10085983E+02</totfact>
</mgrwt>
</event>
<event>
 9    1  0.4388925E-036  0.9977437E+03  0.7818608E-02  0.8683190E-01
         -2   -1    0    0    0  501 -0.00000000000E+00  0.00000000000E+00  0.13714514252E+03  0.13714514252E+03  0.00000000000E+00 0.  1.
          2   -1    0    0  501    0  0.00000000000E+00 -0.00000000000E+00 -0.18146696934E+04  0.18146696934E+04  0.00000000000E+00 0.  1.
         36    2    1    2    0    0 -0.28421709430E-13  0.28421709430E-13 -0.16775245508E+04  0.19518148359E+04  0.99774372204E+03 0.  0.
         25    2    3    3    0    0  0.73691912637E+02 -0.87988891554E+02 -0.43752609961E+03  0.46978414779E+03  0.12686809941E+03 0.  0.
         35    2    3    3    0    0 -0.73691912637E+02  0.87988891554E+02 -0.12399984512E+04  0.14820306881E+04  0.80352116236E+03 0.  0.
         22    1    5    5    0    0  0.23241281726E+03  0.33045408732E+03 -0.78171695753E+03  0.87994148848E+03  0.00000000000E+00 0.  1.
         22    1    5    5    0    0 -0.30610472989E+03 -0.24246519577E+03 -0.45828149369E+03  0.60208919961E+03  0.00000000000E+00 0.  1.
          5    1    4    4  502    0  0.35812288696E+02 -0.11743712126E+03 -0.31287848959E+03  0.33613841899E+03  0.47000000000E+01 0. -1.
         -5    1    4    4    0  502  0.37879623941E+02  0.29448229706E+02 -0.12464761001E+03  0.13364572879E+03  0.47000000000E+01 0. -1.
<mgrwt>
<rscale>  0 0.99774372E+03</rscale>
<asrwt>0</asrwt>
<pdfrwt beam="1">  1        2 0.27917993E+00 0.99774372E+03</pdfrwt>
<pdfrwt beam="2">  1       -2 0.21099255E-01 0.99774372E+03</pdfrwt>
<totfact> 0.19456582E+02</totfact>
</mgrwt>
</event>
<event>
 9    1  0.4388925E-036  0.9998917E+03  0.7818608E-02  0.8681141E-01
          2   -1    0    0  501    0  0.00000000000E+00  0.00000000000E+00  0.20761153314E+03  0.20761153314E+03  0.00000000000E+00 0.  1.
         -2   -1    0    0    0  501 -0.00000000000E+00 -0.00000000000E+00 -0.12039111734E+04  0.12039111734E+04  0.00000000000E+00 0.  1.
         36    2    1    2    0    0  0.00000000000E+00  0.00000000000E+00 -0.99629964029E+03  0.14115227066E+04  0.99989168309E+03 0.  0.
         25    2    3    3    0    0 -0.13027015951E+03 -0.28674112484E+02 -0.24005829319E+03  0.30207522423E+03  0.12581310655E+03 0.  0.
         35    2    3    3    0    0  0.13027015951E+03  0.28674112484E+02 -0.75624134710E+03  0.11094474823E+04  0.80073729887E+03 0.  0.
         22    1    5    5    0    0 -0.12709882514E+03 -0.77071120211E+02 -0.81214994657E+03  0.82564011811E+03  0.00000000000E+00 0.  1.
         22    1    5    5    0    0  0.25736898465E+03  0.10574523269E+03  0.55908599461E+02  0.28380736423E+03  0.00000000000E+00 0.  1.
          5    1    4    4  502    0 -0.13000905177E+03 -0.60137557554E+02 -0.22525860890E+03  0.26698765937E+03  0.47000000000E+01 0. -1.
         -5    1    4    4    0  502 -0.26110773454E+00  0.31463445070E+02 -0.14799684289E+02  0.35087564863E+02  0.47000000000E+01 0. -1.
<mgrwt>
<rscale>  0 0.99989168E+03</rscale>
<asrwt>0</asrwt>
<pdfrwt beam="1">  1        2 0.31940237E-01 0.99989168E+03</pdfrwt>
<pdfrwt beam="2">  1       -2 0.18521710E+00 0.99989168E+03</pdfrwt>
<totfact> 0.30459492E+01</totfact>
</mgrwt>
</event>
<event>
 9    1  0.4388925E-036  0.1000256E+04  0.7818608E-02  0.8680794E-01
         -2   -1    0    0    0  501 -0.00000000000E+00  0.00000000000E+00  0.30463567665E+03  0.30463567665E+03  0.00000000000E+00 0.  1.
          2   -1    0    0  501    0  0.00000000000E+00 -0.00000000000E+00 -0.82107245482E+03  0.82107245482E+03  0.00000000000E+00 0.  1.
         36    2    1    2    0    0  0.00000000000E+00 -0.51514348343E-13 -0.51643677816E+03  0.11257081315E+04  0.10002558930E+04 0.  0.
         25    2    3    3    0    0 -0.26463852965E+02 -0.15541849966E+02  0.56935611610E+02  0.14011262744E+03  0.12428998305E+03 0.  0.
         35    2    3    3    0    0  0.26463852965E+02  0.15541849966E+02 -0.57337238977E+03  0.98559550403E+03  0.80106224202E+03 0.  0.
         22    1    5    5    0    0 -0.10973890050E+03 -0.36084371918E+03 -0.39883266953E+03  0.54892468904E+03  0.00000000000E+00 0.  1.
         22    1    5    5    0    0  0.13620275346E+03  0.37638556915E+03 -0.17453972024E+03  0.43667081498E+03  0.00000000000E+00 0.  1.
          5    1    4    4  502    0 -0.20032817280E+02  0.11052343796E+02  0.92268007115E+02  0.95178480806E+02  0.47000000000E+01 0.  1.
         -5    1    4    4    0  502 -0.64310356851E+01 -0.26594193762E+02 -0.35332395505E+02  0.44934146637E+02  0.47000000000E+01 0.  1.
<mgrwt>
<rscale>  0 0.10002559E+04</rscale>
<asrwt>0</asrwt>
<pdfrwt beam="1">  1        2 0.12631884E+00 0.10002559E+04</pdfrwt>
<pdfrwt beam="2">  1       -2 0.46867027E-01 0.10002559E+04</pdfrwt>
<totfact> 0.17375249E+02</totfact>
</mgrwt>
</event>
<event>
 9    1  0.4388925E-036  0.9995386E+03  0.7818608E-02  0.8681477E-01
         -3   -1    0    0    0  501 -0.00000000000E+00  0.00000000000E+00  0.12320157655E+04  0.12320157655E+04  0.00000000000E+00 0. -1.
          3   -1    0    0  501    0  0.00000000000E+00 -0.00000000000E+00 -0.20273226560E+03  0.20273226560E+03  0.00000000000E+00 0. -1.
         36    2    1    2    0    0  0.00000000000E+00  0.14210854715E-13  0.10292834999E+04  0.14347480311E+04  0.99953858833E+03 0.  0.
         25    2    3    3    0    0  0.12217762722E+03 -0.80747323372E+02  0.18571951018E+03  0.26304707720E+03  0.11512830033E+03 0.  0.
         35    2    3    3    0    0 -0.12217762722E+03  0.80747323372E+02  0.84356398970E+03  0.11717009539E+04  0.79989712951E+03 0.  0.
         22    1    5    5    0    0  0.27696667314E+03  0.25560859522E+03  0.41247661254E+03  0.55873361083E+03  0.00000000000E+00 0.  1.
         22    1    5    5    0    0 -0.39914430036E+03 -0.17486127185E+03  0.43108737717E+03  0.61296734306E+03  0.00000000000E+00 0.  1.
          5    1    4    4  502    0  0.16195290110E+02 -0.77369916340E+02  0.92675405107E+02  0.12189836786E+03  0.47000000000E+01 0. -1.
         -5    1    4    4    0  502  0.10598233711E+03 -0.33774070315E+01  0.93044105073E+02  0.14114870933E+03  0.47000000000E+01 0. -1.
<mgrwt>
<rscale>  0 0.99953859E+03</rscale>
<asrwt>0</asrwt>
<pdfrwt beam="1">  1        3 0.31189580E-01 0.99953859E+03</pdfrwt>
<pdfrwt beam="2">  1       -3 0.18954088E+00 0.99953859E+03</pdfrwt>
<totfact> 0.49134118E+00</totfact>
</mgrwt>
</event>
<event>
 9    1  0.4388925E-036  0.1000579E+04  0.7818608E-02  0.8680486E-01
          2   -1    0    0  501    0  0.00000000000E+00  0.00000000000E+00  0.26041774671E+03  0.26041774671E+03  0.00000000000E+00 0.  1.
         -2   -1    0    0    0  501 -0.00000000000E+00 -0.00000000000E+00 -0.96110865453E+03  0.96110865453E+03  0.00000000000E+00 0.  1.
         36    2    1    2    0    0  0.28421709430E-13  0.28421709430E-13 -0.70069090783E+03  0.12215264012E+04  0.10005793325E+04 0.  0.
         25    2    3    3    0    0  0.67661514621E+02 -0.11722243992E+03 -0.17756644835E+03  0.25654142331E+03  0.12635061262E+03 0.  0.
         35    2    3    3    0    0 -0.67661514621E+02  0.11722243992E+03 -0.52312445948E+03  0.96498497793E+03  0.79951086706E+03 0.  0.
         22    1    5    5    0    0 -0.73005250288E+02  0.40253731500E+03 -0.49571117371E+02  0.41209628998E+03  0.00000000000E+00 0. -1.
         22    1    5    5    0    0  0.53437356666E+01 -0.28531487507E+03 -0.47355334211E+03  0.55288868796E+03  0.00000000000E+00 0. -1.
          5    1    4    4  502    0  0.34281318925E+02  0.14921803089E+02 -0.72843278960E+01  0.38379948770E+02  0.47000000000E+01 0.  1.
         -5    1    4    4    0  502  0.33380195696E+02 -0.13214424301E+03 -0.17028212045E+03  0.21816147454E+03  0.47000000000E+01 0.  1.
<mgrwt>
<rscale>  0 0.10005793E+04</rscale>
<asrwt>0</asrwt>
<pdfrwt beam="1">  1        2 0.40064268E-01 0.10005793E+04</pdfrwt>
<pdfrwt beam="2">  1       -2 0.14786287E+00 0.10005793E+04</pdfrwt>
<totfact> 0.45400641E+01</totfact>
</mgrwt>
</event>
<event>
 9    1  0.4388925E-036  0.9999922E+03  0.7818608E-02  0.8681045E-01
         -3   -1    0    0    0  501 -0.00000000000E+00  0.00000000000E+00  0.30317426322E+03  0.30317426322E+03  0.00000000000E+00 0.  1.
          3   -1    0    0  501    0  0.00000000000E+00 -0.00000000000E+00 -0.82459541439E+03  0.82459541439E+03  0.00000000000E+00 0.  1.
         36    2    1    2    0    0  0.00000000000E+00 -0.28421709430E-13 -0.52142115116E+03  0.11277696776E+04  0.99999221440E+03 0.  0.
         25    2    3    3    0    0  0.11629285095E+03 -0.65604841679E+02 -0.14645259659E+03  0.23410312137E+03  0.12461093834E+03 0.  0.
         35    2    3    3    0    0 -0.11629285095E+03  0.65604841679E+02 -0.37496855457E+03  0.89366655624E+03  0.80013153568E+03 0.  0.
         22    1    5    5    0    0 -0.66848080308E+02  0.42889387289E+03 -0.13150530927E+03  0.45355514153E+03  0.00000000000E+00 0. -1.
         22    1    5    5    0    0 -0.49444770641E+02 -0.36328903121E+03 -0.24346324530E+03  0.44011141471E+03  0.00000000000E+00 0. -1.
          5    1    4    4  502    0  0.14161184070E+03 -0.67173183287E+02 -0.12723118994E+03  0.20193071999E+03  0.47000000000E+01 0.  1.
         -5    1    4    4    0  502 -0.25318989752E+02  0.15683416086E+01 -0.19221406650E+02  0.32172401388E+02  0.47000000000E+01 0.  1.
<mgrwt>
<rscale>  0 0.99999221E+03</rscale>
<asrwt>0</asrwt>
<pdfrwt beam="1">  1        3 0.12686083E+00 0.99999221E+03</pdfrwt>
<pdfrwt beam="2">  1       -3 0.46642195E-01 0.99999221E+03</pdfrwt>
<totfact> 0.94702039E+00</totfact>
</mgrwt>
</event>
<event>
 9    1  0.4388925E-036  0.9994484E+03  0.7818608E-02  0.8681563E-01
          2   -1    0    0  501    0  0.00000000000E+00  0.00000000000E+00  0.23814342212E+03  0.23814342212E+03  0.00000000000E+00 0.  1.
         -2   -1    0    0    0  501 -0.00000000000E+00 -0.00000000000E+00 -0.10486297906E+04  0.10486297906E+04  0.00000000000E+00 0.  1.
         36    2    1    2    0    0 -0.56843418861E-13  0.13322676296E-13 -0.81048636851E+03  0.12867732128E+04  0.99944842164E+03 0.  0.
         25    2    3    3    0    0 -0.13228532433E+03  0.70923783478E+01 -0.20145933319E+03  0.27211834684E+03  0.12614603796E+03 0.  0.
         35    2    3    3    0    0  0.13228532433E+03 -0.70923783478E+01 -0.60902703531E+03  0.10146548659E+04  0.80066276191E+03 0.  0.
         22    1    5    5    0    0 -0.15123892162E+03  0.28142541758E+03 -0.50400009856E+03  0.59673241610E+03  0.00000000000E+00 0.  1.
         22    1    5    5    0    0  0.28352424595E+03 -0.28851779593E+03 -0.10502693676E+03  0.41792244981E+03  0.00000000000E+00 0.  1.
          5    1    4    4  502    0 -0.13327078620E+03 -0.46698755298E+01 -0.21532158166E+03  0.25331479175E+03  0.47000000000E+01 0.  1.
         -5    1    4    4    0  502  0.98546186776E+00  0.11762253878E+02  0.13862248468E+02  0.18803555088E+02  0.47000000000E+01 0.  1.
<mgrwt>
<rscale>  0 0.99944842E+03</rscale>
<asrwt>0</asrwt>
<pdfrwt beam="1">  1        2 0.36637450E-01 0.99944842E+03</pdfrwt>
<pdfrwt beam="2">  1       -2 0.16132766E+00 0.99944842E+03</pdfrwt>
<totfact> 0.39227509E+01</totfact>
</mgrwt>
</event>
<event>
 9    1  0.4388925E-036  0.1000874E+04  0.7818608E-02  0.8680206E-01
         -1   -1    0    0    0  501 -0.00000000000E+00  0.00000000000E+00  0.58758794893E+03  0.58758794893E+03  0.00000000000E+00 0.  1.
          1   -1    0    0  501    0  0.00000000000E+00 -0.00000000000E+00 -0.42621211783E+03  0.42621211783E+03  0.00000000000E+00 0.  1.
         36    2    1    2    0    0  0.42632564146E-13  0.00000000000E+00  0.16137583110E+03  0.10138000668E+04  0.10008738265E+04 0.  0.
         25    2    3    3    0    0  0.10807520052E+03 -0.87944050264E+02  0.11209137620E+02  0.18803169378E+03  0.12576115519E+03 0.  0.
         35    2    3    3    0    0 -0.10807520052E+03  0.87944050264E+02  0.15016669348E+03  0.82576837297E+03  0.79995560191E+03 0.  0.
         22    1    5    5    0    0 -0.31330485512E+03  0.30547190015E+02 -0.23005748291E+03  0.38989679211E+03  0.00000000000E+00 0.  1.
         22    1    5    5    0    0  0.20522965459E+03  0.57396860249E+02  0.38022417639E+03  0.43587158086E+03  0.00000000000E+00 0.  1.
          5    1    4    4  502    0  0.57432245292E+00 -0.32371821826E+02  0.50968841393E+02  0.60565480990E+02  0.47000000000E+01 0.  1.
         -5    1    4    4    0  502  0.10750087807E+03 -0.55572228438E+02 -0.39759703773E+02  0.12746621279E+03  0.47000000000E+01 0.  1.
<mgrwt>
<rscale>  0 0.10008738E+04</rscale>
<asrwt>0</asrwt>
<pdfrwt beam="1">  1        1 0.65571095E-01 0.10008738E+04</pdfrwt>
<pdfrwt beam="2">  1       -1 0.90398146E-01 0.10008738E+04</pdfrwt>
<totfact> 0.78465831E+01</totfact>
</mgrwt>
</event>
<event>
 9    1  0.4388925E-036  0.1000568E+04  0.7818608E-02  0.8680497E-01
          2   -1    0    0  501    0  0.00000000000E+00  0.00000000000E+00  0.20179117158E+04  0.20179117158E+04  0.00000000000E+00 0. -1.
         -2   -1    0    0    0  501 -0.00000000000E+00 -0.00000000000E+00 -0.12403131620E+03  0.12403131620E+03  0.00000000000E+00 0. -1.
         36    2    1    2    0    0 -0.14210854715E-13  0.71054273576E-14  0.18938803996E+04  0.21419430320E+04  0.10005683307E+04 0.  0.
         25    2    3    3    0    0  0.11555964138E+03  0.46511197538E+02  0.48105118208E+03  0.51257364915E+03  0.12571469207E+03 0.  0.
         35    2    3    3    0    0 -0.11555964138E+03 -0.46511197538E+02  0.14128292175E+04  0.16293693828E+04  0.80202298328E+03 0.  0.
         22    1    5    5    0    0  0.26567939874E+03 -0.19829779196E+03  0.31480817579E+03  0.45717802304E+03  0.00000000000E+00 0. -1.
         22    1    5    5    0    0 -0.38123904012E+03  0.15178659442E+03  0.10980210417E+04  0.11721913598E+04  0.00000000000E+00 0. -1.
          5    1    4    4  502    0  0.12181983771E+03  0.55304814488E+02  0.27167234542E+03  0.30286407617E+03  0.47000000000E+01 0. -1.
         -5    1    4    4    0  502 -0.62601963352E+01 -0.87936169499E+01  0.20937883666E+03  0.20970957298E+03  0.47000000000E+01 0. -1.
<mgrwt>
<rscale>  0 0.10005683E+04</rscale>
<asrwt>0</asrwt>
<pdfrwt beam="1">  1        2 0.31044793E+00 0.10005683E+04</pdfrwt>
<pdfrwt beam="2">  1       -2 0.19081742E-01 0.10005683E+04</pdfrwt>
<totfact> 0.17756819E+02</totfact>
</mgrwt>
</event>
<event>
 9    1  0.4388925E-036  0.1004754E+04  0.7818608E-02  0.8676524E-01
          2   -1    0    0  501    0  0.00000000000E+00  0.00000000000E+00  0.14948151317E+04  0.14948151317E+04  0.00000000000E+00 0. -1.
         -2   -1    0    0    0  501 -0.00000000000E+00 -0.00000000000E+00 -0.16883859831E+03  0.16883859831E+03  0.00000000000E+00 0. -1.
         36    2    1    2    0    0  0.28421709430E-13  0.00000000000E+00  0.13259765334E+04  0.16636537300E+04  0.10047536844E+04 0.  0.
         25    2    3    3    0    0 -0.12643958784E+03  0.72641675227E+02  0.25429203696E+03  0.31858635386E+03  0.12477596906E+03 0.  0.
         35    2    3    3    0    0  0.12643958784E+03 -0.72641675227E+02  0.10716844964E+04  0.13450673761E+04  0.79964667455E+03 0.  0.
         22    1    5    5    0    0 -0.24123953404E+03 -0.18244972309E+03  0.84931490042E+03  0.90156542431E+03  0.00000000000E+00 0.  1.
         22    1    5    5    0    0  0.36767912188E+03  0.10980804787E+03  0.22236959600E+03  0.44350195182E+03  0.00000000000E+00 0.  1.
          5    1    4    4  502    0 -0.69608564905E+02 -0.28748493926E+02  0.10591312127E+03  0.13004425196E+03  0.47000000000E+01 0.  1.
         -5    1    4    4    0  502 -0.56831022940E+02  0.10139016915E+03  0.14837891569E+03  0.18854210190E+03  0.47000000000E+01 0.  1.
<mgrwt>
<rscale>  0 0.10047537E+04</rscale>
<asrwt>0</asrwt>
<pdfrwt beam="1">  1        2 0.22997155E+00 0.10047537E+04</pdfrwt>
<pdfrwt beam="2">  1       -2 0.25975170E-01 0.10047537E+04</pdfrwt>
<totfact> 0.20441278E+02</totfact>
</mgrwt>
</event>
<event>
 9    1  0.4388925E-036  0.1000966E+04  0.7818608E-02  0.8680118E-01
          4   -1    0    0  501    0  0.00000000000E+00  0.00000000000E+00  0.11823878253E+04  0.11823878253E+04  0.00000000000E+00 0.  1.
         -4   -1    0    0    0  501 -0.00000000000E+00 -0.00000000000E+00 -0.21184538961E+03  0.21184538961E+03  0.00000000000E+00 0.  1.
         36    2    1    2    0    0 -0.14210854715E-13  0.71054273576E-14  0.97054243567E+03  0.13942332149E+04  0.10009663521E+04 0.  0.
         25    2    3    3    0    0  0.59336426838E+02  0.62426681670E+02  0.34127428670E+03  0.37309385810E+03  0.12374565066E+03 0.  0.
         35    2    3    3    0    0 -0.59336426838E+02 -0.62426681670E+02  0.62926814897E+03  0.10211393568E+04  0.79958069045E+03 0.  0.
         22    1    5    5    0    0  0.23665271602E+03  0.26457552350E+03  0.35345726945E+03  0.50093588108E+03  0.00000000000E+00 0. -1.
         22    1    5    5    0    0 -0.29598914285E+03 -0.32700220517E+03  0.27581087952E+03  0.52020347570E+03  0.00000000000E+00 0. -1.
          5    1    4    4  502    0  0.47571646837E+02  0.17778247019E+02  0.31680303055E+02  0.60040480107E+02  0.47000000000E+01 0.  1.
         -5    1    4    4    0  502  0.11764780001E+02  0.44648434651E+02  0.30959398365E+03  0.31305337800E+03  0.47000000000E+01 0.  1.
<mgrwt>
<rscale>  0 0.10009664E+04</rscale>
<asrwt>0</asrwt>
<pdfrwt beam="1">  1        4 0.18190582E+00 0.10009664E+04</pdfrwt>
<pdfrwt beam="2">  1       -4 0.32591599E-01 0.10009664E+04</pdfrwt>
<totfact> 0.29389385E+00</totfact>
</mgrwt>
</event>
<event>
 9    1  0.4388925E-036  0.9992293E+03  0.7818608E-02  0.8681772E-01
          1   -1    0    0  501    0  0.00000000000E+00  0.00000000000E+00  0.13227756788E+03  0.13227756788E+03  0.00000000000E+00 0. -1.
         -1   -1    0    0    0  501 -0.00000000000E+00 -0.00000000000E+00 -0.18870530562E+04  0.18870530562E+04  0.00000000000E+00 0. -1.
         36    2    1    2    0    0  0.56843418861E-13 -0.28421709430E-13 -0.17547754883E+04  0.20193306241E+04  0.99922928046E+03 0.  0.
         25    2    3    3    0    0  0.12496532594E+03  0.64906916178E+02 -0.34059544398E+03  0.38873506075E+03  0.12361411950E+03 0.  0.
         35    2    3    3    0    0 -0.12496532594E+03 -0.64906916178E+02 -0.14141800444E+04  0.16305955633E+04  0.79944196342E+03 0.  0.
         22    1    5    5    0    0 -0.38839380224E+03  0.19771257175E+03 -0.68229594593E+03  0.80960963710E+03  0.00000000000E+00 0.  1.
         22    1    5    5    0    0  0.26342847630E+03 -0.26261948793E+03 -0.73188409843E+03  0.82098592625E+03  0.00000000000E+00 0.  1.
          5    1    4    4  502    0  0.27571255593E+02  0.50528486255E+02 -0.34752054915E+02  0.67402502765E+02  0.47000000000E+01 0. -1.
         -5    1    4    4    0  502  0.97394070351E+02  0.14378429923E+02 -0.30584338907E+03  0.32133255799E+03  0.47000000000E+01 0. -1.
<mgrwt>
<rscale>  0 0.99922928E+03</rscale>
<asrwt>0</asrwt>
<pdfrwt beam="1">  1        1 0.20350396E-01 0.99922928E+03</pdfrwt>
<pdfrwt beam="2">  1       -1 0.29031585E+00 0.99922928E+03</pdfrwt>
<totfact> 0.54443006E+00</totfact>
</mgrwt>
</event>
<event>
 9    1  0.4388925E-036  0.9996510E+03  0.7818608E-02  0.8681370E-01
         -1   -1    0    0    0  501 -0.00000000000E+00  0.00000000000E+00  0.29633844704E+03  0.29633844704E+03  0.00000000000E+00 0.  1.
          1   -1    0    0  501    0  0.00000000000E+00 -0.00000000000E+00 -0.84304121869E+03  0.84304121869E+03  0.00000000000E+00 0.  1.
         36    2    1    2    0    0  0.14210854715E-13 -0.71054273576E-14 -0.54670277165E+03  0.11393796657E+04  0.99965099017E+03 0.  0.
         25    2    3    3    0    0 -0.12636067815E+03  0.53357371918E+02 -0.74712182776E+02  0.20019655470E+03  0.12523066773E+03 0.  0.
         35    2    3    3    0    0  0.12636067815E+03 -0.53357371918E+02 -0.47199058888E+03  0.93918311103E+03  0.80029730097E+03 0.  0.
         22    1    5    5    0    0 -0.18521258205E+03 -0.18274203917E+03  0.97009372448E+02  0.27768538271E+03  0.00000000000E+00 0.  1.
         22    1    5    5    0    0  0.31157326019E+03  0.12938466725E+03 -0.56899996133E+03  0.66149772832E+03  0.00000000000E+00 0.  1.
          5    1    4    4  502    0 -0.11597903234E+03  0.89671794234E+02 -0.67478669490E+02  0.16145472263E+03  0.47000000000E+01 0.  1.
         -5    1    4    4    0  502 -0.10381645804E+02 -0.36314422317E+02 -0.72335132856E+01  0.38741832072E+02  0.47000000000E+01 0.  1.
<mgrwt>
<rscale>  0 0.99965099E+03</rscale>
<asrwt>0</asrwt>
<pdfrwt beam="1">  1        1 0.12969865E+00 0.99965099E+03</pdfrwt>
<pdfrwt beam="2">  1       -1 0.45590531E-01 0.99965099E+03</pdfrwt>
<totfact> 0.11005266E+02</totfact>
</mgrwt>
</event>
<event>
 9    1  0.4388925E-036  0.1001064E+04  0.7818608E-02  0.8680025E-01
          2   -1    0    0  501    0  0.00000000000E+00  0.00000000000E+00  0.18438777014E+04  0.18438777014E+04  0.00000000000E+00 0.  1.
         -2   -1    0    0    0  501 -0.00000000000E+00 -0.00000000000E+00 -0.13587247553E+03  0.13587247553E+03  0.00000000000E+00 0.  1.
         36    2    1    2    0    0  0.00000000000E+00  0.14210854715E-13  0.17080052258E+04  0.19797501769E+04  0.10010638898E+04 0.  0.
         25    2    3    3    0    0 -0.61195104365E+02 -0.11946913011E+03  0.23349137011E+03  0.29680863667E+03  0.12473745646E+03 0.  0.
         35    2    3    3    0    0  0.61195104365E+02  0.11946913011E+03  0.14745138557E+04  0.16829415402E+04  0.80005212530E+03 0.  0.
         22    1    5    5    0    0 -0.18347410131E+03  0.33387405317E+03  0.36830863020E+03  0.52989232520E+03  0.00000000000E+00 0. -1.
         22    1    5    5    0    0  0.24466920568E+03 -0.21440492307E+03  0.11062052255E+04  0.11530492150E+04  0.00000000000E+00 0. -1.
          5    1    4    4  502    0 -0.43408332479E+02  0.59152821207E+01  0.11564867015E+03  0.12375774238E+03  0.47000000000E+01 0. -1.
         -5    1    4    4    0  502 -0.17786771886E+02 -0.12538441223E+03  0.11784269996E+03  0.17305089430E+03  0.47000000000E+01 0. -1.
<mgrwt>
<rscale>  0 0.10010639E+04</rscale>
<asrwt>0</asrwt>
<pdfrwt beam="1">  1        2 0.28367347E+00 0.10010639E+04</pdfrwt>
<pdfrwt beam="2">  1       -2 0.20903459E-01 0.10010639E+04</pdfrwt>
<totfact> 0.19038011E+02</totfact>
</mgrwt>
</event>
<event>
 9    1  0.4388925E-036  0.9997777E+03  0.7818608E-02  0.8681250E-01
          1   -1    0    0  501    0  0.00000000000E+00  0.00000000000E+00  0.32794343147E+03  0.32794343147E+03  0.00000000000E+00 0.  1.
         -1   -1    0    0    0  501 -0.00000000000E+00 -0.00000000000E+00 -0.76198772200E+03  0.76198772200E+03  0.00000000000E+00 0.  1.
         36    2    1    2    0    0  0.14210854715E-13  0.00000000000E+00 -0.43404429053E+03  0.10899311535E+04  0.99977771188E+03 0.  0.
         25    2    3    3    0    0 -0.95903544202E+02  0.32454628919E+02 -0.18451511281E+03  0.24529625366E+03  0.12599060471E+03 0.  0.
         35    2    3    3    0    0  0.95903544202E+02 -0.32454628919E+02 -0.24952917772E+03  0.84463489982E+03  0.80055762487E+03 0.  0.
         22    1    5    5    0    0 -0.30639322370E+03 -0.10170497190E+03  0.64990220755E+02  0.32930903060E+03  0.00000000000E+00 0. -1.
         22    1    5    5    0    0  0.40229676791E+03  0.69250342981E+02 -0.31451939848E+03  0.51532586922E+03  0.00000000000E+00 0. -1.
          5    1    4    4  502    0 -0.42039688991E+02  0.38124201306E+02 -0.18218915807E+03  0.19088155882E+03  0.47000000000E+01 0.  1.
         -5    1    4    4    0  502 -0.53863855211E+02 -0.56695723872E+01 -0.23259547340E+01  0.54414694842E+02  0.47000000000E+01 0.  1.
<mgrwt>
<rscale>  0 0.99977771E+03</rscale>
<asrwt>0</asrwt>
<pdfrwt beam="1">  1        1 0.50452836E-01 0.99977771E+03</pdfrwt>
<pdfrwt beam="2">  1       -1 0.11722888E+00 0.99977771E+03</pdfrwt>
<totfact> 0.61494781E+01</totfact>
</mgrwt>
</event>
<event>
 9    1  0.4388925E-036  0.9989950E+03  0.7818608E-02  0.8681996E-01
          1   -1    0    0  501    0  0.00000000000E+00  0.00000000000E+00  0.32415626534E+04  0.32415626534E+04  0.00000000000E+00 0.  1.
         -1   -1    0    0    0  501 -0.00000000000E+00 -0.00000000000E+00 -0.76968353213E+02  0.76968353213E+02  0.00000000000E+00 0.  1.
         36    2    1    2    0    0  0.00000000000E+00  0.00000000000E+00  0.31645943002E+04  0.33185310066E+04  0.99899497350E+03 0.  0.
         25    2    3    3    0    0  0.39418523389E+02 -0.13132036045E+03  0.68070869220E+03  0.70538540782E+03  0.12411846304E+03 0.  0.
         35    2    3    3    0    0 -0.39418523389E+02  0.13132036045E+03  0.24838856080E+04  0.26131455988E+04  0.80002709323E+03 0.  0.
         22    1    5    5    0    0  0.55630226381E+02  0.35552702859E+03  0.50931629557E+03  0.62361629154E+03  0.00000000000E+00 0. -1.
         22    1    5    5    0    0 -0.95048749770E+02 -0.22420666814E+03  0.19745693125E+04  0.19895293073E+04  0.00000000000E+00 0. -1.
          5    1    4    4  502    0  0.24347879244E+02 -0.63448883400E+01  0.19219160805E+02  0.32008482841E+02  0.47000000000E+01 0. -1.
         -5    1    4    4    0  502  0.15070644145E+02 -0.12497547211E+03  0.66148953139E+03  0.67337692497E+03  0.47000000000E+01 0. -1.
<mgrwt>
<rscale>  0 0.99899497E+03</rscale>
<asrwt>0</asrwt>
<pdfrwt beam="1">  1        1 0.49870184E+00 0.99899497E+03</pdfrwt>
<pdfrwt beam="2">  1       -1 0.11841288E-01 0.99899497E+03</pdfrwt>
<totfact> 0.19474463E+01</totfact>
</mgrwt>
</event>
<event>
 9    1  0.4388925E-036  0.9999130E+03  0.7818608E-02  0.8681121E-01
          1   -1    0    0  501    0  0.00000000000E+00  0.00000000000E+00  0.22429320234E+04  0.22429320234E+04  0.00000000000E+00 0.  1.
         -1   -1    0    0    0  501 -0.00000000000E+00 -0.00000000000E+00 -0.11144185280E+03  0.11144185280E+03  0.00000000000E+00 0.  1.
         36    2    1    2    0    0  0.00000000000E+00 -0.10658141036E-13  0.21314901706E+04  0.23543738762E+04  0.99991299700E+03 0.  0.
         25    2    3    3    0    0 -0.11162807080E+03  0.43073154929E+01  0.64272512122E+03  0.66418520527E+03  0.12476788968E+03 0.  0.
         35    2    3    3    0    0  0.11162807080E+03 -0.43073154929E+01  0.14887650494E+04  0.16901886709E+04  0.79236165475E+03 0.  0.
         22    1    5    5    0    0  0.41392605998E+03 -0.17099836749E+03  0.72737375713E+03  0.85419424452E+03  0.00000000000E+00 0. -1.
         22    1    5    5    0    0 -0.30229798917E+03  0.16669105199E+03  0.76139129225E+03  0.83599442640E+03  0.00000000000E+00 0. -1.
          5    1    4    4  502    0 -0.11997744559E+03  0.33933491785E+02  0.58916377309E+03  0.60223094476E+03  0.47000000000E+01 0. -1.
         -5    1    4    4    0  502  0.83493747857E+01 -0.29626176292E+02  0.53561348131E+02  0.61954260505E+02  0.47000000000E+01 0. -1.
<mgrwt>
<rscale>  0 0.99991300E+03</rscale>
<asrwt>0</asrwt>
<pdfrwt beam="1">  1        1 0.34506643E+00 0.99991300E+03</pdfrwt>
<pdfrwt beam="2">  1       -1 0.17144902E-01 0.99991300E+03</pdfrwt>
<totfact> 0.55400316E+01</totfact>
</mgrwt>
</event>
<event>
 9    1  0.4388925E-036  0.1000407E+04  0.7818608E-02  0.8680650E-01
          1   -1    0    0  501    0  0.00000000000E+00  0.00000000000E+00  0.26063392436E+03  0.26063392436E+03  0.00000000000E+00 0. -1.
         -1   -1    0    0    0  501 -0.00000000000E+00 -0.00000000000E+00 -0.95998117342E+03  0.95998117342E+03  0.00000000000E+00 0. -1.
         36    2    1    2    0    0 -0.14210854715E-13  0.00000000000E+00 -0.69934724906E+03  0.12206150978E+04  0.10004072382E+04 0.  0.
         25    2    3    3    0    0  0.11511048464E+03 -0.77611137175E+02 -0.15074945057E+03  0.24048126212E+03  0.12582499074E+03 0.  0.
         35    2    3    3    0    0 -0.11511048464E+03  0.77611137175E+02 -0.54859779849E+03  0.98013383566E+03  0.80026800450E+03 0.  0.
         22    1    5    5    0    0 -0.22642027015E+03  0.55108138045E+02 -0.72990317818E+03  0.76619951392E+03  0.00000000000E+00 0.  1.
         22    1    5    5    0    0  0.11130978550E+03  0.22502999130E+02  0.18130537969E+03  0.21393432175E+03  0.00000000000E+00 0.  1.
          5    1    4    4  502    0 -0.77161685762E+01  0.17457708060E+02 -0.53916081635E+02  0.57387670166E+02  0.47000000000E+01 0. -1.
         -5    1    4    4    0  502  0.12282665322E+03 -0.95068845236E+02 -0.96833368935E+02  0.18309359196E+03  0.47000000000E+01 0. -1.
<mgrwt>
<rscale>  0 0.10004072E+04</rscale>
<asrwt>0</asrwt>
<pdfrwt beam="1">  1        1 0.40097527E-01 0.10004072E+04</pdfrwt>
<pdfrwt beam="2">  1       -1 0.14768941E+00 0.10004072E+04</pdfrwt>
<totfact> 0.45146474E+01</totfact>
</mgrwt>
</event>
<event>
 9    1  0.4388925E-036  0.9996819E+03  0.7818608E-02  0.8681341E-01
         -2   -1    0    0    0  501 -0.00000000000E+00  0.00000000000E+00  0.35528073853E+03  0.35528073853E+03  0.00000000000E+00 0.  1.
          2   -1    0    0  501    0  0.00000000000E+00 -0.00000000000E+00 -0.70322123838E+03  0.70322123838E+03  0.00000000000E+00 0.  1.
         36    2    1    2    0    0 -0.14210854715E-13  0.71054273576E-14 -0.34794049985E+03  0.10585019769E+04  0.99968187124E+03 0.  0.
         25    2    3    3    0    0 -0.50424205485E+02 -0.29659487719E+02 -0.18818796655E+03  0.23297147775E+03  0.12425261760E+03 0.  0.
         35    2    3    3    0    0  0.50424205485E+02  0.29659487719E+02 -0.15975253330E+03  0.82553049916E+03  0.80781027936E+03 0.  0.
         22    1    5    5    0    0  0.33954758207E+03 -0.22291661991E+03  0.87315111571E+01  0.40627653047E+03  0.00000000000E+00 0.  1.
         22    1    5    5    0    0 -0.28912337658E+03  0.25257610763E+03 -0.16848404446E+03  0.41925396870E+03  0.00000000000E+00 0.  1.
          5    1    4    4  502    0 -0.53232574947E+02  0.32177729841E+02 -0.45034408090E+02  0.76936995296E+02  0.47000000000E+01 0.  1.
         -5    1    4    4    0  502  0.28083694623E+01 -0.61837217561E+02 -0.14315355846E+03  0.15603448245E+03  0.47000000000E+01 0.  1.
<mgrwt>
<rscale>  0 0.99968187E+03</rscale>
<asrwt>0</asrwt>
<pdfrwt beam="1">  1        2 0.10818788E+00 0.99968187E+03</pdfrwt>
<pdfrwt beam="2">  1       -2 0.54658575E-01 0.99968187E+03</pdfrwt>
<totfact> 0.15526744E+02</totfact>
</mgrwt>
</event>
<event>
 9    1  0.4388925E-036  0.1000078E+04  0.7818608E-02  0.8680964E-01
          2   -1    0    0  501    0  0.00000000000E+00  0.00000000000E+00  0.30318006983E+03  0.30318006983E+03  0.00000000000E+00 0.  1.
         -2   -1    0    0    0  501 -0.00000000000E+00 -0.00000000000E+00 -0.82472045267E+03  0.82472045267E+03  0.00000000000E+00 0.  1.
         36    2    1    2    0    0  0.00000000000E+00 -0.28421709430E-13 -0.52154038283E+03  0.11279005225E+04  0.10000776059E+04 0.  0.
         25    2    3    3    0    0  0.83655489798E+02  0.10307917165E+03 -0.14928292788E+03  0.23532360532E+03  0.12437141979E+03 0.  0.
         35    2    3    3    0    0 -0.83655489798E+02 -0.10307917165E+03 -0.37225745495E+03  0.89257691718E+03  0.80030893018E+03 0.  0.
         22    1    5    5    0    0  0.16450068948E+03 -0.26786007729E+03 -0.48172941837E+03  0.57521537738E+03  0.00000000000E+00 0. -1.
         22    1    5    5    0    0 -0.24815617927E+03  0.16478090564E+03  0.10947196342E+03  0.31736153981E+03  0.00000000000E+00 0. -1.
          5    1    4    4  502    0  0.73726450681E+02 -0.40087949732E+01 -0.67225482257E+02  0.99965071059E+02  0.47000000000E+01 0. -1.
         -5    1    4    4    0  502  0.99290391171E+01  0.10708796663E+03 -0.82057445625E+02  0.13535853426E+03  0.47000000000E+01 0. -1.
<mgrwt>
<rscale>  0 0.10000776E+04</rscale>
<asrwt>0</asrwt>
<pdfrwt beam="1">  1        2 0.46643088E-01 0.10000776E+04</pdfrwt>
<pdfrwt beam="2">  1       -2 0.12688007E+00 0.10000776E+04</pdfrwt>
<totfact> 0.58038628E+01</totfact>
</mgrwt>
</event>
<event>
 9    1  0.4388925E-036  0.9981980E+03  0.7818608E-02  0.8682756E-01
          3   -1    0    0  501    0  0.00000000000E+00  0.00000000000E+00  0.66117776716E+03  0.66117776716E+03  0.00000000000E+00 0.  1.
         -3   -1    0    0    0  501 -0.00000000000E+00 -0.00000000000E+00 -0.37675161678E+03  0.37675161678E+03  0.00000000000E+00 0.  1.
         36    2    1    2    0    0  0.28421709430E-13  0.71054273576E-14  0.28442615037E+03  0.10379293839E+04  0.99819796185E+03 0.  0.
         25    2    3    3    0    0  0.77551233356E+02  0.34759551792E+02 -0.57329285974E+02  0.16338899948E+03  0.12722774023E+03 0.  0.
         35    2    3    3    0    0 -0.77551233356E+02 -0.34759551792E+02  0.34175543635E+03  0.87454038446E+03  0.80050089666E+03 0.  0.
         22    1    5    5    0    0 -0.26269928823E+03  0.31305199059E+03  0.20705212528E+03  0.45812994601E+03  0.00000000000E+00 0. -1.
         22    1    5    5    0    0  0.18514805488E+03 -0.34781154238E+03  0.13470331106E+03  0.41641043845E+03  0.00000000000E+00 0. -1.
          5    1    4    4  502    0  0.43425788422E+02  0.81668273001E+02 -0.48431880779E+02  0.10451431955E+03  0.47000000000E+01 0.  1.
         -5    1    4    4    0  502  0.34125444934E+02 -0.46908721209E+02 -0.88974051953E+01  0.58874679928E+02  0.47000000000E+01 0.  1.
<mgrwt>
<rscale>  0 0.99819796E+03</rscale>
<asrwt>0</asrwt>
<pdfrwt beam="1">  1        3 0.10171966E+00 0.99819796E+03</pdfrwt>
<pdfrwt beam="2">  1       -3 0.57961787E-01 0.99819796E+03</pdfrwt>
<totfact> 0.10173108E+01</totfact>
</mgrwt>
</event>
<event>
 9    1  0.4388925E-036  0.9984226E+03  0.7818608E-02  0.8682542E-01
          1   -1    0    0  501    0  0.00000000000E+00  0.00000000000E+00  0.30330917699E+03  0.30330917699E+03  0.00000000000E+00 0. -1.
         -1   -1    0    0    0  501 -0.00000000000E+00 -0.00000000000E+00 -0.82164314005E+03  0.82164314005E+03  0.00000000000E+00 0. -1.
         36    2    1    2    0    0  0.35527136788E-13  0.35527136788E-14 -0.51833396306E+03  0.11249523170E+04  0.99842256503E+03 0.  0.
         25    2    3    3    0    0 -0.36973819140E+01  0.96045182433E+01 -0.23782926321E+03  0.26980170535E+03  0.12698143316E+03 0.  0.
         35    2    3    3    0    0  0.36973819140E+01 -0.96045182433E+01 -0.28050469984E+03  0.85515061169E+03  0.80777086146E+03 0.  0.
         22    1    5    5    0    0  0.37464795504E+03  0.13938393301E+03 -0.20155974938E+03  0.44767767821E+03  0.00000000000E+00 0. -1.
         22    1    5    5    0    0 -0.37095057313E+03 -0.14898845126E+03 -0.78944950459E+02  0.40747293347E+03  0.00000000000E+00 0. -1.
          5    1    4    4  502    0 -0.59203458768E+02  0.24352725562E+02 -0.85321245091E+02  0.10677035935E+03  0.47000000000E+01 0. -1.
         -5    1    4    4    0  502  0.55506076854E+02 -0.14748207319E+02 -0.15250801812E+03  0.16303134600E+03  0.47000000000E+01 0. -1.
<mgrwt>
<rscale>  0 0.99842257E+03</rscale>
<asrwt>0</asrwt>
<pdfrwt beam="1">  1        1 0.46662950E-01 0.99842257E+03</pdfrwt>
<pdfrwt beam="2">  1       -1 0.12640664E+00 0.99842257E+03</pdfrwt>
<totfact> 0.56434633E+01</totfact>
</mgrwt>
</event>
<event>
 9    1  0.4388925E-036  0.9996120E+03  0.7818608E-02  0.8681408E-01
          2   -1    0    0  501    0  0.00000000000E+00  0.00000000000E+00  0.13755100608E+04  0.13755100608E+04  0.00000000000E+00 0. -1.
         -2   -1    0    0    0  501 -0.00000000000E+00 -0.00000000000E+00 -0.18160973827E+03  0.18160973827E+03  0.00000000000E+00 0. -1.
         36    2    1    2    0    0  0.14210854715E-13  0.14210854715E-13  0.11939003225E+04  0.15571197990E+04  0.99961196897E+03 0.  0.
         25    2    3    3    0    0  0.80974931459E+02  0.74860205349E+02  0.35944814082E+03  0.39597064545E+03  0.12421270568E+03 0.  0.
         35    2    3    3    0    0 -0.80974931459E+02 -0.74860205349E+02  0.83445218167E+03  0.11611491536E+04  0.79987244202E+03 0.  0.
         22    1    5    5    0    0  0.33042355163E+03 -0.13957670061E+02  0.15667916579E+03  0.36595478002E+03  0.00000000000E+00 0.  1.
         22    1    5    5    0    0 -0.41139848309E+03 -0.60902535287E+02  0.67777301587E+03  0.79519437356E+03  0.00000000000E+00 0.  1.
          5    1    4    4  502    0  0.79974240555E+01 -0.25161603745E+02  0.16889416323E+02  0.31692388334E+02  0.47000000000E+01 0.  1.
         -5    1    4    4    0  502  0.72977507404E+02  0.10002180909E+03  0.34255872450E+03  0.36427825712E+03  0.47000000000E+01 0.  1.
<mgrwt>
<rscale>  0 0.99961197E+03</rscale>
<asrwt>0</asrwt>
<pdfrwt beam="1">  1        2 0.21161693E+00 0.99961197E+03</pdfrwt>
<pdfrwt beam="2">  1       -2 0.27939961E-01 0.99961197E+03</pdfrwt>
<totfact> 0.20973446E+02</totfact>
</mgrwt>
</event>
<event>
 9    1  0.4388925E-036  0.1000601E+04  0.7818608E-02  0.8680465E-01
         -2   -1    0    0    0  501 -0.00000000000E+00  0.00000000000E+00  0.12707601098E+03  0.12707601098E+03  0.00000000000E+00 0.  1.
          2   -1    0    0  501    0  0.00000000000E+00 -0.00000000000E+00 -0.19696938117E+04  0.19696938117E+04  0.00000000000E+00 0.  1.
         36    2    1    2    0    0  0.14210854715E-13  0.14210854715E-13 -0.18426178007E+04  0.20967698227E+04  0.10006014840E+04 0.  0.
         25    2    3    3    0    0 -0.11504214554E+03 -0.40544491998E+02 -0.49045862206E+03  0.52091069812E+03  0.12617346940E+03 0.  0.
         35    2    3    3    0    0  0.11504214554E+03  0.40544491998E+02 -0.13521591787E+04  0.15758591246E+04  0.80007436216E+03 0.  0.
         22    1    5    5    0    0  0.41480656021E+02 -0.31982379071E+03 -0.10544636177E+04  0.11026792022E+04  0.00000000000E+00 0. -1.
         22    1    5    5    0    0  0.73561489518E+02  0.36036828271E+03 -0.29769556100E+03  0.47317992240E+03  0.00000000000E+00 0. -1.
          5    1    4    4  502    0 -0.77262662236E+02  0.12095406995E+02 -0.11059995378E+03  0.13553692347E+03  0.47000000000E+01 0. -1.
         -5    1    4    4    0  502 -0.37779483302E+02 -0.52639898993E+02 -0.37985866828E+03  0.38537377466E+03  0.47000000000E+01 0. -1.
<mgrwt>
<rscale>  0 0.10006015E+04</rscale>
<asrwt>0</asrwt>
<pdfrwt beam="1">  1        2 0.30302978E+00 0.10006015E+04</pdfrwt>
<pdfrwt beam="2">  1       -2 0.19550158E-01 0.10006015E+04</pdfrwt>
<totfact> 0.18141586E+02</totfact>
</mgrwt>
</event>
<event>
 9    1  0.4388925E-036  0.1002564E+04  0.7818608E-02  0.8678600E-01
         -1   -1    0    0    0  501 -0.00000000000E+00  0.00000000000E+00  0.11897146903E+03  0.11897146903E+03  0.00000000000E+00 0. -1.
          1   -1    0    0  501    0  0.00000000000E+00 -0.00000000000E+00 -0.21121326194E+04  0.21121326194E+04  0.00000000000E+00 0. -1.
         36    2    1    2    0    0  0.00000000000E+00  0.10658141036E-13 -0.19931611504E+04  0.22311040885E+04  0.10025637546E+04 0.  0.
         25    2    3    3    0    0  0.10458282427E+03 -0.10946978046E+02 -0.16956212980E+03  0.23744590791E+03  0.12873165833E+03 0.  0.
         35    2    3    3    0    0 -0.10458282427E+03  0.10946978046E+02 -0.18235990206E+04  0.19936581806E+04  0.79881296278E+03 0.  0.
         22    1    5    5    0    0 -0.15953303712E+03 -0.28279559892E+03 -0.30345816477E+03  0.44442209494E+03  0.00000000000E+00 0.  1.
         22    1    5    5    0    0  0.54950212847E+02  0.29374257697E+03 -0.15201408558E+04  0.15492360856E+04  0.00000000000E+00 0.  1.
          5    1    4    4  502    0 -0.19612215873E+02 -0.22769551484E+02 -0.49040082533E+01  0.30809589143E+02  0.47000000000E+01 0.  1.
         -5    1    4    4    0  502  0.12419504015E+03  0.11822573438E+02 -0.16465812155E+03  0.20663631876E+03  0.47000000000E+01 0.  1.
<mgrwt>
<rscale>  0 0.10025638E+04</rscale>
<asrwt>0</asrwt>
<pdfrwt beam="1">  1        1 0.32494346E+00 0.10025638E+04</pdfrwt>
<pdfrwt beam="2">  1       -1 0.18303304E-01 0.10025638E+04</pdfrwt>
<totfact> 0.61492222E+01</totfact>
</mgrwt>
</event>
<event>
 9    1  0.4388925E-036  0.1000381E+04  0.7818608E-02  0.8680676E-01
         -2   -1    0    0    0  501 -0.00000000000E+00  0.00000000000E+00  0.22172656128E+03  0.22172656128E+03  0.00000000000E+00 0. -1.
          2   -1    0    0  501    0  0.00000000000E+00 -0.00000000000E+00 -0.11283733932E+04  0.11283733932E+04  0.00000000000E+00 0. -1.
         36    2    1    2    0    0  0.28421709430E-13  0.71054273576E-14 -0.90664683194E+03  0.13500999545E+04  0.10003806322E+04 0.  0.
         25    2    3    3    0    0  0.55229510244E+02 -0.17633018350E+02 -0.33788043632E+03  0.36697504101E+03  0.13094376404E+03 0.  0.
         35    2    3    3    0    0 -0.55229510244E+02  0.17633018350E+02 -0.56876639562E+03  0.98312491350E+03  0.79979882509E+03 0.  0.
         22    1    5    5    0    0 -0.39467228872E+03 -0.14554718079E+03 -0.24732902452E+03  0.48797729834E+03  0.00000000000E+00 0.  1.
         22    1    5    5    0    0  0.33944277848E+03  0.16318019914E+03 -0.32143737111E+03  0.49514761516E+03  0.00000000000E+00 0.  1.
          5    1    4    4  502    0  0.90615418947E+02 -0.39429770161E+02 -0.20420103231E+03  0.22690529417E+03  0.47000000000E+01 0. -1.
         -5    1    4    4    0  502 -0.35385908703E+02  0.21796751811E+02 -0.13367940401E+03  0.14006974684E+03  0.47000000000E+01 0. -1.
<mgrwt>
<rscale>  0 0.10003806E+04</rscale>
<asrwt>0</asrwt>
<pdfrwt beam="1">  1        2 0.17359591E+00 0.10003806E+04</pdfrwt>
<pdfrwt beam="2">  1       -2 0.34111779E-01 0.10003806E+04</pdfrwt>
<totfact> 0.20312079E+02</totfact>
</mgrwt>
</event>
<event>
 9    1  0.4388925E-036  0.9998454E+03  0.7818608E-02  0.8681185E-01
         -2   -1    0    0    0  501 -0.00000000000E+00  0.00000000000E+00  0.48805251968E+03  0.48805251968E+03  0.00000000000E+00 0. -1.
          2   -1    0    0  501    0  0.00000000000E+00 -0.00000000000E+00 -0.51208158498E+03  0.51208158498E+03  0.00000000000E+00 0. -1.
         36    2    1    2    0    0 -0.21316282073E-13 -0.14210854715E-13 -0.24029065298E+02  0.10001341047E+04  0.99984540371E+03 0.  0.
         25    2    3    3    0    0  0.55147170206E+01  0.91319999685E+02  0.10304167076E+03  0.18503643073E+03  0.12349550736E+03 0.  0.
         35    2    3    3    0    0 -0.55147170206E+01 -0.91319999685E+02 -0.12707073606E+03  0.81509767393E+03  0.79991717799E+03 0.  0.
         22    1    5    5    0    0 -0.33382819554E+03  0.15940223406E+02 -0.28130162374E+03  0.43683630616E+03  0.00000000000E+00 0.  1.
         22    1    5    5    0    0  0.32831347852E+03 -0.10726022309E+03  0.15423088768E+03  0.37826136777E+03  0.00000000000E+00 0.  1.
          5    1    4    4  502    0 -0.38396597827E+02  0.49226698443E+02 -0.30195050164E+01  0.62679932792E+02  0.47000000000E+01 0. -1.
         -5    1    4    4    0  502  0.43911314847E+02  0.42093301242E+02  0.10606117577E+03  0.12235649794E+03  0.47000000000E+01 0. -1.
<mgrwt>
<rscale>  0 0.99984540E+03</rscale>
<asrwt>0</asrwt>
<pdfrwt beam="1">  1        2 0.78781782E-01 0.99984540E+03</pdfrwt>
<pdfrwt beam="2">  1       -2 0.75085003E-01 0.99984540E+03</pdfrwt>
<totfact> 0.11523084E+02</totfact>
</mgrwt>
</event>
<event>
 9    1  0.4388925E-036  0.9996188E+03  0.7818608E-02  0.8681401E-01
          2   -1    0    0  501    0  0.00000000000E+00  0.00000000000E+00  0.14217321104E+04  0.14217321104E+04  0.00000000000E+00 0.  1.
         -2   -1    0    0    0  501 -0.00000000000E+00 -0.00000000000E+00 -0.17570781248E+03  0.17570781248E+03  0.00000000000E+00 0.  1.
         36    2    1    2    0    0  0.00000000000E+00  0.00000000000E+00  0.12460242979E+04  0.15974399229E+04  0.99961880545E+03 0.  0.
         25    2    3    3    0    0  0.88221819494E+02  0.43079694128E+02  0.75198288414E+02  0.17558749420E+03  0.12464844988E+03 0.  0.
         35    2    3    3    0    0 -0.88221819494E+02 -0.43079694128E+02  0.11708260095E+04  0.14218524287E+04  0.80074455036E+03 0.  0.
         22    1    5    5    0    0  0.57120167584E+02  0.42102410842E+02 -0.10950473120E+03  0.13048606323E+03  0.00000000000E+00 0.  1.
         22    1    5    5    0    0 -0.14534198708E+03 -0.85182104970E+02  0.12803307407E+04  0.12913663655E+04  0.00000000000E+00 0.  1.
          5    1    4    4  502    0 -0.23328764762E+02  0.37270669704E+02  0.36307147445E+02  0.57215671289E+02  0.47000000000E+01 0. -1.
         -5    1    4    4    0  502  0.11155058426E+03  0.58090244244E+01  0.38891140969E+02  0.11837182291E+03  0.47000000000E+01 0. -1.
<mgrwt>
<rscale>  0 0.99961881E+03</rscale>
<asrwt>0</asrwt>
<pdfrwt beam="1">  1        2 0.21872801E+00 0.99961881E+03</pdfrwt>
<pdfrwt beam="2">  1       -2 0.27031972E-01 0.99961881E+03</pdfrwt>
<totfact> 0.20943922E+02</totfact>
</mgrwt>
</event>
<event>
 9    1  0.4388925E-036  0.9960717E+03  0.7818608E-02  0.8684788E-01
          2   -1    0    0  501    0  0.00000000000E+00  0.00000000000E+00  0.68116540167E+03  0.68116540167E+03  0.00000000000E+00 0.  1.
         -2   -1    0    0    0  501 -0.00000000000E+00 -0.00000000000E+00 -0.36414016715E+03  0.36414016715E+03  0.00000000000E+00 0.  1.
         36    2    1    2    0    0  0.00000000000E+00  0.00000000000E+00  0.31702523452E+03  0.10453055688E+04  0.99607165048E+03 0.  0.
         25    2    3    3    0    0  0.33520900823E+02  0.90007094592E+02  0.15790442500E+03  0.22404971999E+03  0.12664731235E+03 0.  0.
         35    2    3    3    0    0 -0.33520900823E+02 -0.90007094592E+02  0.15912080952E+03  0.82125584884E+03  0.79994800416E+03 0.  0.
         22    1    5    5    0    0 -0.36260310664E+03 -0.14585171075E+03 -0.94435857232E+02  0.40208440110E+03  0.00000000000E+00 0.  1.
         22    1    5    5    0    0  0.32908220582E+03  0.55844616162E+02  0.25355666676E+03  0.41917144774E+03  0.00000000000E+00 0.  1.
          5    1    4    4  502    0  0.17376343897E+02  0.38448062216E+02 -0.13278720887E+02  0.44481515754E+02  0.47000000000E+01 0. -1.
         -5    1    4    4    0  502  0.16144556927E+02  0.51559032376E+02  0.17118314588E+03  0.17956820424E+03  0.47000000000E+01 0. -1.
<mgrwt>
<rscale>  0 0.99607165E+03</rscale>
<asrwt>0</asrwt>
<pdfrwt beam="1">  1        2 0.10479468E+00 0.99607165E+03</pdfrwt>
<pdfrwt beam="2">  1       -2 0.56021564E-01 0.99607165E+03</pdfrwt>
<totfact> 0.15352043E+02</totfact>
</mgrwt>
</event>
<event>
 9    1  0.4388925E-036  0.1003247E+04  0.7818608E-02  0.8677952E-01
         -2   -1    0    0    0  501 -0.00000000000E+00  0.00000000000E+00  0.41614152133E+03  0.41614152133E+03  0.00000000000E+00 0.  1.
          2   -1    0    0  501    0  0.00000000000E+00 -0.00000000000E+00 -0.60466521471E+03  0.60466521471E+03  0.00000000000E+00 0.  1.
         36    2    1    2    0    0  0.14210854715E-13 -0.28421709430E-13 -0.18852369339E+03  0.10208067360E+04  0.10032473321E+04 0.  0.
         25    2    3    3    0    0  0.11517855341E+03 -0.19055381940E+02 -0.12383254338E+03  0.21114715099E+03  0.12497765331E+03 0.  0.
         35    2    3    3    0    0 -0.11517855341E+03  0.19055381940E+02 -0.64691150010E+02  0.80965958504E+03  0.79858280223E+03 0.  0.
         22    1    5    5    0    0 -0.21826433208E+03  0.30213784504E+03  0.18707543358E+03  0.41704174122E+03  0.00000000000E+00 0.  1.
         22    1    5    5    0    0  0.10308577868E+03 -0.28308246310E+03 -0.25176658359E+03  0.39261784383E+03  0.00000000000E+00 0.  1.
          5    1    4    4  502    0  0.10325744123E+03 -0.29586277511E+02 -0.14732797704E+03  0.18238714265E+03  0.47000000000E+01 0.  1.
         -5    1    4    4    0  502  0.11921112174E+02  0.10530895571E+02  0.23495433660E+02  0.28760008342E+02  0.47000000000E+01 0.  1.
<mgrwt>
<rscale>  0 0.10032473E+04</rscale>
<asrwt>0</asrwt>
<pdfrwt beam="1">  1        2 0.93025418E-01 0.10032473E+04</pdfrwt>
<pdfrwt beam="2">  1       -2 0.64021772E-01 0.10032473E+04</pdfrwt>
<totfact> 0.13409311E+02</totfact>
</mgrwt>
</event>
<event>
 9    1  0.4388925E-036  0.1000717E+04  0.7818608E-02  0.8680355E-01
         -2   -1    0    0    0  501 -0.00000000000E+00  0.00000000000E+00  0.27241176181E+03  0.27241176181E+03  0.00000000000E+00 0. -1.
          2   -1    0    0  501    0  0.00000000000E+00 -0.00000000000E+00 -0.91904557805E+03  0.91904557805E+03  0.00000000000E+00 0. -1.
         36    2    1    2    0    0  0.21316282073E-13 -0.28421709430E-13 -0.64663381623E+03  0.11914573399E+04  0.10007173929E+04 0.  0.
         25    2    3    3    0    0 -0.95313499637E+01  0.93127968768E+02  0.39063992952E+01  0.15596205273E+03  0.12468053872E+03 0.  0.
         35    2    3    3    0    0  0.95313499637E+01 -0.93127968768E+02 -0.65054021553E+03  0.10354952871E+04  0.80017763806E+03 0.  0.
         22    1    5    5    0    0 -0.25995658025E+03  0.18526547465E+03 -0.53385285213E+02  0.32365214102E+03  0.00000000000E+00 0. -1.
         22    1    5    5    0    0  0.26948793021E+03 -0.27839344342E+03 -0.59715493031E+03  0.71184314611E+03  0.00000000000E+00 0. -1.
          5    1    4    4  502    0  0.17211099415E+02  0.21256464331E+02  0.56436947678E+02  0.62891003189E+02  0.47000000000E+01 0. -1.
         -5    1    4    4    0  502 -0.26742449378E+02  0.71871504437E+02 -0.52530548383E+02  0.93071049538E+02  0.47000000000E+01 0. -1.
<mgrwt>
<rscale>  0 0.10007174E+04</rscale>
<asrwt>0</asrwt>
<pdfrwt beam="1">  1        2 0.14139163E+00 0.10007174E+04</pdfrwt>
<pdfrwt beam="2">  1       -2 0.41909502E-01 0.10007174E+04</pdfrwt>
<totfact> 0.18579902E+02</totfact>
</mgrwt>
</event>
<event>
 9    1  0.4388925E-036  0.1000088E+04  0.7818608E-02  0.8680954E-01
         -2   -1    0    0    0  501 -0.00000000000E+00  0.00000000000E+00  0.30497964668E+03  0.30497964668E+03  0.00000000000E+00 0.  1.
          2   -1    0    0  501    0  0.00000000000E+00 -0.00000000000E+00 -0.81987088053E+03  0.81987088053E+03  0.00000000000E+00 0.  1.
         36    2    1    2    0    0  0.17763568394E-14 -0.28421709430E-13 -0.51489123384E+03  0.11248505272E+04  0.10000878591E+04 0.  0.
         25    2    3    3    0    0  0.25583463485E+01  0.13065109254E+03 -0.12783756111E+03  0.22636957007E+03  0.13350837841E+03 0.  0.
         35    2    3    3    0    0 -0.25583463485E+01 -0.13065109254E+03 -0.38705367273E+03  0.89848095714E+03  0.80023823431E+03 0.  0.
         22    1    5    5    0    0 -0.66531165972E+02 -0.17179240154E+03 -0.62347650754E+03  0.65012458862E+03  0.00000000000E+00 0.  1.
         22    1    5    5    0    0  0.63972819624E+02  0.41141309002E+02  0.23642283482E+03  0.24835636851E+03  0.00000000000E+00 0.  1.
          5    1    4    4  502    0  0.17325545167E+02  0.14399814723E+03 -0.62668818272E+02  0.15806679507E+03  0.47000000000E+01 0.  1.
         -5    1    4    4    0  502 -0.14767198818E+02 -0.13347054686E+02 -0.65168742843E+02  0.68302775005E+02  0.47000000000E+01 0.  1.
<mgrwt>
<rscale>  0 0.10000879E+04</rscale>
<asrwt>0</asrwt>
<pdfrwt beam="1">  1        2 0.12613398E+00 0.10000879E+04</pdfrwt>
<pdfrwt beam="2">  1       -2 0.46919946E-01 0.10000879E+04</pdfrwt>
<totfact> 0.17369820E+02</totfact>
</mgrwt>
</event>
<event>
 9    1  0.4388925E-036  0.9998808E+03  0.7818608E-02  0.8681151E-01
         -2   -1    0    0    0  501 -0.00000000000E+00  0.00000000000E+00  0.23890692515E+03  0.23890692515E+03  0.00000000000E+00 0.  1.
          2   -1    0    0  501    0  0.00000000000E+00 -0.00000000000E+00 -0.10461832372E+04  0.10461832372E+04  0.00000000000E+00 0.  1.
         36    2    1    2    0    0  0.14210854715E-13 -0.35527136788E-13 -0.80727631204E+03  0.12850901623E+04  0.99988083357E+03 0.  0.
         25    2    3    3    0    0  0.45290958040E+01  0.32823910948E+02 -0.32889199144E+03  0.35292455608E+03  0.12364416044E+03 0.  0.
         35    2    3    3    0    0 -0.45290958040E+01 -0.32823910948E+02 -0.47838432060E+03  0.93216560626E+03  0.79936427081E+03 0.  0.
         22    1    5    5    0    0  0.22105147265E+03  0.28637271524E+03 -0.73028444014E+02  0.36906129468E+03  0.00000000000E+00 0.  1.
         22    1    5    5    0    0 -0.22558056845E+03 -0.31919662619E+03 -0.40535587659E+03  0.56310431158E+03  0.00000000000E+00 0.  1.
          5    1    4    4  502    0  0.45906712673E+02 -0.13095149157E+02 -0.59173855212E+02  0.76174433641E+02  0.47000000000E+01 0. -1.
         -5    1    4    4    0  502 -0.41377616869E+02  0.45919060105E+02 -0.26971813623E+03  0.27675012244E+03  0.47000000000E+01 0. -1.
<mgrwt>
<rscale>  0 0.99988083E+03</rscale>
<asrwt>0</asrwt>
<pdfrwt beam="1">  1        2 0.16095127E+00 0.99988083E+03</pdfrwt>
<pdfrwt beam="2">  1       -2 0.36754911E-01 0.99988083E+03</pdfrwt>
<totfact> 0.19824570E+02</totfact>
</mgrwt>
</event>
<event>
 9    1  0.4388925E-036  0.1000172E+04  0.7818608E-02  0.8680875E-01
          2   -1    0    0  501    0  0.00000000000E+00  0.00000000000E+00  0.86716142918E+03  0.86716142918E+03  0.00000000000E+00 0. -1.
         -2   -1    0    0    0  501 -0.00000000000E+00 -0.00000000000E+00 -0.28839585206E+03  0.28839585206E+03  0.00000000000E+00 0. -1.
         36    2    1    2    0    0  0.56843418861E-13  0.14210854715E-13  0.57876557711E+03  0.11555572812E+04  0.10001715038E+04 0.  0.
         25    2    3    3    0    0  0.62290459698E+02  0.11656910839E+03  0.16714623613E+03  0.24628288584E+03  0.12348658715E+03 0.  0.
         35    2    3    3    0    0 -0.62290459698E+02 -0.11656910839E+03  0.41161934099E+03  0.90927439540E+03  0.79992561270E+03 0.  0.
         22    1    5    5    0    0  0.35849211864E+03 -0.14967717901E+03  0.18709931666E+03  0.43119138598E+03  0.00000000000E+00 0. -1.
         22    1    5    5    0    0 -0.42078257834E+03  0.33108070629E+02  0.22452002433E+03  0.47808300942E+03  0.00000000000E+00 0. -1.
          5    1    4    4  502    0 -0.24504518523E+02 -0.10277041783E+02  0.28286203475E+02  0.39093328368E+02  0.47000000000E+01 0.  1.
         -5    1    4    4    0  502  0.86794978221E+02  0.12684615017E+03  0.13886003265E+03  0.20718955747E+03  0.47000000000E+01 0.  1.
<mgrwt>
<rscale>  0 0.10001715E+04</rscale>
<asrwt>0</asrwt>
<pdfrwt beam="1">  1        2 0.13340945E+00 0.10001715E+04</pdfrwt>
<pdfrwt beam="2">  1       -2 0.44368593E-01 0.10001715E+04</pdfrwt>
<totfact> 0.17999992E+02</totfact>
</mgrwt>
</event>
<event>
 9    1  0.4388925E-036  0.9999622E+03  0.7818608E-02  0.8681074E-01
          1   -1    0    0  501    0  0.00000000000E+00  0.00000000000E+00  0.17037420672E+04  0.17037420672E+04  0.00000000000E+00 0. -1.
         -1   -1    0    0    0  501 -0.00000000000E+00 -0.00000000000E+00 -0.14672474202E+03  0.14672474202E+03  0.00000000000E+00 0. -1.
         36    2    1    2    0    0 -0.97699626167E-14 -0.28421709430E-13  0.15570173252E+04  0.18504668092E+04  0.99996222982E+03 0.  0.
         25    2    3    3    0    0 -0.48334534698E+01 -0.12923475482E+03  0.19041161681E+03  0.26179649508E+03  0.12472304076E+03 0.  0.
         35    2    3    3    0    0  0.48334534698E+01  0.12923475482E+03  0.13666057084E+04  0.15886703141E+04  0.79971071064E+03 0.  0.
         22    1    5    5    0    0 -0.18260401791E+03 -0.28928479246E+03  0.46661725811E+03  0.57858584848E+03  0.00000000000E+00 0. -1.
         22    1    5    5    0    0  0.18743747137E+03  0.41851954728E+03  0.89998845024E+03  0.10100844656E+04  0.00000000000E+00 0. -1.
          5    1    4    4  502    0 -0.49435493645E+00 -0.10679044915E+02 -0.18282059324E+02  0.21693549276E+02  0.47000000000E+01 0. -1.
         -5    1    4    4    0  502 -0.43390985334E+01 -0.11855570991E+03  0.20869367613E+03  0.24010294581E+03  0.47000000000E+01 0. -1.
<mgrwt>
<rscale>  0 0.99996223E+03</rscale>
<asrwt>0</asrwt>
<pdfrwt beam="1">  1        1 0.26211415E+00 0.99996223E+03</pdfrwt>
<pdfrwt beam="2">  1       -1 0.22573038E-01 0.99996223E+03</pdfrwt>
<totfact> 0.84106179E+01</totfact>
</mgrwt>
</event>
<event>
 9    1  0.4388925E-036  0.9998079E+03  0.7818608E-02  0.8681221E-01
          1   -1    0    0  501    0  0.00000000000E+00  0.00000000000E+00  0.55147215407E+03  0.55147215407E+03  0.00000000000E+00 0. -1.
         -1   -1    0    0    0  501 -0.00000000000E+00 -0.00000000000E+00 -0.45315793144E+03  0.45315793144E+03  0.00000000000E+00 0. -1.
         36    2    1    2    0    0  0.00000000000E+00  0.00000000000E+00  0.98314222626E+02  0.10046300855E+04  0.99980794273E+03 0.  0.
         25    2    3    3    0    0 -0.50076614381E+02  0.11284718686E+03  0.85517802587E+02  0.19569071860E+03  0.12545679693E+03 0.  0.
         35    2    3    3    0    0  0.50076614381E+02 -0.11284718686E+03  0.12796420038E+02  0.80893936692E+03  0.79936036685E+03 0.  0.
         22    1    5    5    0    0  0.15030622373E+02 -0.40092844006E+03 -0.20075101014E+03  0.44863181088E+03  0.00000000000E+00 0. -1.
         22    1    5    5    0    0  0.35045992008E+02  0.28808125320E+03  0.21354743018E+03  0.36030755604E+03  0.00000000000E+00 0. -1.
          5    1    4    4  502    0 -0.70761459473E-01  0.69195349952E+02 -0.18888615426E+02  0.71880951962E+02  0.47000000000E+01 0. -1.
         -5    1    4    4    0  502 -0.50005852921E+02  0.43651836906E+02  0.10440641801E+03  0.12380976663E+03  0.47000000000E+01 0. -1.
<mgrwt>
<rscale>  0 0.99980794E+03</rscale>
<asrwt>0</asrwt>
<pdfrwt beam="1">  1        1 0.84841870E-01 0.99980794E+03</pdfrwt>
<pdfrwt beam="2">  1       -1 0.69716605E-01 0.99980794E+03</pdfrwt>
<totfact> 0.94216267E+01</totfact>
</mgrwt>
</event>
<event>
 9    1  0.4388925E-036  0.9999396E+03  0.7818608E-02  0.8681095E-01
          2   -1    0    0  501    0  0.00000000000E+00  0.00000000000E+00  0.40853303804E+03  0.40853303804E+03  0.00000000000E+00 0.  1.
         -2   -1    0    0    0  501 -0.00000000000E+00 -0.00000000000E+00 -0.61187171373E+03  0.61187171373E+03  0.00000000000E+00 0.  1.
         36    2    1    2    0    0  0.00000000000E+00 -0.28421709430E-13 -0.20333867569E+03  0.10204047518E+04  0.99993961838E+03 0.  0.
         25    2    3    3    0    0 -0.88745746581E+02 -0.25906245899E+02  0.69394158796E+02  0.16958480217E+03  0.12408269315E+03 0.  0.
         35    2    3    3    0    0  0.88745746581E+02  0.25906245899E+02 -0.27273283449E+03  0.85081994960E+03  0.80060255216E+03 0.  0.
         22    1    5    5    0    0 -0.10684248655E+03  0.34292999214E+03 -0.31262902701E+03  0.47618610330E+03  0.00000000000E+00 0.  1.
         22    1    5    5    0    0  0.19558823313E+03 -0.31702374624E+03  0.39896192523E+02  0.37463384631E+03  0.00000000000E+00 0.  1.
          5    1    4    4  502    0 -0.68672196865E+02  0.42318848515E+02  0.52431950332E+02  0.96322141679E+02  0.47000000000E+01 0. -1.
         -5    1    4    4    0  502 -0.20073549715E+02 -0.68225094415E+02  0.16962208464E+02  0.73262660490E+02  0.47000000000E+01 0. -1.
<mgrwt>
<rscale>  0 0.99993962E+03</rscale>
<asrwt>0</asrwt>
<pdfrwt beam="1">  1        2 0.62851237E-01 0.99993962E+03</pdfrwt>
<pdfrwt beam="2">  1       -2 0.94134109E-01 0.99993962E+03</pdfrwt>
<totfact> 0.88156939E+01</totfact>
</mgrwt>
</event>
<event>
 9    1  0.4388925E-036  0.9996292E+03  0.7818608E-02  0.8681391E-01
          2   -1    0    0  501    0  0.00000000000E+00  0.00000000000E+00  0.20623734885E+04  0.20623734885E+04  0.00000000000E+00 0.  1.
         -2   -1    0    0    0  501 -0.00000000000E+00 -0.00000000000E+00 -0.12112968618E+03  0.12112968618E+03  0.00000000000E+00 0.  1.
         36    2    1    2    0    0  0.28421709430E-13  0.00000000000E+00  0.19412438023E+04  0.21835031747E+04  0.99962923818E+03 0.  0.
         25    2    3    3    0    0 -0.10670727157E+03  0.90818362151E+02  0.37618945149E+03  0.42036482558E+03  0.12471433943E+03 0.  0.
         35    2    3    3    0    0  0.10670727157E+03 -0.90818362151E+02  0.15650543508E+04  0.17631383491E+04  0.79976702879E+03 0.  0.
         22    1    5    5    0    0  0.43227274937E+03 -0.14614627570E+03  0.11163824326E+04  0.12060382247E+04  0.00000000000E+00 0. -1.
         22    1    5    5    0    0 -0.32556547780E+03  0.55327913549E+02  0.44867191824E+03  0.55710012437E+03  0.00000000000E+00 0. -1.
          5    1    4    4  502    0 -0.87271189285E+02 -0.70192758846E+01  0.17125835303E+03  0.19239813979E+03  0.47000000000E+01 0. -1.
         -5    1    4    4    0  502 -0.19436082280E+02  0.97837638036E+02  0.20493109847E+03  0.22796668579E+03  0.47000000000E+01 0. -1.
<mgrwt>
<rscale>  0 0.99962924E+03</rscale>
<asrwt>0</asrwt>
<pdfrwt beam="1">  1        2 0.31728820E+00 0.99962924E+03</pdfrwt>
<pdfrwt beam="2">  1       -2 0.18635338E-01 0.99962924E+03</pdfrwt>
<totfact> 0.17443105E+02</totfact>
</mgrwt>
</event>
<event>
 9    1  0.4388925E-036  0.1000570E+04  0.7818608E-02  0.8680495E-01
          1   -1    0    0  501    0  0.00000000000E+00  0.00000000000E+00  0.20902533059E+04  0.20902533059E+04  0.00000000000E+00 0. -1.
         -1   -1    0    0    0  501 -0.00000000000E+00 -0.00000000000E+00 -0.11973915954E+03  0.11973915954E+03  0.00000000000E+00 0. -1.
         36    2    1    2    0    0 -0.17763568394E-14  0.14210854715E-13  0.19705141464E+04  0.22099924655E+04  0.10005701856E+04 0.  0.
         25    2    3    3    0    0 -0.65042077609E+01 -0.82584312009E+02  0.12024140793E+03  0.19262847696E+03  0.12563940722E+03 0.  0.
         35    2    3    3    0    0  0.65042077609E+01  0.82584312009E+02  0.18502727385E+04  0.20173639885E+04  0.79961602168E+03 0.  0.
         22    1    5    5    0    0  0.19408781923E+02  0.38665524384E+03  0.15187972896E+04  0.15673621743E+04  0.00000000000E+00 0.  1.
         22    1    5    5    0    0 -0.12904574162E+02 -0.30407093183E+03  0.33147544883E+03  0.45000181421E+03  0.00000000000E+00 0.  1.
          5    1    4    4  502    0 -0.53658242671E+01  0.39651129673E+01 -0.23441841125E+02  0.24821847357E+02  0.47000000000E+01 0. -1.
         -5    1    4    4    0  502 -0.11383834938E+01 -0.86549424976E+02  0.14368324905E+03  0.16780662961E+03  0.47000000000E+01 0. -1.
<mgrwt>
<rscale>  0 0.10005702E+04</rscale>
<asrwt>0</asrwt>
<pdfrwt beam="1">  1        1 0.32157741E+00 0.10005702E+04</pdfrwt>
<pdfrwt beam="2">  1       -1 0.18421411E-01 0.10005702E+04</pdfrwt>
<totfact> 0.63042748E+01</totfact>
</mgrwt>
</event>
<event>
 9    1  0.4388925E-036  0.1003195E+04  0.7818608E-02  0.8678002E-01
          2   -1    0    0  501    0  0.00000000000E+00  0.00000000000E+00  0.15638674691E+03  0.15638674691E+03  0.00000000000E+00 0. -1.
         -2   -1    0    0    0  501 -0.00000000000E+00 -0.00000000000E+00 -0.16088312019E+04  0.16088312019E+04  0.00000000000E+00 0. -1.
         36    2    1    2    0    0  0.14210854715E-13  0.00000000000E+00 -0.14524444549E+04  0.17652179488E+04  0.10031946531E+04 0.  0.
         25    2    3    3    0    0  0.90586897803E+02  0.88186178924E+02 -0.36335253470E+03  0.40798992849E+03  0.13582315367E+03 0.  0.
         35    2    3    3    0    0 -0.90586897803E+02 -0.88186178924E+02 -0.10890919202E+04  0.13572280203E+04  0.79997743722E+03 0.  0.
         22    1    5    5    0    0 -0.14967664855E+03 -0.46742317584E+02  0.86730215618E+02  0.17919283936E+03  0.00000000000E+00 0. -1.
         22    1    5    5    0    0  0.59089750752E+02 -0.41443861340E+02 -0.11758221359E+04  0.11780351809E+04  0.00000000000E+00 0. -1.
          5    1    4    4  502    0 -0.20287503786E+02  0.49832344214E+02 -0.50939410025E+02  0.74241220581E+02  0.47000000000E+01 0. -1.
         -5    1    4    4    0  502  0.11087440159E+03  0.38353834710E+02 -0.31241312467E+03  0.33374870791E+03  0.47000000000E+01 0. -1.
<mgrwt>
<rscale>  0 0.10031947E+04</rscale>
<asrwt>0</asrwt>
<pdfrwt beam="1">  1        2 0.24059500E-01 0.10031947E+04</pdfrwt>
<pdfrwt beam="2">  1       -2 0.24751249E+00 0.10031947E+04</pdfrwt>
<totfact> 0.16340904E+01</totfact>
</mgrwt>
</event>
<event>
 9    1  0.4388925E-036  0.9989987E+03  0.7818608E-02  0.8681992E-01
         -2   -1    0    0    0  501 -0.00000000000E+00  0.00000000000E+00  0.48259009298E+03  0.48259009298E+03  0.00000000000E+00 0.  1.
          2   -1    0    0  501    0  0.00000000000E+00 -0.00000000000E+00 -0.51700103391E+03  0.51700103391E+03  0.00000000000E+00 0.  1.
         36    2    1    2    0    0 -0.21316282073E-13  0.00000000000E+00 -0.34410940929E+02  0.99959112689E+03  0.99899865270E+03 0.  0.
         25    2    3    3    0    0  0.32625997928E+02 -0.13263257228E+03 -0.33749123848E+02  0.18831945187E+03  0.12517730474E+03 0.  0.
         35    2    3    3    0    0 -0.32625997928E+02  0.13263257228E+03 -0.66181708036E+00  0.81127167502E+03  0.79969083884E+03 0.  0.
         22    1    5    5    0    0  0.32054906721E+03 -0.42687858912E+02  0.18811543121E+03  0.37411411795E+03  0.00000000000E+00 0.  1.
         22    1    5    5    0    0 -0.35317506514E+03  0.17532043119E+03 -0.18877724829E+03  0.43715755707E+03  0.00000000000E+00 0.  1.
          5    1    4    4  502    0  0.41517760724E+02 -0.13805360323E+03  0.85628783897E+01  0.14449198838E+03  0.47000000000E+01 0.  1.
         -5    1    4    4    0  502 -0.88917627960E+01  0.54210309524E+01 -0.42312002238E+02  0.43827463486E+02  0.47000000000E+01 0.  1.
<mgrwt>
<rscale>  0 0.99899865E+03</rscale>
<asrwt>0</asrwt>
<pdfrwt beam="1">  1        2 0.79538621E-01 0.99899865E+03</pdfrwt>
<pdfrwt beam="2">  1       -2 0.74244630E-01 0.99899865E+03</pdfrwt>
<totfact> 0.11686183E+02</totfact>
</mgrwt>
</event>
<event>
 9    1  0.4388925E-036  0.1000168E+04  0.7818608E-02  0.8680878E-01
          2   -1    0    0  501    0  0.00000000000E+00  0.00000000000E+00  0.12562865918E+04  0.12562865918E+04  0.00000000000E+00 0.  1.
         -2   -1    0    0    0  501 -0.00000000000E+00 -0.00000000000E+00 -0.19906602752E+03  0.19906602752E+03  0.00000000000E+00 0.  1.
         36    2    1    2    0    0 -0.28421709430E-13  0.00000000000E+00  0.10572205643E+04  0.14553526193E+04  0.10001679484E+04 0.  0.
         25    2    3    3    0    0 -0.67340335513E+02  0.59048636961E+02  0.35346354690E+03  0.38562457616E+03  0.12549251943E+03 0.  0.
         35    2    3    3    0    0  0.67340335513E+02 -0.59048636961E+02  0.70375701736E+03  0.10697280431E+04  0.80063892267E+03 0.  0.
         22    1    5    5    0    0 -0.26181043714E+03 -0.14276892714E+03  0.11248878349E+02  0.29841951815E+03  0.00000000000E+00 0.  1.
         22    1    5    5    0    0  0.32915077265E+03  0.83720290182E+02  0.69250813901E+03  0.77130852499E+03  0.00000000000E+00 0.  1.
          5    1    4    4  502    0 -0.42609756237E+02  0.98238413908E+02  0.25897492109E+03  0.28027928402E+03  0.47000000000E+01 0.  1.
         -5    1    4    4    0  502 -0.24730579276E+02 -0.39189776947E+02  0.94488625812E+02  0.10534529214E+03  0.47000000000E+01 0.  1.
<mgrwt>
<rscale>  0 0.10001679E+04</rscale>
<asrwt>0</asrwt>
<pdfrwt beam="1">  1        2 0.19327486E+00 0.10001679E+04</pdfrwt>
<pdfrwt beam="2">  1       -2 0.30625543E-01 0.10001679E+04</pdfrwt>
<totfact> 0.20809692E+02</totfact>
</mgrwt>
</event>
<event>
 9    1  0.4388925E-036  0.9997229E+03  0.7818608E-02  0.8681302E-01
          2   -1    0    0  501    0  0.00000000000E+00  0.00000000000E+00  0.13265003461E+04  0.13265003461E+04  0.00000000000E+00 0. -1.
         -2   -1    0    0    0  501 -0.00000000000E+00 -0.00000000000E+00 -0.18836139454E+03  0.18836139454E+03  0.00000000000E+00 0. -1.
         36    2    1    2    0    0  0.71054273576E-14 -0.28421709430E-13  0.11381389515E+04  0.15148617406E+04  0.99972287168E+03 0.  0.
         25    2    3    3    0    0 -0.52900575382E+02 -0.28336439763E+02  0.40501007952E+03  0.42824493601E+03  0.12553539746E+03 0.  0.
         35    2    3    3    0    0  0.52900575382E+02  0.28336439763E+02  0.73312887200E+03  0.10866168046E+04  0.79978541644E+03 0.  0.
         22    1    5    5    0    0 -0.33301578620E+02  0.31474674590E+03  0.72083872217E+03  0.78726296278E+03  0.00000000000E+00 0. -1.
         22    1    5    5    0    0  0.86202154002E+02 -0.28641030614E+03  0.12290149829E+02  0.29935384180E+03  0.00000000000E+00 0. -1.
          5    1    4    4  502    0 -0.46496273629E+02 -0.46649779997E+02  0.85104221616E+02  0.10771686949E+03  0.47000000000E+01 0. -1.
         -5    1    4    4    0  502 -0.64043017530E+01  0.18313340233E+02  0.31990585790E+03  0.32052806653E+03  0.47000000000E+01 0. -1.
<mgrwt>
<rscale>  0 0.99972287E+03</rscale>
<asrwt>0</asrwt>
<pdfrwt beam="1">  1        2 0.20407697E+00 0.99972287E+03</pdfrwt>
<pdfrwt beam="2">  1       -2 0.28978677E-01 0.99972287E+03</pdfrwt>
<totfact> 0.20949971E+02</totfact>
</mgrwt>
</event>
<event>
 9    1  0.4388925E-036  0.9999560E+03  0.7818608E-02  0.8681080E-01
          1   -1    0    0  501    0  0.00000000000E+00  0.00000000000E+00  0.43558350608E+03  0.43558350608E+03  0.00000000000E+00 0.  1.
         -1   -1    0    0    0  501 -0.00000000000E+00 -0.00000000000E+00 -0.57389225999E+03  0.57389225999E+03  0.00000000000E+00 0.  1.
         36    2    1    2    0    0  0.00000000000E+00 -0.42632564146E-13 -0.13830875391E+03  0.10094757661E+04  0.99995600447E+03 0.  0.
         25    2    3    3    0    0 -0.83031095910E+02 -0.32009032061E+02 -0.13650193175E+03  0.20466583312E+03  0.12384096596E+03 0.  0.
         35    2    3    3    0    0  0.83031095910E+02  0.32009032061E+02 -0.18068221576E+01  0.80480993295E+03  0.79987312904E+03 0.  0.
         22    1    5    5    0    0  0.72251266922E+02  0.31875967450E+03  0.25901558206E+03  0.41703362863E+03  0.00000000000E+00 0. -1.
         22    1    5    5    0    0  0.10779828987E+02 -0.28675064244E+03 -0.26082240422E+03  0.38777630432E+03  0.00000000000E+00 0. -1.
          5    1    4    4  502    0 -0.56843939976E+02  0.40635178205E+02 -0.91296920626E+02  0.11506376030E+03  0.47000000000E+01 0. -1.
         -5    1    4    4    0  502 -0.26187155934E+02 -0.72644210265E+02 -0.45205011129E+02  0.89602072811E+02  0.47000000000E+01 0. -1.
<mgrwt>
<rscale>  0 0.99995600E+03</rscale>
<asrwt>0</asrwt>
<pdfrwt beam="1">  1        1 0.67012847E-01 0.99995600E+03</pdfrwt>
<pdfrwt beam="2">  1       -1 0.88291117E-01 0.99995600E+03</pdfrwt>
<totfact> 0.80152040E+01</totfact>
</mgrwt>
</event>
<event>
 9    1  0.4388925E-036  0.1002851E+04  0.7818608E-02  0.8678328E-01
         -2   -1    0    0    0  501 -0.00000000000E+00  0.00000000000E+00  0.14837788330E+04  0.14837788330E+04  0.00000000000E+00 0.  1.
          2   -1    0    0  501    0  0.00000000000E+00 -0.00000000000E+00 -0.16945087389E+03  0.16945087389E+03  0.00000000000E+00 0.  1.
         36    2    1    2    0    0  0.00000000000E+00  0.14210854715E-13  0.13143279591E+04  0.16532297068E+04  0.10028511752E+04 0.  0.
         25    2    3    3    0    0  0.94326940194E+02  0.97197613051E+02  0.27110044136E+03  0.33199430950E+03  0.13557221177E+03 0.  0.
         35    2    3    3    0    0 -0.94326940194E+02 -0.97197613051E+02  0.10432275177E+04  0.13212353974E+04  0.79937123659E+03 0.  0.
         22    1    5    5    0    0 -0.23178120207E+03  0.11301956549E+03  0.10384865729E+04  0.10700235091E+04  0.00000000000E+00 0.  1.
         22    1    5    5    0    0  0.13745426188E+03 -0.21021717854E+03  0.47409447903E+01  0.25121188829E+03  0.00000000000E+00 0.  1.
          5    1    4    4  502    0  0.15806680251E+02  0.93888576591E+02  0.77018140283E+02  0.12255121333E+03  0.47000000000E+01 0. -1.
         -5    1    4    4    0  502  0.78520259942E+02  0.33090364600E+01  0.19408230108E+03  0.20944309617E+03  0.47000000000E+01 0. -1.
<mgrwt>
<rscale>  0 0.10028512E+04</rscale>
<asrwt>0</asrwt>
<pdfrwt beam="1">  1        2 0.26069366E-01 0.10028512E+04</pdfrwt>
<pdfrwt beam="2">  1       -2 0.22827366E+00 0.10028512E+04</pdfrwt>
<totfact> 0.19700817E+01</totfact>
</mgrwt>
</event>
<event>
 9    1  0.4388925E-036  0.9992746E+03  0.7818608E-02  0.8681729E-01
          2   -1    0    0  501    0  0.00000000000E+00  0.00000000000E+00  0.18079810069E+04  0.18079810069E+04  0.00000000000E+00 0.  1.
         -2   -1    0    0    0  501 -0.00000000000E+00 -0.00000000000E+00 -0.13807524001E+03  0.13807524001E+03  0.00000000000E+00 0.  1.
         36    2    1    2    0    0 -0.14210854715E-13 -0.10658141036E-13  0.16699057669E+04  0.19460562469E+04  0.99927455981E+03 0.  0.
         25    2    3    3    0    0  0.12411593040E+03 -0.30414160822E+02  0.41550736980E+03  0.45250218848E+03  0.12562671240E+03 0.  0.
         35    2    3    3    0    0 -0.12411593040E+03  0.30414160822E+02  0.12543983971E+04  0.14935540585E+04  0.80053644607E+03 0.  0.
         22    1    5    5    0    0 -0.96705991066E+02  0.30064553869E+03  0.11658478333E+04  0.12078662836E+04  0.00000000000E+00 0. -1.
         22    1    5    5    0    0 -0.27409939331E+02 -0.27023137787E+03  0.88550563837E+02  0.28568777488E+03  0.00000000000E+00 0. -1.
          5    1    4    4  502    0  0.11963648208E+03 -0.52067234066E+02  0.22099214700E+03  0.25667782090E+03  0.47000000000E+01 0. -1.
         -5    1    4    4    0  502  0.44794483195E+01  0.21653073244E+02  0.19451522280E+03  0.19582436758E+03  0.47000000000E+01 0. -1.
<mgrwt>
<rscale>  0 0.99927456E+03</rscale>
<asrwt>0</asrwt>
<pdfrwt beam="1">  1        2 0.27815091E+00 0.99927456E+03</pdfrwt>
<pdfrwt beam="2">  1       -2 0.21242346E-01 0.99927456E+03</pdfrwt>
<totfact> 0.19396892E+02</totfact>
</mgrwt>
</event>
<event>
 9    1  0.4388925E-036  0.9997085E+03  0.7818608E-02  0.8681316E-01
          1   -1    0    0  501    0  0.00000000000E+00  0.00000000000E+00  0.10600199698E+04  0.10600199698E+04  0.00000000000E+00 0. -1.
         -1   -1    0    0    0  501 -0.00000000000E+00 -0.00000000000E+00 -0.23570712144E+03  0.23570712144E+03  0.00000000000E+00 0. -1.
         36    2    1    2    0    0  0.00000000000E+00 -0.14210854715E-13  0.82431284834E+03  0.12957270912E+04  0.99970846899E+03 0.  0.
         25    2    3    3    0    0  0.31715936336E+02  0.65377969356E+02  0.30947652614E+03  0.34151784835E+03  0.12481402571E+03 0.  0.
         35    2    3    3    0    0 -0.31715936336E+02 -0.65377969356E+02  0.51483632221E+03  0.95420924287E+03  0.80011165535E+03 0.  0.
         22    1    5    5    0    0 -0.19371738698E+03 -0.18744525334E+03  0.65456630673E+03  0.70789773196E+03  0.00000000000E+00 0.  1.
         22    1    5    5    0    0  0.16200145065E+03  0.12206728399E+03 -0.13972998452E+03  0.24631151091E+03  0.00000000000E+00 0.  1.
          5    1    4    4  502    0  0.12633452473E+02  0.99214035934E+02  0.17670504806E+03  0.20310045065E+03  0.47000000000E+01 0. -1.
         -5    1    4    4    0  502  0.19082483864E+02 -0.33836066579E+02  0.13277147808E+03  0.13841739769E+03  0.47000000000E+01 0. -1.
<mgrwt>
<rscale>  0 0.99970847E+03</rscale>
<asrwt>0</asrwt>
<pdfrwt beam="1">  1        1 0.16307999E+00 0.99970847E+03</pdfrwt>
<pdfrwt beam="2">  1       -1 0.36262635E-01 0.99970847E+03</pdfrwt>
<totfact> 0.11028461E+02</totfact>
</mgrwt>
</event>
<event>
 9    1  0.4388925E-036  0.1001287E+04  0.7818608E-02  0.8679814E-01
         -2   -1    0    0    0  501 -0.00000000000E+00  0.00000000000E+00  0.15293777085E+03  0.15293777085E+03  0.00000000000E+00 0. -1.
          2   -1    0    0  501    0  0.00000000000E+00 -0.00000000000E+00 -0.16388605803E+04  0.16388605803E+04  0.00000000000E+00 0. -1.
         36    2    1    2    0    0  0.00000000000E+00  0.14210854715E-13 -0.14859228095E+04  0.17917983512E+04  0.10012865402E+04 0.  0.
         25    2    3    3    0    0 -0.12942708301E+03  0.17704388058E+02 -0.38558617714E+03  0.42582793193E+03  0.12485156160E+03 0.  0.
         35    2    3    3    0    0  0.12942708301E+03 -0.17704388058E+02 -0.11003366323E+04  0.13659704193E+04  0.79879263057E+03 0.  0.
         22    1    5    5    0    0 -0.12956336996E+03  0.16872592490E+03 -0.10130375465E+04  0.10351329264E+04  0.00000000000E+00 0.  1.
         22    1    5    5    0    0  0.25899045297E+03 -0.18643031296E+03 -0.87299085801E+02  0.33083749289E+03  0.00000000000E+00 0.  1.
          5    1    4    4  502    0 -0.95396543948E+01 -0.24264242756E+02 -0.83872552947E+01  0.27788388472E+02  0.47000000000E+01 0. -1.
         -5    1    4    4    0  502 -0.11988742861E+03  0.41968630814E+02 -0.37719892185E+03  0.39803954345E+03  0.47000000000E+01 0. -1.
<mgrwt>
<rscale>  0 0.10012865E+04</rscale>
<asrwt>0</asrwt>
<pdfrwt beam="1">  1        2 0.25213238E+00 0.10012865E+04</pdfrwt>
<pdfrwt beam="2">  1       -2 0.23528889E-01 0.10012865E+04</pdfrwt>
<totfact> 0.20197696E+02</totfact>
</mgrwt>
</event>
<event>
 9    1  0.4388925E-036  0.9991983E+03  0.7818608E-02  0.8681802E-01
         -2   -1    0    0    0  501 -0.00000000000E+00  0.00000000000E+00  0.35492049982E+03  0.35492049982E+03  0.00000000000E+00 0. -1.
          2   -1    0    0  501    0  0.00000000000E+00 -0.00000000000E+00 -0.70325412926E+03  0.70325412926E+03  0.00000000000E+00 0. -1.
         36    2    1    2    0    0 -0.71054273576E-14  0.00000000000E+00 -0.34833362943E+03  0.10581746291E+04  0.99919829275E+03 0.  0.
         25    2    3    3    0    0  0.95383720559E+01  0.91958897591E+02 -0.17515874673E+03  0.23431825926E+03  0.12520798968E+03 0.  0.
         35    2    3    3    0    0 -0.95383720559E+01 -0.91958897591E+02 -0.17317488270E+03  0.82385636982E+03  0.80012646419E+03 0.  0.
         22    1    5    5    0    0 -0.17864431806E+02 -0.24382984110E+02  0.32230548004E+03  0.32371977126E+03  0.00000000000E+00 0. -1.
         22    1    5    5    0    0  0.83260597505E+01 -0.67575913481E+02 -0.49548036275E+03  0.50013659856E+03  0.00000000000E+00 0. -1.
          5    1    4    4  502    0 -0.55561705331E+02  0.42994052970E+02 -0.56319770163E+02  0.90164284511E+02  0.47000000000E+01 0.  1.
         -5    1    4    4    0  502  0.65100077387E+02  0.48964844621E+02 -0.11883897657E+03  0.14415397475E+03  0.47000000000E+01 0.  1.
<mgrwt>
<rscale>  0 0.99919829E+03</rscale>
<asrwt>0</asrwt>
<pdfrwt beam="1">  1        2 0.10819294E+00 0.99919829E+03</pdfrwt>
<pdfrwt beam="2">  1       -2 0.54603154E-01 0.99919829E+03</pdfrwt>
<totfact> 0.15558259E+02</totfact>
</mgrwt>
</event>
<event>
 9    1  0.4388925E-036  0.1000003E+04  0.7818608E-02  0.8681035E-01
          3   -1    0    0  501    0  0.00000000000E+00  0.00000000000E+00  0.73604463269E+03  0.73604463269E+03  0.00000000000E+00 0.  1.
         -3   -1    0    0    0  501 -0.00000000000E+00 -0.00000000000E+00 -0.33965539958E+03  0.33965539958E+03  0.00000000000E+00 0.  1.
         36    2    1    2    0    0  0.14210854715E-13  0.00000000000E+00  0.39638923311E+03  0.10757000323E+04  0.10000030676E+04 0.  0.
         25    2    3    3    0    0 -0.27268759865E+02  0.75905827978E+02 -0.49121967629E+02  0.15651551103E+03  0.12481529355E+03 0.  0.
         35    2    3    3    0    0  0.27268759865E+02 -0.75905827978E+02  0.44551120074E+03  0.91918452123E+03  0.79994666954E+03 0.  0.
         22    1    5    5    0    0  0.36297278979E+03  0.80492281981E+02  0.46334424969E+02  0.37466669524E+03  0.00000000000E+00 0.  1.
         22    1    5    5    0    0 -0.33570402992E+03 -0.15639810996E+03  0.39917677577E+03  0.54451782599E+03  0.00000000000E+00 0.  1.
          5    1    4    4  502    0 -0.71990501247E+02  0.35910410661E+02 -0.52599595518E+02  0.96234075630E+02  0.47000000000E+01 0. -1.
         -5    1    4    4    0  502  0.44721741381E+02  0.39995417317E+02  0.34776278894E+01  0.60281435403E+02  0.47000000000E+01 0. -1.
<mgrwt>
<rscale>  0 0.10000031E+04</rscale>
<asrwt>0</asrwt>
<pdfrwt beam="1">  1        3 0.11323764E+00 0.10000031E+04</pdfrwt>
<pdfrwt beam="2">  1       -3 0.52254677E-01 0.10000031E+04</pdfrwt>
<totfact> 0.98728622E+00</totfact>
</mgrwt>
</event>
<event>
 9    1  0.4388925E-036  0.1000040E+04  0.7818608E-02  0.8681000E-01
         -2   -1    0    0    0  501 -0.00000000000E+00  0.00000000000E+00  0.25133470889E+03  0.25133470889E+03  0.00000000000E+00 0. -1.
          2   -1    0    0  501    0  0.00000000000E+00 -0.00000000000E+00 -0.99476923602E+03  0.99476923602E+03  0.00000000000E+00 0. -1.
         36    2    1    2    0    0  0.42632564146E-13  0.71054273576E-14 -0.74343452713E+03  0.12461039449E+04  0.10000400719E+04 0.  0.
         25    2    3    3    0    0 -0.12724198087E+03 -0.14593281029E+02 -0.21090354383E+03  0.27691303839E+03  0.12568627804E+03 0.  0.
         35    2    3    3    0    0  0.12724198087E+03  0.14593281029E+02 -0.53253098330E+03  0.96919090652E+03  0.79958631777E+03 0.  0.
         22    1    5    5    0    0  0.27567221738E+03 -0.26303016969E+03 -0.37940415137E+02  0.38290927999E+03  0.00000000000E+00 0.  1.
         22    1    5    5    0    0 -0.14843023651E+03  0.27762345071E+03 -0.49459056816E+03  0.58628162653E+03  0.00000000000E+00 0.  1.
          5    1    4    4  502    0 -0.14238555873E+03 -0.37951154667E+02 -0.19516095223E+03  0.24458909369E+03  0.47000000000E+01 0.  1.
         -5    1    4    4    0  502  0.15143577859E+02  0.23357873638E+02 -0.15742591596E+02  0.32323944707E+02  0.47000000000E+01 0.  1.
<mgrwt>
<rscale>  0 0.10000401E+04</rscale>
<asrwt>0</asrwt>
<pdfrwt beam="1">  1        2 0.15304142E+00 0.10000401E+04</pdfrwt>
<pdfrwt beam="2">  1       -2 0.38666879E-01 0.10000401E+04</pdfrwt>
<totfact> 0.19390076E+02</totfact>
</mgrwt>
</event>
<event>
 9    1  0.4388925E-036  0.1000085E+04  0.7818608E-02  0.8680957E-01
         -2   -1    0    0    0  501 -0.00000000000E+00  0.00000000000E+00  0.21514796256E+03  0.21514796256E+03  0.00000000000E+00 0.  1.
          2   -1    0    0  501    0  0.00000000000E+00 -0.00000000000E+00 -0.11621879794E+04  0.11621879794E+04  0.00000000000E+00 0.  1.
         36    2    1    2    0    0 -0.14210854715E-13  0.28421709430E-13 -0.94704001687E+03  0.13773359420E+04  0.10000847482E+04 0.  0.
         25    2    3    3    0    0 -0.18162942154E+02 -0.12338405665E+03 -0.89727526815E+02  0.19796090763E+03  0.12483578805E+03 0.  0.
         35    2    3    3    0    0  0.18162942154E+02  0.12338405665E+03 -0.85731249006E+03  0.11793750344E+04  0.80024199351E+03 0.  0.
         22    1    5    5    0    0 -0.18826647868E+03  0.36104288183E+03 -0.20677287696E+03  0.45667412031E+03  0.00000000000E+00 0. -1.
         22    1    5    5    0    0  0.20642942083E+03 -0.23765882518E+03 -0.65053961310E+03  0.72270091406E+03  0.00000000000E+00 0. -1.
          5    1    4    4  502    0 -0.22999400647E+02 -0.64338785631E+02 -0.11462520018E+03  0.13352706947E+03  0.47000000000E+01 0.  1.
         -5    1    4    4    0  502  0.48364584933E+01 -0.59045271023E+02  0.24897673362E+02  0.64433838158E+02  0.47000000000E+01 0.  1.
<mgrwt>
<rscale>  0 0.10000847E+04</rscale>
<asrwt>0</asrwt>
<pdfrwt beam="1">  1        2 0.17879815E+00 0.10000847E+04</pdfrwt>
<pdfrwt beam="2">  1       -2 0.33099687E-01 0.10000847E+04</pdfrwt>
<totfact> 0.20500077E+02</totfact>
</mgrwt>
</event>
<event>
 9    1  0.4388925E-036  0.9984885E+03  0.7818608E-02  0.8682479E-01
         -2   -1    0    0    0  501 -0.00000000000E+00  0.00000000000E+00  0.14998367437E+03  0.14998367437E+03  0.00000000000E+00 0.  1.
          2   -1    0    0  501    0  0.00000000000E+00 -0.00000000000E+00 -0.16618128997E+04  0.16618128997E+04  0.00000000000E+00 0.  1.
         36    2    1    2    0    0 -0.71054273576E-14 -0.71054273576E-14 -0.15118292253E+04  0.18117965741E+04  0.99848846725E+03 0.  0.
         25    2    3    3    0    0 -0.61452506185E+02  0.14830554668E+02 -0.50479148755E+03  0.52385022546E+03  0.12493300981E+03 0.  0.
         35    2    3    3    0    0  0.61452506185E+02 -0.14830554668E+02 -0.10070377378E+04  0.12879463486E+04  0.80042765801E+03 0.  0.
         22    1    5    5    0    0  0.17458225418E+03  0.81074012866E+02 -0.10974812124E+04  0.11142338043E+04  0.00000000000E+00 0. -1.
         22    1    5    5    0    0 -0.11312974800E+03 -0.95904567534E+02  0.90443474615E+02  0.17371254433E+03  0.00000000000E+00 0. -1.
          5    1    4    4  502    0  0.14588925506E+01 -0.49435142661E+02 -0.16386774511E+03  0.17123285195E+03  0.47000000000E+01 0.  1.
         -5    1    4    4    0  502 -0.62911398735E+02  0.64265697329E+02 -0.34092374244E+03  0.35261737351E+03  0.47000000000E+01 0.  1.
<mgrwt>
<rscale>  0 0.99848847E+03</rscale>
<asrwt>0</asrwt>
<pdfrwt beam="1">  1        2 0.25566352E+00 0.99848847E+03</pdfrwt>
<pdfrwt beam="2">  1       -2 0.23074412E-01 0.99848847E+03</pdfrwt>
<totfact> 0.20289293E+02</totfact>
</mgrwt>
</event>
<event>
 9    1  0.4388925E-036  0.1001957E+04  0.7818608E-02  0.8679176E-01
         -2   -1    0    0    0  501 -0.00000000000E+00  0.00000000000E+00  0.44147591333E+03  0.44147591333E+03  0.00000000000E+00 0. -1.
          2   -1    0    0  501    0  0.00000000000E+00 -0.00000000000E+00 -0.56850137273E+03  0.56850137273E+03  0.00000000000E+00 0. -1.
         36    2    1    2    0    0 -0.14210854715E-13  0.14210854715E-13 -0.12702545940E+03  0.10099772861E+04  0.10019574098E+04 0.  0.
         25    2    3    3    0    0  0.82883625089E+02 -0.90721643503E+02  0.40023075769E+02  0.18328160336E+03  0.12996225463E+03 0.  0.
         35    2    3    3    0    0 -0.82883625089E+02  0.90721643503E+02 -0.16704853517E+03  0.82669568270E+03  0.80026272360E+03 0.  0.
         22    1    5    5    0    0  0.86843333869E+02  0.13798914883E+03 -0.45822367420E+03  0.48636581441E+03  0.00000000000E+00 0. -1.
         22    1    5    5    0    0 -0.16972695896E+03 -0.47267505331E+02  0.29117513903E+03  0.34032986828E+03  0.00000000000E+00 0. -1.
          5    1    4    4  502    0 -0.16542883432E+01 -0.87413156611E+02 -0.42913364851E+01  0.87660151650E+02  0.47000000000E+01 0.  1.
         -5    1    4    4    0  502  0.84537913433E+02 -0.33084868929E+01  0.44314412254E+02  0.95621451707E+02  0.47000000000E+01 0.  1.
<mgrwt>
<rscale>  0 0.10019574E+04</rscale>
<asrwt>0</asrwt>
<pdfrwt beam="1">  1        2 0.87461750E-01 0.10019574E+04</pdfrwt>
<pdfrwt beam="2">  1       -2 0.67919371E-01 0.10019574E+04</pdfrwt>
<totfact> 0.12711076E+02</totfact>
</mgrwt>
</event>
<event>
 9    1  0.4388925E-036  0.9994349E+03  0.7818608E-02  0.8681576E-01
         -2   -1    0    0    0  501 -0.00000000000E+00  0.00000000000E+00  0.94870968077E+03  0.94870968077E+03  0.00000000000E+00 0. -1.
          2   -1    0    0  501    0  0.00000000000E+00 -0.00000000000E+00 -0.26321807305E+03  0.26321807305E+03  0.00000000000E+00 0. -1.
         36    2    1    2    0    0  0.00000000000E+00  0.71054273576E-14  0.68549160772E+03  0.12119277538E+04  0.99943490845E+03 0.  0.
         25    2    3    3    0    0 -0.14101769193E+03  0.24435973322E+02  0.11625926978E+03  0.22289796833E+03  0.12523649726E+03 0.  0.
         35    2    3    3    0    0  0.14101769193E+03 -0.24435973322E+02  0.56923233794E+03  0.98902978549E+03  0.79603477047E+03 0.  0.
         22    1    5    5    0    0 -0.32580840876E+03  0.23656839924E+02  0.14884651265E+03  0.35897917714E+03  0.00000000000E+00 0.  1.
         22    1    5    5    0    0  0.46682610070E+03 -0.48092813246E+02  0.42038582529E+03  0.63005060835E+03  0.00000000000E+00 0.  1.
          5    1    4    4  502    0 -0.60127397376E+02  0.54281174557E+02  0.10949794876E+03  0.13628514449E+03  0.47000000000E+01 0. -1.
         -5    1    4    4    0  502 -0.80890294558E+02 -0.29845201235E+02  0.67613210136E+01  0.86612823833E+02  0.47000000000E+01 0. -1.
<mgrwt>
<rscale>  0 0.99943491E+03</rscale>
<asrwt>0</asrwt>
<pdfrwt beam="1">  1        2 0.40495089E-01 0.99943491E+03</pdfrwt>
<pdfrwt beam="2">  1       -2 0.14595533E+00 0.99943491E+03</pdfrwt>
<totfact> 0.46508513E+01</totfact>
</mgrwt>
</event>
<event>
 9    1  0.4388925E-036  0.9969919E+03  0.7818608E-02  0.8683908E-01
          1   -1    0    0  501    0  0.00000000000E+00  0.00000000000E+00  0.35009869345E+04  0.35009869345E+04  0.00000000000E+00 0. -1.
         -1   -1    0    0    0  501 -0.00000000000E+00 -0.00000000000E+00 -0.70979473507E+02  0.70979473507E+02  0.00000000000E+00 0. -1.
         36    2    1    2    0    0 -0.35527136788E-14  0.00000000000E+00  0.34300074610E+04  0.35719664080E+04  0.99699189439E+03 0.  0.
         25    2    3    3    0    0  0.84136124573E+01  0.12541269108E+03  0.67048967556E+03  0.69344141325E+03  0.12452090837E+03 0.  0.
         35    2    3    3    0    0 -0.84136124573E+01 -0.12541269108E+03  0.27595177855E+04  0.28785249948E+04  0.80942486084E+03 0.  0.
         22    1    5    5    0    0 -0.22865560742E+02  0.20582927316E+03  0.17018556590E+03  0.26805158159E+03  0.00000000000E+00 0. -1.
         22    1    5    5    0    0  0.14451948284E+02 -0.33124196424E+03  0.25893322196E+04  0.26104734132E+04  0.00000000000E+00 0. -1.
          5    1    4    4  502    0 -0.45103253041E+02  0.55187499805E+02  0.15820494046E+03  0.17358242064E+03  0.47000000000E+01 0.  1.
         -5    1    4    4    0  502  0.53516865498E+02  0.70225191276E+02  0.51228473510E+03  0.51985899261E+03  0.47000000000E+01 0.  1.
<mgrwt>
<rscale>  0 0.99699189E+03</rscale>
<asrwt>0</asrwt>
<pdfrwt beam="1">  1        1 0.53861324E+00 0.99699189E+03</pdfrwt>
<pdfrwt beam="2">  1       -1 0.10919922E-01 0.99699189E+03</pdfrwt>
<totfact> 0.14264262E+01</totfact>
</mgrwt>
</event>
<event>
 9    1  0.4388925E-036  0.9998402E+03  0.7818608E-02  0.8681190E-01
          2   -1    0    0  501    0  0.00000000000E+00  0.00000000000E+00  0.92666380145E+03  0.92666380145E+03  0.00000000000E+00 0. -1.
         -2   -1    0    0    0  501 -0.00000000000E+00 -0.00000000000E+00 -0.26969876872E+03  0.26969876872E+03  0.00000000000E+00 0. -1.
         36    2    1    2    0    0  0.71054273576E-14 -0.35527136788E-14  0.65696503273E+03  0.11963625702E+04  0.99984015977E+03 0.  0.
         25    2    3    3    0    0 -0.25585802859E+02  0.16505418003E+02 -0.39904798083E+02  0.13471103748E+03  0.12501043387E+03 0.  0.
         35    2    3    3    0    0  0.25585802859E+02 -0.16505418003E+02  0.69686983081E+03  0.10616515327E+04  0.80034327238E+03 0.  0.
         22    1    5    5    0    0  0.37079317071E+03  0.35058648214E+02  0.58799487438E+03  0.69602776996E+03  0.00000000000E+00 0.  1.
         22    1    5    5    0    0 -0.34520736785E+03 -0.51564066216E+02  0.10887495643E+03  0.36562376274E+03  0.00000000000E+00 0.  1.
          5    1    4    4  502    0 -0.36405724939E+01  0.46076378428E+02  0.30180737133E+02  0.55400842151E+02  0.47000000000E+01 0.  1.
         -5    1    4    4    0  502 -0.21945230365E+02 -0.29570960426E+02 -0.70085535216E+02  0.79310195327E+02  0.47000000000E+01 0.  1.
<mgrwt>
<rscale>  0 0.99984016E+03</rscale>
<asrwt>0</asrwt>
<pdfrwt beam="1">  1        2 0.14256366E+00 0.99984016E+03</pdfrwt>
<pdfrwt beam="2">  1       -2 0.41492119E-01 0.99984016E+03</pdfrwt>
<totfact> 0.18727338E+02</totfact>
</mgrwt>
</event>
<event>
 9    1  0.4388925E-036  0.9997562E+03  0.7818608E-02  0.8681270E-01
         -1   -1    0    0    0  501 -0.00000000000E+00  0.00000000000E+00  0.64329712745E+03  0.64329712745E+03  0.00000000000E+00 0. -1.
          1   -1    0    0  501    0  0.00000000000E+00 -0.00000000000E+00 -0.38843346980E+03  0.38843346980E+03  0.00000000000E+00 0. -1.
         36    2    1    2    0    0  0.00000000000E+00 -0.71054273576E-14  0.25486365765E+03  0.10317305973E+04  0.99975624095E+03 0.  0.
         25    2    3    3    0    0  0.27770953002E+02  0.55561026407E+01  0.19001081864E+03  0.22896843244E+03  0.12458063953E+03 0.  0.
         35    2    3    3    0    0 -0.27770953002E+02 -0.55561026407E+01  0.64852839005E+02  0.80276216481E+03  0.79963685909E+03 0.  0.
         22    1    5    5    0    0 -0.14341130246E+03 -0.14605503046E+03  0.38413339703E+03  0.43526697590E+03  0.00000000000E+00 0.  1.
         22    1    5    5    0    0  0.11564034946E+03  0.14049892782E+03 -0.31928055803E+03  0.36749518891E+03  0.00000000000E+00 0.  1.
          5    1    4    4  502    0  0.35085458355E+02  0.30974465440E+02  0.19589866288E+03  0.20146658040E+03  0.47000000000E+01 0.  1.
         -5    1    4    4    0  502 -0.73145053533E+01 -0.25418362799E+02 -0.58878442419E+01  0.27501852043E+02  0.47000000000E+01 0.  1.
<mgrwt>
<rscale>  0 0.99975624E+03</rscale>
<asrwt>0</asrwt>
<pdfrwt beam="1">  1        1 0.59758995E-01 0.99975624E+03</pdfrwt>
<pdfrwt beam="2">  1       -1 0.98968789E-01 0.99975624E+03</pdfrwt>
<totfact> 0.72913746E+01</totfact>
</mgrwt>
</event>
<event>
 9    1  0.4388925E-036  0.9995711E+03  0.7818608E-02  0.8681446E-01
          1   -1    0    0  501    0  0.00000000000E+00  0.00000000000E+00  0.35811401325E+04  0.35811401325E+04  0.00000000000E+00 0. -1.
         -1   -1    0    0    0  501 -0.00000000000E+00 -0.00000000000E+00 -0.69750304968E+02  0.69750304968E+02  0.00000000000E+00 0. -1.
         36    2    1    2    0    0  0.14210854715E-13 -0.28421709430E-13  0.35113898276E+04  0.36508904375E+04  0.99957114080E+03 0.  0.
         25    2    3    3    0    0  0.16850572447E+02  0.11957758747E+03  0.40107574363E+03  0.43698871343E+03  0.12455778706E+03 0.  0.
         35    2    3    3    0    0 -0.16850572447E+02 -0.11957758747E+03  0.31103140839E+04  0.32139017241E+04  0.80032983829E+03 0.  0.
         22    1    5    5    0    0 -0.36119056394E+03 -0.24236252638E+03  0.19230545696E+04  0.19716331036E+04  0.00000000000E+00 0.  1.
         22    1    5    5    0    0  0.34433999149E+03  0.12278493891E+03  0.11872595144E+04  0.12422686205E+04  0.00000000000E+00 0.  1.
          5    1    4    4  502    0  0.14564882597E+02  0.13506671868E+03  0.39771084326E+03  0.42029889263E+03  0.47000000000E+01 0. -1.
         -5    1    4    4    0  502  0.22856898508E+01 -0.15489131212E+02  0.33649003726E+01  0.16689820799E+02  0.47000000000E+01 0. -1.
<mgrwt>
<rscale>  0 0.99957114E+03</rscale>
<asrwt>0</asrwt>
<pdfrwt beam="1">  1        1 0.55094449E+00 0.99957114E+03</pdfrwt>
<pdfrwt beam="2">  1       -1 0.10730819E-01 0.99957114E+03</pdfrwt>
<totfact> 0.12800121E+01</totfact>
</mgrwt>
</event>
<event>
 9    1  0.4388925E-036  0.9996729E+03  0.7818608E-02  0.8681349E-01
          1   -1    0    0  501    0  0.00000000000E+00  0.00000000000E+00  0.15822820960E+04  0.15822820960E+04  0.00000000000E+00 0.  1.
         -1   -1    0    0    0  501 -0.00000000000E+00 -0.00000000000E+00 -0.15789630147E+03  0.15789630147E+03  0.00000000000E+00 0.  1.
         36    2    1    2    0    0 -0.14210854715E-13 -0.35527136788E-13  0.14243857945E+04  0.17401783974E+04  0.99967292817E+03 0.  0.
         25    2    3    3    0    0  0.65796834778E+02  0.52194637541E+02  0.74639781959E+02  0.16899361833E+03  0.12623090877E+03 0.  0.
         35    2    3    3    0    0 -0.65796834778E+02 -0.52194637541E+02  0.13497460125E+04  0.15711847791E+04  0.79984611524E+03 0.  0.
         22    1    5    5    0    0 -0.30301028974E+03  0.26877742263E+03  0.69151321878E+03  0.80140318839E+03  0.00000000000E+00 0. -1.
         22    1    5    5    0    0  0.23721345496E+03 -0.32097206017E+03  0.65823279376E+03  0.76978159072E+03  0.00000000000E+00 0. -1.
          5    1    4    4  502    0 -0.28660803300E+02  0.40215460927E+02  0.50211536878E+02  0.70583378915E+02  0.47000000000E+01 0.  1.
         -5    1    4    4    0  502  0.94457638079E+02  0.11979176614E+02  0.24428245081E+02  0.98410239414E+02  0.47000000000E+01 0.  1.
<mgrwt>
<rscale>  0 0.99967293E+03</rscale>
<asrwt>0</asrwt>
<pdfrwt beam="1">  1        1 0.24342800E+00 0.99967293E+03</pdfrwt>
<pdfrwt beam="2">  1       -1 0.24291740E-01 0.99967293E+03</pdfrwt>
<totfact> 0.90654281E+01</totfact>
</mgrwt>
</event>
<event>
 9    1  0.4388925E-036  0.1002592E+04  0.7818608E-02  0.8678573E-01
         -1   -1    0    0    0  501 -0.00000000000E+00  0.00000000000E+00  0.19740415671E+03  0.19740415671E+03  0.00000000000E+00 0.  1.
          1   -1    0    0  501    0  0.00000000000E+00 -0.00000000000E+00 -0.12730115833E+04  0.12730115833E+04  0.00000000000E+00 0.  1.
         36    2    1    2    0    0  0.14210854715E-13 -0.14210854715E-13 -0.10756074266E+04  0.14704157400E+04  0.10025921964E+04 0.  0.
         25    2    3    3    0    0  0.11686530997E+03  0.54885003794E+02 -0.29222687620E+03  0.34318478591E+03  0.12533708866E+03 0.  0.
         35    2    3    3    0    0 -0.11686530997E+03 -0.54885003794E+02 -0.78338055040E+03  0.11272309541E+04  0.80018414933E+03 0.  0.
         22    1    5    5    0    0  0.28110864911E+02  0.31882501633E+03 -0.10063142624E+03  0.33550900988E+03  0.00000000000E+00 0. -1.
         22    1    5    5    0    0 -0.14497617488E+03 -0.37371002013E+03 -0.68274912416E+03  0.79172194422E+03  0.00000000000E+00 0. -1.
          5    1    4    4  502    0 -0.54630176924E+01 -0.26126544261E+02 -0.85113381635E+02  0.89324233054E+02  0.47000000000E+01 0. -1.
         -5    1    4    4    0  502  0.12232832766E+03  0.81011548055E+02 -0.20711349456E+03  0.25386055286E+03  0.47000000000E+01 0. -1.
<mgrwt>
<rscale>  0 0.10025922E+04</rscale>
<asrwt>0</asrwt>
<pdfrwt beam="1">  1        1 0.19584794E+00 0.10025922E+04</pdfrwt>
<pdfrwt beam="2">  1       -1 0.30369870E-01 0.10025922E+04</pdfrwt>
<totfact> 0.10357781E+02</totfact>
</mgrwt>
</event>
<event>
 9    1  0.4388925E-036  0.1000160E+04  0.7818608E-02  0.8680886E-01
          1   -1    0    0  501    0  0.00000000000E+00  0.00000000000E+00  0.81830398860E+03  0.81830398860E+03  0.00000000000E+00 0.  1.
         -1   -1    0    0    0  501 -0.00000000000E+00 -0.00000000000E+00 -0.30560748317E+03  0.30560748317E+03  0.00000000000E+00 0.  1.
         36    2    1    2    0    0  0.35527136788E-14  0.00000000000E+00  0.51269650544E+03  0.11239114718E+04  0.10001596321E+04 0.  0.
         25    2    3    3    0    0 -0.12988033544E+02  0.13867965635E+03  0.74446933317E+02  0.20092288675E+03  0.12420517075E+03 0.  0.
         35    2    3    3    0    0  0.12988033544E+02 -0.13867965635E+03  0.43824957212E+03  0.92298858502E+03  0.80027776710E+03 0.  0.
         22    1    5    5    0    0 -0.88377314651E+02 -0.28683296765E+03  0.60665990554E+03  0.67684558214E+03  0.00000000000E+00 0.  1.
         22    1    5    5    0    0  0.10136534819E+03  0.14815331130E+03 -0.16841033342E+03  0.24614300288E+03  0.00000000000E+00 0.  1.
          5    1    4    4  502    0 -0.18022831676E+02  0.59267931483E+02 -0.30441984030E+02  0.69183195616E+02  0.47000000000E+01 0.  1.
         -5    1    4    4    0  502  0.50347981323E+01  0.79411724862E+02  0.10488891735E+03  0.13173969113E+03  0.47000000000E+01 0.  1.
<mgrwt>
<rscale>  0 0.10001596E+04</rscale>
<asrwt>0</asrwt>
<pdfrwt beam="1">  1        1 0.12589292E+00 0.10001596E+04</pdfrwt>
<pdfrwt beam="2">  1       -1 0.47016536E-01 0.10001596E+04</pdfrwt>
<totfact> 0.10930127E+02</totfact>
</mgrwt>
</event>
<event>
 9    1  0.4388925E-036  0.9993086E+03  0.7818608E-02  0.8681697E-01
          1   -1    0    0  501    0  0.00000000000E+00  0.00000000000E+00  0.58671183666E+03  0.58671183666E+03  0.00000000000E+00 0. -1.
         -1   -1    0    0    0  501 -0.00000000000E+00 -0.00000000000E+00 -0.42551452745E+03  0.42551452745E+03  0.00000000000E+00 0. -1.
         36    2    1    2    0    0  0.28421709430E-13  0.17763568394E-13  0.16119730921E+03  0.10122263641E+04  0.99930858082E+03 0.  0.
         25    2    3    3    0    0  0.10956316110E+03 -0.15004560783E+02  0.11473624600E+03  0.20255691973E+03  0.12504269859E+03 0.  0.
         35    2    3    3    0    0 -0.10956316110E+03  0.15004560783E+02  0.46461063218E+02  0.80966944438E+03  0.80073513452E+03 0.  0.
         22    1    5    5    0    0  0.23202873447E+03  0.24909984910E+03  0.16587822166E+03  0.37868674767E+03  0.00000000000E+00 0. -1.
         22    1    5    5    0    0 -0.34159189556E+03 -0.23409528832E+03 -0.11941715845E+03  0.43098269671E+03  0.00000000000E+00 0. -1.
          5    1    4    4  502    0  0.37560129612E+02 -0.29877935525E+02  0.11936514199E+03  0.12873842274E+03  0.47000000000E+01 0. -1.
         -5    1    4    4    0  502  0.72003031485E+02  0.14873374742E+02 -0.46288959934E+01  0.73818496986E+02  0.47000000000E+01 0. -1.
<mgrwt>
<rscale>  0 0.99930858E+03</rscale>
<asrwt>0</asrwt>
<pdfrwt beam="1">  1        1 0.90263360E-01 0.99930858E+03</pdfrwt>
<pdfrwt beam="2">  1       -1 0.65463773E-01 0.99930858E+03</pdfrwt>
<totfact> 0.97559169E+01</totfact>
</mgrwt>
</event>
<event>
 9    1  0.4388925E-036  0.1000696E+04  0.7818608E-02  0.8680376E-01
         -1   -1    0    0    0  501 -0.00000000000E+00  0.00000000000E+00  0.50214787448E+03  0.50214787448E+03  0.00000000000E+00 0. -1.
          1   -1    0    0  501    0  0.00000000000E+00 -0.00000000000E+00 -0.49855413581E+03  0.49855413581E+03  0.00000000000E+00 0. -1.
         36    2    1    2    0    0  0.00000000000E+00  0.00000000000E+00  0.35937386694E+01  0.10007020103E+04  0.10006955573E+04 0.  0.
         25    2    3    3    0    0  0.40371476336E+02 -0.20209566948E+02 -0.13218748419E+03  0.18754045291E+03  0.12513835464E+03 0.  0.
         35    2    3    3    0    0 -0.40371476336E+02  0.20209566948E+02  0.13578122286E+03  0.81316155739E+03  0.80047291974E+03 0.  0.
         22    1    5    5    0    0  0.45285590445E+02 -0.28540697819E+03  0.33189245576E+03  0.44006877882E+03  0.00000000000E+00 0.  1.
         22    1    5    5    0    0 -0.85657066781E+02  0.30561654514E+03 -0.19611123290E+03  0.37309277857E+03  0.00000000000E+00 0.  1.
          5    1    4    4  502    0  0.19754079914E+02  0.30379029695E+02 -0.12735972583E+03  0.13249792030E+03  0.47000000000E+01 0.  1.
         -5    1    4    4    0  502  0.20617396422E+02 -0.50588596642E+02 -0.48277583600E+01  0.55042532611E+02  0.47000000000E+01 0.  1.
<mgrwt>
<rscale>  0 0.10006956E+04</rscale>
<asrwt>0</asrwt>
<pdfrwt beam="1">  1        1 0.76700636E-01 0.10006956E+04</pdfrwt>
<pdfrwt beam="2">  1       -1 0.77253519E-01 0.10006956E+04</pdfrwt>
<totfact> 0.88254043E+01</totfact>
</mgrwt>
</event>
<event>
 9    1  0.4388925E-036  0.9998790E+03  0.7818608E-02  0.8681153E-01
          1   -1    0    0  501    0  0.00000000000E+00  0.00000000000E+00  0.20011634261E+04  0.20011634261E+04  0.00000000000E+00 0. -1.
         -1   -1    0    0    0  501 -0.00000000000E+00 -0.00000000000E+00 -0.12489709194E+03  0.12489709194E+03  0.00000000000E+00 0. -1.
         36    2    1    2    0    0 -0.28421709430E-13 -0.14210854715E-13  0.18762663341E+04  0.21260605180E+04  0.99987897749E+03 0.  0.
         25    2    3    3    0    0 -0.68081435703E+02 -0.24391927403E+02  0.60438872654E+03  0.62152287145E+03  0.12559816462E+03 0.  0.
         35    2    3    3    0    0  0.68081435703E+02  0.24391927403E+02  0.12718776076E+04  0.15045376466E+04  0.80045664042E+03 0.  0.
         22    1    5    5    0    0  0.29900447094E+03  0.14442249231E+03  0.17135965206E+03  0.37366517135E+03  0.00000000000E+00 0.  1.
         22    1    5    5    0    0 -0.23092303524E+03 -0.12003056491E+03  0.11005179555E+04  0.11308724752E+04  0.00000000000E+00 0.  1.
          5    1    4    4  502    0 -0.78983120543E+02 -0.63108916920E+02  0.48517434577E+03  0.49561810350E+03  0.47000000000E+01 0. -1.
         -5    1    4    4    0  502  0.10901684840E+02  0.38716989516E+02  0.11921438077E+03  0.12590476795E+03  0.47000000000E+01 0. -1.
<mgrwt>
<rscale>  0 0.99987898E+03</rscale>
<asrwt>0</asrwt>
<pdfrwt beam="1">  1        1 0.30787127E+00 0.99987898E+03</pdfrwt>
<pdfrwt beam="2">  1       -1 0.19214939E-01 0.99987898E+03</pdfrwt>
<totfact> 0.67918726E+01</totfact>
</mgrwt>
</event>
<event>
 9    1  0.4388925E-036  0.9994344E+03  0.7818608E-02  0.8681577E-01
          2   -1    0    0  501    0  0.00000000000E+00  0.00000000000E+00  0.18398438372E+04  0.18398438372E+04  0.00000000000E+00 0.  1.
         -2   -1    0    0    0  501 -0.00000000000E+00 -0.00000000000E+00 -0.13572744288E+03  0.13572744288E+03  0.00000000000E+00 0.  1.
         36    2    1    2    0    0 -0.35527136788E-14 -0.28421709430E-13  0.17041163943E+04  0.19755712801E+04  0.99943443870E+03 0.  0.
         25    2    3    3    0    0 -0.20730680397E+02 -0.99761578819E+02  0.16520272610E+03  0.23798162059E+03  0.13769959081E+03 0.  0.
         35    2    3    3    0    0  0.20730680397E+02  0.99761578819E+02  0.15389136682E+04  0.17375896595E+04  0.80036267579E+03 0.  0.
         22    1    5    5    0    0 -0.32111019563E+02  0.10943753201E+02  0.16111446218E+04  0.16115017455E+04  0.00000000000E+00 0.  1.
         22    1    5    5    0    0  0.52841699961E+02  0.88817825619E+02 -0.72230953586E+02  0.12608791401E+03  0.00000000000E+00 0.  1.
          5    1    4    4  502    0 -0.12142219368E+00 -0.36379388252E+01  0.13485868853E+03  0.13498964855E+03  0.47000000000E+01 0. -1.
         -5    1    4    4    0  502 -0.20609258203E+02 -0.96123639994E+02  0.30344037567E+02  0.10299197204E+03  0.47000000000E+01 0. -1.
<mgrwt>
<rscale>  0 0.99943444E+03</rscale>
<asrwt>0</asrwt>
<pdfrwt beam="1">  1        2 0.28305288E+00 0.99943444E+03</pdfrwt>
<pdfrwt beam="2">  1       -2 0.20881146E-01 0.99943444E+03</pdfrwt>
<totfact> 0.19173666E+02</totfact>
</mgrwt>
</event>
<event>
 9    1  0.4388925E-036  0.9989896E+03  0.7818608E-02  0.8682001E-01
          2   -1    0    0  501    0  0.00000000000E+00  0.00000000000E+00  0.17196042690E+04  0.17196042690E+04  0.00000000000E+00 0.  1.
         -2   -1    0    0    0  501 -0.00000000000E+00 -0.00000000000E+00 -0.14508865544E+03  0.14508865544E+03  0.00000000000E+00 0.  1.
         36    2    1    2    0    0 -0.14210854715E-13  0.14210854715E-13  0.15745156135E+04  0.18646929244E+04  0.99898963213E+03 0.  0.
         25    2    3    3    0    0 -0.96160194036E+02 -0.10127441282E+03  0.37638557231E+03  0.41997537479E+03  0.12332853190E+03 0.  0.
         35    2    3    3    0    0  0.96160194036E+02  0.10127441282E+03  0.11981300412E+04  0.14447175496E+04  0.79510371204E+03 0.  0.
         22    1    5    5    0    0 -0.28584899557E+03 -0.20432044311E+02  0.90158955009E+03  0.94603955178E+03  0.00000000000E+00 0. -1.
         22    1    5    5    0    0  0.38200918960E+03  0.12170645713E+03  0.29654049112E+03  0.49867799783E+03  0.00000000000E+00 0. -1.
          5    1    4    4  502    0  0.11361891592E+02 -0.32977601804E+02  0.19578390344E+03  0.19892219999E+03  0.47000000000E+01 0.  1.
         -5    1    4    4    0  502 -0.10752208563E+03 -0.68296811014E+02  0.18060166886E+03  0.22105317480E+03  0.47000000000E+01 0.  1.
<mgrwt>
<rscale>  0 0.99898963E+03</rscale>
<asrwt>0</asrwt>
<pdfrwt beam="1">  1        2 0.26455449E+00 0.99898963E+03</pdfrwt>
<pdfrwt beam="2">  1       -2 0.22321333E-01 0.99898963E+03</pdfrwt>
<totfact> 0.19951946E+02</totfact>
</mgrwt>
</event>
<event>
 9    1  0.4388925E-036  0.1000129E+04  0.7818608E-02  0.8680915E-01
          1   -1    0    0  501    0  0.00000000000E+00  0.00000000000E+00  0.23785176557E+04  0.23785176557E+04  0.00000000000E+00 0.  1.
         -1   -1    0    0    0  501 -0.00000000000E+00 -0.00000000000E+00 -0.10513465365E+03  0.10513465365E+03  0.00000000000E+00 0.  1.
         36    2    1    2    0    0  0.14210854715E-13 -0.14210854715E-13  0.22733830021E+04  0.24836523094E+04  0.10001292515E+04 0.  0.
         25    2    3    3    0    0  0.85529864630E+02  0.11620221740E+03  0.42542702119E+03  0.46621289990E+03  0.12469163807E+03 0.  0.
         35    2    3    3    0    0 -0.85529864630E+02 -0.11620221740E+03  0.18479559809E+04  0.20174394095E+04  0.79643088247E+03 0.  0.
         22    1    5    5    0    0 -0.93735444758E+02  0.33462879623E+03  0.97177718303E+03  0.10320434382E+04  0.00000000000E+00 0.  1.
         22    1    5    5    0    0  0.82055801280E+01 -0.45083101363E+03  0.87617879786E+03  0.98539597128E+03  0.00000000000E+00 0.  1.
          5    1    4    4  502    0  0.96756003071E+02  0.92275723643E+02  0.41721598896E+03  0.43814130682E+03  0.47000000000E+01 0.  1.
         -5    1    4    4    0  502 -0.11226138441E+02  0.23926493753E+02  0.82110322319E+01  0.28071593078E+02  0.47000000000E+01 0.  1.
<mgrwt>
<rscale>  0 0.10001293E+04</rscale>
<asrwt>0</asrwt>
<pdfrwt beam="1">  1        1 0.36592575E+00 0.10001293E+04</pdfrwt>
<pdfrwt beam="2">  1       -1 0.16174564E-01 0.10001293E+04</pdfrwt>
<totfact> 0.48911117E+01</totfact>
</mgrwt>
</event>
<event>
 9    1  0.4388925E-036  0.1000471E+04  0.7818608E-02  0.8680589E-01
          1   -1    0    0  501    0  0.00000000000E+00  0.00000000000E+00  0.23920277606E+04  0.23920277606E+04  0.00000000000E+00 0.  1.
         -1   -1    0    0    0  501 -0.00000000000E+00 -0.00000000000E+00 -0.10461236725E+03  0.10461236725E+03  0.00000000000E+00 0.  1.
         36    2    1    2    0    0 -0.28421709430E-13 -0.71054273576E-14  0.22874153933E+04  0.24966401278E+04  0.10004712621E+04 0.  0.
         25    2    3    3    0    0 -0.20124665821E+02 -0.44034919174E+02  0.10018584237E+03  0.16713703133E+03  0.12471370394E+03 0.  0.
         35    2    3    3    0    0  0.20124665821E+02  0.44034919174E+02  0.21872295509E+04  0.23295030965E+04  0.80016716487E+03 0.  0.
         22    1    5    5    0    0  0.33172894626E+03  0.16127256941E+03  0.16989009423E+04  0.17384813335E+04  0.00000000000E+00 0.  1.
         22    1    5    5    0    0 -0.31160428044E+03 -0.11723765023E+03  0.48832860866E+03  0.59102176293E+03  0.00000000000E+00 0.  1.
          5    1    4    4  502    0 -0.65114144482E+02  0.69107214225E+01  0.49829888816E+02  0.82417945264E+02  0.47000000000E+01 0. -1.
         -5    1    4    4    0  502  0.44989478661E+02 -0.50945640597E+02  0.50355953553E+02  0.84719086068E+02  0.47000000000E+01 0. -1.
<mgrwt>
<rscale>  0 0.10004713E+04</rscale>
<asrwt>0</asrwt>
<pdfrwt beam="1">  1        1 0.36800423E+00 0.10004713E+04</pdfrwt>
<pdfrwt beam="2">  1       -1 0.16094212E-01 0.10004713E+04</pdfrwt>
<totfact> 0.48240691E+01</totfact>
</mgrwt>
</event>
<event>
 9    1  0.4388925E-036  0.1000303E+04  0.7818608E-02  0.8680749E-01
          1   -1    0    0  501    0  0.00000000000E+00  0.00000000000E+00  0.16165701106E+04  0.16165701106E+04  0.00000000000E+00 0.  1.
         -1   -1    0    0    0  501 -0.00000000000E+00 -0.00000000000E+00 -0.15474225893E+03  0.15474225893E+03  0.00000000000E+00 0.  1.
         36    2    1    2    0    0  0.00000000000E+00 -0.71054273576E-14  0.14618278517E+04  0.17713123696E+04  0.10003033753E+04 0.  0.
         25    2    3    3    0    0 -0.98959945786E+02  0.15093817972E+02  0.47934488909E+03  0.50520829421E+03  0.12426988223E+03 0.  0.
         35    2    3    3    0    0  0.98959945786E+02 -0.15093817972E+02  0.98248296260E+03  0.12661040753E+04  0.79229152690E+03 0.  0.
         22    1    5    5    0    0  0.37942503728E+03  0.31682573890E+01  0.89441275187E+03  0.97156964109E+03  0.00000000000E+00 0. -1.
         22    1    5    5    0    0 -0.28046509150E+03 -0.18262075361E+02  0.88070210728E+02  0.29453443426E+03  0.00000000000E+00 0. -1.
          5    1    4    4  502    0 -0.48760864205E+01 -0.29864051927E+02  0.26522345805E+02  0.40511265634E+02  0.47000000000E+01 0. -1.
         -5    1    4    4    0  502 -0.94083859365E+02  0.44957869899E+02  0.45282254329E+03  0.46469702858E+03  0.47000000000E+01 0. -1.
<mgrwt>
<rscale>  0 0.10003034E+04</rscale>
<asrwt>0</asrwt>
<pdfrwt beam="1">  1        1 0.24870308E+00 0.10003034E+04</pdfrwt>
<pdfrwt beam="2">  1       -1 0.23806502E-01 0.10003034E+04</pdfrwt>
<totfact> 0.88672123E+01</totfact>
</mgrwt>
</event>
<event>
 9    1  0.4388925E-036  0.1000046E+04  0.7818608E-02  0.8680995E-01
          1   -1    0    0  501    0  0.00000000000E+00  0.00000000000E+00  0.10986491523E+04  0.10986491523E+04  0.00000000000E+00 0.  1.
         -1   -1    0    0    0  501 -0.00000000000E+00 -0.00000000000E+00 -0.22757291898E+03  0.22757291898E+03  0.00000000000E+00 0.  1.
         36    2    1    2    0    0 -0.21316282073E-13 -0.28421709430E-13  0.87107623334E+03  0.13262220713E+04  0.10000455880E+04 0.  0.
         25    2    3    3    0    0  0.30925569833E+02 -0.13526987935E+03  0.18664071830E+03  0.26382128286E+03  0.12454950997E+03 0.  0.
         35    2    3    3    0    0 -0.30925569833E+02  0.13526987935E+03  0.68443551504E+03  0.10624007884E+04  0.80061796752E+03 0.  0.
         22    1    5    5    0    0  0.18542356443E+03 -0.28482426886E+03  0.27597717773E+03  0.43780151325E+03  0.00000000000E+00 0. -1.
         22    1    5    5    0    0 -0.21634913426E+03  0.42009414821E+03  0.40845833731E+03  0.62459927519E+03  0.00000000000E+00 0. -1.
          5    1    4    4  502    0  0.82439926993E+01 -0.97107831520E+02  0.19532856382E+03  0.21834200741E+03  0.47000000000E+01 0. -1.
         -5    1    4    4    0  502  0.22681577133E+02 -0.38162047830E+02 -0.86878455135E+01  0.45479275451E+02  0.47000000000E+01 0. -1.
<mgrwt>
<rscale>  0 0.10000456E+04</rscale>
<asrwt>0</asrwt>
<pdfrwt beam="1">  1        1 0.16902294E+00 0.10000456E+04</pdfrwt>
<pdfrwt beam="2">  1       -1 0.35011219E-01 0.10000456E+04</pdfrwt>
<totfact> 0.10947850E+02</totfact>
</mgrwt>
</event>
<event>
 9    1  0.4388925E-036  0.9983939E+03  0.7818608E-02  0.8682569E-01
         -1   -1    0    0    0  501 -0.00000000000E+00  0.00000000000E+00  0.39343803667E+03  0.39343803667E+03  0.00000000000E+00 0. -1.
          1   -1    0    0  501    0  0.00000000000E+00 -0.00000000000E+00 -0.63338461883E+03  0.63338461883E+03  0.00000000000E+00 0. -1.
         36    2    1    2    0    0  0.30198066270E-13 -0.71054273576E-14 -0.23994658216E+03  0.10268226555E+04  0.99839391202E+03 0.  0.
         25    2    3    3    0    0  0.23127929712E+01  0.61714956163E+02 -0.17211049564E+03  0.22153199535E+03  0.12506125471E+03 0.  0.
         35    2    3    3    0    0 -0.23127929712E+01 -0.61714956163E+02 -0.67836086518E+02  0.80529066015E+03  0.80004826596E+03 0.  0.
         22    1    5    5    0    0  0.39452115081E+03 -0.75449118798E+02 -0.72659655746E+02  0.40818982537E+03  0.00000000000E+00 0. -1.
         22    1    5    5    0    0 -0.39683394378E+03  0.13734162635E+02  0.48235692283E+01  0.39710083478E+03  0.00000000000E+00 0. -1.
          5    1    4    4  502    0  0.12515154400E+02  0.67599096787E+02 -0.18856316566E+03  0.20075961850E+03  0.47000000000E+01 0. -1.
         -5    1    4    4    0  502 -0.10202361429E+02 -0.58841406237E+01  0.16452670015E+02  0.20772376856E+02  0.47000000000E+01 0. -1.
<mgrwt>
<rscale>  0 0.99839391E+03</rscale>
<asrwt>0</asrwt>
<pdfrwt beam="1">  1        1 0.97443786E-01 0.99839391E+03</pdfrwt>
<pdfrwt beam="2">  1       -1 0.60528930E-01 0.99839391E+03</pdfrwt>
<totfact> 0.10148793E+02</totfact>
</mgrwt>
</event>
<event>
 9    1  0.4388925E-036  0.1000052E+04  0.7818608E-02  0.8680988E-01
          2   -1    0    0  501    0  0.00000000000E+00  0.00000000000E+00  0.96927509717E+03  0.96927509717E+03  0.00000000000E+00 0. -1.
         -2   -1    0    0    0  501 -0.00000000000E+00 -0.00000000000E+00 -0.25795156419E+03  0.25795156419E+03  0.00000000000E+00 0. -1.
         36    2    1    2    0    0  0.21316282073E-13  0.00000000000E+00  0.71132353298E+03  0.12272266614E+04  0.10000520535E+04 0.  0.
         25    2    3    3    0    0  0.51050675334E+02 -0.10952531191E+03  0.21964651210E+03  0.28033008630E+03  0.12545278636E+03 0.  0.
         35    2    3    3    0    0 -0.51050675334E+02  0.10952531191E+03  0.49167702088E+03  0.94689657507E+03  0.80016552389E+03 0.  0.
         22    1    5    5    0    0  0.31471214161E+03  0.24201048297E+03  0.13560941047E+03  0.41952677882E+03  0.00000000000E+00 0.  1.
         22    1    5    5    0    0 -0.36576281694E+03 -0.13248517106E+03  0.35606761042E+03  0.52736979625E+03  0.00000000000E+00 0.  1.
          5    1    4    4  502    0  0.90109768399E+02 -0.94427805509E+02  0.14965760757E+03  0.19863501785E+03  0.47000000000E+01 0.  1.
         -5    1    4    4    0  502 -0.39059093065E+02 -0.15097506397E+02  0.69988904530E+02  0.81695068443E+02  0.47000000000E+01 0.  1.
<mgrwt>
<rscale>  0 0.10000521E+04</rscale>
<asrwt>0</asrwt>
<pdfrwt beam="1">  1        2 0.14911924E+00 0.10000521E+04</pdfrwt>
<pdfrwt beam="2">  1       -2 0.39684856E-01 0.10000521E+04</pdfrwt>
<totfact> 0.19151393E+02</totfact>
</mgrwt>
</event>
<event>
 9    1  0.4388925E-036  0.1000116E+04  0.7818608E-02  0.8680928E-01
          2   -1    0    0  501    0  0.00000000000E+00  0.00000000000E+00  0.10678028500E+04  0.10678028500E+04  0.00000000000E+00 0. -1.
         -2   -1    0    0    0  501 -0.00000000000E+00 -0.00000000000E+00 -0.23417986174E+03  0.23417986174E+03  0.00000000000E+00 0. -1.
         36    2    1    2    0    0  0.00000000000E+00 -0.28421709430E-13  0.83362298826E+03  0.13019827117E+04  0.10001158409E+04 0.  0.
         25    2    3    3    0    0 -0.53295165418E+02 -0.10523681095E+03  0.59491582864E+02  0.18174945032E+03  0.12481367403E+03 0.  0.
         35    2    3    3    0    0  0.53295165418E+02  0.10523681095E+03  0.77413140539E+03  0.11202332614E+04  0.80107925086E+03 0.  0.
         22    1    5    5    0    0 -0.54942264908E+02  0.44514092637E+03  0.48914944210E+03  0.66365373013E+03  0.00000000000E+00 0. -1.
         22    1    5    5    0    0  0.10823743033E+03 -0.33990411542E+03  0.28498196329E+03  0.45657953130E+03  0.00000000000E+00 0. -1.
          5    1    4    4  502    0  0.15347553848E+02 -0.32926828491E+02  0.72366614046E+02  0.81109433928E+02  0.47000000000E+01 0.  1.
         -5    1    4    4    0  502 -0.68642719266E+02 -0.72309982459E+02 -0.12875031183E+02  0.10064001639E+03  0.47000000000E+01 0.  1.
<mgrwt>
<rscale>  0 0.10001158E+04</rscale>
<asrwt>0</asrwt>
<pdfrwt beam="1">  1        2 0.16427736E+00 0.10001158E+04</pdfrwt>
<pdfrwt beam="2">  1       -2 0.36027672E-01 0.10001158E+04</pdfrwt>
<totfact> 0.19962344E+02</totfact>
</mgrwt>
</event>
<event>
 9    1  0.4388925E-036  0.9984893E+03  0.7818608E-02  0.8682478E-01
          2   -1    0    0  501    0  0.00000000000E+00  0.00000000000E+00  0.18254837197E+04  0.18254837197E+04  0.00000000000E+00 0. -1.
         -2   -1    0    0    0  501 -0.00000000000E+00 -0.00000000000E+00 -0.13653653234E+03  0.13653653234E+03  0.00000000000E+00 0. -1.
         36    2    1    2    0    0  0.10658141036E-13  0.00000000000E+00  0.16889471874E+04  0.19620202520E+04  0.99848929276E+03 0.  0.
         25    2    3    3    0    0 -0.13722521068E+02  0.13797354712E+03  0.33285090276E+03  0.38205060652E+03  0.12628513444E+03 0.  0.
         35    2    3    3    0    0  0.13722521068E+02 -0.13797354712E+03  0.13560962846E+04  0.15799696455E+04  0.79880031323E+03 0.  0.
         22    1    5    5    0    0  0.15378280335E+03 -0.20163675580E+03  0.42173625857E+02  0.25707031453E+03  0.00000000000E+00 0.  1.
         22    1    5    5    0    0 -0.14006028228E+03  0.63663208678E+02  0.13139226587E+04  0.13228993310E+04  0.00000000000E+00 0.  1.
          5    1    4    4  502    0  0.83119080827E+00  0.15450363117E+03  0.23244481906E+03  0.27915004358E+03  0.47000000000E+01 0.  1.
         -5    1    4    4    0  502 -0.14553711876E+02 -0.16530084048E+02  0.10040608370E+03  0.10290056294E+03  0.47000000000E+01 0.  1.
<mgrwt>
<rscale>  0 0.99848929E+03</rscale>
<asrwt>0</asrwt>
<pdfrwt beam="1">  1        2 0.28084363E+00 0.99848929E+03</pdfrwt>
<pdfrwt beam="2">  1       -2 0.21005622E-01 0.99848929E+03</pdfrwt>
<totfact> 0.19334042E+02</totfact>
</mgrwt>
</event>
<event>
 9    1  0.4388925E-036  0.1000035E+04  0.7818608E-02  0.8681005E-01
         -1   -1    0    0    0  501 -0.00000000000E+00  0.00000000000E+00  0.66582261131E+03  0.66582261131E+03  0.00000000000E+00 0.  1.
          1   -1    0    0  501    0  0.00000000000E+00 -0.00000000000E+00 -0.37550150446E+03  0.37550150446E+03  0.00000000000E+00 0.  1.
         36    2    1    2    0    0 -0.28421709430E-13  0.00000000000E+00  0.29032110685E+03  0.10413241158E+04  0.10000347839E+04 0.  0.
         25    2    3    3    0    0  0.91353642697E+02 -0.98387599711E+02  0.93711063416E+02  0.20722842041E+03  0.12702852832E+03 0.  0.
         35    2    3    3    0    0 -0.91353642697E+02  0.98387599711E+02  0.19661004344E+03  0.83409569536E+03  0.79939634227E+03 0.  0.
         22    1    5    5    0    0 -0.43575410648E+03 -0.43586271627E+02  0.98298948502E+02  0.44882523065E+03  0.00000000000E+00 0.  1.
         22    1    5    5    0    0  0.34440046378E+03  0.14197387134E+03  0.98311094936E+02  0.38527046472E+03  0.00000000000E+00 0.  1.
          5    1    4    4  502    0  0.96004863431E+02 -0.11559172994E+03  0.10698381682E+03  0.18451560610E+03  0.47000000000E+01 0.  1.
         -5    1    4    4    0  502 -0.46512207341E+01  0.17204130225E+02 -0.13272753401E+02  0.22712814312E+02  0.47000000000E+01 0.  1.
<mgrwt>
<rscale>  0 0.10000348E+04</rscale>
<asrwt>0</asrwt>
<pdfrwt beam="1">  1        1 0.57769462E-01 0.10000348E+04</pdfrwt>
<pdfrwt beam="2">  1       -1 0.10243425E+00 0.10000348E+04</pdfrwt>
<totfact> 0.70584759E+01</totfact>
</mgrwt>
</event>
<event>
 9    1  0.4388925E-036  0.9987633E+03  0.7818608E-02  0.8682217E-01
         -2   -1    0    0    0  501 -0.00000000000E+00  0.00000000000E+00  0.13672031004E+03  0.13672031004E+03  0.00000000000E+00 0. -1.
          2   -1    0    0  501    0  0.00000000000E+00 -0.00000000000E+00 -0.18240307865E+04  0.18240307865E+04  0.00000000000E+00 0. -1.
         36    2    1    2    0    0  0.00000000000E+00  0.00000000000E+00 -0.16873104764E+04  0.19607510965E+04  0.99876334465E+03 0.  0.
         25    2    3    3    0    0  0.17556086636E+02  0.33364127263E+02 -0.58078752978E+03  0.59537662587E+03  0.12545035162E+03 0.  0.
         35    2    3    3    0    0 -0.17556086636E+02 -0.33364127263E+02 -0.11065229467E+04  0.13653744707E+04  0.79902004509E+03 0.  0.
         22    1    5    5    0    0 -0.56421054466E+02  0.23309928491E+01  0.12267315686E+03  0.13504618591E+03  0.00000000000E+00 0. -1.
         22    1    5    5    0    0  0.38864967830E+02 -0.35695120112E+02 -0.12291961035E+04  0.12303282848E+04  0.00000000000E+00 0. -1.
          5    1    4    4  502    0  0.54789440380E+02  0.61574867049E+01 -0.49306663199E+03  0.49616185968E+03  0.47000000000E+01 0. -1.
         -5    1    4    4    0  502 -0.37233353744E+02  0.27206640558E+02 -0.87720897785E+02  0.99214766188E+02  0.47000000000E+01 0. -1.
<mgrwt>
<rscale>  0 0.99876334E+03</rscale>
<asrwt>0</asrwt>
<pdfrwt beam="1">  1        2 0.28062014E+00 0.99876334E+03</pdfrwt>
<pdfrwt beam="2">  1       -2 0.21033893E-01 0.99876334E+03</pdfrwt>
<totfact> 0.19325315E+02</totfact>
</mgrwt>
</event>
<event>
 9    1  0.4388925E-036  0.9998622E+03  0.7818608E-02  0.8681169E-01
         -2   -1    0    0    0  501 -0.00000000000E+00  0.00000000000E+00  0.33297789235E+03  0.33297789235E+03  0.00000000000E+00 0.  1.
          2   -1    0    0  501    0  0.00000000000E+00 -0.00000000000E+00 -0.75059367825E+03  0.75059367825E+03  0.00000000000E+00 0.  1.
         36    2    1    2    0    0 -0.14210854715E-13 -0.14210854715E-13 -0.41761578590E+03  0.10835715706E+04  0.99986219250E+03 0.  0.
         25    2    3    3    0    0 -0.82016008523E+02 -0.11485535981E+03 -0.87000147053E+02  0.20651608306E+03  0.12313199278E+03 0.  0.
         35    2    3    3    0    0  0.82016008523E+02  0.11485535981E+03 -0.33061563885E+03  0.87705548754E+03  0.80000078015E+03 0.  0.
         22    1    5    5    0    0 -0.30354657849E+03  0.14055265999E+03 -0.35763738086E+03  0.48969385511E+03  0.00000000000E+00 0.  1.
         22    1    5    5    0    0  0.38556258701E+03 -0.25697300177E+02  0.27021742018E+02  0.38736163243E+03  0.00000000000E+00 0.  1.
          5    1    4    4  502    0 -0.28680313921E+02  0.24051425442E+02 -0.24978890583E+02  0.45244518421E+02  0.47000000000E+01 0. -1.
         -5    1    4    4    0  502 -0.53335694602E+02 -0.13890678525E+03 -0.62021256470E+02  0.16127156464E+03  0.47000000000E+01 0. -1.
<mgrwt>
<rscale>  0 0.99986219E+03</rscale>
<asrwt>0</asrwt>
<pdfrwt beam="1">  1        2 0.11547595E+00 0.99986219E+03</pdfrwt>
<pdfrwt beam="2">  1       -2 0.51227368E-01 0.99986219E+03</pdfrwt>
<totfact> 0.16327640E+02</totfact>
</mgrwt>
</event>
<event>
 9    1  0.4388925E-036  0.1001893E+04  0.7818608E-02  0.8679237E-01
          3   -1    0    0  501    0  0.00000000000E+00  0.00000000000E+00  0.50740140742E+03  0.50740140742E+03  0.00000000000E+00 0. -1.
         -3   -1    0    0    0  501 -0.00000000000E+00 -0.00000000000E+00 -0.49457409647E+03  0.49457409647E+03  0.00000000000E+00 0. -1.
         36    2    1    2    0    0  0.00000000000E+00  0.14210854715E-13  0.12827310947E+02  0.10019755039E+04  0.10018933928E+04 0.  0.
         25    2    3    3    0    0  0.96267122141E+02 -0.69685535045E+02 -0.75232553914E+02  0.18819359901E+03  0.12503383917E+03 0.  0.
         35    2    3    3    0    0 -0.96267122141E+02  0.69685535045E+02  0.88059864861E+02  0.81378190489E+03  0.80022685304E+03 0.  0.
         22    1    5    5    0    0  0.23081252763E+03  0.18143715098E+03 -0.20708240053E+03  0.35927285352E+03  0.00000000000E+00 0. -1.
         22    1    5    5    0    0 -0.32707964977E+03 -0.11175161593E+03  0.29514226539E+03  0.45450905137E+03  0.00000000000E+00 0. -1.
          5    1    4    4  502    0  0.32845597539E+02  0.35979457918E+02 -0.25818590710E+02  0.55335741578E+02  0.47000000000E+01 0. -1.
         -5    1    4    4    0  502  0.63421524602E+02 -0.10566499296E+03 -0.49413963204E+02  0.13285785743E+03  0.47000000000E+01 0. -1.
<mgrwt>
<rscale>  0 0.10018934E+04</rscale>
<asrwt>0</asrwt>
<pdfrwt beam="1">  1        3 0.78061755E-01 0.10018934E+04</pdfrwt>
<pdfrwt beam="2">  1       -3 0.76088323E-01 0.10018934E+04</pdfrwt>
<totfact> 0.99626805E+00</totfact>
</mgrwt>
</event>
<event>
 9    1  0.4388925E-036  0.9999090E+03  0.7818608E-02  0.8681125E-01
          1   -1    0    0  501    0  0.00000000000E+00  0.00000000000E+00  0.24328226533E+04  0.24328226533E+04  0.00000000000E+00 0. -1.
         -1   -1    0    0    0  501 -0.00000000000E+00 -0.00000000000E+00 -0.10274258665E+03  0.10274258665E+03  0.00000000000E+00 0. -1.
         36    2    1    2    0    0 -0.28421709430E-13  0.35527136788E-14  0.23300800667E+04  0.25355652400E+04  0.99990898040E+03 0.  0.
         25    2    3    3    0    0  0.77767940919E+02 -0.12401764911E+02  0.14471769073E+03  0.20691566429E+03  0.12517677783E+03 0.  0.
         35    2    3    3    0    0 -0.77767940919E+02  0.12401764911E+02  0.21853623759E+04  0.23286495757E+04  0.80037395996E+03 0.  0.
         22    1    5    5    0    0  0.25704637126E+03  0.30217571098E+02  0.17971481311E+04  0.18156892200E+04  0.00000000000E+00 0. -1.
         22    1    5    5    0    0 -0.33481431218E+03 -0.17815806187E+02  0.38821424483E+03  0.51296035566E+03  0.00000000000E+00 0. -1.
          5    1    4    4  502    0 -0.19818010341E+02 -0.36010678374E+02  0.17850302066E+02  0.45058248686E+02  0.47000000000E+01 0.  1.
         -5    1    4    4    0  502  0.97585951260E+02  0.23608913463E+02  0.12686738866E+03  0.16185741560E+03  0.47000000000E+01 0.  1.
<mgrwt>
<rscale>  0 0.99990898E+03</rscale>
<asrwt>0</asrwt>
<pdfrwt beam="1">  1        1 0.37428037E+00 0.99990898E+03</pdfrwt>
<pdfrwt beam="2">  1       -1 0.15806554E-01 0.99990898E+03</pdfrwt>
<totfact> 0.46500958E+01</totfact>
</mgrwt>
</event>
<event>
 9    1  0.4388925E-036  0.1005582E+04  0.7818608E-02  0.8675740E-01
          1   -1    0    0  501    0  0.00000000000E+00  0.00000000000E+00  0.66987678289E+03  0.66987678289E+03  0.00000000000E+00 0. -1.
         -1   -1    0    0    0  501 -0.00000000000E+00 -0.00000000000E+00 -0.37738093576E+03  0.37738093576E+03  0.00000000000E+00 0. -1.
         36    2    1    2    0    0  0.00000000000E+00 -0.28421709430E-13  0.29249584712E+03  0.10472577187E+04  0.10055818757E+04 0.  0.
         25    2    3    3    0    0  0.10621025306E+03  0.98449480505E+02  0.38041311248E+02  0.19463337356E+03  0.12434665527E+03 0.  0.
         35    2    3    3    0    0 -0.10621025306E+03 -0.98449480505E+02  0.25445453587E+03  0.85262434509E+03  0.80077977306E+03 0.  0.
         22    1    5    5    0    0 -0.46071865387E+02  0.34122511626E+03  0.21762535747E+03  0.40733032414E+03  0.00000000000E+00 0. -1.
         22    1    5    5    0    0 -0.60138387672E+02 -0.43967459676E+03  0.36829178400E+02  0.44529402095E+03  0.00000000000E+00 0. -1.
          5    1    4    4  502    0  0.40723197579E+02  0.19810231874E+02 -0.44053950598E+02  0.63353489812E+02  0.47000000000E+01 0. -1.
         -5    1    4    4    0  502  0.65487055479E+02  0.78639248631E+02  0.82095261847E+02  0.13127988375E+03  0.47000000000E+01 0. -1.
<mgrwt>
<rscale>  0 0.10055819E+04</rscale>
<asrwt>0</asrwt>
<pdfrwt beam="1">  1        1 0.10305797E+00 0.10055819E+04</pdfrwt>
<pdfrwt beam="2">  1       -1 0.58058605E-01 0.10055819E+04</pdfrwt>
<totfact> 0.10099456E+02</totfact>
</mgrwt>
</event>
<event>
 9    1  0.4388925E-036  0.9995325E+03  0.7818608E-02  0.8681483E-01
          2   -1    0    0  501    0  0.00000000000E+00  0.00000000000E+00  0.31468201262E+04  0.31468201262E+04  0.00000000000E+00 0. -1.
         -2   -1    0    0    0  501 -0.00000000000E+00 -0.00000000000E+00 -0.79371014769E+02  0.79371014769E+02  0.00000000000E+00 0. -1.
         36    2    1    2    0    0 -0.28421709430E-13  0.00000000000E+00  0.30674491115E+04  0.32261911410E+04  0.99953250415E+03 0.  0.
         25    2    3    3    0    0 -0.77980305373E+02  0.64567434839E+02  0.28726216255E+03  0.33137833039E+03  0.13054564778E+03 0.  0.
         35    2    3    3    0    0  0.77980305373E+02 -0.64567434839E+02  0.27801869489E+04  0.28948128106E+04  0.80015739445E+03 0.  0.
         22    1    5    5    0    0 -0.34067991308E+03 -0.11790300488E+03  0.93782796638E+03  0.10047314150E+04  0.00000000000E+00 0.  1.
         22    1    5    5    0    0  0.41866021846E+03  0.53335570042E+02  0.18423589825E+04  0.18900813956E+04  0.00000000000E+00 0.  1.
          5    1    4    4  502    0 -0.15829773451E+02  0.24191234745E+02 -0.51011837945E+01  0.29730617923E+02  0.47000000000E+01 0. -1.
         -5    1    4    4    0  502 -0.62150531923E+02  0.40376200094E+02  0.29236334635E+03  0.30164771247E+03  0.47000000000E+01 0. -1.
<mgrwt>
<rscale>  0 0.99953250E+03</rscale>
<asrwt>0</asrwt>
<pdfrwt beam="1">  1        2 0.48412608E+00 0.99953250E+03</pdfrwt>
<pdfrwt beam="2">  1       -2 0.12210928E-01 0.99953250E+03</pdfrwt>
<totfact> 0.74880123E+01</totfact>
</mgrwt>
</event>
<event>
 9    1  0.4388925E-036  0.1000431E+04  0.7818608E-02  0.8680627E-01
          2   -1    0    0  501    0  0.00000000000E+00  0.00000000000E+00  0.21259022959E+04  0.21259022959E+04  0.00000000000E+00 0. -1.
         -2   -1    0    0    0  501 -0.00000000000E+00 -0.00000000000E+00 -0.11769862273E+03  0.11769862273E+03  0.00000000000E+00 0. -1.
         36    2    1    2    0    0  0.00000000000E+00  0.28421709430E-13  0.20082036732E+04  0.22436009186E+04  0.10004314515E+04 0.  0.
         25    2    3    3    0    0  0.17057130756E+02 -0.11274737380E+03  0.19348013167E+03  0.25718941599E+03  0.12533522385E+03 0.  0.
         35    2    3    3    0    0 -0.17057130756E+02  0.11274737380E+03  0.18147235415E+04  0.19864115026E+04  0.79975384320E+03 0.  0.
         22    1    5    5    0    0 -0.82141184952E+02  0.14166734104E+03 -0.64120013248E+01  0.16388387213E+03  0.00000000000E+00 0.  1.
         22    1    5    5    0    0  0.65084054196E+02 -0.28919967237E+02  0.18211355428E+04  0.18225276305E+04  0.00000000000E+00 0.  1.
          5    1    4    4  502    0 -0.23527731147E+02 -0.68898179540E+02  0.18211968209E+03  0.19618914822E+03  0.47000000000E+01 0. -1.
         -5    1    4    4    0  502  0.40584861903E+02 -0.43849194264E+02  0.11360449582E+02  0.61000267769E+02  0.47000000000E+01 0. -1.
<mgrwt>
<rscale>  0 0.10004315E+04</rscale>
<asrwt>0</asrwt>
<pdfrwt beam="1">  1        2 0.32706186E+00 0.10004315E+04</pdfrwt>
<pdfrwt beam="2">  1       -2 0.18107482E-01 0.10004315E+04</pdfrwt>
<totfact> 0.16846974E+02</totfact>
</mgrwt>
</event>
<event>
 9    1  0.4388925E-036  0.1001442E+04  0.7818608E-02  0.8679666E-01
         -2   -1    0    0    0  501 -0.00000000000E+00  0.00000000000E+00  0.31874250918E+03  0.31874250918E+03  0.00000000000E+00 0.  1.
          2   -1    0    0  501    0  0.00000000000E+00 -0.00000000000E+00 -0.78659553129E+03  0.78659553129E+03  0.00000000000E+00 0.  1.
         36    2    1    2    0    0  0.00000000000E+00  0.00000000000E+00 -0.46785302211E+03  0.11053380405E+04  0.10014418273E+04 0.  0.
         25    2    3    3    0    0  0.98076820905E+02 -0.20577112075E+02 -0.19905553877E+03  0.25515432128E+03  0.12425031110E+03 0.  0.
         35    2    3    3    0    0 -0.98076820905E+02  0.20577112075E+02 -0.26879748334E+03  0.85018371919E+03  0.80032355269E+03 0.  0.
         22    1    5    5    0    0 -0.34709385037E+03  0.35297929529E+02 -0.42957917185E+03  0.55340613448E+03  0.00000000000E+00 0.  1.
         22    1    5    5    0    0  0.24901702946E+03 -0.14720817454E+02  0.16078168851E+03  0.29677758471E+03  0.00000000000E+00 0.  1.
          5    1    4    4  502    0  0.32193139642E+02 -0.63492240395E+02 -0.13851609718E+03  0.15580905625E+03  0.47000000000E+01 0. -1.
         -5    1    4    4    0  502  0.65883681263E+02  0.42915128320E+02 -0.60539441594E+02  0.99345265031E+02  0.47000000000E+01 0. -1.
<mgrwt>
<rscale>  0 0.10014418E+04</rscale>
<asrwt>0</asrwt>
<pdfrwt beam="1">  1        2 0.12101470E+00 0.10014418E+04</pdfrwt>
<pdfrwt beam="2">  1       -2 0.49037309E-01 0.10014418E+04</pdfrwt>
<totfact> 0.16789592E+02</totfact>
</mgrwt>
</event>
<event>
 9    1  0.4388925E-036  0.9998625E+03  0.7818608E-02  0.8681169E-01
          2   -1    0    0  501    0  0.00000000000E+00  0.00000000000E+00  0.93137429316E+03  0.93137429316E+03  0.00000000000E+00 0. -1.
         -2   -1    0    0    0  501 -0.00000000000E+00 -0.00000000000E+00 -0.26834675442E+03  0.26834675442E+03  0.00000000000E+00 0. -1.
         36    2    1    2    0    0 -0.28421709430E-13  0.21316282073E-13  0.66302753874E+03  0.11997210476E+04  0.99986252799E+03 0.  0.
         25    2    3    3    0    0  0.13689115230E+03  0.26534736951E+02  0.13332415974E+03  0.23000397644E+03  0.12523265455E+03 0.  0.
         35    2    3    3    0    0 -0.13689115230E+03 -0.26534736951E+02  0.52970337901E+03  0.96971707115E+03  0.80020137997E+03 0.  0.
         22    1    5    5    0    0 -0.30720792850E+03 -0.32726540551E+03  0.39786831017E+03  0.59981542929E+03  0.00000000000E+00 0.  1.
         22    1    5    5    0    0  0.17031677621E+03  0.30073066856E+03  0.13183506884E+03  0.36990164186E+03  0.00000000000E+00 0.  1.
          5    1    4    4  502    0  0.10754000793E+03 -0.23112639132E+02  0.34305718071E+02  0.11531703988E+03  0.47000000000E+01 0.  1.
         -5    1    4    4    0  502  0.29351144366E+02  0.49647376082E+02  0.99018441666E+02  0.11468693656E+03  0.47000000000E+01 0.  1.
<mgrwt>
<rscale>  0 0.99986253E+03</rscale>
<asrwt>0</asrwt>
<pdfrwt beam="1">  1        2 0.14328835E+00 0.99986253E+03</pdfrwt>
<pdfrwt beam="2">  1       -2 0.41284117E-01 0.99986253E+03</pdfrwt>
<totfact> 0.18776920E+02</totfact>
</mgrwt>
</event>
<event>
 9    1  0.4388925E-036  0.1000307E+04  0.7818608E-02  0.8680746E-01
         -2   -1    0    0    0  501 -0.00000000000E+00  0.00000000000E+00  0.69520348385E+02  0.69520348385E+02  0.00000000000E+00 0. -1.
          2   -1    0    0  501    0  0.00000000000E+00 -0.00000000000E+00 -0.35982753210E+04  0.35982753210E+04  0.00000000000E+00 0. -1.
         36    2    1    2    0    0  0.00000000000E+00  0.00000000000E+00 -0.35287549726E+04  0.36677956694E+04  0.10003066608E+04 0.  0.
         25    2    3    3    0    0 -0.21145707588E+02 -0.11123482385E+03 -0.35675512718E+03  0.39453041454E+03  0.12473852751E+03 0.  0.
         35    2    3    3    0    0  0.21145707588E+02  0.11123482385E+03 -0.31719998454E+04  0.32732652548E+04  0.79991379668E+03 0.  0.
         22    1    5    5    0    0  0.17838022744E+03 -0.76007739653E+02 -0.29040897261E+04  0.29105555860E+04  0.00000000000E+00 0. -1.
         22    1    5    5    0    0 -0.15723451985E+03  0.18724256350E+03 -0.26791011933E+03  0.36270966883E+03  0.00000000000E+00 0. -1.
          5    1    4    4  502    0 -0.64471360206E+02 -0.61042468770E+02 -0.12474996922E+03  0.15319067890E+03  0.47000000000E+01 0. -1.
         -5    1    4    4    0  502  0.43325652618E+02 -0.50192355080E+02 -0.23200515795E+03  0.24133973564E+03  0.47000000000E+01 0. -1.
<mgrwt>
<rscale>  0 0.10003067E+04</rscale>
<asrwt>0</asrwt>
<pdfrwt beam="1">  1        2 0.55358087E+00 0.10003067E+04</pdfrwt>
<pdfrwt beam="2">  1       -2 0.10695437E-01 0.10003067E+04</pdfrwt>
<totfact> 0.43490834E+01</totfact>
</mgrwt>
</event>
<event>
 9    1  0.4388925E-036  0.9997451E+03  0.7818608E-02  0.8681281E-01
          2   -1    0    0  501    0  0.00000000000E+00  0.00000000000E+00  0.15957322929E+04  0.15957322929E+04  0.00000000000E+00 0.  1.
         -2   -1    0    0    0  501 -0.00000000000E+00 -0.00000000000E+00 -0.15658803660E+03  0.15658803660E+03  0.00000000000E+00 0.  1.
         36    2    1    2    0    0 -0.14210854715E-13  0.00000000000E+00  0.14391442563E+04  0.17523203295E+04  0.99974514089E+03 0.  0.
         25    2    3    3    0    0  0.92716068431E+02 -0.91108938316E+02  0.36054417965E+03  0.40331735539E+03  0.12560125672E+03 0.  0.
         35    2    3    3    0    0 -0.92716068431E+02  0.91108938316E+02  0.10786000766E+04  0.13490029741E+04  0.79970856618E+03 0.  0.
         22    1    5    5    0    0  0.15888158159E+03 -0.21530596080E+02  0.10607128239E+04  0.10727621443E+04  0.00000000000E+00 0. -1.
         22    1    5    5    0    0 -0.25159765003E+03  0.11263953440E+03  0.17887252712E+02  0.27624082974E+03  0.00000000000E+00 0. -1.
          5    1    4    4  502    0  0.66335530608E+02 -0.11698383301E+03  0.32531306602E+03  0.35204587873E+03  0.47000000000E+01 0. -1.
         -5    1    4    4    0  502  0.26380537823E+02  0.25874894692E+02  0.35231113635E+02  0.51271476662E+02  0.47000000000E+01 0. -1.
<mgrwt>
<rscale>  0 0.99974514E+03</rscale>
<asrwt>0</asrwt>
<pdfrwt beam="1">  1        2 0.24549726E+00 0.99974514E+03</pdfrwt>
<pdfrwt beam="2">  1       -2 0.24090468E-01 0.99974514E+03</pdfrwt>
<totfact> 0.20489699E+02</totfact>
</mgrwt>
</event>
<event>
 9    1  0.4388925E-036  0.9970531E+03  0.7818608E-02  0.8683849E-01
         -1   -1    0    0    0  501 -0.00000000000E+00  0.00000000000E+00  0.37117266099E+03  0.37117266099E+03  0.00000000000E+00 0. -1.
          1   -1    0    0  501    0  0.00000000000E+00 -0.00000000000E+00 -0.66957708366E+03  0.66957708366E+03  0.00000000000E+00 0. -1.
         36    2    1    2    0    0  0.14210854715E-13  0.00000000000E+00 -0.29840442267E+03  0.10407497447E+04  0.99705307358E+03 0.  0.
         25    2    3    3    0    0 -0.43753728883E+02 -0.77584952982E+02  0.52882396525E+02  0.16312355175E+03  0.12601163261E+03 0.  0.
         35    2    3    3    0    0  0.43753728883E+02  0.77584952982E+02 -0.35128681919E+03  0.87762619290E+03  0.79930688187E+03 0.  0.
         22    1    5    5    0    0  0.15686007500E+03 -0.32746064978E+03 -0.26189796321E+03  0.44768974013E+03  0.00000000000E+00 0. -1.
         22    1    5    5    0    0 -0.11310634612E+03  0.40504560276E+03 -0.89388855978E+02  0.42993645277E+03  0.00000000000E+00 0. -1.
          5    1    4    4  502    0 -0.55410120299E+02 -0.14543548723E+01 -0.17877011526E+02  0.58430078904E+02  0.47000000000E+01 0. -1.
         -5    1    4    4    0  502  0.11656391416E+02 -0.76130598110E+02  0.70759408051E+02  0.10469347285E+03  0.47000000000E+01 0. -1.
<mgrwt>
<rscale>  0 0.99705307E+03</rscale>
<asrwt>0</asrwt>
<pdfrwt beam="1">  1        1 0.10301186E+00 0.99705307E+03</pdfrwt>
<pdfrwt beam="2">  1       -1 0.57103486E-01 0.99705307E+03</pdfrwt>
<totfact> 0.10438743E+02</totfact>
</mgrwt>
</event>
<event>
 9    1  0.4388925E-036  0.1000340E+04  0.7818608E-02  0.8680714E-01
          2   -1    0    0  501    0  0.00000000000E+00  0.00000000000E+00  0.15489166688E+04  0.15489166688E+04  0.00000000000E+00 0. -1.
         -2   -1    0    0    0  501 -0.00000000000E+00 -0.00000000000E+00 -0.16151291743E+03  0.16151291743E+03  0.00000000000E+00 0. -1.
         36    2    1    2    0    0  0.56843418861E-13 -0.71054273576E-14  0.13874037514E+04  0.17104295862E+04  0.10003400422E+04 0.  0.
         25    2    3    3    0    0  0.82090676366E+02  0.61580052027E+02  0.94316112410E+02  0.18717473771E+03  0.12493146691E+03 0.  0.
         35    2    3    3    0    0 -0.82090676366E+02 -0.61580052027E+02  0.12930876389E+04  0.15232548485E+04  0.79856039817E+03 0.  0.
         22    1    5    5    0    0  0.27744915815E+03 -0.10739137889E+03  0.16895404470E+03  0.34213507981E+03  0.00000000000E+00 0.  1.
         22    1    5    5    0    0 -0.35953983451E+03  0.45811326865E+02  0.11241335942E+04  0.11811197687E+04  0.00000000000E+00 0.  1.
          5    1    4    4  502    0  0.83338513033E+02  0.49071417584E+02  0.51064357154E+01  0.96961216288E+02  0.47000000000E+01 0.  1.
         -5    1    4    4    0  502 -0.12478366671E+01  0.12508634443E+02  0.89209676694E+02  0.90213521425E+02  0.47000000000E+01 0.  1.
<mgrwt>
<rscale>  0 0.10003400E+04</rscale>
<asrwt>0</asrwt>
<pdfrwt beam="1">  1        2 0.23829486E+00 0.10003400E+04</pdfrwt>
<pdfrwt beam="2">  1       -2 0.24848142E-01 0.10003400E+04</pdfrwt>
<totfact> 0.20614027E+02</totfact>
</mgrwt>
</event>
<event>
 9    1  0.4388925E-036  0.9981477E+03  0.7818608E-02  0.8682804E-01
          1   -1    0    0  501    0  0.00000000000E+00  0.00000000000E+00  0.57618929454E+03  0.57618929454E+03  0.00000000000E+00 0. -1.
         -1   -1    0    0    0  501 -0.00000000000E+00 -0.00000000000E+00 -0.43227928518E+03  0.43227928518E+03  0.00000000000E+00 0. -1.
         36    2    1    2    0    0 -0.14210854715E-13  0.00000000000E+00  0.14391000937E+03  0.10084685797E+04  0.99814767719E+03 0.  0.
         25    2    3    3    0    0  0.73855715312E+02  0.10974389912E+03 -0.13406470722E+02  0.18236166749E+03  0.12481047326E+03 0.  0.
         35    2    3    3    0    0 -0.73855715312E+02 -0.10974389912E+03  0.15731648009E+03  0.82610691223E+03  0.80012859307E+03 0.  0.
         22    1    5    5    0    0  0.34901610227E+02  0.33884309009E+03  0.71467107085E+01  0.34071078288E+03  0.00000000000E+00 0. -1.
         22    1    5    5    0    0 -0.10875732554E+03 -0.44858698921E+03  0.15016976938E+03  0.48539612934E+03  0.00000000000E+00 0. -1.
          5    1    4    4  502    0 -0.22494845679E+02  0.15998884945E+02 -0.36372661809E+02  0.45902537279E+02  0.47000000000E+01 0. -1.
         -5    1    4    4    0  502  0.96350560991E+02  0.93745014174E+02  0.22966191087E+02  0.13645913021E+03  0.47000000000E+01 0. -1.
<mgrwt>
<rscale>  0 0.99814768E+03</rscale>
<asrwt>0</asrwt>
<pdfrwt beam="1">  1        1 0.88644507E-01 0.99814768E+03</pdfrwt>
<pdfrwt beam="2">  1       -1 0.66504505E-01 0.99814768E+03</pdfrwt>
<totfact> 0.97114389E+01</totfact>
</mgrwt>
</event>
<event>
 9    1  0.4388925E-036  0.1000230E+04  0.7818608E-02  0.8680819E-01
         -1   -1    0    0    0  501 -0.00000000000E+00  0.00000000000E+00  0.16083046382E+03  0.16083046382E+03  0.00000000000E+00 0.  1.
          1   -1    0    0  501    0  0.00000000000E+00 -0.00000000000E+00 -0.15551467542E+04  0.15551467542E+04  0.00000000000E+00 0.  1.
         36    2    1    2    0    0 -0.14210854715E-13  0.28421709430E-13 -0.13943162904E+04  0.17159772181E+04  0.10002299211E+04 0.  0.
         25    2    3    3    0    0  0.38963414307E+02  0.94255476040E+02 -0.97439548161E+02  0.18890216377E+03  0.12564760051E+03 0.  0.
         35    2    3    3    0    0 -0.38963414307E+02 -0.94255476040E+02 -0.12968767423E+04  0.15270750543E+04  0.79979165686E+03 0.  0.
         22    1    5    5    0    0 -0.17268378961E+03  0.15352790503E+03 -0.34434859411E+02  0.23361564237E+03  0.00000000000E+00 0. -1.
         22    1    5    5    0    0  0.13372037530E+03 -0.24778338107E+03 -0.12624418828E+04  0.12934594119E+04  0.00000000000E+00 0. -1.
          5    1    4    4  502    0  0.30311406774E+02  0.11413145280E+03 -0.35940999983E+02  0.12352576808E+03  0.47000000000E+01 0.  1.
         -5    1    4    4    0  502  0.86520075333E+01 -0.19875976761E+02 -0.61498548177E+02  0.65376395698E+02  0.47000000000E+01 0.  1.
<mgrwt>
<rscale>  0 0.10002299E+04</rscale>
<asrwt>0</asrwt>
<pdfrwt beam="1">  1        1 0.23925335E+00 0.10002299E+04</pdfrwt>
<pdfrwt beam="2">  1       -1 0.24743148E-01 0.10002299E+04</pdfrwt>
<totfact> 0.91876588E+01</totfact>
</mgrwt>
</event>
<event>
 9    1  0.4388925E-036  0.1000465E+04  0.7818608E-02  0.8680595E-01
          1   -1    0    0  501    0  0.00000000000E+00  0.00000000000E+00  0.73250768088E+03  0.73250768088E+03  0.00000000000E+00 0. -1.
         -1   -1    0    0    0  501 -0.00000000000E+00 -0.00000000000E+00 -0.34161104745E+03  0.34161104745E+03  0.00000000000E+00 0. -1.
         36    2    1    2    0    0  0.00000000000E+00  0.32862601529E-13  0.39089663343E+03  0.10741187283E+04  0.10004653240E+04 0.  0.
         25    2    3    3    0    0 -0.13125563301E+03 -0.73485337289E+01  0.55904031680E+02  0.18987558332E+03  0.12508171026E+03 0.  0.
         35    2    3    3    0    0  0.13125563301E+03  0.73485337289E+01  0.33499260175E+03  0.88424314501E+03  0.80770282538E+03 0.  0.
         22    1    5    5    0    0  0.28043126789E+03 -0.33974889296E+03  0.18023279462E+03  0.47597780046E+03  0.00000000000E+00 0.  1.
         22    1    5    5    0    0 -0.14917563489E+03  0.34709742669E+03  0.15475980713E+03  0.40826534455E+03  0.00000000000E+00 0.  1.
          5    1    4    4  502    0 -0.35141003918E+02  0.59524458326E+01 -0.39713263395E+02  0.53568228058E+02  0.47000000000E+01 0. -1.
         -5    1    4    4    0  502 -0.96114629087E+02 -0.13300979562E+02  0.95617295075E+02  0.13630735526E+03  0.47000000000E+01 0. -1.
<mgrwt>
<rscale>  0 0.10004653E+04</rscale>
<asrwt>0</asrwt>
<pdfrwt beam="1">  1        1 0.11269349E+00 0.10004653E+04</pdfrwt>
<pdfrwt beam="2">  1       -1 0.52555546E-01 0.10004653E+04</pdfrwt>
<totfact> 0.10626944E+02</totfact>
</mgrwt>
</event>
<event>
 9    1  0.4388925E-036  0.1000220E+04  0.7818608E-02  0.8680829E-01
          1   -1    0    0  501    0  0.00000000000E+00  0.00000000000E+00  0.15771077464E+04  0.15771077464E+04  0.00000000000E+00 0. -1.
         -1   -1    0    0    0  501 -0.00000000000E+00 -0.00000000000E+00 -0.15858769940E+03  0.15858769940E+03  0.00000000000E+00 0. -1.
         36    2    1    2    0    0  0.35527136788E-14  0.00000000000E+00  0.14185200470E+04  0.17356954458E+04  0.10002197543E+04 0.  0.
         25    2    3    3    0    0  0.52392995468E+01  0.19283890737E+02  0.50390187412E+03  0.51924991547E+03  0.12370956827E+03 0.  0.
         35    2    3    3    0    0 -0.52392995468E+01 -0.19283890737E+02  0.91461817284E+03  0.12164455303E+04  0.80175682558E+03 0.  0.
         22    1    5    5    0    0 -0.22646570281E+03 -0.10104454495E+03 -0.23535411141E+02  0.24909963909E+03  0.00000000000E+00 0. -1.
         22    1    5    5    0    0  0.22122640327E+03  0.81760654216E+02  0.93815358399E+03  0.96734589120E+03  0.00000000000E+00 0. -1.
          5    1    4    4  502    0 -0.15147951028E+02  0.40061851743E+02  0.47819108078E+03  0.48012832880E+03  0.47000000000E+01 0. -1.
         -5    1    4    4    0  502  0.20387250575E+02 -0.20777961006E+02  0.25710793341E+02  0.39121586672E+02  0.47000000000E+01 0. -1.
<mgrwt>
<rscale>  0 0.10002198E+04</rscale>
<asrwt>0</asrwt>
<pdfrwt beam="1">  1        1 0.24263195E+00 0.10002198E+04</pdfrwt>
<pdfrwt beam="2">  1       -1 0.24398109E-01 0.10002198E+04</pdfrwt>
<totfact> 0.90752048E+01</totfact>
</mgrwt>
</event>
<event>
 9    1  0.4388925E-036  0.9989824E+03  0.7818608E-02  0.8682008E-01
          1   -1    0    0  501    0  0.00000000000E+00  0.00000000000E+00  0.42250714733E+03  0.42250714733E+03  0.00000000000E+00 0. -1.
         -1   -1    0    0    0  501 -0.00000000000E+00 -0.00000000000E+00 -0.59050230949E+03  0.59050230949E+03  0.00000000000E+00 0. -1.
         36    2    1    2    0    0  0.00000000000E+00  0.14210854715E-13 -0.16799516216E+03  0.10130094568E+04  0.99898237477E+03 0.  0.
         25    2    3    3    0    0 -0.13058902085E+03  0.40415544174E+02  0.46903539994E+01  0.18512300807E+03  0.12474622286E+03 0.  0.
         35    2    3    3    0    0  0.13058902085E+03 -0.40415544174E+02 -0.17268551616E+03  0.82788644875E+03  0.79805311600E+03 0.  0.
         22    1    5    5    0    0 -0.67674296528E+02  0.35511257460E+03 -0.28836753319E+02  0.36265177428E+03  0.00000000000E+00 0. -1.
         22    1    5    5    0    0  0.19826331738E+03 -0.39552811877E+03 -0.14384876284E+03  0.46523467447E+03  0.00000000000E+00 0. -1.
          5    1    4    4  502    0 -0.61515093792E+02  0.69070590585E+02 -0.36586406881E+02  0.99576645940E+02  0.47000000000E+01 0.  1.
         -5    1    4    4    0  502 -0.69073927060E+02 -0.28655046412E+02  0.41276760880E+02  0.85546362127E+02  0.47000000000E+01 0.  1.
<mgrwt>
<rscale>  0 0.99898237E+03</rscale>
<asrwt>0</asrwt>
<pdfrwt beam="1">  1        1 0.65001100E-01 0.99898237E+03</pdfrwt>
<pdfrwt beam="2">  1       -1 0.90846509E-01 0.99898237E+03</pdfrwt>
<totfact> 0.78570602E+01</totfact>
</mgrwt>
</event>
<event>
 9    1  0.4388925E-036  0.9925818E+03  0.7818608E-02  0.8688135E-01
          1   -1    0    0  501    0  0.00000000000E+00  0.00000000000E+00  0.10939736897E+04  0.10939736897E+04  0.00000000000E+00 0. -1.
         -1   -1    0    0    0  501 -0.00000000000E+00 -0.00000000000E+00 -0.22514679984E+03  0.22514679984E+03  0.00000000000E+00 0. -1.
         36    2    1    2    0    0 -0.71054273576E-14  0.28421709430E-13  0.86882688986E+03  0.13191204895E+04  0.99258183611E+03 0.  0.
         25    2    3    3    0    0  0.54230060898E+02 -0.69036134216E+02  0.20632262545E+02  0.15045407186E+03  0.12043193160E+03 0.  0.
         35    2    3    3    0    0 -0.54230060898E+02  0.69036134216E+02  0.84819462731E+03  0.11686664177E+04  0.79914966224E+03 0.  0.
         22    1    5    5    0    0  0.21734580077E+03  0.31673654630E+03  0.22509618109E+03  0.44522974700E+03  0.00000000000E+00 0.  1.
         22    1    5    5    0    0 -0.27157586167E+03 -0.24770041208E+03  0.62309844622E+03  0.72343667067E+03  0.00000000000E+00 0.  1.
          5    1    4    4  502    0 -0.22186391181E+01 -0.68019326661E+02 -0.29952926564E+02  0.74503818484E+02  0.47000000000E+01 0. -1.
         -5    1    4    4    0  502  0.56448700016E+02 -0.10168075554E+01  0.50585189109E+02  0.75950253379E+02  0.47000000000E+01 0. -1.
<mgrwt>
<rscale>  0 0.99258184E+03</rscale>
<asrwt>0</asrwt>
<pdfrwt beam="1">  1        1 0.16830364E+00 0.99258184E+03</pdfrwt>
<pdfrwt beam="2">  1       -1 0.34637970E-01 0.99258184E+03</pdfrwt>
<totfact> 0.11254448E+02</totfact>
</mgrwt>
</event>
<event>
 9    1  0.4388925E-036  0.9942659E+03  0.7818608E-02  0.8686518E-01
         -1   -1    0    0    0  501 -0.00000000000E+00  0.00000000000E+00  0.26030594949E+03  0.26030594949E+03  0.00000000000E+00 0.  1.
          1   -1    0    0  501    0  0.00000000000E+00 -0.00000000000E+00 -0.94942576870E+03  0.94942576870E+03  0.00000000000E+00 0.  1.
         36    2    1    2    0    0  0.00000000000E+00  0.14210854715E-13 -0.68911981921E+03  0.12097317182E+04  0.99426591251E+03 0.  0.
         25    2    3    3    0    0 -0.91890594682E+02  0.71125643906E+02 -0.20404545868E+03  0.26610239869E+03  0.12519264663E+03 0.  0.
         35    2    3    3    0    0  0.91890594682E+02 -0.71125643906E+02 -0.48507436053E+03  0.94362931950E+03  0.80102210878E+03 0.  0.
         22    1    5    5    0    0 -0.23161590182E+03  0.16791356983E+03  0.32734031141E+02  0.28794515051E+03  0.00000000000E+00 0.  1.
         22    1    5    5    0    0  0.32350649650E+03 -0.23903921373E+03 -0.51780839167E+03  0.65568416899E+03  0.00000000000E+00 0.  1.
          5    1    4    4  502    0  0.18516527769E+02  0.31414769354E+02 -0.10899190696E+03  0.11502641139E+03  0.47000000000E+01 0. -1.
         -5    1    4    4    0  502 -0.11040712245E+03  0.39710874552E+02 -0.95053551717E+02  0.15107598730E+03  0.47000000000E+01 0. -1.
<mgrwt>
<rscale>  0 0.99426591E+03</rscale>
<asrwt>0</asrwt>
<pdfrwt beam="1">  1        1 0.14606550E+00 0.99426591E+03</pdfrwt>
<pdfrwt beam="2">  1       -1 0.40047069E-01 0.99426591E+03</pdfrwt>
<totfact> 0.11332524E+02</totfact>
</mgrwt>
</event>
<event>
 9    1  0.4388925E-036  0.1000101E+04  0.7818608E-02  0.8680942E-01
          2   -1    0    0  501    0  0.00000000000E+00  0.00000000000E+00  0.10543202947E+04  0.10543202947E+04  0.00000000000E+00 0. -1.
         -2   -1    0    0    0  501 -0.00000000000E+00 -0.00000000000E+00 -0.23716762419E+03  0.23716762419E+03  0.00000000000E+00 0. -1.
         36    2    1    2    0    0  0.56843418861E-13  0.00000000000E+00  0.81715267056E+03  0.12914879189E+04  0.10001012737E+04 0.  0.
         25    2    3    3    0    0 -0.95080763420E+02 -0.20790782292E+02  0.16043274705E+02  0.15936463124E+03  0.12516825007E+03 0.  0.
         35    2    3    3    0    0  0.95080763420E+02  0.20790782292E+02  0.80110939585E+03  0.11321232877E+04  0.79401150257E+03 0.  0.
         22    1    5    5    0    0 -0.32022764112E+03 -0.15828701220E+02  0.57370901712E+03  0.65722015052E+03  0.00000000000E+00 0.  1.
         22    1    5    5    0    0  0.41530840454E+03  0.36619483512E+02  0.22740037873E+03  0.47490313718E+03  0.00000000000E+00 0.  1.
          5    1    4    4  502    0 -0.11661887535E+03  0.57375660953E+01  0.32295234907E+02  0.12123511847E+03  0.47000000000E+01 0.  1.
         -5    1    4    4    0  502  0.21538111932E+02 -0.26528348387E+02 -0.16251960202E+02  0.38129512771E+02  0.47000000000E+01 0.  1.
<mgrwt>
<rscale>  0 0.10001013E+04</rscale>
<asrwt>0</asrwt>
<pdfrwt beam="1">  1        2 0.16220312E+00 0.10001013E+04</pdfrwt>
<pdfrwt beam="2">  1       -2 0.36487327E-01 0.10001013E+04</pdfrwt>
<totfact> 0.19868057E+02</totfact>
</mgrwt>
</event>
<event>
 9    1  0.4388925E-036  0.1000242E+04  0.7818608E-02  0.8680807E-01
          1   -1    0    0  501    0  0.00000000000E+00  0.00000000000E+00  0.66420178981E+03  0.66420178981E+03  0.00000000000E+00 0.  1.
         -1   -1    0    0    0  501 -0.00000000000E+00 -0.00000000000E+00 -0.37657414714E+03  0.37657414714E+03  0.00000000000E+00 0.  1.
         36    2    1    2    0    0  0.00000000000E+00  0.00000000000E+00  0.28762764267E+03  0.10407759369E+04  0.10002424157E+04 0.  0.
         25    2    3    3    0    0  0.87057637900E+02 -0.86133956075E+02  0.12463315507E+03  0.21415916393E+03  0.12382501139E+03 0.  0.
         35    2    3    3    0    0 -0.87057637900E+02  0.86133956075E+02  0.16299448759E+03  0.82661677302E+03  0.80108051764E+03 0.  0.
         22    1    5    5    0    0 -0.13457721847E+03  0.27937472236E+03  0.40705072201E+03  0.51171432804E+03  0.00000000000E+00 0. -1.
         22    1    5    5    0    0  0.47519580570E+02 -0.19324076629E+03 -0.24405623442E+03  0.31490244498E+03  0.00000000000E+00 0. -1.
          5    1    4    4  502    0  0.73590700668E+02 -0.14815741424E+01  0.15600353666E+02  0.75387315387E+02  0.47000000000E+01 0.  1.
         -5    1    4    4    0  502  0.13466937232E+02 -0.84652381932E+02  0.10903280141E+03  0.13877184854E+03  0.47000000000E+01 0.  1.
<mgrwt>
<rscale>  0 0.10002424E+04</rscale>
<asrwt>0</asrwt>
<pdfrwt beam="1">  1        1 0.10218489E+00 0.10002424E+04</pdfrwt>
<pdfrwt beam="2">  1       -1 0.57934484E-01 0.10002424E+04</pdfrwt>
<totfact> 0.10276924E+02</totfact>
</mgrwt>
</event>
<event>
 9    1  0.4388925E-036  0.9995194E+03  0.7818608E-02  0.8681496E-01
         -2   -1    0    0    0  501 -0.00000000000E+00  0.00000000000E+00  0.16867505514E+03  0.16867505514E+03  0.00000000000E+00 0. -1.
          2   -1    0    0  501    0  0.00000000000E+00 -0.00000000000E+00 -0.14807154523E+04  0.14807154523E+04  0.00000000000E+00 0. -1.
         36    2    1    2    0    0  0.28421709430E-13  0.40856207306E-13 -0.13120403972E+04  0.16493905074E+04  0.99951940563E+03 0.  0.
         25    2    3    3    0    0 -0.78781854753E+02 -0.88078520637E+01 -0.57010929328E+02  0.15903274698E+03  0.12552692799E+03 0.  0.
         35    2    3    3    0    0  0.78781854753E+02  0.88078520637E+01 -0.12550294678E+04  0.14903577605E+04  0.79986444484E+03 0.  0.
         22    1    5    5    0    0  0.32741828476E+03 -0.26565576563E+03 -0.53995982797E+03  0.68507834211E+03  0.00000000000E+00 0. -1.
         22    1    5    5    0    0 -0.24863643000E+03  0.27446361769E+03 -0.71506963987E+03  0.80527941835E+03  0.00000000000E+00 0. -1.
          5    1    4    4  502    0 -0.74070840623E+01 -0.24469014265E+02  0.33633409625E+02  0.42507573401E+02  0.47000000000E+01 0. -1.
         -5    1    4    4    0  502 -0.71374770691E+02  0.15661162201E+02 -0.90644338953E+02  0.11652517358E+03  0.47000000000E+01 0. -1.
<mgrwt>
<rscale>  0 0.99951941E+03</rscale>
<asrwt>0</asrwt>
<pdfrwt beam="1">  1        2 0.22780239E+00 0.99951941E+03</pdfrwt>
<pdfrwt beam="2">  1       -2 0.25950007E-01 0.99951941E+03</pdfrwt>
<totfact> 0.20857122E+02</totfact>
</mgrwt>
</event>
<event>
 9    1  0.4388925E-036  0.1001337E+04  0.7818608E-02  0.8679766E-01
          1   -1    0    0  501    0  0.00000000000E+00  0.00000000000E+00  0.16475598127E+03  0.16475598127E+03  0.00000000000E+00 0.  1.
         -1   -1    0    0    0  501 -0.00000000000E+00 -0.00000000000E+00 -0.15214546319E+04  0.15214546319E+04  0.00000000000E+00 0.  1.
         36    2    1    2    0    0  0.71054273576E-14  0.00000000000E+00 -0.13566986507E+04  0.16862106132E+04  0.10013366084E+04 0.  0.
         25    2    3    3    0    0 -0.29329317660E+02  0.11194254938E+03 -0.12037460401E+03  0.20862089842E+03  0.12506514596E+03 0.  0.
         35    2    3    3    0    0  0.29329317660E+02 -0.11194254938E+03 -0.12363240467E+04  0.14775897148E+04  0.80086382965E+03 0.  0.
         22    1    5    5    0    0  0.23087664297E+03 -0.33845048356E+03 -0.10363293524E+04  0.11143748386E+04  0.00000000000E+00 0.  1.
         22    1    5    5    0    0 -0.20154732531E+03  0.22650793419E+03 -0.19999469423E+03  0.36321487622E+03  0.00000000000E+00 0.  1.
          5    1    4    4  502    0  0.23598893290E+02  0.95833931609E+01  0.15668571661E+02  0.30271163289E+02  0.47000000000E+01 0.  1.
         -5    1    4    4    0  502 -0.52928210951E+02  0.10235915622E+03 -0.13604317567E+03  0.17834973514E+03  0.47000000000E+01 0.  1.
<mgrwt>
<rscale>  0 0.10013366E+04</rscale>
<asrwt>0</asrwt>
<pdfrwt beam="1">  1        1 0.25347075E-01 0.10013366E+04</pdfrwt>
<pdfrwt beam="2">  1       -1 0.23406994E+00 0.10013366E+04</pdfrwt>
<totfact> 0.15077813E+01</totfact>
</mgrwt>
</event>
<event>
 9    1  0.4388925E-036  0.1000053E+04  0.7818608E-02  0.8680987E-01
         -2   -1    0    0    0  501 -0.00000000000E+00  0.00000000000E+00  0.16113335190E+03  0.16113335190E+03  0.00000000000E+00 0.  1.
          2   -1    0    0  501    0  0.00000000000E+00 -0.00000000000E+00 -0.15516744472E+04  0.15516744472E+04  0.00000000000E+00 0.  1.
         36    2    1    2    0    0 -0.28421709430E-13 -0.71054273576E-14 -0.13905410953E+04  0.17128077992E+04  0.10000530081E+04 0.  0.
         25    2    3    3    0    0 -0.43446137029E+02  0.29559519507E+01 -0.28683612940E+02  0.13289941273E+03  0.12224238127E+03 0.  0.
         35    2    3    3    0    0  0.43446137029E+02 -0.29559519507E+01 -0.13618574824E+04  0.15799083864E+04  0.79972395402E+03 0.  0.
         22    1    5    5    0    0  0.25689675919E+03  0.30571857922E+03 -0.50002255171E+03  0.63990807682E+03  0.00000000000E+00 0. -1.
         22    1    5    5    0    0 -0.21345062216E+03 -0.30867453117E+03 -0.86183493069E+03  0.94000030960E+03  0.00000000000E+00 0. -1.
          5    1    4    4  502    0 -0.21895469152E+02 -0.58434274539E+02 -0.25610584617E+01  0.62630863244E+02  0.47000000000E+01 0. -1.
         -5    1    4    4    0  502 -0.21550667877E+02  0.61390226490E+02 -0.26122554478E+02  0.70268549486E+02  0.47000000000E+01 0. -1.
<mgrwt>
<rscale>  0 0.10000530E+04</rscale>
<asrwt>0</asrwt>
<pdfrwt beam="1">  1        2 0.23871915E+00 0.10000530E+04</pdfrwt>
<pdfrwt beam="2">  1       -2 0.24789746E-01 0.10000530E+04</pdfrwt>
<totfact> 0.20626042E+02</totfact>
</mgrwt>
</event>
<event>
 9    1  0.4388925E-036  0.9992364E+03  0.7818608E-02  0.8681765E-01
         -2   -1    0    0    0  501 -0.00000000000E+00  0.00000000000E+00  0.14776549904E+03  0.14776549904E+03  0.00000000000E+00 0. -1.
          2   -1    0    0  501    0  0.00000000000E+00 -0.00000000000E+00 -0.16892871198E+04  0.16892871198E+04  0.00000000000E+00 0. -1.
         36    2    1    2    0    0  0.14210854715E-13 -0.71054273576E-14 -0.15415216208E+04  0.18370526189E+04  0.99923641704E+03 0.  0.
         25    2    3    3    0    0  0.87686016965E+02 -0.37519840785E+02 -0.47503611607E+03  0.50045985466E+03  0.12531631392E+03 0.  0.
         35    2    3    3    0    0 -0.87686016965E+02  0.37519840785E+02 -0.10664855047E+04  0.13365927642E+04  0.79999519344E+03 0.  0.
         22    1    5    5    0    0 -0.21014381367E+03 -0.10343094266E+02 -0.11576407674E+04  0.11766050945E+04  0.00000000000E+00 0.  1.
         22    1    5    5    0    0  0.12245779671E+03  0.47862935051E+02  0.91155262727E+02  0.15998766968E+03  0.00000000000E+00 0.  1.
          5    1    4    4  502    0  0.79650515212E+02  0.32979200000E+02 -0.25519105852E+03  0.26940007155E+03  0.47000000000E+01 0. -1.
         -5    1    4    4    0  502  0.80355017524E+01 -0.70499040784E+02 -0.21984505755E+03  0.23105978311E+03  0.47000000000E+01 0. -1.
<mgrwt>
<rscale>  0 0.99923642E+03</rscale>
<asrwt>0</asrwt>
<pdfrwt beam="1">  1        2 0.25989032E+00 0.99923642E+03</pdfrwt>
<pdfrwt beam="2">  1       -2 0.22733154E-01 0.99923642E+03</pdfrwt>
<totfact> 0.20097615E+02</totfact>
</mgrwt>
</event>
<event>
 9    1  0.4388925E-036  0.1001359E+04  0.7818608E-02  0.8679744E-01
          1   -1    0    0  501    0  0.00000000000E+00  0.00000000000E+00  0.18609223003E+04  0.18609223003E+04  0.00000000000E+00 0.  1.
         -1   -1    0    0    0  501 -0.00000000000E+00 -0.00000000000E+00 -0.13470750217E+03  0.13470750217E+03  0.00000000000E+00 0.  1.
         36    2    1    2    0    0  0.00000000000E+00 -0.56843418861E-13  0.17262147981E+04  0.19956298025E+04  0.10013594656E+04 0.  0.
         25    2    3    3    0    0  0.57828895832E+02 -0.12806918687E+03  0.37058960586E+03  0.41517079605E+03  0.12362943055E+03 0.  0.
         35    2    3    3    0    0 -0.57828895832E+02  0.12806918687E+03  0.13556251923E+04  0.15804590064E+04  0.80024065836E+03 0.  0.
         22    1    5    5    0    0 -0.20010367696E+03  0.38842511504E+03  0.11179569723E+04  0.12003096865E+04  0.00000000000E+00 0. -1.
         22    1    5    5    0    0  0.14227478113E+03 -0.26035592818E+03  0.23766821996E+03  0.38014931995E+03  0.00000000000E+00 0. -1.
          5    1    4    4  502    0  0.53611204952E+02 -0.80282854380E+02  0.95444162755E+02  0.13583510668E+03  0.47000000000E+01 0. -1.
         -5    1    4    4    0  502  0.42176908799E+01 -0.47786332488E+02  0.27514544311E+03  0.27933568936E+03  0.47000000000E+01 0. -1.
<mgrwt>
<rscale>  0 0.10013595E+04</rscale>
<asrwt>0</asrwt>
<pdfrwt beam="1">  1        1 0.28629572E+00 0.10013595E+04</pdfrwt>
<pdfrwt beam="2">  1       -1 0.20724232E-01 0.10013595E+04</pdfrwt>
<totfact> 0.75164597E+01</totfact>
</mgrwt>
</event>
<event>
 9    1  0.4388925E-036  0.1000266E+04  0.7818608E-02  0.8680785E-01
          2   -1    0    0  501    0  0.00000000000E+00  0.00000000000E+00  0.15408610640E+04  0.15408610640E+04  0.00000000000E+00 0.  1.
         -2   -1    0    0    0  501 -0.00000000000E+00 -0.00000000000E+00 -0.16233328409E+03  0.16233328409E+03  0.00000000000E+00 0.  1.
         36    2    1    2    0    0  0.26645352591E-13 -0.14210854715E-13  0.13785277799E+04  0.17031943481E+04  0.10002660383E+04 0.  0.
         25    2    3    3    0    0 -0.77013946815E+01  0.97463921424E+02  0.77788590210E+02  0.17240084828E+03  0.11879587645E+03 0.  0.
         35    2    3    3    0    0  0.77013946815E+01 -0.97463921424E+02  0.13007391897E+04  0.15307934998E+04  0.80115402515E+03 0.  0.
         22    1    5    5    0    0  0.34511478625E+03 -0.19773420602E+03  0.40169723428E+03  0.56529965500E+03  0.00000000000E+00 0.  1.
         22    1    5    5    0    0 -0.33741339156E+03  0.10027028459E+03  0.89904195544E+03  0.96549384484E+03  0.00000000000E+00 0.  1.
          5    1    4    4  502    0 -0.15351856718E+02  0.29727999000E+02 -0.29732170711E+02  0.45005837448E+02  0.47000000000E+01 0.  1.
         -5    1    4    4    0  502  0.76504620364E+01  0.67735922424E+02  0.10752076092E+03  0.12739501083E+03  0.47000000000E+01 0.  1.
<mgrwt>
<rscale>  0 0.10002660E+04</rscale>
<asrwt>0</asrwt>
<pdfrwt beam="1">  1        2 0.23705554E+00 0.10002660E+04</pdfrwt>
<pdfrwt beam="2">  1       -2 0.24974352E-01 0.10002660E+04</pdfrwt>
<totfact> 0.20644987E+02</totfact>
</mgrwt>
</event>
<event>
 9    1  0.4388925E-036  0.9985017E+03  0.7818608E-02  0.8682466E-01
         -2   -1    0    0    0  501 -0.00000000000E+00  0.00000000000E+00  0.47647177873E+03  0.47647177873E+03  0.00000000000E+00 0. -1.
          2   -1    0    0  501    0  0.00000000000E+00 -0.00000000000E+00 -0.52311896557E+03  0.52311896557E+03  0.00000000000E+00 0. -1.
         36    2    1    2    0    0 -0.31974423109E-13  0.28421709430E-13 -0.46647186843E+02  0.99959074430E+03  0.99850172562E+03 0.  0.
         25    2    3    3    0    0 -0.10224731498E+02  0.13613109172E+03 -0.36670333552E+02  0.18880061858E+03  0.12515886284E+03 0.  0.
         35    2    3    3    0    0  0.10224731498E+02 -0.13613109172E+03 -0.99768532910E+01  0.81079012572E+03  0.79915259563E+03 0.  0.
         22    1    5    5    0    0  0.38987679618E+03 -0.57165197625E+01  0.83187849044E+02  0.39869388386E+03  0.00000000000E+00 0.  1.
         22    1    5    5    0    0 -0.37965206468E+03 -0.13041457196E+03 -0.93164702335E+02  0.41209624186E+03  0.00000000000E+00 0.  1.
          5    1    4    4  502    0 -0.37350254592E+02 -0.55339986235E+01 -0.21465427776E+02  0.43686625511E+02  0.47000000000E+01 0.  1.
         -5    1    4    4    0  502  0.27125523095E+02  0.14166509034E+03 -0.15204905775E+02  0.14511399307E+03  0.47000000000E+01 0.  1.
<mgrwt>
<rscale>  0 0.99850173E+03</rscale>
<asrwt>0</asrwt>
<pdfrwt beam="1">  1        2 0.80479841E-01 0.99850173E+03</pdfrwt>
<pdfrwt beam="2">  1       -2 0.73303350E-01 0.99850173E+03</pdfrwt>
<totfact> 0.11859130E+02</totfact>
</mgrwt>
</event>
<event>
 9    1  0.4388925E-036  0.1002108E+04  0.7818608E-02  0.8679033E-01
          2   -1    0    0  501    0  0.00000000000E+00  0.00000000000E+00  0.14611168733E+04  0.14611168733E+04  0.00000000000E+00 0. -1.
         -2   -1    0    0    0  501 -0.00000000000E+00 -0.00000000000E+00 -0.17182404175E+03  0.17182404175E+03  0.00000000000E+00 0. -1.
         36    2    1    2    0    0  0.24868995752E-13  0.00000000000E+00  0.12892928315E+04  0.16329409150E+04  0.10021077919E+04 0.  0.
         25    2    3    3    0    0 -0.20263871428E+02 -0.83839497378E+02  0.57345346956E+02  0.16313564629E+03  0.12603596498E+03 0.  0.
         35    2    3    3    0    0  0.20263871428E+02  0.83839497378E+02  0.12319474846E+04  0.14698052687E+04  0.79699011125E+03 0.  0.
         22    1    5    5    0    0 -0.32439249161E+03 -0.38472162646E+02  0.96001050188E+03  0.10140664473E+04  0.00000000000E+00 0. -1.
         22    1    5    5    0    0  0.34465636304E+03  0.12231166002E+03  0.27193698269E+03  0.45573882138E+03  0.00000000000E+00 0. -1.
          5    1    4    4  502    0  0.22938951604E+02 -0.99190600309E+02  0.20104341609E+02  0.10388091856E+03  0.47000000000E+01 0. -1.
         -5    1    4    4    0  502 -0.43202823031E+02  0.15351102930E+02  0.37241005346E+02  0.59254727729E+02  0.47000000000E+01 0. -1.
<mgrwt>
<rscale>  0 0.10021078E+04</rscale>
<asrwt>0</asrwt>
<pdfrwt beam="1">  1        2 0.22478720E+00 0.10021078E+04</pdfrwt>
<pdfrwt beam="2">  1       -2 0.26434469E-01 0.10021078E+04</pdfrwt>
<totfact> 0.20702462E+02</totfact>
</mgrwt>
</event>
<event>
 9    1  0.4388925E-036  0.1000159E+04  0.7818608E-02  0.8680887E-01
          2   -1    0    0  501    0  0.00000000000E+00  0.00000000000E+00  0.27273081355E+04  0.27273081355E+04  0.00000000000E+00 0. -1.
         -2   -1    0    0    0  501 -0.00000000000E+00 -0.00000000000E+00 -0.91694543809E+02  0.91694543809E+02  0.00000000000E+00 0. -1.
         36    2    1    2    0    0  0.14210854715E-13  0.00000000000E+00  0.26356135917E+04  0.28190026793E+04  0.10001585380E+04 0.  0.
         25    2    3    3    0    0 -0.85375366266E+02  0.10539580543E+03  0.39506826739E+03  0.43596105113E+03  0.12484339484E+03 0.  0.
         35    2    3    3    0    0  0.85375366266E+02 -0.10539580543E+03  0.22405453243E+04  0.23830416282E+04  0.80027921528E+03 0.  0.
         22    1    5    5    0    0  0.38779914846E+03 -0.80058746133E+02  0.62967910228E+03  0.74383691373E+03  0.00000000000E+00 0.  1.
         22    1    5    5    0    0 -0.30242378220E+03 -0.25337059297E+02  0.16108662220E+04  0.16392047144E+04  0.00000000000E+00 0.  1.
          5    1    4    4  502    0 -0.57543409565E+02  0.10147573311E+03  0.15419658931E+03  0.19340953066E+03  0.47000000000E+01 0.  1.
         -5    1    4    4    0  502 -0.27831956702E+02  0.39200723148E+01  0.24087167808E+03  0.24255152047E+03  0.47000000000E+01 0.  1.
<mgrwt>
<rscale>  0 0.10001585E+04</rscale>
<asrwt>0</asrwt>
<pdfrwt beam="1">  1        2 0.41958581E+00 0.10001585E+04</pdfrwt>
<pdfrwt beam="2">  1       -2 0.14106855E-01 0.10001585E+04</pdfrwt>
<totfact> 0.11151070E+02</totfact>
</mgrwt>
</event>
<event>
 9    1  0.4388925E-036  0.1001556E+04  0.7818608E-02  0.8679558E-01
         -1   -1    0    0    0  501 -0.00000000000E+00  0.00000000000E+00  0.87937118251E+02  0.87937118251E+02  0.00000000000E+00 0. -1.
          1   -1    0    0  501    0  0.00000000000E+00 -0.00000000000E+00 -0.28517943280E+04  0.28517943280E+04  0.00000000000E+00 0. -1.
         36    2    1    2    0    0  0.00000000000E+00  0.14210854715E-13 -0.27638572097E+04  0.29397314462E+04  0.10015559396E+04 0.  0.
         25    2    3    3    0    0 -0.38850101743E+02 -0.80513455060E+02 -0.84453906348E+03  0.85849057528E+03  0.12557106059E+03 0.  0.
         35    2    3    3    0    0  0.38850101743E+02  0.80513455060E+02 -0.19193181463E+04  0.20812408710E+04  0.79986853265E+03 0.  0.
         22    1    5    5    0    0 -0.12887904770E+02 -0.35828155206E+03 -0.97017271664E+03  0.10342953489E+04  0.00000000000E+00 0. -1.
         22    1    5    5    0    0  0.51738006512E+02  0.43879500712E+03 -0.94914542961E+03  0.10469455221E+04  0.00000000000E+00 0. -1.
          5    1    4    4  502    0  0.11253100343E+02  0.10154797440E+02 -0.13010587871E+02  0.20521149459E+02  0.47000000000E+01 0.  1.
         -5    1    4    4    0  502 -0.50103202086E+02 -0.90668252500E+02 -0.83152847561E+03  0.83796942582E+03  0.47000000000E+01 0.  1.
<mgrwt>
<rscale>  0 0.10015559E+04</rscale>
<asrwt>0</asrwt>
<pdfrwt beam="1">  1        1 0.43873759E+00 0.10015559E+04</pdfrwt>
<pdfrwt beam="2">  1       -1 0.13528787E-01 0.10015559E+04</pdfrwt>
<totfact> 0.30240477E+01</totfact>
</mgrwt>
</event>
<event>
 9    1  0.4388925E-036  0.9990401E+03  0.7818608E-02  0.8681953E-01
         -2   -1    0    0    0  501 -0.00000000000E+00  0.00000000000E+00  0.36704677897E+03  0.36704677897E+03  0.00000000000E+00 0. -1.
          2   -1    0    0  501    0  0.00000000000E+00 -0.00000000000E+00 -0.67980506668E+03  0.67980506668E+03  0.00000000000E+00 0. -1.
         36    2    1    2    0    0  0.00000000000E+00  0.14210854715E-13 -0.31275828771E+03  0.10468518457E+04  0.99904005936E+03 0.  0.
         25    2    3    3    0    0 -0.33479305019E+02 -0.92806920086E+02  0.44988911561E+02  0.16538974134E+03  0.12488304968E+03 0.  0.
         35    2    3    3    0    0  0.33479305019E+02  0.92806920086E+02 -0.35774719927E+03  0.88146210431E+03  0.79953636219E+03 0.  0.
         22    1    5    5    0    0 -0.18308541562E+03 -0.29815795988E+03 -0.93143530505E+02  0.36206926924E+03  0.00000000000E+00 0.  1.
         22    1    5    5    0    0  0.21656472064E+03  0.39096487997E+03 -0.26460366877E+03  0.51939283507E+03  0.00000000000E+00 0.  1.
          5    1    4    4  502    0 -0.31627468383E+02  0.13227045780E+01 -0.30815011343E+02  0.44426357355E+02  0.47000000000E+01 0. -1.
         -5    1    4    4    0  502 -0.18518366353E+01 -0.94129624664E+02  0.75803922904E+02  0.12096338399E+03  0.47000000000E+01 0. -1.
<mgrwt>
<rscale>  0 0.99904006E+03</rscale>
<asrwt>0</asrwt>
<pdfrwt beam="1">  1        2 0.10458539E+00 0.99904006E+03</pdfrwt>
<pdfrwt beam="2">  1       -2 0.56468736E-01 0.99904006E+03</pdfrwt>
<totfact> 0.15138629E+02</totfact>
</mgrwt>
</event>
<event>
 9    1  0.4388925E-036  0.9993202E+03  0.7818608E-02  0.8681686E-01
         -1   -1    0    0    0  501 -0.00000000000E+00  0.00000000000E+00  0.84200725800E+02  0.84200725800E+02  0.00000000000E+00 0. -1.
          1   -1    0    0  501    0  0.00000000000E+00 -0.00000000000E+00 -0.29650598446E+04  0.29650598446E+04  0.00000000000E+00 0. -1.
         36    2    1    2    0    0 -0.14210854715E-13  0.00000000000E+00 -0.28808591188E+04  0.30492605704E+04  0.99932015081E+03 0.  0.
         25    2    3    3    0    0 -0.20852013201E+02  0.14073709007E+02 -0.96013607344E+03  0.96868583084E+03  0.12592888315E+03 0.  0.
         35    2    3    3    0    0  0.20852013201E+02 -0.14073709007E+02 -0.19207230453E+04  0.20805747395E+04  0.79936309282E+03 0.  0.
         22    1    5    5    0    0  0.27512588410E+03 -0.21200917549E+03 -0.41696924046E+03  0.54268360035E+03  0.00000000000E+00 0.  1.
         22    1    5    5    0    0 -0.25427387090E+03  0.19793546649E+03 -0.15037538049E+04  0.15378911392E+04  0.00000000000E+00 0.  1.
          5    1    4    4  502    0 -0.60635385667E+01 -0.37723925740E+02 -0.77131541711E+03  0.77227548436E+03  0.47000000000E+01 0. -1.
         -5    1    4    4    0  502 -0.14788474634E+02  0.51797634747E+02 -0.18882065633E+03  0.19641034648E+03  0.47000000000E+01 0. -1.
<mgrwt>
<rscale>  0 0.99932015E+03</rscale>
<asrwt>0</asrwt>
<pdfrwt beam="1">  1        1 0.45616305E+00 0.99932015E+03</pdfrwt>
<pdfrwt beam="2">  1       -1 0.12953958E-01 0.99932015E+03</pdfrwt>
<totfact> 0.26874552E+01</totfact>
</mgrwt>
</event>
<event>
 9    1  0.4388925E-036  0.9993189E+03  0.7818608E-02  0.8681687E-01
         -2   -1    0    0    0  501 -0.00000000000E+00  0.00000000000E+00  0.70362267677E+02  0.70362267677E+02  0.00000000000E+00 0. -1.
          2   -1    0    0  501    0  0.00000000000E+00 -0.00000000000E+00 -0.35482026645E+04  0.35482026645E+04  0.00000000000E+00 0. -1.
         36    2    1    2    0    0  0.28421709430E-13  0.00000000000E+00 -0.34778403968E+04  0.36185649321E+04  0.99931893938E+03 0.  0.
         25    2    3    3    0    0  0.93863025478E+02  0.42287212230E+02 -0.30926064495E+03  0.34883051648E+03  0.12426627397E+03 0.  0.
         35    2    3    3    0    0 -0.93863025478E+02 -0.42287212230E+02 -0.31685797518E+04  0.32697344157E+04  0.80041678474E+03 0.  0.
         22    1    5    5    0    0  0.33162459907E+03  0.44878400162E+02 -0.90561975050E+03  0.96547194573E+03  0.00000000000E+00 0. -1.
         22    1    5    5    0    0 -0.42548762454E+03 -0.87165612392E+02 -0.22629600013E+04  0.23042624699E+04  0.00000000000E+00 0. -1.
          5    1    4    4  502    0  0.49407613869E+02  0.12290588053E+02 -0.20486828681E+02  0.55081494282E+02  0.47000000000E+01 0.  1.
         -5    1    4    4    0  502  0.44455411609E+02  0.29996624177E+02 -0.28877381626E+03  0.29374902220E+03  0.47000000000E+01 0.  1.
<mgrwt>
<rscale>  0 0.99931894E+03</rscale>
<asrwt>0</asrwt>
<pdfrwt beam="1">  1        2 0.54587722E+00 0.99931894E+03</pdfrwt>
<pdfrwt beam="2">  1       -2 0.10824967E-01 0.99931894E+03</pdfrwt>
<totfact> 0.46615002E+01</totfact>
</mgrwt>
</event>
<event>
 9    1  0.4388925E-036  0.9998646E+03  0.7818608E-02  0.8681167E-01
         -1   -1    0    0    0  501 -0.00000000000E+00  0.00000000000E+00  0.83173799045E+03  0.83173799045E+03  0.00000000000E+00 0.  1.
          1   -1    0    0  501    0  0.00000000000E+00 -0.00000000000E+00 -0.30049403041E+03  0.30049403041E+03  0.00000000000E+00 0.  1.
         36    2    1    2    0    0  0.00000000000E+00 -0.35527136788E-13  0.53124396004E+03  0.11322320209E+04  0.99986459283E+03 0.  0.
         25    2    3    3    0    0 -0.12866364474E+03 -0.52195620748E+02  0.11843369249E+03  0.22164403234E+03  0.12578084613E+03 0.  0.
         35    2    3    3    0    0  0.12866364474E+03  0.52195620748E+02  0.41281026755E+03  0.91058798852E+03  0.79967459103E+03 0.  0.
         22    1    5    5    0    0  0.15938266713E+03  0.41255405708E+03  0.16444146268E+03  0.47185239137E+03  0.00000000000E+00 0. -1.
         22    1    5    5    0    0 -0.30719022392E+02 -0.36035843633E+03  0.24836880488E+03  0.43873559715E+03  0.00000000000E+00 0. -1.
          5    1    4    4  502    0 -0.47608027393E+02 -0.64731922039E+02  0.37598680995E+01  0.80578983682E+02  0.47000000000E+01 0.  1.
         -5    1    4    4    0  502 -0.81055617343E+02  0.12536301291E+02  0.11467382439E+03  0.14106504866E+03  0.47000000000E+01 0.  1.
<mgrwt>
<rscale>  0 0.99986459E+03</rscale>
<asrwt>0</asrwt>
<pdfrwt beam="1">  1        1 0.46229851E-01 0.99986459E+03</pdfrwt>
<pdfrwt beam="2">  1       -1 0.12795969E+00 0.99986459E+03</pdfrwt>
<totfact> 0.55355297E+01</totfact>
</mgrwt>
</event>
<event>
 9    1  0.4388925E-036  0.9994788E+03  0.7818608E-02  0.8681534E-01
         -2   -1    0    0    0  501 -0.00000000000E+00  0.00000000000E+00  0.18167157482E+03  0.18167157482E+03  0.00000000000E+00 0.  1.
          2   -1    0    0  501    0  0.00000000000E+00 -0.00000000000E+00 -0.13746755566E+04  0.13746755566E+04  0.00000000000E+00 0.  1.
         36    2    1    2    0    0  0.14210854715E-13  0.00000000000E+00 -0.11930039818E+04  0.15563471314E+04  0.99947881064E+03 0.  0.
         25    2    3    3    0    0  0.11365991595E+03  0.35938638220E+02 -0.11032856359E+03  0.20516128256E+03  0.12533394475E+03 0.  0.
         35    2    3    3    0    0 -0.11365991595E+03 -0.35938638220E+02 -0.10826754182E+04  0.13511858488E+04  0.79956674191E+03 0.  0.
         22    1    5    5    0    0 -0.22652668465E+02 -0.41638577865E+03 -0.54280509527E+03  0.68449078263E+03  0.00000000000E+00 0.  1.
         22    1    5    5    0    0 -0.91007247485E+02  0.38044714043E+03 -0.53987032291E+03  0.66669506622E+03  0.00000000000E+00 0.  1.
          5    1    4    4  502    0  0.70587414857E+02  0.11792058842E+02  0.12403793196E+02  0.72784475498E+02  0.47000000000E+01 0. -1.
         -5    1    4    4    0  502  0.43072501093E+02  0.24146579377E+02 -0.12273235679E+03  0.13237680706E+03  0.47000000000E+01 0. -1.
<mgrwt>
<rscale>  0 0.99947881E+03</rscale>
<asrwt>0</asrwt>
<pdfrwt beam="1">  1        2 0.21148855E+00 0.99947881E+03</pdfrwt>
<pdfrwt beam="2">  1       -2 0.27949473E-01 0.99947881E+03</pdfrwt>
<totfact> 0.20983672E+02</totfact>
</mgrwt>
</event>
<event>
 9    1  0.4388925E-036  0.9998685E+03  0.7818608E-02  0.8681163E-01
          1   -1    0    0  501    0  0.00000000000E+00  0.00000000000E+00  0.79384978650E+03  0.79384978650E+03  0.00000000000E+00 0. -1.
         -1   -1    0    0    0  501 -0.00000000000E+00 -0.00000000000E+00 -0.31483819148E+03  0.31483819148E+03  0.00000000000E+00 0. -1.
         36    2    1    2    0    0  0.00000000000E+00  0.71054273576E-14  0.47901159502E+03  0.11086879780E+04  0.99986845352E+03 0.  0.
         25    2    3    3    0    0  0.13602952999E+03 -0.73376081401E+01  0.13101167452E+03  0.22558534111E+03  0.12315361847E+03 0.  0.
         35    2    3    3    0    0 -0.13602952999E+03  0.73376081401E+01  0.34799992050E+03  0.88310263686E+03  0.80013027004E+03 0.  0.
         22    1    5    5    0    0  0.11844169935E+03  0.32885097945E+03  0.66714977329E+01  0.34959392402E+03  0.00000000000E+00 0.  1.
         22    1    5    5    0    0 -0.25447122934E+03 -0.32151337131E+03  0.34132842276E+03  0.53350871284E+03  0.00000000000E+00 0.  1.
          5    1    4    4  502    0  0.11284275609E+03  0.45016967071E+02  0.11133808115E+03  0.16485834295E+03  0.47000000000E+01 0.  1.
         -5    1    4    4    0  502  0.23186773896E+02 -0.52354575211E+02  0.19673593370E+02  0.60726998159E+02  0.47000000000E+01 0.  1.
<mgrwt>
<rscale>  0 0.99986845E+03</rscale>
<asrwt>0</asrwt>
<pdfrwt beam="1">  1        1 0.12213074E+00 0.99986845E+03</pdfrwt>
<pdfrwt beam="2">  1       -1 0.48436645E-01 0.99986845E+03</pdfrwt>
<totfact> 0.10876011E+02</totfact>
</mgrwt>
</event>
<event>
 9    1  0.4388925E-036  0.1001169E+04  0.7818608E-02  0.8679926E-01
          1   -1    0    0  501    0  0.00000000000E+00  0.00000000000E+00  0.88881138720E+03  0.88881138720E+03  0.00000000000E+00 0. -1.
         -1   -1    0    0    0  501 -0.00000000000E+00 -0.00000000000E+00 -0.28193234337E+03  0.28193234337E+03  0.00000000000E+00 0. -1.
         36    2    1    2    0    0  0.21316282073E-13  0.28421709430E-13  0.60687904384E+03  0.11707437306E+04  0.10011686715E+04 0.  0.
         25    2    3    3    0    0  0.14631420271E+02  0.78451152935E+02 -0.22035530641E+02  0.15040851781E+03  0.12557267124E+03 0.  0.
         35    2    3    3    0    0 -0.14631420271E+02 -0.78451152935E+02  0.62891457448E+03  0.10203352128E+04  0.79948842553E+03 0.  0.
         22    1    5    5    0    0  0.24529657947E+03  0.19188755161E+03  0.28916521132E+02  0.31277373540E+03  0.00000000000E+00 0. -1.
         22    1    5    5    0    0 -0.25992799974E+03 -0.27033870454E+03  0.59999805335E+03  0.70756147736E+03  0.00000000000E+00 0. -1.
          5    1    4    4  502    0  0.64267175690E+02  0.44438439964E+02  0.14854226983E+02  0.79672974571E+02  0.47000000000E+01 0.  1.
         -5    1    4    4    0  502 -0.49635755419E+02  0.34012712971E+02 -0.36889757624E+02  0.70735543238E+02  0.47000000000E+01 0.  1.
<mgrwt>
<rscale>  0 0.10011687E+04</rscale>
<asrwt>0</asrwt>
<pdfrwt beam="1">  1        1 0.13674021E+00 0.10011687E+04</pdfrwt>
<pdfrwt beam="2">  1       -1 0.43374207E-01 0.10011687E+04</pdfrwt>
<totfact> 0.11013476E+02</totfact>
</mgrwt>
</event>
<event>
 9    1  0.4388925E-036  0.1002740E+04  0.7818608E-02  0.8678433E-01
         -1   -1    0    0    0  501 -0.00000000000E+00  0.00000000000E+00  0.14130667592E+03  0.14130667592E+03  0.00000000000E+00 0.  1.
          1   -1    0    0  501    0  0.00000000000E+00 -0.00000000000E+00 -0.17789090187E+04  0.17789090187E+04  0.00000000000E+00 0.  1.
         36    2    1    2    0    0  0.00000000000E+00  0.71054273576E-14 -0.16376023428E+04  0.19202156946E+04  0.10027396874E+04 0.  0.
         25    2    3    3    0    0  0.13567340689E+03 -0.45446465816E+02 -0.32991660705E+03  0.38082717683E+03  0.12534638572E+03 0.  0.
         35    2    3    3    0    0 -0.13567340689E+03  0.45446465816E+02 -0.13076857358E+04  0.15393885178E+04  0.79950132625E+03 0.  0.
         22    1    5    5    0    0 -0.35151427280E+03  0.13850338405E+03 -0.24334258668E+03  0.44940080760E+03  0.00000000000E+00 0. -1.
         22    1    5    5    0    0  0.21584086591E+03 -0.93056918238E+02 -0.10643431491E+04  0.10899877102E+04  0.00000000000E+00 0. -1.
          5    1    4    4  502    0  0.14748910966E+03 -0.76634106704E+01 -0.23144259551E+03  0.27458974917E+03  0.47000000000E+01 0.  1.
         -5    1    4    4    0  502 -0.11815702766E+02 -0.37783055145E+02 -0.98474011537E+02  0.10623742766E+03  0.47000000000E+01 0.  1.
<mgrwt>
<rscale>  0 0.10027397E+04</rscale>
<asrwt>0</asrwt>
<pdfrwt beam="1">  1        1 0.27367833E+00 0.10027397E+04</pdfrwt>
<pdfrwt beam="2">  1       -1 0.21739487E-01 0.10027397E+04</pdfrwt>
<totfact> 0.79263724E+01</totfact>
</mgrwt>
</event>
<event>
 9    1  0.4388925E-036  0.9999836E+03  0.7818608E-02  0.8681054E-01
         -2   -1    0    0    0  501 -0.00000000000E+00  0.00000000000E+00  0.26490389305E+03  0.26490389305E+03  0.00000000000E+00 0.  1.
          2   -1    0    0  501    0  0.00000000000E+00 -0.00000000000E+00 -0.94370744303E+03  0.94370744303E+03  0.00000000000E+00 0.  1.
         36    2    1    2    0    0  0.28421709430E-13 -0.14210854715E-13 -0.67880354998E+03  0.12086113361E+04  0.99998355099E+03 0.  0.
         25    2    3    3    0    0 -0.12425253368E+03  0.65649161246E+02 -0.13462964506E+03  0.23105681514E+03  0.12455362698E+03 0.  0.
         35    2    3    3    0    0  0.12425253368E+03 -0.65649161246E+02 -0.54417390492E+03  0.97755452094E+03  0.79983691971E+03 0.  0.
         22    1    5    5    0    0  0.44943839906E+03  0.32254771786E+02 -0.19660948812E+03  0.49162031658E+03  0.00000000000E+00 0. -1.
         22    1    5    5    0    0 -0.32518586538E+03 -0.97903933032E+02 -0.34756441680E+03  0.48593420437E+03  0.00000000000E+00 0. -1.
          5    1    4    4  502    0 -0.33305517743E+02 -0.27724963737E+02 -0.76957057519E+02  0.88444388338E+02  0.47000000000E+01 0. -1.
         -5    1    4    4    0  502 -0.90947015939E+02  0.93374124983E+02 -0.57672587544E+02  0.14261242680E+03  0.47000000000E+01 0. -1.
<mgrwt>
<rscale>  0 0.99998355E+03</rscale>
<asrwt>0</asrwt>
<pdfrwt beam="1">  1        2 0.14518576E+00 0.99998355E+03</pdfrwt>
<pdfrwt beam="2">  1       -2 0.40754445E-01 0.99998355E+03</pdfrwt>
<totfact> 0.18899077E+02</totfact>
</mgrwt>
</event>
<event>
 9    1  0.4388925E-036  0.9999752E+03  0.7818608E-02  0.8681062E-01
          2   -1    0    0  501    0  0.00000000000E+00  0.00000000000E+00  0.33551040645E+04  0.33551040645E+04  0.00000000000E+00 0. -1.
         -2   -1    0    0    0  501 -0.00000000000E+00 -0.00000000000E+00 -0.74509648105E+02  0.74509648105E+02  0.00000000000E+00 0. -1.
         36    2    1    2    0    0 -0.49737991503E-13  0.00000000000E+00  0.32805944164E+04  0.34296137126E+04  0.99997524610E+03 0.  0.
         25    2    3    3    0    0 -0.14732539287E+02 -0.96406612169E+02  0.27310677309E+03  0.31600734062E+03  0.12554699215E+03 0.  0.
         35    2    3    3    0    0  0.14732539287E+02  0.96406612169E+02  0.30074876433E+04  0.31136063720E+04  0.80003214462E+03 0.  0.
         22    1    5    5    0    0 -0.38212991609E+03  0.12935998058E+03  0.16738944462E+04  0.17218245829E+04  0.00000000000E+00 0. -1.
         22    1    5    5    0    0  0.39686245538E+03 -0.32953368411E+02  0.13335931971E+04  0.13917817891E+04  0.00000000000E+00 0. -1.
          5    1    4    4  502    0 -0.65358889929E+02 -0.65387873375E+02  0.11882199547E+03  0.15062574509E+03  0.47000000000E+01 0. -1.
         -5    1    4    4    0  502  0.50626350642E+02 -0.31018738794E+02  0.15428477762E+03  0.16538159553E+03  0.47000000000E+01 0. -1.
<mgrwt>
<rscale>  0 0.99997525E+03</rscale>
<asrwt>0</asrwt>
<pdfrwt beam="1">  1        2 0.51616974E+00 0.99997525E+03</pdfrwt>
<pdfrwt beam="2">  1       -2 0.11463025E-01 0.99997525E+03</pdfrwt>
<totfact> 0.59149558E+01</totfact>
</mgrwt>
</event>
<event>
 9    1  0.4388925E-036  0.1000034E+04  0.7818608E-02  0.8681006E-01
         -1   -1    0    0    0  501 -0.00000000000E+00  0.00000000000E+00  0.42513893066E+03  0.42513893066E+03  0.00000000000E+00 0.  1.
          1   -1    0    0  501    0  0.00000000000E+00 -0.00000000000E+00 -0.58808272708E+03  0.58808272708E+03  0.00000000000E+00 0.  1.
         36    2    1    2    0    0 -0.28421709430E-13  0.28421709430E-13 -0.16294379642E+03  0.10132216577E+04  0.10000337229E+04 0.  0.
         25    2    3    3    0    0 -0.13190976060E+02 -0.13288832853E+03 -0.61440998789E+02  0.19501325660E+03  0.12814782171E+03 0.  0.
         35    2    3    3    0    0  0.13190976060E+02  0.13288832853E+03 -0.10150279763E+03  0.81820840113E+03  0.80083010685E+03 0.  0.
         22    1    5    5    0    0  0.33789604645E+03  0.62911515229E+02 -0.27800901946E+03  0.44206403592E+03  0.00000000000E+00 0.  1.
         22    1    5    5    0    0 -0.32470507039E+03  0.69976813303E+02  0.17650622182E+03  0.37614436521E+03  0.00000000000E+00 0.  1.
          5    1    4    4  502    0  0.55028290807E+02 -0.77173503448E+02 -0.17615572324E+02  0.96520779172E+02  0.47000000000E+01 0. -1.
         -5    1    4    4    0  502 -0.68219266867E+02 -0.55714825084E+02 -0.43825426465E+02  0.98492477433E+02  0.47000000000E+01 0. -1.
<mgrwt>
<rscale>  0 0.10000337E+04</rscale>
<asrwt>0</asrwt>
<pdfrwt beam="1">  1        1 0.90474265E-01 0.10000337E+04</pdfrwt>
<pdfrwt beam="2">  1       -1 0.65405990E-01 0.10000337E+04</pdfrwt>
<totfact> 0.97390845E+01</totfact>
</mgrwt>
</event>
<event>
 9    1  0.4388925E-036  0.9988902E+03  0.7818608E-02  0.8682095E-01
          1   -1    0    0  501    0  0.00000000000E+00  0.00000000000E+00  0.15470082039E+04  0.15470082039E+04  0.00000000000E+00 0. -1.
         -1   -1    0    0    0  501 -0.00000000000E+00 -0.00000000000E+00 -0.16124376737E+03  0.16124376737E+03  0.00000000000E+00 0. -1.
         36    2    1    2    0    0 -0.28421709430E-13  0.00000000000E+00  0.13857644366E+04  0.17082519713E+04  0.99889024612E+03 0.  0.
         25    2    3    3    0    0  0.60669614974E+02  0.12480436089E+02  0.46480132721E+02  0.14737991723E+03  0.12539487151E+03 0.  0.
         35    2    3    3    0    0 -0.60669614974E+02 -0.12480436089E+02  0.13392843038E+04  0.15608720541E+04  0.79925124909E+03 0.  0.
         22    1    5    5    0    0  0.29704279612E+03  0.10654076749E+03  0.10172013668E+04  0.10650276891E+04  0.00000000000E+00 0.  1.
         22    1    5    5    0    0 -0.35771241109E+03 -0.11902120358E+03  0.32208293699E+03  0.49584436495E+03  0.00000000000E+00 0.  1.
          5    1    4    4  502    0  0.24914821979E+02 -0.17428904187E+02  0.82650117280E+02  0.88190968596E+02  0.47000000000E+01 0. -1.
         -5    1    4    4    0  502  0.35754792996E+02  0.29909340276E+02 -0.36169984559E+02  0.59188948639E+02  0.47000000000E+01 0. -1.
<mgrwt>
<rscale>  0 0.99889025E+03</rscale>
<asrwt>0</asrwt>
<pdfrwt beam="1">  1        1 0.23800125E+00 0.99889025E+03</pdfrwt>
<pdfrwt beam="2">  1       -1 0.24806734E-01 0.99889025E+03</pdfrwt>
<totfact> 0.92716871E+01</totfact>
</mgrwt>
</event>
<event>
 9    1  0.4388925E-036  0.9916661E+03  0.7818608E-02  0.8689015E-01
          1   -1    0    0  501    0  0.00000000000E+00  0.00000000000E+00  0.23613802080E+04  0.23613802080E+04  0.00000000000E+00 0.  1.
         -1   -1    0    0    0  501 -0.00000000000E+00 -0.00000000000E+00 -0.10411302365E+03  0.10411302365E+03  0.00000000000E+00 0.  1.
         36    2    1    2    0    0  0.14210854715E-13 -0.14210854715E-13  0.22572671843E+04  0.24654932316E+04  0.99166614029E+03 0.  0.
         25    2    3    3    0    0  0.74493757627E+02  0.86410985912E+02  0.26360436157E+03  0.31422465453E+03  0.12741152092E+03 0.  0.
         35    2    3    3    0    0 -0.74493757627E+02 -0.86410985912E+02  0.19936628228E+04  0.21512685771E+04  0.80015552337E+03 0.  0.
         22    1    5    5    0    0  0.64345275976E+02 -0.41146017098E+03  0.74453743493E+03  0.85309775457E+03  0.00000000000E+00 0.  1.
         22    1    5    5    0    0 -0.13883903360E+03  0.32504918507E+03  0.12491253878E+04  0.12981708225E+04  0.00000000000E+00 0.  1.
          5    1    4    4  502    0  0.87596876195E+02  0.78229798070E+02  0.11396577626E+03  0.16371744618E+03  0.47000000000E+01 0. -1.
         -5    1    4    4    0  502 -0.13103118568E+02  0.81811878415E+01  0.14963858531E+03  0.15050720835E+03  0.47000000000E+01 0. -1.
<mgrwt>
<rscale>  0 0.99166614E+03</rscale>
<asrwt>0</asrwt>
<pdfrwt beam="1">  1        1 0.36328922E+00 0.99166614E+03</pdfrwt>
<pdfrwt beam="2">  1       -1 0.16017390E-01 0.99166614E+03</pdfrwt>
<totfact> 0.51116094E+01</totfact>
</mgrwt>
</event>
<event>
 9    1  0.4388925E-036  0.1013698E+04  0.7818608E-02  0.8668102E-01
         -1   -1    0    0    0  501 -0.00000000000E+00  0.00000000000E+00  0.23710091633E+03  0.23710091633E+03  0.00000000000E+00 0.  1.
          1   -1    0    0  501    0  0.00000000000E+00 -0.00000000000E+00 -0.10834867307E+04  0.10834867307E+04  0.00000000000E+00 0.  1.
         36    2    1    2    0    0  0.00000000000E+00  0.00000000000E+00 -0.84638581434E+03  0.13205876470E+04  0.10136975815E+04 0.  0.
         25    2    3    3    0    0 -0.28849410103E+02 -0.14243329110E+03 -0.23913183458E+03  0.30656785508E+03  0.12522094308E+03 0.  0.
         35    2    3    3    0    0  0.28849410103E+02  0.14243329110E+03 -0.60725397976E+03  0.10140197919E+04  0.79897384913E+03 0.  0.
         22    1    5    5    0    0 -0.33346450346E+03  0.24518043674E+03 -0.43319317864E+03  0.59913967624E+03  0.00000000000E+00 0.  1.
         22    1    5    5    0    0  0.36231391356E+03 -0.10274714564E+03 -0.17406080112E+03  0.41488011568E+03  0.00000000000E+00 0.  1.
          5    1    4    4  502    0 -0.38213610666E+02 -0.12458311923E+03 -0.25089757131E+03  0.28275946479E+03  0.47000000000E+01 0.  1.
         -5    1    4    4    0  502  0.93642005634E+01 -0.17850171864E+02  0.11765736728E+02  0.23808390297E+02  0.47000000000E+01 0.  1.
<mgrwt>
<rscale>  0 0.10136976E+04</rscale>
<asrwt>0</asrwt>
<pdfrwt beam="1">  1        1 0.16669027E+00 0.10136976E+04</pdfrwt>
<pdfrwt beam="2">  1       -1 0.36477064E-01 0.10136976E+04</pdfrwt>
<totfact> 0.10454294E+02</totfact>
</mgrwt>
</event>
<event>
 9    1  0.4388925E-036  0.9990456E+03  0.7818608E-02  0.8681947E-01
          2   -1    0    0  501    0  0.00000000000E+00  0.00000000000E+00  0.23834294952E+03  0.23834294952E+03  0.00000000000E+00 0.  1.
         -2   -1    0    0    0  501 -0.00000000000E+00 -0.00000000000E+00 -0.10469076129E+04  0.10469076129E+04  0.00000000000E+00 0.  1.
         36    2    1    2    0    0 -0.21316282073E-13 -0.28421709430E-13 -0.80856466333E+03  0.12852505624E+04  0.99904564124E+03 0.  0.
         25    2    3    3    0    0  0.21497072956E+02 -0.12326439621E+03 -0.91107483993E+02  0.19951997717E+03  0.12590239128E+03 0.  0.
         35    2    3    3    0    0 -0.21497072956E+02  0.12326439621E+03 -0.71745717934E+03  0.10857305852E+04  0.80523901044E+03 0.  0.
         22    1    5    5    0    0 -0.33568935625E+03 -0.17548580949E+03 -0.29181304861E+03  0.47816050503E+03  0.00000000000E+00 0.  1.
         22    1    5    5    0    0  0.31419228330E+03  0.29875020571E+03 -0.42564413073E+03  0.60757008017E+03  0.00000000000E+00 0.  1.
          5    1    4    4  502    0 -0.29713351712E+02 -0.62260632505E+02 -0.97439607275E+02  0.11948153287E+03  0.47000000000E+01 0.  1.
         -5    1    4    4    0  502  0.51210424668E+02 -0.61003763710E+02  0.63321232824E+01  0.80038444304E+02  0.47000000000E+01 0.  1.
<mgrwt>
<rscale>  0 0.99904564E+03</rscale>
<asrwt>0</asrwt>
<pdfrwt beam="1">  1        2 0.36668146E-01 0.99904564E+03</pdfrwt>
<pdfrwt beam="2">  1       -2 0.16106271E+00 0.99904564E+03</pdfrwt>
<totfact> 0.39377471E+01</totfact>
</mgrwt>
</event>
<event>
 9    1  0.4388925E-036  0.1000060E+04  0.7818608E-02  0.8680981E-01
          2   -1    0    0  501    0  0.00000000000E+00  0.00000000000E+00  0.29350096023E+04  0.29350096023E+04  0.00000000000E+00 0.  1.
         -2   -1    0    0    0  501 -0.00000000000E+00 -0.00000000000E+00 -0.85188801093E+02  0.85188801093E+02  0.00000000000E+00 0.  1.
         36    2    1    2    0    0 -0.28421709430E-13  0.71054273576E-14  0.28498208012E+04  0.30201984034E+04  0.10000598966E+04 0.  0.
         25    2    3    3    0    0 -0.57575446109E+02 -0.35481287642E+02  0.90077051838E+03  0.91192119376E+03  0.12505551999E+03 0.  0.
         35    2    3    3    0    0  0.57575446109E+02  0.35481287642E+02  0.19490502829E+04  0.21082772097E+04  0.80091318750E+03 0.  0.
         22    1    5    5    0    0  0.36343422892E+03  0.11897296670E+03  0.52589928455E+03  0.65023769734E+03  0.00000000000E+00 0.  1.
         22    1    5    5    0    0 -0.30585878281E+03 -0.83491679061E+02  0.14231509983E+04  0.14580395123E+04  0.00000000000E+00 0.  1.
          5    1    4    4  502    0  0.37641269575E+02 -0.26155834174E+02  0.26519251599E+03  0.26916566158E+03  0.47000000000E+01 0.  1.
         -5    1    4    4    0  502 -0.95216715684E+02 -0.93254534683E+01  0.63557800239E+03  0.64275553218E+03  0.47000000000E+01 0.  1.
<mgrwt>
<rscale>  0 0.10000599E+04</rscale>
<asrwt>0</asrwt>
<pdfrwt beam="1">  1        2 0.45153986E+00 0.10000599E+04</pdfrwt>
<pdfrwt beam="2">  1       -2 0.13105972E-01 0.10000599E+04</pdfrwt>
<totfact> 0.92546752E+01</totfact>
</mgrwt>
</event>
<event>
 9    1  0.4388925E-036  0.9988804E+03  0.7818608E-02  0.8682105E-01
          1   -1    0    0  501    0  0.00000000000E+00  0.00000000000E+00  0.91211308859E+03  0.91211308859E+03  0.00000000000E+00 0. -1.
         -1   -1    0    0    0  501 -0.00000000000E+00 -0.00000000000E+00 -0.27347539698E+03  0.27347539698E+03  0.00000000000E+00 0. -1.
         36    2    1    2    0    0  0.28421709430E-13  0.28421709430E-13  0.63863769161E+03  0.11855884856E+04  0.99888035117E+03 0.  0.
         25    2    3    3    0    0  0.16250577283E+02  0.13674389287E+03  0.14506186594E+03  0.23552589583E+03  0.12436450120E+03 0.  0.
         35    2    3    3    0    0 -0.16250577283E+02 -0.13674389287E+03  0.49357582567E+03  0.95006258973E+03  0.80002428415E+03 0.  0.
         22    1    5    5    0    0 -0.22310596766E+03  0.21449563955E+03  0.44143050277E+03  0.53911551728E+03  0.00000000000E+00 0.  1.
         22    1    5    5    0    0  0.20685539037E+03 -0.35123953242E+03  0.52145322899E+02  0.41094707246E+03  0.00000000000E+00 0.  1.
          5    1    4    4  502    0  0.92752836348E+01  0.59966514560E+02 -0.10579416243E+02  0.61774005885E+02  0.47000000000E+01 0.  1.
         -5    1    4    4    0  502  0.69752936482E+01  0.76777378306E+02  0.15564128218E+03  0.17375188995E+03  0.47000000000E+01 0.  1.
<mgrwt>
<rscale>  0 0.99888035E+03</rscale>
<asrwt>0</asrwt>
<pdfrwt beam="1">  1        1 0.14032509E+00 0.99888035E+03</pdfrwt>
<pdfrwt beam="2">  1       -1 0.42073138E-01 0.99888035E+03</pdfrwt>
<totfact> 0.11128151E+02</totfact>
</mgrwt>
</event>
<event>
 9    1  0.4388925E-036  0.1000529E+04  0.7818608E-02  0.8680534E-01
         -1   -1    0    0    0  501 -0.00000000000E+00  0.00000000000E+00  0.79373656260E+03  0.79373656260E+03  0.00000000000E+00 0. -1.
          1   -1    0    0  501    0  0.00000000000E+00 -0.00000000000E+00 -0.31529926213E+03  0.31529926213E+03  0.00000000000E+00 0. -1.
         36    2    1    2    0    0  0.71054273576E-14  0.00000000000E+00  0.47843730048E+03  0.11090358247E+04  0.10005289651E+04 0.  0.
         25    2    3    3    0    0  0.44829036175E+02 -0.13162984299E+03  0.13936571492E+03  0.23315294456E+03  0.12490570448E+03 0.  0.
         35    2    3    3    0    0 -0.44829036175E+02  0.13162984299E+03  0.33907158555E+03  0.87588288017E+03  0.79552826574E+03 0.  0.
         22    1    5    5    0    0 -0.56219954767E+02 -0.31284005080E+03  0.28695958811E+03  0.42822352330E+03  0.00000000000E+00 0. -1.
         22    1    5    5    0    0  0.11390918592E+02  0.44446989379E+03  0.52111997444E+02  0.44765935687E+03  0.00000000000E+00 0. -1.
          5    1    4    4  502    0  0.32299346519E+02 -0.15210323800E+03  0.94405073327E+02  0.18196991692E+03  0.47000000000E+01 0. -1.
         -5    1    4    4    0  502  0.12529689657E+02  0.20473395005E+02  0.44960641593E+02  0.51183027640E+02  0.47000000000E+01 0. -1.
<mgrwt>
<rscale>  0 0.10005290E+04</rscale>
<asrwt>0</asrwt>
<pdfrwt beam="1">  1        1 0.48507579E-01 0.10005290E+04</pdfrwt>
<pdfrwt beam="2">  1       -1 0.12211332E+00 0.10005290E+04</pdfrwt>
<totfact> 0.58527187E+01</totfact>
</mgrwt>
</event>
<event>
 9    1  0.4388925E-036  0.9999054E+03  0.7818608E-02  0.8681128E-01
          3   -1    0    0  501    0  0.00000000000E+00  0.00000000000E+00  0.35658432344E+04  0.35658432344E+04  0.00000000000E+00 0.  1.
         -3   -1    0    0    0  501 -0.00000000000E+00 -0.00000000000E+00 -0.70096383235E+02  0.70096383235E+02  0.00000000000E+00 0.  1.
         36    2    1    2    0    0  0.28421709430E-13  0.71054273576E-14  0.34957468512E+04  0.36359396177E+04  0.99990542336E+03 0.  0.
         25    2    3    3    0    0 -0.11337136231E+03  0.42422403090E+01  0.37245727792E+03  0.40900767010E+03  0.12526686688E+03 0.  0.
         35    2    3    3    0    0  0.11337136231E+03 -0.42422403090E+01  0.31232895733E+04  0.32269319476E+04  0.80329382746E+03 0.  0.
         22    1    5    5    0    0 -0.19331967148E+03  0.30038315933E+03  0.10512698705E+04  0.11103021564E+04  0.00000000000E+00 0.  1.
         22    1    5    5    0    0  0.30669103378E+03 -0.30462539964E+03  0.20720197028E+04  0.21166297912E+04  0.00000000000E+00 0.  1.
          5    1    4    4  502    0 -0.48040454313E+02 -0.49612237842E+02  0.25442583030E+03  0.26367376153E+03  0.47000000000E+01 0.  1.
         -5    1    4    4    0  502 -0.65330907992E+02  0.53854478151E+02  0.11803144761E+03  0.14533390858E+03  0.47000000000E+01 0.  1.
<mgrwt>
<rscale>  0 0.99990542E+03</rscale>
<asrwt>0</asrwt>
<pdfrwt beam="1">  1        3 0.54859113E+00 0.99990542E+03</pdfrwt>
<pdfrwt beam="2">  1       -3 0.10784062E-01 0.99990542E+03</pdfrwt>
<totfact> 0.21970702E+00</totfact>
</mgrwt>
</event>
<event>
 9    1  0.4388925E-036  0.9999466E+03  0.7818608E-02  0.8681089E-01
         -3   -1    0    0    0  501 -0.00000000000E+00  0.00000000000E+00  0.26712529941E+03  0.26712529941E+03  0.00000000000E+00 0. -1.
          3   -1    0    0  501    0  0.00000000000E+00 -0.00000000000E+00 -0.93579034791E+03  0.93579034791E+03  0.00000000000E+00 0. -1.
         36    2    1    2    0    0 -0.35527136788E-13  0.14210854715E-13 -0.66866504849E+03  0.12029156473E+04  0.99994655231E+03 0.  0.
         25    2    3    3    0    0  0.46095694645E+02 -0.10203752709E+03 -0.28574482005E+02  0.17223557415E+03  0.12771891787E+03 0.  0.
         35    2    3    3    0    0 -0.46095694645E+02  0.10203752709E+03 -0.64009056649E+03  0.10306800732E+04  0.80003063061E+03 0.  0.
         22    1    5    5    0    0 -0.35721023695E+03 -0.63242769647E+02 -0.83958591503E+02  0.37235446336E+03  0.00000000000E+00 0.  1.
         22    1    5    5    0    0  0.31111454231E+03  0.16528029674E+03 -0.55613197499E+03  0.65832560981E+03  0.00000000000E+00 0.  1.
          5    1    4    4  502    0 -0.21127718302E+02 -0.53373473716E+02  0.35170882252E+02  0.67484732610E+02  0.47000000000E+01 0. -1.
         -5    1    4    4    0  502  0.67223412947E+02 -0.48664053373E+02 -0.63745364257E+02  0.10475084154E+03  0.47000000000E+01 0. -1.
<mgrwt>
<rscale>  0 0.99994655E+03</rscale>
<asrwt>0</asrwt>
<pdfrwt beam="1">  1        3 0.14396775E+00 0.99994655E+03</pdfrwt>
<pdfrwt beam="2">  1       -3 0.41096200E-01 0.99994655E+03</pdfrwt>
<totfact> 0.88425209E+00</totfact>
</mgrwt>
</event>
<event>
 9    1  0.4388925E-036  0.1001217E+04  0.7818608E-02  0.8679880E-01
          2   -1    0    0  501    0  0.00000000000E+00  0.00000000000E+00  0.86627973858E+03  0.86627973858E+03  0.00000000000E+00 0.  1.
         -2   -1    0    0    0  501 -0.00000000000E+00 -0.00000000000E+00 -0.28929314608E+03  0.28929314608E+03  0.00000000000E+00 0.  1.
         36    2    1    2    0    0  0.00000000000E+00  0.00000000000E+00  0.57698659250E+03  0.11555728847E+04  0.10012168416E+04 0.  0.
         25    2    3    3    0    0  0.23052442852E+02  0.10014904608E+03  0.22020187229E+03  0.27341300764E+03  0.12531784244E+03 0.  0.
         35    2    3    3    0    0 -0.23052442852E+02 -0.10014904608E+03  0.35678472021E+03  0.88215987702E+03  0.80021838613E+03 0.  0.
         22    1    5    5    0    0 -0.22700431925E+03 -0.26033051109E+03 -0.97644030790E+02  0.35893912117E+03  0.00000000000E+00 0.  1.
         22    1    5    5    0    0  0.20395187640E+03  0.16018146500E+03  0.45442875100E+03  0.52322075585E+03  0.00000000000E+00 0.  1.
          5    1    4    4  502    0  0.28647754009E+01 -0.22571700149E+02  0.91390647183E+02  0.94297555526E+02  0.47000000000E+01 0.  1.
         -5    1    4    4    0  502  0.20187667451E+02  0.12272074623E+03  0.12881122511E+03  0.17911545212E+03  0.47000000000E+01 0.  1.
<mgrwt>
<rscale>  0 0.10012168E+04</rscale>
<asrwt>0</asrwt>
<pdfrwt beam="1">  1        2 0.13327380E+00 0.10012168E+04</pdfrwt>
<pdfrwt beam="2">  1       -2 0.44506638E-01 0.10012168E+04</pdfrwt>
<totfact> 0.17915200E+02</totfact>
</mgrwt>
</event>
<event>
 9    1  0.4388925E-036  0.1000038E+04  0.7818608E-02  0.8681002E-01
         -1   -1    0    0    0  501 -0.00000000000E+00  0.00000000000E+00  0.23553267167E+03  0.23553267167E+03  0.00000000000E+00 0. -1.
          1   -1    0    0  501    0  0.00000000000E+00 -0.00000000000E+00 -0.10615037256E+04  0.10615037256E+04  0.00000000000E+00 0. -1.
         36    2    1    2    0    0  0.28421709430E-13  0.00000000000E+00 -0.82597105397E+03  0.12970363973E+04  0.10000376163E+04 0.  0.
         25    2    3    3    0    0  0.57616699039E+02 -0.12837222027E+03 -0.16504783020E+03  0.25052497265E+03  0.12539084784E+03 0.  0.
         35    2    3    3    0    0 -0.57616699039E+02  0.12837222027E+03 -0.66092322377E+03  0.10465114247E+04  0.79910421303E+03 0.  0.
         22    1    5    5    0    0  0.28447794138E+03  0.93250354328E+02 -0.63453093187E+03  0.70160731981E+03  0.00000000000E+00 0.  1.
         22    1    5    5    0    0 -0.34209464042E+03  0.35121865944E+02 -0.26392291905E+02  0.34490410485E+03  0.00000000000E+00 0.  1.
          5    1    4    4  502    0  0.55140347724E+02 -0.39925021705E+02 -0.14415203325E+03  0.15948781771E+03  0.47000000000E+01 0.  1.
         -5    1    4    4    0  502  0.24763513147E+01 -0.88447198567E+02 -0.20895796944E+02  0.91037154943E+02  0.47000000000E+01 0.  1.
<mgrwt>
<rscale>  0 0.10000376E+04</rscale>
<asrwt>0</asrwt>
<pdfrwt beam="1">  1        1 0.16330826E+00 0.10000376E+04</pdfrwt>
<pdfrwt beam="2">  1       -1 0.36235796E-01 0.10000376E+04</pdfrwt>
<totfact> 0.11013164E+02</totfact>
</mgrwt>
</event>
<event>
 9    1  0.4388925E-036  0.1000282E+04  0.7818608E-02  0.8680769E-01
         -2   -1    0    0    0  501 -0.00000000000E+00  0.00000000000E+00  0.17811631786E+03  0.17811631786E+03  0.00000000000E+00 0. -1.
          2   -1    0    0  501    0  0.00000000000E+00 -0.00000000000E+00 -0.14043689464E+04  0.14043689464E+04  0.00000000000E+00 0. -1.
         36    2    1    2    0    0 -0.28421709430E-13  0.00000000000E+00 -0.12262526285E+04  0.15824852642E+04  0.10002820115E+04 0.  0.
         25    2    3    3    0    0 -0.10246079196E+03  0.95196008480E+02 -0.21365108392E+03  0.28438533352E+03  0.12517083662E+03 0.  0.
         35    2    3    3    0    0  0.10246079196E+03 -0.95196008480E+02 -0.10126015446E+04  0.12980999307E+04  0.80008815020E+03 0.  0.
         22    1    5    5    0    0  0.29432433155E+03 -0.73861441227E+01 -0.10440484934E+04  0.10847666218E+04  0.00000000000E+00 0.  1.
         22    1    5    5    0    0 -0.19186353959E+03 -0.87809864358E+02  0.31446948784E+02  0.21333330891E+03  0.00000000000E+00 0.  1.
          5    1    4    4  502    0 -0.13794089452E+02  0.14427854638E+02  0.15496879035E+02  0.25703757567E+02  0.47000000000E+01 0. -1.
         -5    1    4    4    0  502 -0.88666702510E+02  0.80768153842E+02 -0.22914796296E+03  0.25868157595E+03  0.47000000000E+01 0. -1.
<mgrwt>
<rscale>  0 0.10002820E+04</rscale>
<asrwt>0</asrwt>
<pdfrwt beam="1">  1        2 0.21605676E+00 0.10002820E+04</pdfrwt>
<pdfrwt beam="2">  1       -2 0.27402511E-01 0.10002820E+04</pdfrwt>
<totfact> 0.20909668E+02</totfact>
</mgrwt>
</event>
<event>
 9    1  0.4388925E-036  0.1010346E+04  0.7818608E-02  0.8671248E-01
         -1   -1    0    0    0  501 -0.00000000000E+00  0.00000000000E+00  0.41618571810E+03  0.41618571810E+03  0.00000000000E+00 0. -1.
          1   -1    0    0  501    0  0.00000000000E+00 -0.00000000000E+00 -0.61318680398E+03  0.61318680398E+03  0.00000000000E+00 0. -1.
         36    2    1    2    0    0  0.28421709430E-13  0.00000000000E+00 -0.19700108587E+03  0.10293725221E+04  0.10103456643E+04 0.  0.
         25    2    3    3    0    0 -0.10210594817E+03 -0.93969193059E+02  0.97831589318E+01  0.19109744058E+03  0.13102170698E+03 0.  0.
         35    2    3    3    0    0  0.10210594817E+03  0.93969193059E+02 -0.20678424481E+03  0.83827508150E+03  0.80043085552E+03 0.  0.
         22    1    5    5    0    0 -0.10541536017E+03 -0.78506178657E+00 -0.47477291089E+03  0.48633561600E+03  0.00000000000E+00 0.  1.
         22    1    5    5    0    0  0.20752130835E+03  0.94754254845E+02  0.26798866608E+03  0.35193946550E+03  0.00000000000E+00 0.  1.
          5    1    4    4  502    0  0.15067068086E+02  0.19586372319E+02 -0.91477566170E+01  0.26765910641E+02  0.47000000000E+01 0.  1.
         -5    1    4    4    0  502 -0.11717301626E+03 -0.11355556538E+03  0.18930915549E+02  0.16433152994E+03  0.47000000000E+01 0.  1.
<mgrwt>
<rscale>  0 0.10103457E+04</rscale>
<asrwt>0</asrwt>
<pdfrwt beam="1">  1        1 0.94336431E-01 0.10103457E+04</pdfrwt>
<pdfrwt beam="2">  1       -1 0.64028572E-01 0.10103457E+04</pdfrwt>
<totfact> 0.95411759E+01</totfact>
</mgrwt>
</event>
<event>
 9    1  0.4388925E-036  0.9972404E+03  0.7818608E-02  0.8683670E-01
         -1   -1    0    0    0  501 -0.00000000000E+00  0.00000000000E+00  0.82304744568E+02  0.82304744568E+02  0.00000000000E+00 0.  1.
          1   -1    0    0  501    0  0.00000000000E+00 -0.00000000000E+00 -0.30207507802E+04  0.30207507802E+04  0.00000000000E+00 0.  1.
         36    2    1    2    0    0  0.71054273576E-14  0.28421709430E-13 -0.29384460356E+04  0.31030555248E+04  0.99724043514E+03 0.  0.
         25    2    3    3    0    0  0.40485876587E+02 -0.83801531969E+02 -0.23179326114E+03  0.27932526750E+03  0.12503074099E+03 0.  0.
         35    2    3    3    0    0 -0.40485876587E+02  0.83801531969E+02 -0.27066527745E+04  0.28237302573E+04  0.79926311135E+03 0.  0.
         22    1    5    5    0    0 -0.33277217798E+03  0.13451952361E+03 -0.62247241266E+03  0.71854347760E+03  0.00000000000E+00 0. -1.
         22    1    5    5    0    0  0.29228630139E+03 -0.50717991639E+02 -0.20841803618E+04  0.21051867797E+04  0.00000000000E+00 0. -1.
          5    1    4    4  502    0  0.62529658242E+01 -0.51985904000E+02 -0.11153447386E+02  0.53741261474E+02  0.47000000000E+01 0.  1.
         -5    1    4    4    0  502  0.34232910763E+02 -0.31815627969E+02 -0.22063981375E+03  0.22558400603E+03  0.47000000000E+01 0.  1.
<mgrwt>
<rscale>  0 0.99724044E+03</rscale>
<asrwt>0</asrwt>
<pdfrwt beam="1">  1        1 0.46473082E+00 0.99724044E+03</pdfrwt>
<pdfrwt beam="2">  1       -1 0.12662270E-01 0.99724044E+03</pdfrwt>
<totfact> 0.25400288E+01</totfact>
</mgrwt>
</event>
<event>
 9    1  0.4388925E-036  0.9995835E+03  0.7818608E-02  0.8681435E-01
         -2   -1    0    0    0  501 -0.00000000000E+00  0.00000000000E+00  0.93043977039E+02  0.93043977039E+02  0.00000000000E+00 0. -1.
          2   -1    0    0  501    0  0.00000000000E+00 -0.00000000000E+00 -0.26846639436E+04  0.26846639436E+04  0.00000000000E+00 0. -1.
         36    2    1    2    0    0  0.00000000000E+00 -0.42632564146E-13 -0.25916199666E+04  0.27777079207E+04  0.99958353394E+03 0.  0.
         25    2    3    3    0    0 -0.11094339870E+03 -0.75811231328E+02 -0.42732139632E+03  0.46641604800E+03  0.12994065403E+03 0.  0.
         35    2    3    3    0    0  0.11094339870E+03  0.75811231328E+02 -0.21642985703E+04  0.23112918727E+04  0.79989126691E+03 0.  0.
         22    1    5    5    0    0  0.25884212114E+03 -0.27930224622E+03 -0.14593564846E+04  0.15082209181E+04  0.00000000000E+00 0. -1.
         22    1    5    5    0    0 -0.14789872244E+03  0.35511347755E+03 -0.70494208564E+03  0.80307095462E+03  0.00000000000E+00 0. -1.
          5    1    4    4  502    0 -0.87899047556E+02 -0.21255610650E+02 -0.37949088065E+03  0.39014543704E+03  0.47000000000E+01 0. -1.
         -5    1    4    4    0  502 -0.23044351147E+02 -0.54555620678E+02 -0.47830515668E+02  0.76270610961E+02  0.47000000000E+01 0. -1.
<mgrwt>
<rscale>  0 0.99958353E+03</rscale>
<asrwt>0</asrwt>
<pdfrwt beam="1">  1        2 0.41302526E+00 0.99958353E+03</pdfrwt>
<pdfrwt beam="2">  1       -2 0.14314457E-01 0.99958353E+03</pdfrwt>
<totfact> 0.11577901E+02</totfact>
</mgrwt>
</event>
<event>
 9    1  0.4388925E-036  0.9994140E+03  0.7818608E-02  0.8681596E-01
          2   -1    0    0  501    0  0.00000000000E+00  0.00000000000E+00  0.30058171172E+04  0.30058171172E+04  0.00000000000E+00 0.  1.
         -2   -1    0    0    0  501 -0.00000000000E+00 -0.00000000000E+00 -0.83074613979E+02  0.83074613979E+02  0.00000000000E+00 0.  1.
         36    2    1    2    0    0  0.14210854715E-13 -0.71054273576E-14  0.29227425032E+04  0.30888917312E+04  0.99941402172E+03 0.  0.
         25    2    3    3    0    0 -0.96522028346E+02 -0.62276331493E+02  0.78766095749E+03  0.80580054618E+03  0.12533911138E+03 0.  0.
         35    2    3    3    0    0  0.96522028346E+02  0.62276331493E+02  0.21350815457E+04  0.22830911850E+04  0.80046068529E+03 0.  0.
         22    1    5    5    0    0  0.39354247384E+03  0.18392017975E+03  0.16109582322E+04  0.16684989473E+04  0.00000000000E+00 0. -1.
         22    1    5    5    0    0 -0.29702044550E+03 -0.12164384826E+03  0.52412331353E+03  0.61459223771E+03  0.00000000000E+00 0. -1.
          5    1    4    4  502    0 -0.71909323058E+02 -0.98245450021E+02  0.65025319727E+03  0.66156967113E+03  0.47000000000E+01 0.  1.
         -5    1    4    4    0  502 -0.24612705288E+02  0.35969118528E+02  0.13740776022E+03  0.14423087505E+03  0.47000000000E+01 0.  1.
<mgrwt>
<rscale>  0 0.99941402E+03</rscale>
<asrwt>0</asrwt>
<pdfrwt beam="1">  1        2 0.46243332E+00 0.99941402E+03</pdfrwt>
<pdfrwt beam="2">  1       -2 0.12780712E-01 0.99941402E+03</pdfrwt>
<totfact> 0.86586854E+01</totfact>
</mgrwt>
</event>
<event>
 9    1  0.4388925E-036  0.9989697E+03  0.7818608E-02  0.8682020E-01
         -2   -1    0    0    0  501 -0.00000000000E+00  0.00000000000E+00  0.20709378306E+03  0.20709378306E+03  0.00000000000E+00 0. -1.
          2   -1    0    0  501    0  0.00000000000E+00 -0.00000000000E+00 -0.12046962101E+04  0.12046962101E+04  0.00000000000E+00 0. -1.
         36    2    1    2    0    0  0.00000000000E+00  0.00000000000E+00 -0.99760242701E+03  0.14117899931E+04  0.99896966037E+03 0.  0.
         25    2    3    3    0    0  0.67702003598E+02 -0.11007712930E+03 -0.11587786371E+03  0.21437772964E+03  0.12581572233E+03 0.  0.
         35    2    3    3    0    0 -0.67702003598E+02  0.11007712930E+03 -0.88172456330E+03  0.11974122635E+04  0.79978583855E+03 0.  0.
         22    1    5    5    0    0  0.24978932492E+03 -0.18525899793E+03 -0.61273341787E+03  0.68713742769E+03  0.00000000000E+00 0.  1.
         22    1    5    5    0    0 -0.31749132852E+03  0.29533612723E+03 -0.26899114543E+03  0.51027483580E+03  0.00000000000E+00 0.  1.
          5    1    4    4  502    0  0.67965922568E+02  0.65443509509E+00 -0.57270341008E+02  0.89004364359E+02  0.47000000000E+01 0. -1.
         -5    1    4    4    0  502 -0.26391897035E+00 -0.11073156439E+03 -0.58607522698E+02  0.12537336528E+03  0.47000000000E+01 0. -1.
<mgrwt>
<rscale>  0 0.99896966E+03</rscale>
<asrwt>0</asrwt>
<pdfrwt beam="1">  1        2 0.18533788E+00 0.99896966E+03</pdfrwt>
<pdfrwt beam="2">  1       -2 0.31860581E-01 0.99896966E+03</pdfrwt>
<totfact> 0.20752925E+02</totfact>
</mgrwt>
</event>
<event>
 9    1  0.4388925E-036  0.9999602E+03  0.7818608E-02  0.8681076E-01
         -2   -1    0    0    0  501 -0.00000000000E+00  0.00000000000E+00  0.22238819126E+03  0.22238819126E+03  0.00000000000E+00 0.  1.
          2   -1    0    0  501    0  0.00000000000E+00 -0.00000000000E+00 -0.11240710013E+04  0.11240710013E+04  0.00000000000E+00 0.  1.
         36    2    1    2    0    0 -0.21316282073E-13 -0.28421709430E-13 -0.90168281000E+03  0.13464591925E+04  0.99996023284E+03 0.  0.
         25    2    3    3    0    0 -0.35213675022E+02 -0.13520624353E+03 -0.14145674898E+03  0.23456511677E+03  0.12445903331E+03 0.  0.
         35    2    3    3    0    0  0.35213675022E+02  0.13520624353E+03 -0.76022606102E+03  0.11118940758E+04  0.79927719888E+03 0.  0.
         22    1    5    5    0    0 -0.24279638835E+03 -0.21783499381E+03 -0.16344952150E+03  0.36485328120E+03  0.00000000000E+00 0.  1.
         22    1    5    5    0    0  0.27801006337E+03  0.35304123734E+03 -0.59677653952E+03  0.74704079455E+03  0.00000000000E+00 0.  1.
          5    1    4    4  502    0  0.79903008700E+00 -0.88836762525E+01 -0.94428956575E+02  0.94965656912E+02  0.47000000000E+01 0.  1.
         -5    1    4    4    0  502 -0.36012705109E+02 -0.12632256728E+03 -0.47027792410E+02  0.13959945986E+03  0.47000000000E+01 0.  1.
<mgrwt>
<rscale>  0 0.99996023E+03</rscale>
<asrwt>0</asrwt>
<pdfrwt beam="1">  1        2 0.17293400E+00 0.99996023E+03</pdfrwt>
<pdfrwt beam="2">  1       -2 0.34213568E-01 0.99996023E+03</pdfrwt>
<totfact> 0.20320668E+02</totfact>
</mgrwt>
</event>
<event>
 9    1  0.4388925E-036  0.9994903E+03  0.7818608E-02  0.8681523E-01
         -2   -1    0    0    0  501 -0.00000000000E+00  0.00000000000E+00  0.22691493621E+03  0.22691493621E+03  0.00000000000E+00 0. -1.
          2   -1    0    0  501    0  0.00000000000E+00 -0.00000000000E+00 -0.11006116508E+04  0.11006116508E+04  0.00000000000E+00 0. -1.
         36    2    1    2    0    0  0.00000000000E+00  0.00000000000E+00 -0.87369671459E+03  0.13275265870E+04  0.99949031517E+03 0.  0.
         25    2    3    3    0    0  0.12144879073E+03  0.67017103980E+02 -0.14461876920E+03  0.23607899575E+03  0.12481026735E+03 0.  0.
         35    2    3    3    0    0 -0.12144879073E+03 -0.67017103980E+02 -0.72907794539E+03  0.10914475913E+04  0.80028875601E+03 0.  0.
         22    1    5    5    0    0  0.17337034675E+03 -0.19480744957E+03  0.34463177048E+02  0.26304929218E+03  0.00000000000E+00 0. -1.
         22    1    5    5    0    0 -0.29481913748E+03  0.12779034560E+03 -0.76354112244E+03  0.82839829908E+03  0.00000000000E+00 0. -1.
          5    1    4    4  502    0  0.12230897773E+03  0.25270423073E+02 -0.53912763933E+02  0.13611302814E+03  0.47000000000E+01 0.  1.
         -5    1    4    4    0  502 -0.86018700040E+00  0.41746680906E+02 -0.90706005268E+02  0.99965967610E+02  0.47000000000E+01 0.  1.
<mgrwt>
<rscale>  0 0.99949032E+03</rscale>
<asrwt>0</asrwt>
<pdfrwt beam="1">  1        2 0.16932487E+00 0.99949032E+03</pdfrwt>
<pdfrwt beam="2">  1       -2 0.34909990E-01 0.99949032E+03</pdfrwt>
<totfact> 0.20221497E+02</totfact>
</mgrwt>
</event>
<event>
 9    1  0.4388925E-036  0.9994397E+03  0.7818608E-02  0.8681572E-01
         -2   -1    0    0    0  501 -0.00000000000E+00  0.00000000000E+00  0.53690504686E+03  0.53690504686E+03  0.00000000000E+00 0. -1.
          2   -1    0    0  501    0  0.00000000000E+00 -0.00000000000E+00 -0.46511004830E+03  0.46511004830E+03  0.00000000000E+00 0. -1.
         36    2    1    2    0    0 -0.14210854715E-13  0.28421709430E-13  0.71794998554E+02  0.10020150952E+04  0.99943970759E+03 0.  0.
         25    2    3    3    0    0 -0.96462475858E+02 -0.76937841630E+02  0.74963380001E+02  0.19094497633E+03  0.12496413454E+03 0.  0.
         35    2    3    3    0    0  0.96462475858E+02  0.76937841630E+02 -0.31683814477E+01  0.81107011883E+03  0.80162351406E+03 0.  0.
         22    1    5    5    0    0  0.32457774660E+03 -0.20708538844E+03 -0.15679172313E+03  0.41571470522E+03  0.00000000000E+00 0. -1.
         22    1    5    5    0    0 -0.22811527074E+03  0.28402323007E+03  0.15362334168E+03  0.39535541361E+03  0.00000000000E+00 0. -1.
          5    1    4    4  502    0  0.32887135054E+01 -0.12276070837E+02  0.70608229766E+02  0.71896659605E+02  0.47000000000E+01 0.  1.
         -5    1    4    4    0  502 -0.99751189363E+02 -0.64661770793E+02  0.43551502352E+01  0.11904831672E+03  0.47000000000E+01 0.  1.
<mgrwt>
<rscale>  0 0.99943971E+03</rscale>
<asrwt>0</asrwt>
<pdfrwt beam="1">  1        2 0.71555392E-01 0.99943971E+03</pdfrwt>
<pdfrwt beam="2">  1       -2 0.82600777E-01 0.99943971E+03</pdfrwt>
<totfact> 0.10350506E+02</totfact>
</mgrwt>
</event>
<event>
 9    1  0.4388925E-036  0.1000288E+04  0.7818608E-02  0.8680764E-01
         -2   -1    0    0    0  501 -0.00000000000E+00  0.00000000000E+00  0.17254770031E+03  0.17254770031E+03  0.00000000000E+00 0. -1.
          2   -1    0    0  501    0  0.00000000000E+00 -0.00000000000E+00 -0.14497088227E+04  0.14497088227E+04  0.00000000000E+00 0. -1.
         36    2    1    2    0    0 -0.14210854715E-13  0.28421709430E-13 -0.12771611224E+04  0.16222565230E+04  0.10002878055E+04 0.  0.
         25    2    3    3    0    0  0.67011954905E+02 -0.79153053345E+02 -0.39661381658E+03  0.42871068165E+03  0.12543731944E+03 0.  0.
         35    2    3    3    0    0 -0.67011954905E+02  0.79153053345E+02 -0.88054730581E+03  0.11935458414E+04  0.79901959281E+03 0.  0.
         22    1    5    5    0    0  0.20688720536E+03 -0.22345809772E+03 -0.66625602080E+03  0.73255233427E+03  0.00000000000E+00 0. -1.
         22    1    5    5    0    0 -0.27389916027E+03  0.30261115107E+03 -0.21429128500E+03  0.46099350709E+03  0.00000000000E+00 0. -1.
          5    1    4    4  502    0  0.41396340530E+02 -0.86852828796E+02 -0.13584965251E+03  0.16653614913E+03  0.47000000000E+01 0.  1.
         -5    1    4    4    0  502  0.25615614375E+02  0.76997754509E+01 -0.26076416407E+03  0.26217453252E+03  0.47000000000E+01 0.  1.
<mgrwt>
<rscale>  0 0.10002878E+04</rscale>
<asrwt>0</asrwt>
<pdfrwt beam="1">  1        2 0.22303213E+00 0.10002878E+04</pdfrwt>
<pdfrwt beam="2">  1       -2 0.26545800E-01 0.10002878E+04</pdfrwt>
<totfact> 0.20856674E+02</totfact>
</mgrwt>
</event>
<event>
 9    1  0.4388925E-036  0.9995509E+03  0.7818608E-02  0.8681466E-01
          2   -1    0    0  501    0  0.00000000000E+00  0.00000000000E+00  0.93913286737E+03  0.93913286737E+03  0.00000000000E+00 0.  1.
         -2   -1    0    0    0  501 -0.00000000000E+00 -0.00000000000E+00 -0.26596396902E+03  0.26596396902E+03  0.00000000000E+00 0.  1.
         36    2    1    2    0    0  0.00000000000E+00  0.71054273576E-14  0.67316889835E+03  0.12050968364E+04  0.99955090885E+03 0.  0.
         25    2    3    3    0    0  0.13015614556E+03  0.28949994171E+02  0.17696914296E+03  0.25435197710E+03  0.12489245896E+03 0.  0.
         35    2    3    3    0    0 -0.13015614556E+03 -0.28949994171E+02  0.49619975539E+03  0.95074485930E+03  0.79995178970E+03 0.  0.
         22    1    5    5    0    0  0.31845401523E+03  0.57116644037E+02  0.33659143346E+03  0.46687157112E+03  0.00000000000E+00 0.  1.
         22    1    5    5    0    0 -0.44861016079E+03 -0.86066638208E+02  0.15960832193E+03  0.48387328817E+03  0.00000000000E+00 0.  1.
          5    1    4    4  502    0  0.38492414692E+02 -0.47661164036E+02  0.44220369393E+02  0.75701939310E+02  0.47000000000E+01 0.  1.
         -5    1    4    4    0  502  0.91663730869E+02  0.76611158207E+02  0.13274877356E+03  0.17865003779E+03  0.47000000000E+01 0.  1.
<mgrwt>
<rscale>  0 0.99955091E+03</rscale>
<asrwt>0</asrwt>
<pdfrwt beam="1">  1        2 0.14448198E+00 0.99955091E+03</pdfrwt>
<pdfrwt beam="2">  1       -2 0.40917534E-01 0.99955091E+03</pdfrwt>
<totfact> 0.18882517E+02</totfact>
</mgrwt>
</event>
<event>
 9    1  0.4388925E-036  0.1000765E+04  0.7818608E-02  0.8680310E-01
         -2   -1    0    0    0  501 -0.00000000000E+00  0.00000000000E+00  0.17052986829E+03  0.17052986829E+03  0.00000000000E+00 0. -1.
          2   -1    0    0  501    0  0.00000000000E+00 -0.00000000000E+00 -0.14682619051E+04  0.14682619051E+04  0.00000000000E+00 0. -1.
         36    2    1    2    0    0  0.14210854715E-13  0.28421709430E-13 -0.12977320369E+04  0.16387917734E+04  0.10007647262E+04 0.  0.
         25    2    3    3    0    0  0.12420360105E+03  0.22561311172E+02 -0.20948784195E+03  0.27573910439E+03  0.12732380174E+03 0.  0.
         35    2    3    3    0    0 -0.12420360105E+03 -0.22561311172E+02 -0.10882441949E+04  0.13630526690E+04  0.81098804157E+03 0.  0.
         22    1    5    5    0    0 -0.12165033096E+03  0.38833299314E+03 -0.48416340332E+03  0.63246779974E+03  0.00000000000E+00 0. -1.
         22    1    5    5    0    0 -0.25532700992E+01 -0.41089430431E+03 -0.60408079158E+03  0.73058486931E+03  0.00000000000E+00 0. -1.
          5    1    4    4  502    0  0.68788872375E+02 -0.40475701375E+02 -0.15822766039E+03  0.17728021287E+03  0.47000000000E+01 0.  1.
         -5    1    4    4    0  502  0.55414728680E+02  0.63037012547E+02 -0.51260181562E+02  0.98458891520E+02  0.47000000000E+01 0.  1.
<mgrwt>
<rscale>  0 0.10007647E+04</rscale>
<asrwt>0</asrwt>
<pdfrwt beam="1">  1        2 0.22588646E+00 0.10007647E+04</pdfrwt>
<pdfrwt beam="2">  1       -2 0.26235363E-01 0.10007647E+04</pdfrwt>
<totfact> 0.20789156E+02</totfact>
</mgrwt>
</event>
<event>
 9    1  0.4388925E-036  0.9995335E+03  0.7818608E-02  0.8681482E-01
          1   -1    0    0  501    0  0.00000000000E+00  0.00000000000E+00  0.16369003416E+04  0.16369003416E+04  0.00000000000E+00 0. -1.
         -1   -1    0    0    0  501 -0.00000000000E+00 -0.00000000000E+00 -0.15258523559E+03  0.15258523559E+03  0.00000000000E+00 0. -1.
         36    2    1    2    0    0  0.14210854715E-13  0.14210854715E-13  0.14843151060E+04  0.17894855772E+04  0.99953353972E+03 0.  0.
         25    2    3    3    0    0 -0.75029195240E+02  0.70576808189E+02  0.44540990173E+03  0.47403399117E+03  0.12533067557E+03 0.  0.
         35    2    3    3    0    0  0.75029195240E+02 -0.70576808189E+02  0.10389052043E+04  0.13154515860E+04  0.80029893519E+03 0.  0.
         22    1    5    5    0    0  0.38795412152E+03  0.15840508022E+03  0.52937473297E+03  0.67515789097E+03  0.00000000000E+00 0. -1.
         22    1    5    5    0    0 -0.31292492628E+03 -0.22898188841E+03  0.50953047131E+03  0.64029369503E+03  0.00000000000E+00 0. -1.
          5    1    4    4  502    0 -0.28861407579E+02  0.36728372911E+01  0.10068664755E+02  0.31143837130E+02  0.47000000000E+01 0. -1.
         -5    1    4    4    0  502 -0.46167787661E+02  0.66903970898E+02  0.43534123697E+03  0.44289015404E+03  0.47000000000E+01 0. -1.
<mgrwt>
<rscale>  0 0.99953354E+03</rscale>
<asrwt>0</asrwt>
<pdfrwt beam="1">  1        1 0.25183081E+00 0.99953354E+03</pdfrwt>
<pdfrwt beam="2">  1       -1 0.23474653E-01 0.99953354E+03</pdfrwt>
<totfact> 0.87828653E+01</totfact>
</mgrwt>
</event>
<event>
 9    1  0.4388925E-036  0.9992872E+03  0.7818608E-02  0.8681717E-01
         -1   -1    0    0    0  501 -0.00000000000E+00  0.00000000000E+00  0.22322905209E+03  0.22322905209E+03  0.00000000000E+00 0. -1.
          1   -1    0    0  501    0  0.00000000000E+00 -0.00000000000E+00 -0.11183299037E+04  0.11183299037E+04  0.00000000000E+00 0. -1.
         36    2    1    2    0    0  0.00000000000E+00  0.14210854715E-13 -0.89510085161E+03  0.13415589558E+04  0.99928719460E+03 0.  0.
         25    2    3    3    0    0 -0.87303877333E+02 -0.58251423751E+02 -0.29074615173E+03  0.33400745527E+03  0.12654034955E+03 0.  0.
         35    2    3    3    0    0  0.87303877333E+02  0.58251423751E+02 -0.60435469988E+03  0.10075515005E+04  0.79931234668E+03 0.  0.
         22    1    5    5    0    0 -0.85930581316E+00 -0.13224306304E+01 -0.79191222953E+03  0.79191379992E+03  0.00000000000E+00 0.  1.
         22    1    5    5    0    0  0.88163183146E+02  0.59573854381E+02  0.18755752965E+03  0.21563770059E+03  0.00000000000E+00 0.  1.
          5    1    4    4  502    0 -0.69502298141E+02 -0.91744877231E+02 -0.26192855095E+03  0.28614043361E+03  0.47000000000E+01 0. -1.
         -5    1    4    4    0  502 -0.17801579192E+02  0.33493453480E+02 -0.28817600785E+02  0.47867021662E+02  0.47000000000E+01 0. -1.
<mgrwt>
<rscale>  0 0.99928719E+03</rscale>
<asrwt>0</asrwt>
<pdfrwt beam="1">  1        1 0.17205076E+00 0.99928719E+03</pdfrwt>
<pdfrwt beam="2">  1       -1 0.34342931E-01 0.99928719E+03</pdfrwt>
<totfact> 0.10936647E+02</totfact>
</mgrwt>
</event>
<event>
 9    1  0.4388925E-036  0.1000111E+04  0.7818608E-02  0.8680932E-01
         -2   -1    0    0    0  501 -0.00000000000E+00  0.00000000000E+00  0.92217355994E+03  0.92217355994E+03  0.00000000000E+00 0.  1.
          2   -1    0    0  501    0  0.00000000000E+00 -0.00000000000E+00 -0.27115896471E+03  0.27115896471E+03  0.00000000000E+00 0.  1.
         36    2    1    2    0    0  0.00000000000E+00  0.28421709430E-13  0.65101459523E+03  0.11933325247E+04  0.10001112494E+04 0.  0.
         25    2    3    3    0    0 -0.94680939253E+02 -0.15675190585E+02  0.23031876031E+03  0.27970457081E+03  0.12640302102E+03 0.  0.
         35    2    3    3    0    0  0.94680939253E+02  0.15675190585E+02  0.42069583491E+03  0.91362795384E+03  0.80530792910E+03 0.  0.
         22    1    5    5    0    0  0.10221571982E+03 -0.27874447954E+03 -0.10178380634E+03  0.31385742222E+03  0.00000000000E+00 0. -1.
         22    1    5    5    0    0 -0.75347805701E+01  0.29441967012E+03  0.52247964126E+03  0.59977053162E+03  0.00000000000E+00 0. -1.
          5    1    4    4  502    0 -0.10561653920E+03 -0.43292985723E+02  0.12136028275E+03  0.16667196584E+03  0.47000000000E+01 0.  1.
         -5    1    4    4    0  502  0.10935599951E+02  0.27617795137E+02  0.10895847756E+03  0.11303260497E+03  0.47000000000E+01 0.  1.
<mgrwt>
<rscale>  0 0.10001112E+04</rscale>
<asrwt>0</asrwt>
<pdfrwt beam="1">  1        2 0.41716764E-01 0.10001112E+04</pdfrwt>
<pdfrwt beam="2">  1       -2 0.14187285E+00 0.10001112E+04</pdfrwt>
<totfact> 0.48639383E+01</totfact>
</mgrwt>
</event>
<event>
 9    1  0.4388925E-036  0.9981667E+03  0.7818608E-02  0.8682786E-01
          2   -1    0    0  501    0  0.00000000000E+00  0.00000000000E+00  0.97084951495E+03  0.97084951495E+03  0.00000000000E+00 0.  1.
         -2   -1    0    0    0  501 -0.00000000000E+00 -0.00000000000E+00 -0.25656313457E+03  0.25656313457E+03  0.00000000000E+00 0.  1.
         36    2    1    2    0    0  0.71054273576E-14  0.00000000000E+00  0.71428638038E+03  0.12274126495E+04  0.99816670903E+03 0.  0.
         25    2    3    3    0    0  0.60827091749E+02  0.11402667407E+03  0.77182731231E+02  0.19579055495E+03  0.12519884153E+03 0.  0.
         35    2    3    3    0    0 -0.60827091749E+02 -0.11402667407E+03  0.63710364915E+03  0.10316220946E+04  0.80102501132E+03 0.  0.
         22    1    5    5    0    0 -0.21182556124E+03  0.47901275762E+02 -0.11630343899E+03  0.24635561803E+03  0.00000000000E+00 0.  1.
         22    1    5    5    0    0  0.15099846949E+03 -0.16192794983E+03  0.75340708814E+03  0.78526647654E+03  0.00000000000E+00 0.  1.
          5    1    4    4  502    0  0.53126572462E+01  0.12826233073E+02 -0.33024675642E+02  0.36131091641E+02  0.47000000000E+01 0. -1.
         -5    1    4    4    0  502  0.55514434503E+02  0.10120044099E+03  0.11020740687E+03  0.15965946331E+03  0.47000000000E+01 0. -1.
<mgrwt>
<rscale>  0 0.99816671E+03</rscale>
<asrwt>0</asrwt>
<pdfrwt beam="1">  1        2 0.14936146E+00 0.99816671E+03</pdfrwt>
<pdfrwt beam="2">  1       -2 0.39471252E-01 0.99816671E+03</pdfrwt>
<totfact> 0.19305649E+02</totfact>
</mgrwt>
</event>
<event>
 9    1  0.4388925E-036  0.9999318E+03  0.7818608E-02  0.8681103E-01
         -2   -1    0    0    0  501 -0.00000000000E+00  0.00000000000E+00  0.29315032287E+03  0.29315032287E+03  0.00000000000E+00 0.  1.
          2   -1    0    0  501    0  0.00000000000E+00 -0.00000000000E+00 -0.85268849248E+03  0.85268849248E+03  0.00000000000E+00 0.  1.
         36    2    1    2    0    0 -0.71054273576E-14  0.00000000000E+00 -0.55953816962E+03  0.11458388154E+04  0.99993181143E+03 0.  0.
         25    2    3    3    0    0 -0.34681713716E+02  0.53875303014E+02 -0.24731497754E+03  0.28431608587E+03  0.12476204964E+03 0.  0.
         35    2    3    3    0    0  0.34681713716E+02 -0.53875303014E+02 -0.31222319208E+03  0.86152272948E+03  0.80039535368E+03 0.  0.
         22    1    5    5    0    0 -0.54298673866E+02 -0.27140327449E+03  0.17017988009E+03  0.32491425788E+03  0.00000000000E+00 0. -1.
         22    1    5    5    0    0  0.88980387582E+02  0.21752797147E+03 -0.48240307218E+03  0.53660847160E+03  0.00000000000E+00 0. -1.
          5    1    4    4  502    0 -0.38326937676E+02  0.12669126923E+02 -0.23827100663E+03  0.24171186055E+03  0.47000000000E+01 0.  1.
         -5    1    4    4    0  502  0.36452239601E+01  0.41206176091E+02 -0.90439709042E+01  0.42604225324E+02  0.47000000000E+01 0.  1.
<mgrwt>
<rscale>  0 0.99993181E+03</rscale>
<asrwt>0</asrwt>
<pdfrwt beam="1">  1        2 0.13118284E+00 0.99993181E+03</pdfrwt>
<pdfrwt beam="2">  1       -2 0.45100051E-01 0.99993181E+03</pdfrwt>
<totfact> 0.17829472E+02</totfact>
</mgrwt>
</event>
<event>
 9    1  0.4388925E-036  0.9996568E+03  0.7818608E-02  0.8681365E-01
          2   -1    0    0  501    0  0.00000000000E+00  0.00000000000E+00  0.19144463546E+04  0.19144463546E+04  0.00000000000E+00 0.  1.
         -2   -1    0    0    0  501 -0.00000000000E+00 -0.00000000000E+00 -0.13049644754E+03  0.13049644754E+03  0.00000000000E+00 0.  1.
         36    2    1    2    0    0 -0.14210854715E-13  0.00000000000E+00  0.17839499071E+04  0.20449428022E+04  0.99965683768E+03 0.  0.
         25    2    3    3    0    0 -0.64290898940E+02  0.11187320681E+03  0.22531902906E+03  0.28838993074E+03  0.12550359839E+03 0.  0.
         35    2    3    3    0    0  0.64290898940E+02 -0.11187320681E+03  0.15586308780E+04  0.17565528714E+04  0.79968671495E+03 0.  0.
         22    1    5    5    0    0 -0.36432285072E+03  0.39177130309E+01  0.75956761294E+03  0.84243067766E+03  0.00000000000E+00 0.  1.
         22    1    5    5    0    0  0.42861374966E+03 -0.11579091984E+03  0.79906326510E+03  0.91412219377E+03  0.00000000000E+00 0.  1.
          5    1    4    4  502    0  0.60464056009E+00  0.41691473870E+02 -0.17298422490E+01  0.41995558549E+02  0.47000000000E+01 0. -1.
         -5    1    4    4    0  502 -0.64895539500E+02  0.70181732939E+02  0.22704887130E+03  0.24639437219E+03  0.47000000000E+01 0. -1.
<mgrwt>
<rscale>  0 0.99965684E+03</rscale>
<asrwt>0</asrwt>
<pdfrwt beam="1">  1        2 0.29453019E+00 0.99965684E+03</pdfrwt>
<pdfrwt beam="2">  1       -2 0.20076378E-01 0.99965684E+03</pdfrwt>
<totfact> 0.18625090E+02</totfact>
</mgrwt>
</event>
<event>
 9    1  0.4388925E-036  0.9983204E+03  0.7818608E-02  0.8682639E-01
          2   -1    0    0  501    0  0.00000000000E+00  0.00000000000E+00  0.19884942403E+04  0.19884942403E+04  0.00000000000E+00 0.  1.
         -2   -1    0    0    0  501 -0.00000000000E+00 -0.00000000000E+00 -0.12530130048E+03  0.12530130048E+03  0.00000000000E+00 0.  1.
         36    2    1    2    0    0 -0.31974423109E-13 -0.28421709430E-13  0.18631929399E+04  0.21137955408E+04  0.99832041812E+03 0.  0.
         25    2    3    3    0    0 -0.30373838713E+02  0.82101340333E+02  0.11820128969E+03  0.19277055504E+03  0.12460233483E+03 0.  0.
         35    2    3    3    0    0  0.30373838713E+02 -0.82101340333E+02  0.17449916502E+04  0.19210249858E+04  0.79854739161E+03 0.  0.
         22    1    5    5    0    0 -0.35104529597E+03 -0.15842642830E+03  0.61181291187E+03  0.72294313203E+03  0.00000000000E+00 0.  1.
         22    1    5    5    0    0  0.38141913469E+03  0.76325087963E+02  0.11331787383E+04  0.11980818537E+04  0.00000000000E+00 0.  1.
          5    1    4    4  502    0 -0.54994071386E+02  0.98459162060E+02  0.11735591001E+03  0.16282829636E+03  0.47000000000E+01 0.  1.
         -5    1    4    4    0  502  0.24620232673E+02 -0.16357821727E+02  0.84537968616E+00  0.29942258688E+02  0.47000000000E+01 0.  1.
<mgrwt>
<rscale>  0 0.99832042E+03</rscale>
<asrwt>0</asrwt>
<pdfrwt beam="1">  1        2 0.30592217E+00 0.99832042E+03</pdfrwt>
<pdfrwt beam="2">  1       -2 0.19277125E-01 0.99832042E+03</pdfrwt>
<totfact> 0.18135185E+02</totfact>
</mgrwt>
</event>
<event>
 9    1  0.4388925E-036  0.1000597E+04  0.7818608E-02  0.8680469E-01
          1   -1    0    0  501    0  0.00000000000E+00  0.00000000000E+00  0.18133263304E+04  0.18133263304E+04  0.00000000000E+00 0.  1.
         -1   -1    0    0    0  501 -0.00000000000E+00 -0.00000000000E+00 -0.13803294719E+03  0.13803294719E+03  0.00000000000E+00 0.  1.
         36    2    1    2    0    0 -0.35527136788E-14 -0.71054273576E-14  0.16752933832E+04  0.19513592776E+04  0.10005973768E+04 0.  0.
         25    2    3    3    0    0  0.18457320634E+02  0.43028144411E+02  0.49914605661E+02  0.13992683805E+03  0.12204899939E+03 0.  0.
         35    2    3    3    0    0 -0.18457320634E+02 -0.43028144411E+02  0.16253787776E+04  0.18114324396E+04  0.79827264680E+03 0.  0.
         22    1    5    5    0    0  0.64538087285E+02 -0.41106938978E+03  0.96477910614E+03  0.10506864097E+04  0.00000000000E+00 0. -1.
         22    1    5    5    0    0 -0.82995407919E+02  0.36804124537E+03  0.66059967143E+03  0.76074602984E+03  0.00000000000E+00 0. -1.
          5    1    4    4  502    0  0.41983895989E+02  0.76744710539E+02  0.44295118517E+02  0.98165908759E+02  0.47000000000E+01 0. -1.
         -5    1    4    4    0  502 -0.23526575355E+02 -0.33716566128E+02  0.56194871436E+01  0.41760929290E+02  0.47000000000E+01 0. -1.
<mgrwt>
<rscale>  0 0.10005974E+04</rscale>
<asrwt>0</asrwt>
<pdfrwt beam="1">  1        1 0.27897327E+00 0.10005974E+04</pdfrwt>
<pdfrwt beam="2">  1       -1 0.21235839E-01 0.10005974E+04</pdfrwt>
<totfact> 0.77958406E+01</totfact>
</mgrwt>
</event>
<event>
 9    1  0.4388925E-036  0.1000385E+04  0.7818608E-02  0.8680672E-01
         -2   -1    0    0    0  501 -0.00000000000E+00  0.00000000000E+00  0.94983305130E+03  0.94983305130E+03  0.00000000000E+00 0. -1.
          2   -1    0    0  501    0  0.00000000000E+00 -0.00000000000E+00 -0.26340668152E+03  0.26340668152E+03  0.00000000000E+00 0. -1.
         36    2    1    2    0    0  0.00000000000E+00  0.00000000000E+00  0.68642636979E+03  0.12132397328E+04  0.10003846701E+04 0.  0.
         25    2    3    3    0    0  0.72466345935E+02 -0.10699310263E+03  0.36550804968E+02  0.18330453244E+03  0.12476255434E+03 0.  0.
         35    2    3    3    0    0 -0.72466345935E+02  0.10699310263E+03  0.64987556482E+03  0.10299352004E+04  0.78849817497E+03 0.  0.
         22    1    5    5    0    0  0.87923553243E+02 -0.16404278912E+03  0.68797103596E+03  0.71270241630E+03  0.00000000000E+00 0. -1.
         22    1    5    5    0    0 -0.16038989918E+03  0.27103589175E+03 -0.38095471140E+02  0.31723278408E+03  0.00000000000E+00 0. -1.
          5    1    4    4  502    0 -0.16056670795E+02 -0.71148777527E+02  0.47334436136E+02  0.87078149182E+02  0.47000000000E+01 0.  1.
         -5    1    4    4    0  502  0.88523016730E+02 -0.35844325103E+02 -0.10783631168E+02  0.96226383255E+02  0.47000000000E+01 0.  1.
<mgrwt>
<rscale>  0 0.10003847E+04</rscale>
<asrwt>0</asrwt>
<pdfrwt beam="1">  1        2 0.40524105E-01 0.10003847E+04</pdfrwt>
<pdfrwt beam="2">  1       -2 0.14612816E+00 0.10003847E+04</pdfrwt>
<totfact> 0.46315285E+01</totfact>
</mgrwt>
</event>
<event>
 9    1  0.4388925E-036  0.9900086E+03  0.7818608E-02  0.8690611E-01
          2   -1    0    0  501    0  0.00000000000E+00  0.00000000000E+00  0.25439721577E+04  0.25439721577E+04  0.00000000000E+00 0.  1.
         -2   -1    0    0    0  501 -0.00000000000E+00 -0.00000000000E+00 -0.96317586277E+02  0.96317586277E+02  0.00000000000E+00 0.  1.
         36    2    1    2    0    0  0.14210854715E-13  0.00000000000E+00  0.24476545714E+04  0.26402897440E+04  0.99000860155E+03 0.  0.
         25    2    3    3    0    0 -0.11419159193E+03  0.48393652529E+02  0.34634900223E+03  0.38852769718E+03  0.12495789232E+03 0.  0.
         35    2    3    3    0    0  0.11419159193E+03 -0.48393652529E+02  0.21013055692E+04  0.22517620468E+04  0.79972842579E+03 0.  0.
         22    1    5    5    0    0  0.42522324253E+03 -0.13207208112E+03  0.84871722072E+03  0.95842514645E+03  0.00000000000E+00 0.  1.
         22    1    5    5    0    0 -0.31103165060E+03  0.83678428596E+02  0.12525883485E+04  0.12933369004E+04  0.00000000000E+00 0.  1.
          5    1    4    4  502    0  0.94196234717E+01  0.41965678740E+02  0.43622801824E+02  0.61440103657E+02  0.47000000000E+01 0. -1.
         -5    1    4    4    0  502 -0.12361121540E+03  0.64279737888E+01  0.30272620041E+03  0.32708759352E+03  0.47000000000E+01 0. -1.
<mgrwt>
<rscale>  0 0.99000860E+03</rscale>
<asrwt>0</asrwt>
<pdfrwt beam="1">  1        2 0.39138028E+00 0.99000860E+03</pdfrwt>
<pdfrwt beam="2">  1       -2 0.14818092E-01 0.99000860E+03</pdfrwt>
<totfact> 0.13363724E+02</totfact>
</mgrwt>
</event>
<event>
 9    1  0.4388925E-036  0.9998579E+03  0.7818608E-02  0.8681173E-01
         -2   -1    0    0    0  501 -0.00000000000E+00  0.00000000000E+00  0.49101483632E+03  0.49101483632E+03  0.00000000000E+00 0. -1.
          2   -1    0    0  501    0  0.00000000000E+00 -0.00000000000E+00 -0.50900485295E+03  0.50900485295E+03  0.00000000000E+00 0. -1.
         36    2    1    2    0    0  0.00000000000E+00  0.00000000000E+00 -0.17990016634E+02  0.10000196893E+04  0.99985785902E+03 0.  0.
         25    2    3    3    0    0 -0.13522412707E+03  0.30740026480E+02  0.16050229382E+02  0.18731706335E+03  0.12489819289E+03 0.  0.
         35    2    3    3    0    0  0.13522412707E+03 -0.30740026480E+02 -0.34040246016E+02  0.81270262593E+03  0.80006018903E+03 0.  0.
         22    1    5    5    0    0  0.46485154812E+03  0.62947207167E+02 -0.10488020193E+02  0.46921137161E+03  0.00000000000E+00 0. -1.
         22    1    5    5    0    0 -0.32962742104E+03 -0.93687233646E+02 -0.23552225823E+02  0.34349125432E+03  0.00000000000E+00 0. -1.
          5    1    4    4  502    0 -0.14030826779E+03  0.59355172453E+02 -0.26450111216E+01  0.15244189907E+03  0.47000000000E+01 0.  1.
         -5    1    4    4    0  502  0.50841407181E+01 -0.28615145973E+02  0.18695240504E+02  0.34875164278E+02  0.47000000000E+01 0.  1.
<mgrwt>
<rscale>  0 0.99985786E+03</rscale>
<asrwt>0</asrwt>
<pdfrwt beam="1">  1        2 0.78308439E-01 0.99985786E+03</pdfrwt>
<pdfrwt beam="2">  1       -2 0.75540744E-01 0.99985786E+03</pdfrwt>
<totfact> 0.11447564E+02</totfact>
</mgrwt>
</event>
<event>
 9    1  0.4388925E-036  0.9999604E+03  0.7818608E-02  0.8681076E-01
         -1   -1    0    0    0  501 -0.00000000000E+00  0.00000000000E+00  0.50885316462E+03  0.50885316462E+03  0.00000000000E+00 0.  1.
          1   -1    0    0  501    0  0.00000000000E+00 -0.00000000000E+00 -0.49126192057E+03  0.49126192057E+03  0.00000000000E+00 0.  1.
         36    2    1    2    0    0 -0.28421709430E-13  0.00000000000E+00  0.17591244055E+02  0.10001150852E+04  0.99996036509E+03 0.  0.
         25    2    3    3    0    0  0.43613905287E+02  0.58192368226E+02  0.12187830118E+03  0.18964510985E+03  0.12578721293E+03 0.  0.
         35    2    3    3    0    0 -0.43613905287E+02 -0.58192368226E+02 -0.10428705713E+03  0.81046997534E+03  0.80043567273E+03 0.  0.
         22    1    5    5    0    0 -0.23310084833E+03 -0.34306932997E+03 -0.19231827956E+03  0.45718583892E+03  0.00000000000E+00 0. -1.
         22    1    5    5    0    0  0.18948694305E+03  0.28487696175E+03  0.88031222427E+02  0.35328413641E+03  0.00000000000E+00 0. -1.
          5    1    4    4  502    0  0.19196279869E+02  0.85964698223E+02  0.12415403754E+03  0.15229819940E+03  0.47000000000E+01 0. -1.
         -5    1    4    4    0  502  0.24417625418E+02 -0.27772329997E+02 -0.22757363587E+01  0.37346910454E+02  0.47000000000E+01 0. -1.
<mgrwt>
<rscale>  0 0.99996037E+03</rscale>
<asrwt>0</asrwt>
<pdfrwt beam="1">  1        1 0.75578757E-01 0.99996037E+03</pdfrwt>
<pdfrwt beam="2">  1       -1 0.78285102E-01 0.99996037E+03</pdfrwt>
<totfact> 0.87652546E+01</totfact>
</mgrwt>
</event>
<event>
 9    1  0.4388925E-036  0.1000533E+04  0.7818608E-02  0.8680530E-01
          2   -1    0    0  501    0  0.00000000000E+00  0.00000000000E+00  0.38690563864E+03  0.38690563864E+03  0.00000000000E+00 0. -1.
         -2   -1    0    0    0  501 -0.00000000000E+00 -0.00000000000E+00 -0.64684148432E+03  0.64684148432E+03  0.00000000000E+00 0. -1.
         36    2    1    2    0    0  0.00000000000E+00  0.00000000000E+00 -0.25993584568E+03  0.10337471230E+04  0.10005330931E+04 0.  0.
         25    2    3    3    0    0  0.59621008788E-01 -0.10346541543E+03  0.49959419465E+02  0.16969601779E+03  0.12488274147E+03 0.  0.
         35    2    3    3    0    0 -0.59621008788E-01  0.10346541543E+03 -0.30989526514E+03  0.86405110517E+03  0.79990258235E+03 0.  0.
         22    1    5    5    0    0  0.23649531107E+03  0.70603064162E-01  0.18872076818E+03  0.30256497730E+03  0.00000000000E+00 0. -1.
         22    1    5    5    0    0 -0.23655493208E+03  0.10339481236E+03 -0.49861603332E+03  0.56148612788E+03  0.00000000000E+00 0. -1.
          5    1    4    4  502    0  0.61361059268E+02 -0.43637319132E+02  0.32530862801E+02  0.82156814995E+02  0.47000000000E+01 0.  1.
         -5    1    4    4    0  502 -0.61301438260E+02 -0.59828096294E+02  0.17428556664E+02  0.87539202796E+02  0.47000000000E+01 0.  1.
<mgrwt>
<rscale>  0 0.10005331E+04</rscale>
<asrwt>0</asrwt>
<pdfrwt beam="1">  1        2 0.59523945E-01 0.10005331E+04</pdfrwt>
<pdfrwt beam="2">  1       -2 0.99514074E-01 0.10005331E+04</pdfrwt>
<totfact> 0.81981647E+01</totfact>
</mgrwt>
</event>
<event>
 9    1  0.4388925E-036  0.1001067E+04  0.7818608E-02  0.8680023E-01
         -1   -1    0    0    0  501 -0.00000000000E+00  0.00000000000E+00  0.94298935800E+03  0.94298935800E+03  0.00000000000E+00 0.  1.
          1   -1    0    0  501    0  0.00000000000E+00 -0.00000000000E+00 -0.26568025431E+03  0.26568025431E+03  0.00000000000E+00 0.  1.
         36    2    1    2    0    0  0.14210854715E-13  0.14210854715E-13  0.67730910369E+03  0.12086696123E+04  0.10010667359E+04 0.  0.
         25    2    3    3    0    0  0.11281422077E+03  0.17380968766E+02  0.22707241228E+03  0.28338322759E+03  0.12535958990E+03 0.  0.
         35    2    3    3    0    0 -0.11281422077E+03 -0.17380968766E+02  0.45023669141E+03  0.92528638472E+03  0.80025787655E+03 0.  0.
         22    1    5    5    0    0 -0.31657349022E+03 -0.30977019756E+03  0.18028759290E+03  0.47820494159E+03  0.00000000000E+00 0.  1.
         22    1    5    5    0    0  0.20375926945E+03  0.29238922880E+03  0.26994909851E+03  0.44708144313E+03  0.00000000000E+00 0.  1.
          5    1    4    4  502    0  0.63535228721E+01 -0.29890498679E+02  0.33366129899E+01  0.31097140550E+02  0.47000000000E+01 0. -1.
         -5    1    4    4    0  502  0.10646069789E+03  0.47271467444E+02  0.22373579929E+03  0.25228608704E+03  0.47000000000E+01 0. -1.
<mgrwt>
<rscale>  0 0.10010667E+04</rscale>
<asrwt>0</asrwt>
<pdfrwt beam="1">  1        1 0.40873886E-01 0.10010667E+04</pdfrwt>
<pdfrwt beam="2">  1       -1 0.14507528E+00 0.10010667E+04</pdfrwt>
<totfact> 0.46324838E+01</totfact>
</mgrwt>
</event>
<event>
 9    1  0.4388925E-036  0.9994267E+03  0.7818608E-02  0.8681584E-01
          1   -1    0    0  501    0  0.00000000000E+00  0.00000000000E+00  0.49097287065E+03  0.49097287065E+03  0.00000000000E+00 0.  1.
         -1   -1    0    0    0  501 -0.00000000000E+00 -0.00000000000E+00 -0.50860941551E+03  0.50860941551E+03  0.00000000000E+00 0.  1.
         36    2    1    2    0    0  0.14210854715E-13  0.14210854715E-13 -0.17636544862E+02  0.99958228615E+03  0.99942668519E+03 0.  0.
         25    2    3    3    0    0 -0.65081223377E+02  0.10814411301E+03 -0.69390610869E+02  0.19062874801E+03  0.12487412813E+03 0.  0.
         35    2    3    3    0    0  0.65081223377E+02 -0.10814411301E+03  0.51754066008E+02  0.80895353814E+03  0.79736856516E+03 0.  0.
         22    1    5    5    0    0  0.39668090004E+03  0.99093916523E+02  0.81046732740E+02  0.41682599923E+03  0.00000000000E+00 0. -1.
         22    1    5    5    0    0 -0.33159967666E+03 -0.20723802953E+03 -0.29292666733E+02  0.39212753891E+03  0.00000000000E+00 0. -1.
          5    1    4    4  502    0 -0.75464425773E+02  0.75275268287E+01 -0.35303537175E+02  0.83785278865E+02  0.47000000000E+01 0. -1.
         -5    1    4    4    0  502  0.10383202397E+02  0.10061658618E+03 -0.34087073694E+02  0.10684346915E+03  0.47000000000E+01 0. -1.
<mgrwt>
<rscale>  0 0.99942669E+03</rscale>
<asrwt>0</asrwt>
<pdfrwt beam="1">  1        1 0.75534288E-01 0.99942669E+03</pdfrwt>
<pdfrwt beam="2">  1       -1 0.78247602E-01 0.99942669E+03</pdfrwt>
<totfact> 0.87815390E+01</totfact>
</mgrwt>
</event>
<event>
 9    1  0.4388925E-036  0.9997756E+03  0.7818608E-02  0.8681252E-01
         -3   -1    0    0    0  501 -0.00000000000E+00  0.00000000000E+00  0.44222629060E+03  0.44222629060E+03  0.00000000000E+00 0. -1.
          3   -1    0    0  501    0  0.00000000000E+00 -0.00000000000E+00 -0.56506776691E+03  0.56506776691E+03  0.00000000000E+00 0. -1.
         36    2    1    2    0    0  0.00000000000E+00 -0.21316282073E-13 -0.12284147631E+03  0.10072940575E+04  0.99977561983E+03 0.  0.
         25    2    3    3    0    0 -0.10342749786E+02  0.20314407302E+02  0.11604803414E+03  0.17218632146E+03  0.12514525742E+03 0.  0.
         35    2    3    3    0    0  0.10342749786E+02 -0.20314407302E+02 -0.23888951045E+03  0.83510773605E+03  0.79988566995E+03 0.  0.
         22    1    5    5    0    0 -0.50913869362E+02  0.38267313386E+03 -0.16954156792E+03  0.42163407443E+03  0.00000000000E+00 0. -1.
         22    1    5    5    0    0  0.61256619148E+02 -0.40298754116E+03 -0.69347942539E+02  0.41347366162E+03  0.00000000000E+00 0. -1.
          5    1    4    4  502    0  0.13387426582E+02  0.61880117384E+02  0.10522093003E+03  0.12288981339E+03  0.47000000000E+01 0.  1.
         -5    1    4    4    0  502 -0.23730176368E+02 -0.41565710081E+02  0.10827104113E+02  0.49296508076E+02  0.47000000000E+01 0.  1.
<mgrwt>
<rscale>  0 0.99977562E+03</rscale>
<asrwt>0</asrwt>
<pdfrwt beam="1">  1        3 0.86933502E-01 0.99977562E+03</pdfrwt>
<pdfrwt beam="2">  1       -3 0.68034814E-01 0.99977562E+03</pdfrwt>
<totfact> 0.10165803E+01</totfact>
</mgrwt>
</event>
<event>
 9    1  0.4388925E-036  0.1000918E+04  0.7818608E-02  0.8680164E-01
         -2   -1    0    0    0  501 -0.00000000000E+00  0.00000000000E+00  0.57422877888E+03  0.57422877888E+03  0.00000000000E+00 0.  1.
          2   -1    0    0  501    0  0.00000000000E+00 -0.00000000000E+00 -0.43616609765E+03  0.43616609765E+03  0.00000000000E+00 0.  1.
         36    2    1    2    0    0 -0.28421709430E-13  0.71054273576E-14  0.13806268123E+03  0.10103948765E+04  0.10009178301E+04 0.  0.
         25    2    3    3    0    0  0.10585881217E+03 -0.46302176802E+02  0.10960923107E+03  0.20281540314E+03  0.12557836010E+03 0.  0.
         35    2    3    3    0    0 -0.10585881217E+03  0.46302176802E+02  0.28453450156E+02  0.80757947338E+03  0.79876468832E+03 0.  0.
         22    1    5    5    0    0 -0.39998596916E+03  0.22844400646E+03  0.22396981319E+01  0.46063049819E+03  0.00000000000E+00 0. -1.
         22    1    5    5    0    0  0.29412715699E+03 -0.18214182966E+03  0.26213752024E+02  0.34694897519E+03  0.00000000000E+00 0. -1.
          5    1    4    4  502    0 -0.47762982915E+01  0.30948684898E+02  0.50962956946E+01  0.32073296558E+02  0.47000000000E+01 0.  1.
         -5    1    4    4    0  502  0.11063511046E+03 -0.77250861700E+02  0.10451293538E+03  0.17074210659E+03  0.47000000000E+01 0.  1.
<mgrwt>
<rscale>  0 0.10009178E+04</rscale>
<asrwt>0</asrwt>
<pdfrwt beam="1">  1        2 0.67102476E-01 0.10009178E+04</pdfrwt>
<pdfrwt beam="2">  1       -2 0.88342890E-01 0.10009178E+04</pdfrwt>
<totfact> 0.95114422E+01</totfact>
</mgrwt>
</event>
<event>
 9    1  0.4388925E-036  0.9996533E+03  0.7818608E-02  0.8681368E-01
         -1   -1    0    0    0  501 -0.00000000000E+00  0.00000000000E+00  0.15840649160E+03  0.15840649160E+03  0.00000000000E+00 0.  1.
          1   -1    0    0  501    0  0.00000000000E+00 -0.00000000000E+00 -0.15771240811E+04  0.15771240811E+04  0.00000000000E+00 0.  1.
         36    2    1    2    0    0 -0.14210854715E-13 -0.14210854715E-13 -0.14187175895E+04  0.17355305727E+04  0.99965332493E+03 0.  0.
         25    2    3    3    0    0 -0.10217759088E+03 -0.98603851454E+02 -0.35196055841E+03  0.39924311241E+03  0.12391871740E+03 0.  0.
         35    2    3    3    0    0  0.10217759088E+03  0.98603851454E+02 -0.10667570311E+04  0.13362874603E+04  0.79216831140E+03 0.  0.
         22    1    5    5    0    0 -0.13773522865E+03  0.39795801817E+03 -0.55109746920E+03  0.69357767986E+03  0.00000000000E+00 0. -1.
         22    1    5    5    0    0  0.23991281953E+03 -0.29935416672E+03 -0.51565956193E+03  0.64270978048E+03  0.00000000000E+00 0. -1.
          5    1    4    4  502    0  0.10009970529E+02  0.20950823861E+02 -0.33540293107E+02  0.41063095257E+02  0.47000000000E+01 0. -1.
         -5    1    4    4    0  502 -0.11218756141E+03 -0.11955467531E+03 -0.31842026531E+03  0.35818001715E+03  0.47000000000E+01 0. -1.
<mgrwt>
<rscale>  0 0.99965332E+03</rscale>
<asrwt>0</asrwt>
<pdfrwt beam="1">  1        1 0.24263446E+00 0.99965332E+03</pdfrwt>
<pdfrwt beam="2">  1       -1 0.24370231E-01 0.99965332E+03</pdfrwt>
<totfact> 0.90927606E+01</totfact>
</mgrwt>
</event>
<event>
 9    1  0.4388925E-036  0.9999697E+03  0.7818608E-02  0.8681067E-01
          1   -1    0    0  501    0  0.00000000000E+00  0.00000000000E+00  0.19956870765E+04  0.19956870765E+04  0.00000000000E+00 0.  1.
         -1   -1    0    0    0  501 -0.00000000000E+00 -0.00000000000E+00 -0.12526255506E+03  0.12526255506E+03  0.00000000000E+00 0.  1.
         36    2    1    2    0    0  0.00000000000E+00  0.35527136788E-14  0.18704245215E+04  0.21209496316E+04  0.99996972416E+03 0.  0.
         25    2    3    3    0    0  0.13948990147E+03 -0.12440947652E+02  0.34376167391E+03  0.39163732736E+03  0.12488193600E+03 0.  0.
         35    2    3    3    0    0 -0.13948990147E+03  0.12440947652E+02  0.15266628475E+04  0.17293123042E+04  0.80013085534E+03 0.  0.
         22    1    5    5    0    0  0.21416987227E+03  0.26307360036E+03  0.94397169550E+03  0.10030747805E+04  0.00000000000E+00 0.  1.
         22    1    5    5    0    0 -0.35365977374E+03 -0.25063265271E+03  0.58269115205E+03  0.72623752371E+03  0.00000000000E+00 0.  1.
          5    1    4    4  502    0 -0.37766871648E+01  0.26831894075E+02  0.16159530767E+02  0.31897246593E+02  0.47000000000E+01 0.  1.
         -5    1    4    4    0  502  0.14326658864E+03 -0.39272841727E+02  0.32760214314E+03  0.35974008077E+03  0.47000000000E+01 0.  1.
<mgrwt>
<rscale>  0 0.99996972E+03</rscale>
<asrwt>0</asrwt>
<pdfrwt beam="1">  1        1 0.30702876E+00 0.99996972E+03</pdfrwt>
<pdfrwt beam="2">  1       -1 0.19271164E-01 0.99996972E+03</pdfrwt>
<totfact> 0.68192289E+01</totfact>
</mgrwt>
</event>
<event>
 9    1  0.4388925E-036  0.9962481E+03  0.7818608E-02  0.8684619E-01
         -1   -1    0    0    0  501 -0.00000000000E+00  0.00000000000E+00  0.35410501864E+03  0.35410501864E+03  0.00000000000E+00 0. -1.
          1   -1    0    0  501    0  0.00000000000E+00 -0.00000000000E+00 -0.70071739795E+03  0.70071739795E+03  0.00000000000E+00 0. -1.
         36    2    1    2    0    0  0.00000000000E+00  0.00000000000E+00 -0.34661237931E+03  0.10548224166E+04  0.99624805599E+03 0.  0.
         25    2    3    3    0    0  0.11499221738E+03 -0.77359035865E+02 -0.66770593427E+02  0.19724154869E+03  0.12344345222E+03 0.  0.
         35    2    3    3    0    0 -0.11499221738E+03  0.77359035865E+02 -0.27984178588E+03  0.85758086791E+03  0.79870262888E+03 0.  0.
         22    1    5    5    0    0 -0.13785004622E+03 -0.16947038794E+03  0.21350305988E+03  0.30546097003E+03  0.00000000000E+00 0. -1.
         22    1    5    5    0    0  0.22857828836E+02  0.24682942381E+03 -0.49334484576E+03  0.55211989788E+03  0.00000000000E+00 0. -1.
          5    1    4    4  502    0  0.90351731362E+02  0.24190186117E+00 -0.71843235920E+02  0.11552936607E+03  0.47000000000E+01 0. -1.
         -5    1    4    4    0  502  0.24640486019E+02 -0.77600937726E+02  0.50726424929E+01  0.81712182623E+02  0.47000000000E+01 0. -1.
<mgrwt>
<rscale>  0 0.99624806E+03</rscale>
<asrwt>0</asrwt>
<pdfrwt beam="1">  1        1 0.10780268E+00 0.99624806E+03</pdfrwt>
<pdfrwt beam="2">  1       -1 0.54477696E-01 0.99624806E+03</pdfrwt>
<totfact> 0.10647151E+02</totfact>
</mgrwt>
</event>
<event>
 9    1  0.4388925E-036  0.1000533E+04  0.7818608E-02  0.8680530E-01
          2   -1    0    0  501    0  0.00000000000E+00  0.00000000000E+00  0.29171292498E+04  0.29171292498E+04  0.00000000000E+00 0.  1.
         -2   -1    0    0    0  501 -0.00000000000E+00 -0.00000000000E+00 -0.85792097823E+02  0.85792097823E+02  0.00000000000E+00 0.  1.
         36    2    1    2    0    0  0.28421709430E-13 -0.10658141036E-13  0.28313371520E+04  0.30029213476E+04  0.10005331338E+04 0.  0.
         25    2    3    3    0    0 -0.11116620200E+03 -0.31611960990E+02  0.77440237268E+03  0.79305664727E+03  0.12602607041E+03 0.  0.
         35    2    3    3    0    0  0.11116620200E+03  0.31611960990E+02  0.20569347793E+04  0.22098647004E+04  0.79947737119E+03 0.  0.
         22    1    5    5    0    0 -0.28831446256E+03 -0.16707609509E+03  0.11772807297E+04  0.12235315964E+04  0.00000000000E+00 0. -1.
         22    1    5    5    0    0  0.39948066456E+03  0.19868805608E+03  0.87965404963E+03  0.98633310398E+03  0.00000000000E+00 0. -1.
          5    1    4    4  502    0 -0.11983907613E+03  0.94456652365E+01  0.44560103178E+03  0.46155497428E+03  0.47000000000E+01 0. -1.
         -5    1    4    4    0  502  0.86728741331E+01 -0.41057626227E+02  0.32880134090E+03  0.33150167299E+03  0.47000000000E+01 0. -1.
<mgrwt>
<rscale>  0 0.10005331E+04</rscale>
<asrwt>0</asrwt>
<pdfrwt beam="1">  1        2 0.44878904E+00 0.10005331E+04</pdfrwt>
<pdfrwt beam="2">  1       -2 0.13198787E-01 0.10005331E+04</pdfrwt>
<totfact> 0.93977803E+01</totfact>
</mgrwt>
</event>
<event>
 9    1  0.4388925E-036  0.1001784E+04  0.7818608E-02  0.8679341E-01
          1   -1    0    0  501    0  0.00000000000E+00  0.00000000000E+00  0.48661230716E+03  0.48661230716E+03  0.00000000000E+00 0. -1.
         -1   -1    0    0    0  501 -0.00000000000E+00 -0.00000000000E+00 -0.51559088666E+03  0.51559088666E+03  0.00000000000E+00 0. -1.
         36    2    1    2    0    0 -0.28421709430E-13  0.28421709430E-13 -0.28978579502E+02  0.10022031938E+04  0.10017841502E+04 0.  0.
         25    2    3    3    0    0  0.61563531293E+02 -0.12339096699E+03  0.25716376192E+02  0.18817378237E+03  0.12542982599E+03 0.  0.
         35    2    3    3    0    0 -0.61563531293E+02  0.12339096699E+03 -0.54694955694E+02  0.81402941144E+03  0.80039799187E+03 0.  0.
         22    1    5    5    0    0  0.32028589074E+03  0.15328903558E+01  0.16140946939E+03  0.35866198344E+03  0.00000000000E+00 0.  1.
         22    1    5    5    0    0 -0.38184942203E+03  0.12185807664E+03 -0.21610442508E+03  0.45536742800E+03  0.00000000000E+00 0.  1.
          5    1    4    4  502    0 -0.34740520786E+02 -0.83812996414E+01  0.91113545277E+01  0.37178713661E+02  0.47000000000E+01 0. -1.
         -5    1    4    4    0  502  0.96304052079E+02 -0.11500966735E+03  0.16605021665E+02  0.15099506871E+03  0.47000000000E+01 0. -1.
<mgrwt>
<rscale>  0 0.10017842E+04</rscale>
<asrwt>0</asrwt>
<pdfrwt beam="1">  1        1 0.74863432E-01 0.10017842E+04</pdfrwt>
<pdfrwt beam="2">  1       -1 0.79321674E-01 0.10017842E+04</pdfrwt>
<totfact> 0.86409118E+01</totfact>
</mgrwt>
</event>
<event>
 9    1  0.4388925E-036  0.1000582E+04  0.7818608E-02  0.8680484E-01
          1   -1    0    0  501    0  0.00000000000E+00  0.00000000000E+00  0.21334148577E+03  0.21334148577E+03  0.00000000000E+00 0. -1.
         -1   -1    0    0    0  501 -0.00000000000E+00 -0.00000000000E+00 -0.11731949177E+04  0.11731949177E+04  0.00000000000E+00 0. -1.
         36    2    1    2    0    0  0.00000000000E+00 -0.42632564146E-13 -0.95985343194E+03  0.13865364035E+04  0.10005821243E+04 0.  0.
         25    2    3    3    0    0 -0.10087129320E+03  0.14581735812E+02 -0.31281379616E+03  0.35176110756E+03  0.12448197024E+03 0.  0.
         35    2    3    3    0    0  0.10087129320E+03 -0.14581735812E+02 -0.64703963578E+03  0.10347752959E+04  0.80106927164E+03 0.  0.
         22    1    5    5    0    0 -0.96927137580E+00  0.36337137014E+03 -0.12924175092E+03  0.38567229911E+03  0.00000000000E+00 0.  1.
         22    1    5    5    0    0  0.10184056458E+03 -0.37795310595E+03 -0.51779788487E+03  0.64910299681E+03  0.00000000000E+00 0.  1.
          5    1    4    4  502    0 -0.34877431344E+02  0.33756252836E+02 -0.26112924555E+03  0.26564354444E+03  0.47000000000E+01 0. -1.
         -5    1    4    4    0  502 -0.65993861857E+02 -0.19174517024E+02 -0.51684550609E+02  0.86117563119E+02  0.47000000000E+01 0. -1.
<mgrwt>
<rscale>  0 0.10005821E+04</rscale>
<asrwt>0</asrwt>
<pdfrwt beam="1">  1        1 0.32821768E-01 0.10005821E+04</pdfrwt>
<pdfrwt beam="2">  1       -1 0.18049152E+00 0.10005821E+04</pdfrwt>
<totfact> 0.31109677E+01</totfact>
</mgrwt>
</event>
<event>
 9    1  0.4388925E-036  0.9991856E+03  0.7818608E-02  0.8681814E-01
          2   -1    0    0  501    0  0.00000000000E+00  0.00000000000E+00  0.21080587464E+04  0.21080587464E+04  0.00000000000E+00 0. -1.
         -2   -1    0    0    0  501 -0.00000000000E+00 -0.00000000000E+00 -0.11839943221E+03  0.11839943221E+03  0.00000000000E+00 0. -1.
         36    2    1    2    0    0  0.71054273576E-14  0.00000000000E+00  0.19896593142E+04  0.22264581786E+04  0.99918558563E+03 0.  0.
         25    2    3    3    0    0 -0.43863902034E+02 -0.94121115781E+02  0.57655268934E+03  0.59923842880E+03  0.12605897284E+03 0.  0.
         35    2    3    3    0    0  0.43863902034E+02  0.94121115781E+02  0.14131066248E+04  0.16272197498E+04  0.80011933772E+03 0.  0.
         22    1    5    5    0    0 -0.31898215795E+03  0.18732346362E+03  0.10162083747E+04  0.10814430905E+04  0.00000000000E+00 0.  1.
         22    1    5    5    0    0  0.36284605998E+03 -0.93202347838E+02  0.39689825011E+03  0.54577665929E+03  0.00000000000E+00 0.  1.
          5    1    4    4  502    0  0.27500553297E+02 -0.57921745421E+02  0.12435353055E+03  0.13998964099E+03  0.47000000000E+01 0.  1.
         -5    1    4    4    0  502 -0.71364455331E+02 -0.36199370359E+02  0.45219915879E+03  0.45924878781E+03  0.47000000000E+01 0.  1.
<mgrwt>
<rscale>  0 0.99918559E+03</rscale>
<asrwt>0</asrwt>
<pdfrwt beam="1">  1        2 0.32431670E+00 0.99918559E+03</pdfrwt>
<pdfrwt beam="2">  1       -2 0.18215299E-01 0.99918559E+03</pdfrwt>
<totfact> 0.17076239E+02</totfact>
</mgrwt>
</event>
<event>
 9    1  0.4388925E-036  0.1000814E+04  0.7818608E-02  0.8680263E-01
         -1   -1    0    0    0  501 -0.00000000000E+00  0.00000000000E+00  0.15414210451E+03  0.15414210451E+03  0.00000000000E+00 0.  1.
          1   -1    0    0  501    0  0.00000000000E+00 -0.00000000000E+00 -0.16245230540E+04  0.16245230540E+04  0.00000000000E+00 0.  1.
         36    2    1    2    0    0 -0.17763568394E-13  0.00000000000E+00 -0.14703809494E+04  0.17786651585E+04  0.10008144730E+04 0.  0.
         25    2    3    3    0    0 -0.12951287099E+02 -0.12874687426E+03 -0.37268506091E+03  0.41390452649E+03  0.12521704736E+03 0.  0.
         35    2    3    3    0    0  0.12951287099E+02  0.12874687426E+03 -0.10976958885E+04  0.13647606320E+04  0.80055719685E+03 0.  0.
         22    1    5    5    0    0 -0.19856802866E+03 -0.11770774563E+03 -0.99899428738E+03  0.10253165178E+04  0.00000000000E+00 0. -1.
         22    1    5    5    0    0  0.21151931576E+03  0.24645461989E+03 -0.98701601151E+02  0.33944411421E+03  0.00000000000E+00 0. -1.
          5    1    4    4  502    0  0.25486097329E+01 -0.20440862346E+02  0.41044615717E+01  0.21523495762E+02  0.47000000000E+01 0. -1.
         -5    1    4    4    0  502 -0.15499896832E+02 -0.10830601191E+03 -0.37678952249E+03  0.39238103072E+03  0.47000000000E+01 0. -1.
<mgrwt>
<rscale>  0 0.10008145E+04</rscale>
<asrwt>0</asrwt>
<pdfrwt beam="1">  1        1 0.24992660E+00 0.10008145E+04</pdfrwt>
<pdfrwt beam="2">  1       -1 0.23714172E-01 0.10008145E+04</pdfrwt>
<totfact> 0.88099355E+01</totfact>
</mgrwt>
</event>
<event>
 9    1  0.4388925E-036  0.1000136E+04  0.7818608E-02  0.8680908E-01
          1   -1    0    0  501    0  0.00000000000E+00  0.00000000000E+00  0.84111378822E+03  0.84111378822E+03  0.00000000000E+00 0. -1.
         -1   -1    0    0    0  501 -0.00000000000E+00 -0.00000000000E+00 -0.29730589923E+03  0.29730589923E+03  0.00000000000E+00 0. -1.
         36    2    1    2    0    0 -0.71054273576E-14  0.00000000000E+00  0.54380788898E+03  0.11384196875E+04  0.10001361731E+04 0.  0.
         25    2    3    3    0    0  0.63177683370E+02  0.89147978301E+02  0.24119954288E+01  0.16601053423E+03  0.12495958564E+03 0.  0.
         35    2    3    3    0    0 -0.63177683370E+02 -0.89147978301E+02  0.54139589355E+03  0.97240915322E+03  0.80033197237E+03 0.  0.
         22    1    5    5    0    0 -0.28869444607E+03 -0.33718534061E+03  0.17867923876E+03  0.47850256789E+03  0.00000000000E+00 0. -1.
         22    1    5    5    0    0  0.22551676270E+03  0.24803736231E+03  0.36271665479E+03  0.49390658533E+03  0.00000000000E+00 0. -1.
          5    1    4    4  502    0  0.19736981592E+02  0.11354697389E+02 -0.55135766268E+02  0.59837449119E+02  0.47000000000E+01 0. -1.
         -5    1    4    4    0  502  0.43440701778E+02  0.77793280912E+02  0.57547761697E+02  0.10617308511E+03  0.47000000000E+01 0. -1.
<mgrwt>
<rscale>  0 0.10001362E+04</rscale>
<asrwt>0</asrwt>
<pdfrwt beam="1">  1        1 0.12940212E+00 0.10001362E+04</pdfrwt>
<pdfrwt beam="2">  1       -1 0.45739370E-01 0.10001362E+04</pdfrwt>
<totfact> 0.10981592E+02</totfact>
</mgrwt>
</event>
<event>
 9    1  0.4388925E-036  0.9999820E+03  0.7818608E-02  0.8681055E-01
         -2   -1    0    0    0  501 -0.00000000000E+00  0.00000000000E+00  0.17167105462E+03  0.17167105462E+03  0.00000000000E+00 0. -1.
          2   -1    0    0  501    0  0.00000000000E+00 -0.00000000000E+00 -0.14562210767E+04  0.14562210767E+04  0.00000000000E+00 0. -1.
         36    2    1    2    0    0  0.42632564146E-13  0.14210854715E-13 -0.12845500221E+04  0.16278921314E+04  0.99998201586E+03 0.  0.
         25    2    3    3    0    0 -0.10506451338E+03  0.88202700515E+02 -0.25922934344E+03  0.31933148000E+03  0.12631101799E+03 0.  0.
         35    2    3    3    0    0  0.10506451338E+03 -0.88202700515E+02 -0.10253206787E+04  0.13085606514E+04  0.80139267269E+03 0.  0.
         22    1    5    5    0    0 -0.21212136863E+03 -0.20670727123E+02 -0.95268117171E+03  0.97622956774E+03  0.00000000000E+00 0. -1.
         22    1    5    5    0    0  0.31718588201E+03 -0.67531973392E+02 -0.72639506967E+02  0.33233108363E+03  0.00000000000E+00 0. -1.
          5    1    4    4  502    0  0.67367431702E+01  0.49888095051E+02 -0.23843346571E+02  0.55899918712E+02  0.47000000000E+01 0.  1.
         -5    1    4    4    0  502 -0.11180125655E+03  0.38314605465E+02 -0.23538599687E+03  0.26343156129E+03  0.47000000000E+01 0.  1.
<mgrwt>
<rscale>  0 0.99998202E+03</rscale>
<asrwt>0</asrwt>
<pdfrwt beam="1">  1        2 0.22403401E+00 0.99998202E+03</pdfrwt>
<pdfrwt beam="2">  1       -2 0.26410932E-01 0.99998202E+03</pdfrwt>
<totfact> 0.20868928E+02</totfact>
</mgrwt>
</event>
<event>
 9    1  0.4388925E-036  0.9950696E+03  0.7818608E-02  0.8685747E-01
         -1   -1    0    0    0  501 -0.00000000000E+00  0.00000000000E+00  0.37532342010E+03  0.37532342010E+03  0.00000000000E+00 0. -1.
          1   -1    0    0  501    0  0.00000000000E+00 -0.00000000000E+00 -0.65954022895E+03  0.65954022895E+03  0.00000000000E+00 0. -1.
         36    2    1    2    0    0 -0.28421709430E-13 -0.28421709430E-13 -0.28421680885E+03  0.10348636491E+04  0.99506963460E+03 0.  0.
         25    2    3    3    0    0 -0.10764730667E+03 -0.81745548939E+02 -0.39243906071E+02  0.18837522451E+03  0.12519929569E+03 0.  0.
         35    2    3    3    0    0  0.10764730667E+03  0.81745548939E+02 -0.24497290278E+03  0.84648842454E+03  0.79891216813E+03 0.  0.
         22    1    5    5    0    0 -0.15356589411E+03 -0.12187903338E+03  0.20768271898E+03  0.28560303635E+03  0.00000000000E+00 0. -1.
         22    1    5    5    0    0  0.26121320078E+03  0.20362458231E+03 -0.45265562175E+03  0.56088538820E+03  0.00000000000E+00 0. -1.
          5    1    4    4  502    0  0.19612925054E+02 -0.36645686528E+02  0.12578995742E+02  0.43679449448E+02  0.47000000000E+01 0.  1.
         -5    1    4    4    0  502 -0.12726023172E+03 -0.45099862412E+02 -0.51822901813E+02  0.14469577506E+03  0.47000000000E+01 0.  1.
<mgrwt>
<rscale>  0 0.99506963E+03</rscale>
<asrwt>0</asrwt>
<pdfrwt beam="1">  1        1 0.10146773E+00 0.99506963E+03</pdfrwt>
<pdfrwt beam="2">  1       -1 0.57742065E-01 0.99506963E+03</pdfrwt>
<totfact> 0.10457523E+02</totfact>
</mgrwt>
</event>
<event>
 9    1  0.4388925E-036  0.9988481E+03  0.7818608E-02  0.8682136E-01
          2   -1    0    0  501    0  0.00000000000E+00  0.00000000000E+00  0.13575758634E+04  0.13575758634E+04  0.00000000000E+00 0. -1.
         -2   -1    0    0    0  501 -0.00000000000E+00 -0.00000000000E+00 -0.18372777268E+03  0.18372777268E+03  0.00000000000E+00 0. -1.
         36    2    1    2    0    0 -0.14210854715E-13  0.00000000000E+00  0.11738480908E+04  0.15413036361E+04  0.99884811584E+03 0.  0.
         25    2    3    3    0    0 -0.52464291953E+02 -0.90660430413E+02  0.31158640326E+03  0.35135790211E+03  0.12407446597E+03 0.  0.
         35    2    3    3    0    0  0.52464291953E+02  0.90660430413E+02  0.86226168750E+03  0.11899457340E+04  0.81332884898E+03 0.  0.
         22    1    5    5    0    0 -0.16022659180E+03  0.33700856469E+02  0.94173040145E+03  0.95585796929E+03  0.00000000000E+00 0.  1.
         22    1    5    5    0    0  0.21269088376E+03  0.56959573944E+02 -0.79468713941E+02  0.23408776472E+03  0.00000000000E+00 0.  1.
          5    1    4    4  502    0  0.34272325386E+02 -0.61607764186E+02  0.14263304843E+03  0.15917407263E+03  0.47000000000E+01 0. -1.
         -5    1    4    4    0  502 -0.86736617339E+02 -0.29052666227E+02  0.16895335483E+03  0.19218382948E+03  0.47000000000E+01 0. -1.
<mgrwt>
<rscale>  0 0.99884812E+03</rscale>
<asrwt>0</asrwt>
<pdfrwt beam="1">  1        2 0.20885782E+00 0.99884812E+03</pdfrwt>
<pdfrwt beam="2">  1       -2 0.28265812E-01 0.99884812E+03</pdfrwt>
<totfact> 0.21031274E+02</totfact>
</mgrwt>
</event>
<event>
 9    1  0.4388925E-036  0.1000429E+04  0.7818608E-02  0.8680629E-01
         -2   -1    0    0    0  501 -0.00000000000E+00  0.00000000000E+00  0.12235033737E+03  0.12235033737E+03  0.00000000000E+00 0.  1.
          2   -1    0    0  501    0  0.00000000000E+00 -0.00000000000E+00 -0.20450675912E+04  0.20450675912E+04  0.00000000000E+00 0.  1.
         36    2    1    2    0    0  0.14210854715E-13  0.00000000000E+00 -0.19227172539E+04  0.21674179286E+04  0.10004293273E+04 0.  0.
         25    2    3    3    0    0  0.10934857275E+02  0.14336980652E+03 -0.33311863676E+03  0.38371101269E+03  0.12486649902E+03 0.  0.
         35    2    3    3    0    0 -0.10934857275E+02 -0.14336980652E+03 -0.15895986171E+04  0.17837069159E+04  0.79631157585E+03 0.  0.
         22    1    5    5    0    0 -0.18571691222E+03  0.13667451122E+03 -0.88902875815E+02  0.24713238320E+03  0.00000000000E+00 0.  1.
         22    1    5    5    0    0  0.17478205494E+03 -0.28004431774E+03 -0.15006957413E+04  0.15365745327E+04  0.00000000000E+00 0.  1.
          5    1    4    4  502    0  0.56842620711E+02  0.31949968805E+02 -0.79876314628E+02  0.10321918269E+03  0.47000000000E+01 0. -1.
         -5    1    4    4    0  502 -0.45907763436E+02  0.11141983772E+03 -0.25324232213E+03  0.28049183001E+03  0.47000000000E+01 0. -1.
<mgrwt>
<rscale>  0 0.10004293E+04</rscale>
<asrwt>0</asrwt>
<pdfrwt beam="1">  1        2 0.31462578E+00 0.10004293E+04</pdfrwt>
<pdfrwt beam="2">  1       -2 0.18823129E-01 0.10004293E+04</pdfrwt>
<totfact> 0.17540533E+02</totfact>
</mgrwt>
</event>
<event>
 9    1  0.4388925E-036  0.9979176E+03  0.7818608E-02  0.8683024E-01
         -2   -1    0    0    0  501 -0.00000000000E+00  0.00000000000E+00  0.30305074429E+03  0.30305074429E+03  0.00000000000E+00 0. -1.
          2   -1    0    0  501    0  0.00000000000E+00 -0.00000000000E+00 -0.82151226853E+03  0.82151226853E+03  0.00000000000E+00 0. -1.
         36    2    1    2    0    0  0.28421709430E-13  0.00000000000E+00 -0.51846152424E+03  0.11245630128E+04  0.99791764073E+03 0.  0.
         25    2    3    3    0    0  0.10560818144E+03 -0.89173271200E+02 -0.82553251469E+02  0.20217658735E+03  0.12229216190E+03 0.  0.
         35    2    3    3    0    0 -0.10560818144E+03  0.89173271200E+02 -0.43590827277E+03  0.92238642547E+03  0.80104664991E+03 0.  0.
         22    1    5    5    0    0  0.30242150771E+03 -0.36766289977E+02 -0.38707096593E+03  0.49257939571E+03  0.00000000000E+00 0.  1.
         22    1    5    5    0    0 -0.40802968915E+03  0.12593956118E+03 -0.48837306837E+02  0.42980702976E+03  0.00000000000E+00 0.  1.
          5    1    4    4  502    0  0.11661688557E+03 -0.70889776342E+02 -0.10393085147E+03  0.17160585735E+03  0.47000000000E+01 0. -1.
         -5    1    4    4    0  502 -0.11008704134E+02 -0.18283494858E+02  0.21377600001E+02  0.30570730000E+02  0.47000000000E+01 0. -1.
<mgrwt>
<rscale>  0 0.99791764E+03</rscale>
<asrwt>0</asrwt>
<pdfrwt beam="1">  1        2 0.12638651E+00 0.99791764E+03</pdfrwt>
<pdfrwt beam="2">  1       -2 0.46623190E-01 0.99791764E+03</pdfrwt>
<totfact> 0.17543510E+02</totfact>
</mgrwt>
</event>
<event>
 9    1  0.4388925E-036  0.1001837E+04  0.7818608E-02  0.8679290E-01
          1   -1    0    0  501    0  0.00000000000E+00  0.00000000000E+00  0.10943211220E+04  0.10943211220E+04  0.00000000000E+00 0.  1.
         -1   -1    0    0    0  501 -0.00000000000E+00 -0.00000000000E+00 -0.22929232896E+03  0.22929232896E+03  0.00000000000E+00 0.  1.
         36    2    1    2    0    0  0.00000000000E+00  0.00000000000E+00  0.86502879306E+03  0.13236134510E+04  0.10018371898E+04 0.  0.
         25    2    3    3    0    0 -0.13929014604E+03  0.29462677404E+02  0.16369842866E+03  0.25046096888E+03  0.12515481310E+03 0.  0.
         35    2    3    3    0    0  0.13929014604E+03 -0.29462677404E+02  0.70133036440E+03  0.10731524821E+04  0.79970130402E+03 0.  0.
         22    1    5    5    0    0  0.10997565424E+03 -0.36501451912E+02  0.88220511185E+03  0.88978247898E+03  0.00000000000E+00 0. -1.
         22    1    5    5    0    0  0.29314491799E+02  0.70387745081E+01 -0.18087474746E+03  0.18337000312E+03  0.00000000000E+00 0. -1.
          5    1    4    4  502    0 -0.60291251627E+02  0.36202414383E+02  0.15535886903E+03  0.17059929078E+03  0.47000000000E+01 0. -1.
         -5    1    4    4    0  502 -0.78998894415E+02 -0.67397369790E+01  0.83395596324E+01  0.79861678095E+02  0.47000000000E+01 0. -1.
<mgrwt>
<rscale>  0 0.10018372E+04</rscale>
<asrwt>0</asrwt>
<pdfrwt beam="1">  1        1 0.16835709E+00 0.10018372E+04</pdfrwt>
<pdfrwt beam="2">  1       -1 0.35275743E-01 0.10018372E+04</pdfrwt>
<totfact> 0.10886240E+02</totfact>
</mgrwt>
</event>
<event>
 9    1  0.4388925E-036  0.1000341E+04  0.7818608E-02  0.8680713E-01
          2   -1    0    0  501    0  0.00000000000E+00  0.00000000000E+00  0.18823749635E+04  0.18823749635E+04  0.00000000000E+00 0.  1.
         -2   -1    0    0    0  501 -0.00000000000E+00 -0.00000000000E+00 -0.13290149918E+03  0.13290149918E+03  0.00000000000E+00 0.  1.
         36    2    1    2    0    0  0.00000000000E+00  0.71054273576E-14  0.17494734643E+04  0.20152764627E+04  0.10003408513E+04 0.  0.
         25    2    3    3    0    0  0.70504578340E+02 -0.21902912699E+02  0.86905600386E+02  0.16874194113E+03  0.12438097189E+03 0.  0.
         35    2    3    3    0    0 -0.70504578340E+02  0.21902912699E+02  0.16625678640E+04  0.18465345216E+04  0.80006699966E+03 0.  0.
         22    1    5    5    0    0  0.20032697885E+03  0.33447593923E+03  0.80967040981E+03  0.89864966750E+03  0.00000000000E+00 0.  1.
         22    1    5    5    0    0 -0.27083155718E+03 -0.31257302653E+03  0.85289745416E+03  0.94788485408E+03  0.00000000000E+00 0.  1.
          5    1    4    4  502    0  0.96074015439E+01 -0.44423951913E+02  0.92737320921E+02  0.10338322088E+03  0.47000000000E+01 0. -1.
         -5    1    4    4    0  502  0.60897176796E+02  0.22521039214E+02 -0.58317205348E+01  0.65358720255E+02  0.47000000000E+01 0. -1.
<mgrwt>
<rscale>  0 0.10003409E+04</rscale>
<asrwt>0</asrwt>
<pdfrwt beam="1">  1        2 0.28959613E+00 0.10003409E+04</pdfrwt>
<pdfrwt beam="2">  1       -2 0.20446386E-01 0.10003409E+04</pdfrwt>
<totfact> 0.18816140E+02</totfact>
</mgrwt>
</event>
<event>
 9    1  0.4388925E-036  0.1002211E+04  0.7818608E-02  0.8678935E-01
         -1   -1    0    0    0  501 -0.00000000000E+00  0.00000000000E+00  0.27794717681E+03  0.27794717681E+03  0.00000000000E+00 0. -1.
          1   -1    0    0  501    0  0.00000000000E+00 -0.00000000000E+00 -0.90343374337E+03  0.90343374337E+03  0.00000000000E+00 0. -1.
         36    2    1    2    0    0  0.00000000000E+00  0.71054273576E-14 -0.62548656656E+03  0.11813809202E+04  0.10022112720E+04 0.  0.
         25    2    3    3    0    0  0.81544632193E+02  0.38549301551E+02 -0.24599795046E+03  0.29077609084E+03  0.12609586704E+03 0.  0.
         35    2    3    3    0    0 -0.81544632193E+02 -0.38549301551E+02 -0.37948861610E+03  0.89060482935E+03  0.80064335170E+03 0.  0.
         22    1    5    5    0    0  0.28542716048E+03  0.21056869297E+03 -0.22915732803E+03  0.42228061688E+03  0.00000000000E+00 0.  1.
         22    1    5    5    0    0 -0.36697179267E+03 -0.24911799452E+03 -0.15033128807E+03  0.46832421247E+03  0.00000000000E+00 0.  1.
          5    1    4    4  502    0  0.11417005686E+02  0.53910583147E+02 -0.19473592192E+03  0.20243731939E+03  0.47000000000E+01 0.  1.
         -5    1    4    4    0  502  0.70127626507E+02 -0.15361281597E+02 -0.51262028534E+02  0.88338771449E+02  0.47000000000E+01 0.  1.
<mgrwt>
<rscale>  0 0.10022113E+04</rscale>
<asrwt>0</asrwt>
<pdfrwt beam="1">  1        1 0.13898981E+00 0.10022113E+04</pdfrwt>
<pdfrwt beam="2">  1       -1 0.42761104E-01 0.10022113E+04</pdfrwt>
<totfact> 0.10985798E+02</totfact>
</mgrwt>
</event>
<event>
 9    1  0.4388925E-036  0.9856974E+03  0.7818608E-02  0.8694779E-01
          1   -1    0    0  501    0  0.00000000000E+00  0.00000000000E+00  0.13634324277E+04  0.13634324277E+04  0.00000000000E+00 0.  1.
         -1   -1    0    0    0  501 -0.00000000000E+00 -0.00000000000E+00 -0.17815320575E+03  0.17815320575E+03  0.00000000000E+00 0.  1.
         36    2    1    2    0    0  0.00000000000E+00 -0.11546319456E-13  0.11852792219E+04  0.15415856334E+04  0.98569743391E+03 0.  0.
         25    2    3    3    0    0  0.62585003340E+02  0.35009740001E+01  0.38232384368E+03  0.40669386885E+03  0.12369010490E+03 0.  0.
         35    2    3    3    0    0 -0.62585003340E+02 -0.35009740001E+01  0.80295537822E+03  0.11348917645E+04  0.79957040863E+03 0.  0.
         22    1    5    5    0    0 -0.22941692113E+03 -0.24093437761E+03  0.61035363159E+02  0.33824076273E+03  0.00000000000E+00 0.  1.
         22    1    5    5    0    0  0.16683191779E+03  0.23743340361E+03  0.74192001507E+03  0.79665100182E+03  0.00000000000E+00 0.  1.
          5    1    4    4  502    0  0.65037515585E+02  0.54484618956E+01  0.75875728257E+02  0.10019371392E+03  0.47000000000E+01 0.  1.
         -5    1    4    4    0  502 -0.24525122447E+01 -0.19474878955E+01  0.30644811543E+03  0.30650015493E+03  0.47000000000E+01 0.  1.
<mgrwt>
<rscale>  0 0.98569743E+03</rscale>
<asrwt>0</asrwt>
<pdfrwt beam="1">  1        1 0.20975883E+00 0.98569743E+03</pdfrwt>
<pdfrwt beam="2">  1       -1 0.27408186E-01 0.98569743E+03</pdfrwt>
<totfact> 0.10615870E+02</totfact>
</mgrwt>
</event>
<event>
 9    1  0.4388925E-036  0.1000642E+04  0.7818608E-02  0.8680427E-01
          2   -1    0    0  501    0  0.00000000000E+00  0.00000000000E+00  0.29424375704E+03  0.29424375704E+03  0.00000000000E+00 0.  1.
         -2   -1    0    0    0  501 -0.00000000000E+00 -0.00000000000E+00 -0.85072718853E+03  0.85072718853E+03  0.00000000000E+00 0.  1.
         36    2    1    2    0    0  0.00000000000E+00 -0.28421709430E-13 -0.55648343150E+03  0.11449709456E+04  0.10006421222E+04 0.  0.
         25    2    3    3    0    0  0.44807621557E+02  0.69401470512E+02  0.22387246944E+02  0.15267329751E+03  0.12642649994E+03 0.  0.
         35    2    3    3    0    0 -0.44807621557E+02 -0.69401470512E+02 -0.57887067844E+03  0.99229764806E+03  0.80171009282E+03 0.  0.
         22    1    5    5    0    0 -0.11655319144E+03  0.35590561306E+03 -0.27808126736E+03  0.46645754694E+03  0.00000000000E+00 0. -1.
         22    1    5    5    0    0  0.71745569884E+02 -0.42530708357E+03 -0.30078941108E+03  0.52584010112E+03  0.00000000000E+00 0. -1.
          5    1    4    4  502    0  0.51746173405E+02  0.50366705995E+02  0.70022214135E+02  0.10069593839E+03  0.47000000000E+01 0. -1.
         -5    1    4    4    0  502 -0.69385518485E+01  0.19034764518E+02 -0.47634967191E+02  0.51977359122E+02  0.47000000000E+01 0. -1.
<mgrwt>
<rscale>  0 0.10006421E+04</rscale>
<asrwt>0</asrwt>
<pdfrwt beam="1">  1        2 0.45268271E-01 0.10006421E+04</pdfrwt>
<pdfrwt beam="2">  1       -2 0.13088110E+00 0.10006421E+04</pdfrwt>
<totfact> 0.55255733E+01</totfact>
</mgrwt>
</event>
<event>
 9    1  0.4388925E-036  0.1003848E+04  0.7818608E-02  0.8677383E-01
          2   -1    0    0  501    0  0.00000000000E+00  0.00000000000E+00  0.69751626833E+03  0.69751626833E+03  0.00000000000E+00 0. -1.
         -2   -1    0    0    0  501 -0.00000000000E+00 -0.00000000000E+00 -0.36117791183E+03  0.36117791183E+03  0.00000000000E+00 0. -1.
         36    2    1    2    0    0  0.00000000000E+00  0.14210854715E-13  0.33633835649E+03  0.10586941802E+04  0.10038475368E+04 0.  0.
         25    2    3    3    0    0 -0.11910257791E+03  0.77403357032E+02  0.86472147668E+02  0.20848096985E+03  0.12573853317E+03 0.  0.
         35    2    3    3    0    0  0.11910257791E+03 -0.77403357032E+02  0.24986620883E+03  0.85021321031E+03  0.80015790750E+03 0.  0.
         22    1    5    5    0    0  0.45154704029E+03  0.13354096397E+02  0.22508226891E+03  0.50471287804E+03  0.00000000000E+00 0.  1.
         22    1    5    5    0    0 -0.33244446238E+03 -0.90757453429E+02  0.24783939914E+02  0.34550033227E+03  0.00000000000E+00 0.  1.
          5    1    4    4  502    0 -0.14491120971E+03  0.64496266433E+02  0.82876975539E+02  0.17902432840E+03  0.47000000000E+01 0. -1.
         -5    1    4    4    0  502  0.25808631800E+02  0.12907090599E+02  0.35951721283E+01  0.29456641454E+02  0.47000000000E+01 0. -1.
<mgrwt>
<rscale>  0 0.10038475E+04</rscale>
<asrwt>0</asrwt>
<pdfrwt beam="1">  1        2 0.10731020E+00 0.10038475E+04</pdfrwt>
<pdfrwt beam="2">  1       -2 0.55565833E-01 0.10038475E+04</pdfrwt>
<totfact> 0.15161622E+02</totfact>
</mgrwt>
</event>
<event>
 9    1  0.4388925E-036  0.1000043E+04  0.7818608E-02  0.8680997E-01
         -2   -1    0    0    0  501 -0.00000000000E+00  0.00000000000E+00  0.15131283231E+03  0.15131283231E+03  0.00000000000E+00 0. -1.
          2   -1    0    0  501    0  0.00000000000E+00 -0.00000000000E+00 -0.16523498856E+04  0.16523498856E+04  0.00000000000E+00 0. -1.
         36    2    1    2    0    0  0.00000000000E+00 -0.14210854715E-13 -0.15010370533E+04  0.18036627179E+04  0.10000434813E+04 0.  0.
         25    2    3    3    0    0  0.12206249644E+03 -0.11727209821E+02 -0.16110106684E+03  0.23826128788E+03  0.12561093535E+03 0.  0.
         35    2    3    3    0    0 -0.12206249644E+03  0.11727209821E+02 -0.13399359864E+04  0.15654014300E+04  0.80001025546E+03 0.  0.
         22    1    5    5    0    0  0.25394843939E+03 -0.17798169283E+03 -0.91916564039E+03  0.97006843435E+03  0.00000000000E+00 0.  1.
         22    1    5    5    0    0 -0.37601093582E+03  0.18970890265E+03 -0.42077034605E+03  0.59533299566E+03  0.00000000000E+00 0.  1.
          5    1    4    4  502    0  0.20134972352E+01  0.42461086673E+02 -0.29104470696E+02  0.51731598342E+02  0.47000000000E+01 0.  1.
         -5    1    4    4    0  502  0.12004899920E+03 -0.54188296494E+02 -0.13199659615E+03  0.18652968954E+03  0.47000000000E+01 0.  1.
<mgrwt>
<rscale>  0 0.10000435E+04</rscale>
<asrwt>0</asrwt>
<pdfrwt beam="1">  1        2 0.25420768E+00 0.10000435E+04</pdfrwt>
<pdfrwt beam="2">  1       -2 0.23278897E-01 0.10000435E+04</pdfrwt>
<totfact> 0.20223861E+02</totfact>
</mgrwt>
</event>
<event>
 9    1  0.4388925E-036  0.9992898E+03  0.7818608E-02  0.8681715E-01
          2   -1    0    0  501    0  0.00000000000E+00  0.00000000000E+00  0.11650067104E+04  0.11650067104E+04  0.00000000000E+00 0. -1.
         -2   -1    0    0    0  501 -0.00000000000E+00 -0.00000000000E+00 -0.21428635226E+03  0.21428635226E+03  0.00000000000E+00 0. -1.
         36    2    1    2    0    0 -0.14210854715E-13  0.14210854715E-13  0.95072035816E+03  0.13792930627E+04  0.99928982448E+03 0.  0.
         25    2    3    3    0    0  0.83327477236E+02 -0.75144328803E+02  0.64486192516E+02  0.17991035673E+03  0.12497651307E+03 0.  0.
         35    2    3    3    0    0 -0.83327477236E+02  0.75144328803E+02  0.88623416565E+03  0.11993827059E+04  0.80032352230E+03 0.  0.
         22    1    5    5    0    0 -0.34441518247E+02 -0.11166721242E+03 -0.12427574551E+03  0.17058794047E+03  0.00000000000E+00 0.  1.
         22    1    5    5    0    0 -0.48885958989E+02  0.18681154123E+03  0.10105099112E+04  0.10287947655E+04  0.00000000000E+00 0.  1.
          5    1    4    4  502    0  0.10044057900E+03 -0.24979370956E+02  0.10548098418E+02  0.10414236056E+03  0.47000000000E+01 0.  1.
         -5    1    4    4    0  502 -0.17113101767E+02 -0.50164957847E+02  0.53938094098E+02  0.75767996165E+02  0.47000000000E+01 0.  1.
<mgrwt>
<rscale>  0 0.99928982E+03</rscale>
<asrwt>0</asrwt>
<pdfrwt beam="1">  1        2 0.17923180E+00 0.99928982E+03</pdfrwt>
<pdfrwt beam="2">  1       -2 0.32967132E-01 0.99928982E+03</pdfrwt>
<totfact> 0.20573033E+02</totfact>
</mgrwt>
</event>
<event>
 9    1  0.4388925E-036  0.9992851E+03  0.7818608E-02  0.8681719E-01
          1   -1    0    0  501    0  0.00000000000E+00  0.00000000000E+00  0.17236941073E+04  0.17236941073E+04  0.00000000000E+00 0. -1.
         -1   -1    0    0    0  501 -0.00000000000E+00 -0.00000000000E+00 -0.14483004219E+03  0.14483004219E+03  0.00000000000E+00 0. -1.
         36    2    1    2    0    0  0.00000000000E+00  0.00000000000E+00  0.15788640651E+04  0.18685241495E+04  0.99928512505E+03 0.  0.
         25    2    3    3    0    0  0.41276608799E+02  0.13373700733E+03  0.24589857521E+03  0.30913416136E+03  0.12453302720E+03 0.  0.
         35    2    3    3    0    0 -0.41276608799E+02 -0.13373700733E+03  0.13329654899E+04  0.15593899881E+04  0.79706385708E+03 0.  0.
         22    1    5    5    0    0 -0.34988685170E+03 -0.11073390097E+03  0.11329645908E+04  0.11909204717E+04  0.00000000000E+00 0. -1.
         22    1    5    5    0    0  0.30861024290E+03 -0.23003106367E+02  0.20000089909E+03  0.36846951646E+03  0.00000000000E+00 0. -1.
          5    1    4    4  502    0  0.43511341841E+02  0.70687836019E+01  0.17012105611E+02  0.47483747828E+02  0.47000000000E+01 0.  1.
         -5    1    4    4    0  502 -0.22347330420E+01  0.12666822373E+03  0.22888646960E+03  0.26165041353E+03  0.47000000000E+01 0.  1.
<mgrwt>
<rscale>  0 0.99928513E+03</rscale>
<asrwt>0</asrwt>
<pdfrwt beam="1">  1        1 0.26518369E+00 0.99928513E+03</pdfrwt>
<pdfrwt beam="2">  1       -1 0.22281546E-01 0.99928513E+03</pdfrwt>
<totfact> 0.83215711E+01</totfact>
</mgrwt>
</event>
<event>
 9    1  0.4388925E-036  0.1000277E+04  0.7818608E-02  0.8680774E-01
         -1   -1    0    0    0  501 -0.00000000000E+00  0.00000000000E+00  0.12011507977E+03  0.12011507977E+03  0.00000000000E+00 0. -1.
          1   -1    0    0  501    0  0.00000000000E+00 -0.00000000000E+00 -0.20824916472E+04  0.20824916472E+04  0.00000000000E+00 0. -1.
         36    2    1    2    0    0  0.14210854715E-13  0.71054273576E-14 -0.19623765674E+04  0.22026067270E+04  0.10002772622E+04 0.  0.
         25    2    3    3    0    0 -0.20373347182E+02 -0.19998931077E+02 -0.67281060643E+03  0.68498530547E+03  0.12536237898E+03 0.  0.
         35    2    3    3    0    0  0.20373347182E+02  0.19998931077E+02 -0.12895659610E+04  0.15176214215E+04  0.79961201885E+03 0.  0.
         22    1    5    5    0    0  0.21076803305E+03  0.12323988561E+03 -0.12775854091E+04  0.13007058510E+04  0.00000000000E+00 0. -1.
         22    1    5    5    0    0 -0.19039468587E+03 -0.10324095454E+03 -0.11980551851E+02  0.21691557049E+03  0.00000000000E+00 0. -1.
          5    1    4    4  502    0  0.44529152673E+02 -0.37947740387E+02 -0.24840286510E+03  0.25524292317E+03  0.47000000000E+01 0. -1.
         -5    1    4    4    0  502 -0.64902499855E+02  0.17948809309E+02 -0.42440774134E+03  0.42974238231E+03  0.47000000000E+01 0. -1.
<mgrwt>
<rscale>  0 0.10002773E+04</rscale>
<asrwt>0</asrwt>
<pdfrwt beam="1">  1        1 0.32038329E+00 0.10002773E+04</pdfrwt>
<pdfrwt beam="2">  1       -1 0.18479245E-01 0.10002773E+04</pdfrwt>
<totfact> 0.63510977E+01</totfact>
</mgrwt>
</event>
<event>
 9    1  0.4388925E-036  0.9998494E+03  0.7818608E-02  0.8681181E-01
          2   -1    0    0  501    0  0.00000000000E+00  0.00000000000E+00  0.11811405960E+04  0.11811405960E+04  0.00000000000E+00 0. -1.
         -2   -1    0    0    0  501 -0.00000000000E+00 -0.00000000000E+00 -0.21159607832E+03  0.21159607832E+03  0.00000000000E+00 0. -1.
         36    2    1    2    0    0  0.14210854715E-13 -0.14210854715E-13  0.96954451765E+03  0.13927366743E+04  0.99984942476E+03 0.  0.
         25    2    3    3    0    0 -0.62077628995E+02  0.11464009306E+03  0.25230069764E+03  0.30996494159E+03  0.12420402581E+03 0.  0.
         35    2    3    3    0    0  0.62077628995E+02 -0.11464009306E+03  0.71724382002E+03  0.10827717327E+04  0.80059974071E+03 0.  0.
         22    1    5    5    0    0  0.34181147071E+03  0.19237588418E+03  0.29771090470E+03  0.49241785619E+03  0.00000000000E+00 0. -1.
         22    1    5    5    0    0 -0.27973384171E+03 -0.30701597724E+03  0.41953291531E+03  0.59035387651E+03  0.00000000000E+00 0. -1.
          5    1    4    4  502    0 -0.16333719159E+02  0.24666853292E+02 -0.77768964630E+01  0.30948572689E+02  0.47000000000E+01 0.  1.
         -5    1    4    4    0  502 -0.45743909837E+02  0.89973239768E+02  0.26007759410E+03  0.27901636890E+03  0.47000000000E+01 0.  1.
<mgrwt>
<rscale>  0 0.99984942E+03</rscale>
<asrwt>0</asrwt>
<pdfrwt beam="1">  1        2 0.18171393E+00 0.99984942E+03</pdfrwt>
<pdfrwt beam="2">  1       -2 0.32553243E-01 0.99984942E+03</pdfrwt>
<totfact> 0.20598142E+02</totfact>
</mgrwt>
</event>
<event>
 9    1  0.4388925E-036  0.1000331E+04  0.7818608E-02  0.8680723E-01
         -2   -1    0    0    0  501 -0.00000000000E+00  0.00000000000E+00  0.29156086719E+03  0.29156086719E+03  0.00000000000E+00 0. -1.
          2   -1    0    0  501    0  0.00000000000E+00 -0.00000000000E+00 -0.85802094328E+03  0.85802094328E+03  0.00000000000E+00 0. -1.
         36    2    1    2    0    0  0.14210854715E-13  0.42632564146E-13 -0.56646007608E+03  0.11495818105E+04  0.10003306059E+04 0.  0.
         25    2    3    3    0    0  0.11317461963E+03 -0.24491803335E+02 -0.26581581050E+02  0.17570758430E+03  0.12945358924E+03 0.  0.
         35    2    3    3    0    0 -0.11317461963E+03  0.24491803335E+02 -0.53987849503E+03  0.97387422617E+03  0.80221809755E+03 0.  0.
         22    1    5    5    0    0 -0.18671120290E+03  0.35182711368E+03 -0.82685481351E+02  0.40679267451E+03  0.00000000000E+00 0. -1.
         22    1    5    5    0    0  0.73536583265E+02 -0.32733531034E+03 -0.45719301368E+03  0.56708155166E+03  0.00000000000E+00 0. -1.
          5    1    4    4  502    0 -0.13510200799E+02 -0.36610298906E+02  0.14500895489E+02  0.41895172533E+02  0.47000000000E+01 0. -1.
         -5    1    4    4    0  502  0.12668482043E+03  0.12118495571E+02 -0.41082476538E+02  0.13381241176E+03  0.47000000000E+01 0. -1.
<mgrwt>
<rscale>  0 0.10003306E+04</rscale>
<asrwt>0</asrwt>
<pdfrwt beam="1">  1        2 0.13200322E+00 0.10003306E+04</pdfrwt>
<pdfrwt beam="2">  1       -2 0.44855518E-01 0.10003306E+04</pdfrwt>
<totfact> 0.17871256E+02</totfact>
</mgrwt>
</event>
<event>
 9    1  0.4388925E-036  0.9998194E+03  0.7818608E-02  0.8681210E-01
          1   -1    0    0  501    0  0.00000000000E+00  0.00000000000E+00  0.30058751313E+03  0.30058751313E+03  0.00000000000E+00 0. -1.
         -1   -1    0    0    0  501 -0.00000000000E+00 -0.00000000000E+00 -0.83140411617E+03  0.83140411617E+03  0.00000000000E+00 0. -1.
         36    2    1    2    0    0  0.14210854715E-13 -0.14210854715E-13 -0.53081660304E+03  0.11319916293E+04  0.99981937505E+03 0.  0.
         25    2    3    3    0    0  0.70049268704E+02  0.85059493866E+02 -0.18569958254E+03  0.25039261342E+03  0.12676793111E+03 0.  0.
         35    2    3    3    0    0 -0.70049268704E+02 -0.85059493866E+02 -0.34511702050E+03  0.88159901588E+03  0.80372199759E+03 0.  0.
         22    1    5    5    0    0 -0.27269020231E+03 -0.19243121808E+03 -0.50265858254E+03  0.60337001146E+03  0.00000000000E+00 0.  1.
         22    1    5    5    0    0  0.20264093360E+03  0.10737172421E+03  0.15754156204E+03  0.27822900442E+03  0.00000000000E+00 0.  1.
          5    1    4    4  502    0  0.59190337890E+01  0.90385646921E+02 -0.58977446064E+02  0.10818978360E+03  0.47000000000E+01 0.  1.
         -5    1    4    4    0  502  0.64130234915E+02 -0.53261530553E+01 -0.12672213648E+03  0.14220282982E+03  0.47000000000E+01 0.  1.
<mgrwt>
<rscale>  0 0.99981938E+03</rscale>
<asrwt>0</asrwt>
<pdfrwt beam="1">  1        1 0.46244233E-01 0.99981938E+03</pdfrwt>
<pdfrwt beam="2">  1       -1 0.12790833E+00 0.99981938E+03</pdfrwt>
<totfact> 0.55390345E+01</totfact>
</mgrwt>
</event>
<event>
 9    1  0.4388925E-036  0.1000314E+04  0.7818608E-02  0.8680739E-01
         -1   -1    0    0    0  501 -0.00000000000E+00  0.00000000000E+00  0.18162250927E+03  0.18162250927E+03  0.00000000000E+00 0. -1.
          1   -1    0    0  501    0  0.00000000000E+00 -0.00000000000E+00 -0.13773467776E+04  0.13773467776E+04  0.00000000000E+00 0. -1.
         36    2    1    2    0    0  0.00000000000E+00 -0.28421709430E-13 -0.11957242683E+04  0.15589692869E+04  0.10003143064E+04 0.  0.
         25    2    3    3    0    0 -0.89307071578E+01 -0.99956530069E+02 -0.37249670266E+03  0.40569340374E+03  0.12554791483E+03 0.  0.
         35    2    3    3    0    0  0.89307071578E+01  0.99956530069E+02 -0.82322756566E+03  0.11532758831E+04  0.80141785123E+03 0.  0.
         22    1    5    5    0    0 -0.33201697004E+02  0.33767555325E+03 -0.49670300224E+02  0.34292021035E+03  0.00000000000E+00 0.  1.
         22    1    5    5    0    0  0.42132404162E+02 -0.23771902318E+03 -0.77355726543E+03  0.81035567276E+03  0.00000000000E+00 0.  1.
          5    1    4    4  502    0 -0.57117082645E+02 -0.80706068985E+02 -0.17112763113E+03  0.19769316336E+03  0.47000000000E+01 0.  1.
         -5    1    4    4    0  502  0.48186375487E+02 -0.19250461084E+02 -0.20136907152E+03  0.20800024039E+03  0.47000000000E+01 0.  1.
<mgrwt>
<rscale>  0 0.10003143E+04</rscale>
<asrwt>0</asrwt>
<pdfrwt beam="1">  1        1 0.21189951E+00 0.10003143E+04</pdfrwt>
<pdfrwt beam="2">  1       -1 0.27941924E-01 0.10003143E+04</pdfrwt>
<totfact> 0.10026760E+02</totfact>
</mgrwt>
</event>
<event>
 9    1  0.4388925E-036  0.1000247E+04  0.7818608E-02  0.8680803E-01
         -2   -1    0    0    0  501 -0.00000000000E+00  0.00000000000E+00  0.20116546251E+03  0.20116546251E+03  0.00000000000E+00 0. -1.
          2   -1    0    0  501    0  0.00000000000E+00 -0.00000000000E+00 -0.12433717244E+04  0.12433717244E+04  0.00000000000E+00 0. -1.
         36    2    1    2    0    0 -0.71054273576E-14 -0.56843418861E-13 -0.10422062618E+04  0.14445371869E+04  0.10002468655E+04 0.  0.
         25    2    3    3    0    0 -0.32280924568E+02 -0.14367315113E+03 -0.20135723068E+03  0.27469532524E+03  0.11501632455E+03 0.  0.
         35    2    3    3    0    0  0.32280924568E+02  0.14367315113E+03 -0.84084903117E+03  0.11698418616E+04  0.79988677671E+03 0.  0.
         22    1    5    5    0    0 -0.54239625536E+01 -0.10627071849E+03  0.12921270029E+03  0.16738819222E+03  0.00000000000E+00 0.  1.
         22    1    5    5    0    0  0.37704887122E+02  0.24994386963E+03 -0.97006173146E+03  0.10024536694E+04  0.00000000000E+00 0.  1.
          5    1    4    4  502    0 -0.32188370817E+02 -0.36453915443E+02 -0.14595783392E+03  0.15391802510E+03  0.47000000000E+01 0. -1.
         -5    1    4    4    0  502 -0.92553750538E-01 -0.10721923569E+03 -0.55399396756E+02  0.12077730014E+03  0.47000000000E+01 0. -1.
<mgrwt>
<rscale>  0 0.10002469E+04</rscale>
<asrwt>0</asrwt>
<pdfrwt beam="1">  1        2 0.19128796E+00 0.10002469E+04</pdfrwt>
<pdfrwt beam="2">  1       -2 0.30948533E-01 0.10002469E+04</pdfrwt>
<totfact> 0.20772069E+02</totfact>
</mgrwt>
</event>
<event>
 9    1  0.4388925E-036  0.9996000E+03  0.7818608E-02  0.8681419E-01
          2   -1    0    0  501    0  0.00000000000E+00  0.00000000000E+00  0.28925074795E+04  0.28925074795E+04  0.00000000000E+00 0.  1.
         -2   -1    0    0    0  501 -0.00000000000E+00 -0.00000000000E+00 -0.86361075687E+02  0.86361075687E+02  0.00000000000E+00 0.  1.
         36    2    1    2    0    0 -0.21316282073E-13  0.00000000000E+00  0.28061464038E+04  0.29788685552E+04  0.99960003474E+03 0.  0.
         25    2    3    3    0    0 -0.23215814289E+00 -0.83842116377E+00  0.10533967171E+03  0.16234897637E+03  0.12353131928E+03 0.  0.
         35    2    3    3    0    0  0.23215814289E+00  0.83842116377E+00  0.27008067321E+04  0.28165195788E+04  0.79901487899E+03 0.  0.
         22    1    5    5    0    0 -0.30133945538E+03  0.23364829020E+03  0.92889208130E+03  0.10041102975E+04  0.00000000000E+00 0. -1.
         22    1    5    5    0    0  0.30157161353E+03 -0.23280986904E+03  0.17719146508E+04  0.18124092813E+04  0.00000000000E+00 0. -1.
          5    1    4    4  502    0 -0.21151336344E+02  0.56770551477E+02  0.40627017202E+02  0.73095273930E+02  0.47000000000E+01 0.  1.
         -5    1    4    4    0  502  0.20919178201E+02 -0.57608972641E+02  0.64712654506E+02  0.89253702437E+02  0.47000000000E+01 0.  1.
<mgrwt>
<rscale>  0 0.99960003E+03</rscale>
<asrwt>0</asrwt>
<pdfrwt beam="1">  1        2 0.44500108E+00 0.99960003E+03</pdfrwt>
<pdfrwt beam="2">  1       -2 0.13286322E-01 0.99960003E+03</pdfrwt>
<totfact> 0.96471171E+01</totfact>
</mgrwt>
</event>
<event>
 9    1  0.4388925E-036  0.1000242E+04  0.7818608E-02  0.8680808E-01
          2   -1    0    0  501    0  0.00000000000E+00  0.00000000000E+00  0.91538992483E+03  0.91538992483E+03  0.00000000000E+00 0.  1.
         -2   -1    0    0    0  501 -0.00000000000E+00 -0.00000000000E+00 -0.27323962674E+03  0.27323962674E+03  0.00000000000E+00 0.  1.
         36    2    1    2    0    0  0.35527136788E-14  0.28421709430E-13  0.64215029808E+03  0.11886295516E+04  0.10002415736E+04 0.  0.
         25    2    3    3    0    0  0.28984983196E+02 -0.57408324424E+02 -0.27137033290E+02  0.14360818931E+03  0.12550318123E+03 0.  0.
         35    2    3    3    0    0 -0.28984983196E+02  0.57408324424E+02  0.66928733137E+03  0.10450213623E+04  0.79999266914E+03 0.  0.
         22    1    5    5    0    0  0.15641405789E+03  0.35322407571E+03  0.55785971789E+03  0.67855734467E+03  0.00000000000E+00 0. -1.
         22    1    5    5    0    0 -0.18539904108E+03 -0.29581575128E+03  0.11142761349E+03  0.36646401759E+03  0.00000000000E+00 0. -1.
          5    1    4    4  502    0 -0.15074747667E+01 -0.25599299268E+02 -0.74390822625E+02  0.78826905902E+02  0.47000000000E+01 0.  1.
         -5    1    4    4    0  502  0.30492457963E+02 -0.31809025156E+02  0.47253789335E+02  0.64781283412E+02  0.47000000000E+01 0.  1.
<mgrwt>
<rscale>  0 0.10002416E+04</rscale>
<asrwt>0</asrwt>
<pdfrwt beam="1">  1        2 0.14082922E+00 0.10002416E+04</pdfrwt>
<pdfrwt beam="2">  1       -2 0.42036866E-01 0.10002416E+04</pdfrwt>
<totfact> 0.18573195E+02</totfact>
</mgrwt>
</event>
<event>
 9    1  0.4388925E-036  0.1000169E+04  0.7818608E-02  0.8680877E-01
         -2   -1    0    0    0  501 -0.00000000000E+00  0.00000000000E+00  0.11044393411E+03  0.11044393411E+03  0.00000000000E+00 0.  1.
          2   -1    0    0  501    0  0.00000000000E+00 -0.00000000000E+00 -0.22643573767E+04  0.22643573767E+04  0.00000000000E+00 0.  1.
         36    2    1    2    0    0  0.00000000000E+00 -0.14210854715E-13 -0.21539134426E+04  0.23748013108E+04  0.10001690595E+04 0.  0.
         25    2    3    3    0    0 -0.11481321204E+03 -0.70646452546E+02 -0.48702004503E+03  0.52153158916E+03  0.12897162212E+03 0.  0.
         35    2    3    3    0    0  0.11481321204E+03  0.70646452546E+02 -0.16668933976E+04  0.18532697217E+04  0.79868771583E+03 0.  0.
         22    1    5    5    0    0  0.15473135148E+03 -0.18917437415E+03 -0.99314476868E+02  0.26380314683E+03  0.00000000000E+00 0. -1.
         22    1    5    5    0    0 -0.39918139436E+02  0.25982082669E+03 -0.15675789207E+04  0.15894665748E+04  0.00000000000E+00 0. -1.
          5    1    4    4  502    0 -0.13258309842E+03 -0.75716296198E+02 -0.33333410851E+03  0.36666736068E+03  0.47000000000E+01 0.  1.
         -5    1    4    4    0  502  0.17769886376E+02  0.50698436516E+01 -0.15368593652E+03  0.15486422847E+03  0.47000000000E+01 0.  1.
<mgrwt>
<rscale>  0 0.10001691E+04</rscale>
<asrwt>0</asrwt>
<pdfrwt beam="1">  1        2 0.34836265E+00 0.10001691E+04</pdfrwt>
<pdfrwt beam="2">  1       -2 0.16991376E-01 0.10001691E+04</pdfrwt>
<totfact> 0.15600482E+02</totfact>
</mgrwt>
</event>
<event>
 9    1  0.4388925E-036  0.9985393E+03  0.7818608E-02  0.8682430E-01
         -2   -1    0    0    0  501 -0.00000000000E+00  0.00000000000E+00  0.26713577430E+03  0.26713577430E+03  0.00000000000E+00 0. -1.
          2   -1    0    0  501    0  0.00000000000E+00 -0.00000000000E+00 -0.93312159374E+03  0.93312159374E+03  0.00000000000E+00 0. -1.
         36    2    1    2    0    0  0.00000000000E+00  0.71054273576E-14 -0.66598581945E+03  0.12002573680E+04  0.99853925202E+03 0.  0.
         25    2    3    3    0    0 -0.13082228516E+03  0.51579111748E+02 -0.12101112315E+03  0.22236228003E+03  0.12258228498E+03 0.  0.
         35    2    3    3    0    0  0.13082228516E+03 -0.51579111748E+02 -0.54497469630E+03  0.97789508801E+03  0.79969150832E+03 0.  0.
         22    1    5    5    0    0 -0.90758917871E+02  0.26018026085E+02 -0.69362194345E+03  0.70001822783E+03  0.00000000000E+00 0.  1.
         22    1    5    5    0    0  0.22158120303E+03 -0.77597137833E+02  0.14864724715E+03  0.27787686018E+03  0.00000000000E+00 0.  1.
          5    1    4    4  502    0 -0.60477557010E+02  0.63305093456E+02 -0.72004000318E+01  0.87971617696E+02  0.47000000000E+01 0.  1.
         -5    1    4    4    0  502 -0.70344728152E+02 -0.11725981708E+02 -0.11381072312E+03  0.13439066233E+03  0.47000000000E+01 0.  1.
<mgrwt>
<rscale>  0 0.99853925E+03</rscale>
<asrwt>0</asrwt>
<pdfrwt beam="1">  1        2 0.14355717E+00 0.99853925E+03</pdfrwt>
<pdfrwt beam="2">  1       -2 0.41097811E-01 0.99853925E+03</pdfrwt>
<totfact> 0.18892087E+02</totfact>
</mgrwt>
</event>
<event>
 9    1  0.4388925E-036  0.1000349E+04  0.7818608E-02  0.8680705E-01
          1   -1    0    0  501    0  0.00000000000E+00  0.00000000000E+00  0.23219101051E+03  0.23219101051E+03  0.00000000000E+00 0.  1.
         -1   -1    0    0    0  501 -0.00000000000E+00 -0.00000000000E+00 -0.10774518363E+04  0.10774518363E+04  0.00000000000E+00 0.  1.
         36    2    1    2    0    0 -0.14210854715E-13  0.00000000000E+00 -0.84526082579E+03  0.13096428468E+04  0.10003492003E+04 0.  0.
         25    2    3    3    0    0 -0.43042001087E+02 -0.13194559957E+03 -0.15305203892E+03  0.24193059178E+03  0.12586989122E+03 0.  0.
         35    2    3    3    0    0  0.43042001087E+02  0.13194559957E+03 -0.69220878687E+03  0.10677122550E+04  0.80099575518E+03 0.  0.
         22    1    5    5    0    0  0.16303640902E+03  0.27439065465E+03 -0.79379482189E+03  0.85555906943E+03  0.00000000000E+00 0. -1.
         22    1    5    5    0    0 -0.11999440793E+03 -0.14244505508E+03  0.10158603502E+03  0.21215318561E+03  0.00000000000E+00 0. -1.
          5    1    4    4  502    0 -0.52574168769E+01  0.16239619432E+01 -0.88459340387E+02  0.88754845424E+02  0.47000000000E+01 0. -1.
         -5    1    4    4    0  502 -0.37784584210E+02 -0.13356956151E+03 -0.64592698537E+02  0.15317574635E+03  0.47000000000E+01 0. -1.
<mgrwt>
<rscale>  0 0.10003492E+04</rscale>
<asrwt>0</asrwt>
<pdfrwt beam="1">  1        1 0.35721694E-01 0.10003492E+04</pdfrwt>
<pdfrwt beam="2">  1       -1 0.16576182E+00 0.10003492E+04</pdfrwt>
<totfact> 0.37017516E+01</totfact>
</mgrwt>
</event>
<event>
 9    1  0.4388925E-036  0.9996004E+03  0.7818608E-02  0.8681419E-01
          2   -1    0    0  501    0  0.00000000000E+00  0.00000000000E+00  0.55594713065E+03  0.55594713065E+03  0.00000000000E+00 0. -1.
         -2   -1    0    0    0  501 -0.00000000000E+00 -0.00000000000E+00 -0.44932374167E+03  0.44932374167E+03  0.00000000000E+00 0. -1.
         36    2    1    2    0    0  0.14210854715E-13  0.10658141036E-13  0.10662338898E+03  0.10052708723E+04  0.99960040999E+03 0.  0.
         25    2    3    3    0    0  0.69063785541E+02  0.62604321170E+01 -0.10188104940E+03  0.17573184222E+03  0.12527143593E+03 0.  0.
         35    2    3    3    0    0 -0.69063785541E+02 -0.62604321170E+01  0.20850443838E+03  0.82953903010E+03  0.79990743349E+03 0.  0.
         22    1    5    5    0    0 -0.25109933047E+03  0.33255949361E+03  0.13434843766E+03  0.43783123833E+03  0.00000000000E+00 0.  1.
         22    1    5    5    0    0  0.18203554493E+03 -0.33881992573E+03  0.74156000723E+02  0.39170779177E+03  0.00000000000E+00 0.  1.
          5    1    4    4  502    0  0.31700619629E+02  0.24065359381E+02  0.21520551622E+02  0.45489503725E+02  0.47000000000E+01 0. -1.
         -5    1    4    4    0  502  0.37363165912E+02 -0.17804927264E+02 -0.12340160102E+03  0.13024233849E+03  0.47000000000E+01 0. -1.
<mgrwt>
<rscale>  0 0.99960041E+03</rscale>
<asrwt>0</asrwt>
<pdfrwt beam="1">  1        2 0.85530328E-01 0.99960041E+03</pdfrwt>
<pdfrwt beam="2">  1       -2 0.69126730E-01 0.99960041E+03</pdfrwt>
<totfact> 0.12561213E+02</totfact>
</mgrwt>
</event>
<event>
 9    1  0.4388925E-036  0.9995322E+03  0.7818608E-02  0.8681484E-01
         -2   -1    0    0    0  501 -0.00000000000E+00  0.00000000000E+00  0.45783400832E+03  0.45783400832E+03  0.00000000000E+00 0.  1.
          2   -1    0    0  501    0  0.00000000000E+00 -0.00000000000E+00 -0.54553864241E+03  0.54553864241E+03  0.00000000000E+00 0.  1.
         36    2    1    2    0    0 -0.28421709430E-13  0.00000000000E+00 -0.87704634084E+02  0.10033726507E+04  0.99953217727E+03 0.  0.
         25    2    3    3    0    0 -0.47249454358E+02  0.23659333539E+02  0.11464386707E+03  0.17789149488E+03  0.12533911079E+03 0.  0.
         35    2    3    3    0    0  0.47249454358E+02 -0.23659333539E+02 -0.20234850116E+03  0.82548115585E+03  0.79854990310E+03 0.  0.
         22    1    5    5    0    0  0.31030447124E+03  0.37874981409E+02  0.17740399964E+03  0.35943783632E+03  0.00000000000E+00 0. -1.
         22    1    5    5    0    0 -0.26305501688E+03 -0.61534314948E+02 -0.37975250079E+03  0.46604331953E+03  0.00000000000E+00 0. -1.
          5    1    4    4  502    0 -0.14121522126E+01 -0.37930765918E+00 -0.26775846638E+02  0.27224511223E+02  0.47000000000E+01 0.  1.
         -5    1    4    4    0  502 -0.45837302145E+02  0.24038641198E+02  0.14141971371E+03  0.15066698366E+03  0.47000000000E+01 0.  1.
<mgrwt>
<rscale>  0 0.99953218E+03</rscale>
<asrwt>0</asrwt>
<pdfrwt beam="1">  1        2 0.83929022E-01 0.99953218E+03</pdfrwt>
<pdfrwt beam="2">  1       -2 0.70436001E-01 0.99953218E+03</pdfrwt>
<totfact> 0.12328345E+02</totfact>
</mgrwt>
</event>
<event>
 9    1  0.4388925E-036  0.9984491E+03  0.7818608E-02  0.8682516E-01
         -2   -1    0    0    0  501 -0.00000000000E+00  0.00000000000E+00  0.13694251230E+04  0.13694251230E+04  0.00000000000E+00 0.  1.
          2   -1    0    0  501    0  0.00000000000E+00 -0.00000000000E+00 -0.18199253089E+03  0.18199253089E+03  0.00000000000E+00 0.  1.
         36    2    1    2    0    0  0.71054273576E-13  0.00000000000E+00  0.11874325921E+04  0.15514176539E+04  0.99844908534E+03 0.  0.
         25    2    3    3    0    0  0.11942674085E+03  0.65412286528E+02  0.18073611945E+03  0.25829767011E+03  0.12454167114E+03 0.  0.
         35    2    3    3    0    0 -0.11942674085E+03 -0.65412286528E+02  0.10066964727E+04  0.12931199838E+04  0.80011248631E+03 0.  0.
         22    1    5    5    0    0  0.26534695767E+03  0.20589129388E+03  0.34982460829E+03  0.48495101753E+03  0.00000000000E+00 0.  1.
         22    1    5    5    0    0 -0.38477369852E+03 -0.27130358041E+03  0.65687186437E+03  0.80816896626E+03  0.00000000000E+00 0.  1.
          5    1    4    4  502    0  0.60882803794E+02 -0.15655262288E+02  0.13343854945E+03  0.14757960399E+03  0.47000000000E+01 0.  1.
         -5    1    4    4    0  502  0.58543937058E+02  0.81067548816E+02  0.47297570000E+02  0.11071806612E+03  0.47000000000E+01 0.  1.
<mgrwt>
<rscale>  0 0.99844909E+03</rscale>
<asrwt>0</asrwt>
<pdfrwt beam="1">  1        2 0.27998852E-01 0.99844909E+03</pdfrwt>
<pdfrwt beam="2">  1       -2 0.21068078E+00 0.99844909E+03</pdfrwt>
<totfact> 0.23651439E+01</totfact>
</mgrwt>
</event>
<event>
 9    1  0.4388925E-036  0.9996632E+03  0.7818608E-02  0.8681359E-01
          1   -1    0    0  501    0  0.00000000000E+00  0.00000000000E+00  0.65677449045E+03  0.65677449045E+03  0.00000000000E+00 0.  1.
         -1   -1    0    0    0  501 -0.00000000000E+00 -0.00000000000E+00 -0.38039179776E+03  0.38039179776E+03  0.00000000000E+00 0.  1.
         36    2    1    2    0    0  0.14210854715E-13  0.28421709430E-13  0.27638269269E+03  0.10371662882E+04  0.99966320157E+03 0.  0.
         25    2    3    3    0    0 -0.48457286300E+02  0.12823472918E+03  0.90940676882E+02  0.20650297290E+03  0.12482394298E+03 0.  0.
         35    2    3    3    0    0  0.48457286300E+02 -0.12823472918E+03  0.18544201581E+03  0.83066331531E+03  0.79801036824E+03 0.  0.
         22    1    5    5    0    0 -0.73889564131E+02  0.11419504934E+03 -0.26890688488E+03  0.30134878417E+03  0.00000000000E+00 0.  1.
         22    1    5    5    0    0  0.12234685043E+03 -0.24242977852E+03  0.45434890069E+03  0.52931453115E+03  0.00000000000E+00 0.  1.
          5    1    4    4  502    0  0.41722170590E+02  0.43312127228E+02  0.40587540836E+02  0.72705696853E+02  0.47000000000E+01 0.  1.
         -5    1    4    4    0  502 -0.90179456889E+02  0.84922601954E+02  0.50353136046E+02  0.13379727605E+03  0.47000000000E+01 0.  1.
<mgrwt>
<rscale>  0 0.99966320E+03</rscale>
<asrwt>0</asrwt>
<pdfrwt beam="1">  1        1 0.10104223E+00 0.99966320E+03</pdfrwt>
<pdfrwt beam="2">  1       -1 0.58521815E-01 0.99966320E+03</pdfrwt>
<totfact> 0.10253736E+02</totfact>
</mgrwt>
</event>
<event>
 9    1  0.4388925E-036  0.9998091E+03  0.7818608E-02  0.8681220E-01
         -2   -1    0    0    0  501 -0.00000000000E+00  0.00000000000E+00  0.18070831479E+03  0.18070831479E+03  0.00000000000E+00 0.  1.
          2   -1    0    0  501    0  0.00000000000E+00 -0.00000000000E+00 -0.13829168251E+04  0.13829168251E+04  0.00000000000E+00 0.  1.
         36    2    1    2    0    0 -0.28421709430E-13 -0.10658141036E-13 -0.12022085103E+04  0.15636251398E+04  0.99980911969E+03 0.  0.
         25    2    3    3    0    0  0.13547975898E+03 -0.30053001002E+01 -0.24249360400E+03  0.30474572329E+03  0.12531165532E+03 0.  0.
         35    2    3    3    0    0 -0.13547975898E+03  0.30053001002E+01 -0.95971490626E+03  0.12588794166E+04  0.80334356735E+03 0.  0.
         22    1    5    5    0    0 -0.42900111604E+03  0.11302645797E+03 -0.78057454001E+03  0.89783826510E+03  0.00000000000E+00 0. -1.
         22    1    5    5    0    0  0.29352135705E+03 -0.11002115787E+03 -0.17914036625E+03  0.36104115146E+03  0.00000000000E+00 0. -1.
          5    1    4    4  502    0  0.16812489581E+02  0.69974602294E+01 -0.15687648944E+03  0.15799983290E+03  0.47000000000E+01 0.  1.
         -5    1    4    4    0  502  0.11866726940E+03 -0.10002760330E+02 -0.85617114560E+02  0.14674589039E+03  0.47000000000E+01 0.  1.
<mgrwt>
<rscale>  0 0.99980912E+03</rscale>
<asrwt>0</asrwt>
<pdfrwt beam="1">  1        2 0.21275644E+00 0.99980912E+03</pdfrwt>
<pdfrwt beam="2">  1       -2 0.27801278E-01 0.99980912E+03</pdfrwt>
<totfact> 0.20956717E+02</totfact>
</mgrwt>
</event>
<event>
 9    1  0.4388925E-036  0.1000224E+04  0.7818608E-02  0.8680824E-01
         -1   -1    0    0    0  501 -0.00000000000E+00  0.00000000000E+00  0.20200085197E+03  0.20200085197E+03  0.00000000000E+00 0. -1.
          1   -1    0    0  501    0  0.00000000000E+00 -0.00000000000E+00 -0.12381737589E+04  0.12381737589E+04  0.00000000000E+00 0. -1.
         36    2    1    2    0    0 -0.31974423109E-13  0.28421709430E-13 -0.10361729070E+04  0.14401746109E+04  0.10002242832E+04 0.  0.
         25    2    3    3    0    0  0.87783026739E+01 -0.95703499403E+02 -0.35623538517E+02  0.16167045314E+03  0.12502831890E+03 0.  0.
         35    2    3    3    0    0 -0.87783026739E+01  0.95703499403E+02 -0.10005493685E+04  0.12785041578E+04  0.79008709920E+03 0.  0.
         22    1    5    5    0    0 -0.28722434576E+03  0.32495193916E+03 -0.58565719546E+03  0.72875643267E+03  0.00000000000E+00 0.  1.
         22    1    5    5    0    0  0.27844604309E+03 -0.22924843975E+03 -0.41489217299E+03  0.54974772510E+03  0.00000000000E+00 0.  1.
          5    1    4    4  502    0 -0.49132972676E+01 -0.12424695323E+03 -0.19906476635E+02  0.12601509310E+03  0.47000000000E+01 0. -1.
         -5    1    4    4    0  502  0.13691599942E+02  0.28543453830E+02 -0.15717061882E+02  0.35655360042E+02  0.47000000000E+01 0. -1.
<mgrwt>
<rscale>  0 0.10002243E+04</rscale>
<asrwt>0</asrwt>
<pdfrwt beam="1">  1        1 0.19048827E+00 0.10002243E+04</pdfrwt>
<pdfrwt beam="2">  1       -1 0.31077054E-01 0.10002243E+04</pdfrwt>
<totfact> 0.10564996E+02</totfact>
</mgrwt>
</event>
<event>
 9    1  0.4388925E-036  0.1000156E+04  0.7818608E-02  0.8680890E-01
         -4   -1    0    0    0  501 -0.00000000000E+00  0.00000000000E+00  0.57556640822E+03  0.57556640822E+03  0.00000000000E+00 0.  1.
          4   -1    0    0  501    0  0.00000000000E+00 -0.00000000000E+00 -0.43449014036E+03  0.43449014036E+03  0.00000000000E+00 0.  1.
         36    2    1    2    0    0  0.14210854715E-13  0.14210854715E-13  0.14107626786E+03  0.10100565486E+04  0.10001558468E+04 0.  0.
         25    2    3    3    0    0 -0.10759522290E+03 -0.84014460615E+02  0.39414272579E+02  0.18884841709E+03  0.12439886724E+03 0.  0.
         35    2    3    3    0    0  0.10759522290E+03  0.84014460615E+02  0.10166199529E+03  0.82120813148E+03  0.80337567324E+03 0.  0.
         22    1    5    5    0    0  0.36549121430E+03  0.19596845301E+03  0.26872804989E+03  0.49416821741E+03  0.00000000000E+00 0.  1.
         22    1    5    5    0    0 -0.25789599140E+03 -0.11195399239E+03 -0.16706605460E+03  0.32703991407E+03  0.00000000000E+00 0.  1.
          5    1    4    4  502    0  0.95460453147E+01  0.13353522897E+02  0.32001667057E+02  0.36271755532E+02  0.47000000000E+01 0.  1.
         -5    1    4    4    0  502 -0.11714126821E+03 -0.97367983512E+02  0.74126055215E+01  0.15257666156E+03  0.47000000000E+01 0.  1.
<mgrwt>
<rscale>  0 0.10001558E+04</rscale>
<asrwt>0</asrwt>
<pdfrwt beam="1">  1        4 0.66844637E-01 0.10001558E+04</pdfrwt>
<pdfrwt beam="2">  1       -4 0.88548678E-01 0.10001558E+04</pdfrwt>
<totfact> 0.51909128E+00</totfact>
</mgrwt>
</event>
<event>
 9    1  0.4388925E-036  0.9995883E+03  0.7818608E-02  0.8681430E-01
          2   -1    0    0  501    0  0.00000000000E+00  0.00000000000E+00  0.16404793806E+04  0.16404793806E+04  0.00000000000E+00 0.  1.
         -2   -1    0    0    0  501 -0.00000000000E+00 -0.00000000000E+00 -0.15226901717E+03  0.15226901717E+03  0.00000000000E+00 0.  1.
         36    2    1    2    0    0 -0.14210854715E-13 -0.14210854715E-13  0.14882103635E+04  0.17927483978E+04  0.99958828120E+03 0.  0.
         25    2    3    3    0    0  0.54570240254E+02  0.75129041472E+02  0.10510358952E+03  0.18875161654E+03  0.12632546941E+03 0.  0.
         35    2    3    3    0    0 -0.54570240254E+02 -0.75129041472E+02  0.13831067739E+04  0.16039967813E+04  0.80696904662E+03 0.  0.
         22    1    5    5    0    0  0.32494638387E+03  0.67591678231E+02  0.96975101415E+03  0.10249760079E+04  0.00000000000E+00 0.  1.
         22    1    5    5    0    0 -0.37951662413E+03 -0.14272071970E+03  0.41335575979E+03  0.57902077335E+03  0.00000000000E+00 0.  1.
          5    1    4    4  502    0  0.84949490295E+02  0.11167311298E+02  0.56652060896E+02  0.10282349317E+03  0.47000000000E+01 0.  1.
         -5    1    4    4    0  502 -0.30379250041E+02  0.63961730175E+02  0.48451528628E+02  0.85928123373E+02  0.47000000000E+01 0.  1.
<mgrwt>
<rscale>  0 0.99958828E+03</rscale>
<asrwt>0</asrwt>
<pdfrwt beam="1">  1        2 0.25238143E+00 0.99958828E+03</pdfrwt>
<pdfrwt beam="2">  1       -2 0.23426004E-01 0.99958828E+03</pdfrwt>
<totfact> 0.20311458E+02</totfact>
</mgrwt>
</event>
<event>
 9    1  0.4388925E-036  0.9997259E+03  0.7818608E-02  0.8681299E-01
         -2   -1    0    0    0  501 -0.00000000000E+00  0.00000000000E+00  0.12576442604E+03  0.12576442604E+03  0.00000000000E+00 0. -1.
          2   -1    0    0  501    0  0.00000000000E+00 -0.00000000000E+00 -0.19867538558E+04  0.19867538558E+04  0.00000000000E+00 0. -1.
         36    2    1    2    0    0  0.00000000000E+00 -0.71054273576E-14 -0.18609894298E+04  0.21125182819E+04  0.99972587916E+03 0.  0.
         25    2    3    3    0    0 -0.38476748373E+02 -0.18746199770E+02 -0.66180059263E+02  0.14729891953E+03  0.12443991032E+03 0.  0.
         35    2    3    3    0    0  0.38476748373E+02  0.18746199770E+02 -0.17948093705E+04  0.19652193623E+04  0.79932132801E+03 0.  0.
         22    1    5    5    0    0 -0.13218425885E+03  0.21926790292E+03 -0.14441226294E+03  0.29394896365E+03  0.00000000000E+00 0. -1.
         22    1    5    5    0    0  0.17066100723E+03 -0.20052170315E+03 -0.16503971076E+04  0.16712703987E+04  0.00000000000E+00 0. -1.
          5    1    4    4  502    0 -0.89639904716E+01  0.30685196431E+02 -0.81388210946E+02  0.87567489893E+02  0.47000000000E+01 0.  1.
         -5    1    4    4    0  502 -0.29512757901E+02 -0.49431396202E+02  0.15208151683E+02  0.59731429641E+02  0.47000000000E+01 0.  1.
<mgrwt>
<rscale>  0 0.99972588E+03</rscale>
<asrwt>0</asrwt>
<pdfrwt beam="1">  1        2 0.30565442E+00 0.99972588E+03</pdfrwt>
<pdfrwt beam="2">  1       -2 0.19348374E-01 0.99972588E+03</pdfrwt>
<totfact> 0.18061227E+02</totfact>
</mgrwt>
</event>
<event>
 9    1  0.4388925E-036  0.9993584E+03  0.7818608E-02  0.8681649E-01
         -1   -1    0    0    0  501 -0.00000000000E+00  0.00000000000E+00  0.12829284204E+03  0.12829284204E+03  0.00000000000E+00 0. -1.
          1   -1    0    0  501    0  0.00000000000E+00 -0.00000000000E+00 -0.19461670989E+04  0.19461670989E+04  0.00000000000E+00 0. -1.
         36    2    1    2    0    0  0.14210854715E-13  0.00000000000E+00 -0.18178742568E+04  0.20744599409E+04  0.99935841060E+03 0.  0.
         25    2    3    3    0    0  0.87503315445E+02 -0.45602480358E+02 -0.54912619938E+03  0.57154814329E+03  0.12406160093E+03 0.  0.
         35    2    3    3    0    0 -0.87503315445E+02  0.45602480358E+02 -0.12687480575E+04  0.15029117976E+04  0.79955351400E+03 0.  0.
         22    1    5    5    0    0 -0.14951060560E+03  0.14590250939E+03  0.19008837392E+02  0.20976725038E+03  0.00000000000E+00 0.  1.
         22    1    5    5    0    0  0.62007290156E+02 -0.10030002903E+03 -0.12877568949E+04  0.12931445473E+04  0.00000000000E+00 0.  1.
          5    1    4    4  502    0  0.14950553184E+02  0.41851924438E+02 -0.16411520852E+03  0.17009113524E+03  0.47000000000E+01 0.  1.
         -5    1    4    4    0  502  0.72552762261E+02 -0.87454404796E+02 -0.38501099086E+03  0.40145700805E+03  0.47000000000E+01 0.  1.
<mgrwt>
<rscale>  0 0.99935841E+03</rscale>
<asrwt>0</asrwt>
<pdfrwt beam="1">  1        1 0.29941030E+00 0.99935841E+03</pdfrwt>
<pdfrwt beam="2">  1       -1 0.19737362E-01 0.99935841E+03</pdfrwt>
<totfact> 0.71011677E+01</totfact>
</mgrwt>
</event>
<event>
 9    1  0.4388925E-036  0.9966932E+03  0.7818608E-02  0.8684193E-01
         -2   -1    0    0    0  501 -0.00000000000E+00  0.00000000000E+00  0.18901730381E+03  0.18901730381E+03  0.00000000000E+00 0.  1.
          2   -1    0    0  501    0  0.00000000000E+00 -0.00000000000E+00 -0.13138973816E+04  0.13138973816E+04  0.00000000000E+00 0.  1.
         36    2    1    2    0    0  0.28421709430E-13  0.71054273576E-14 -0.11248800778E+04  0.15029146854E+04  0.99669321366E+03 0.  0.
         25    2    3    3    0    0 -0.79244071681E+02 -0.28252353377E+02 -0.36369990990E+03  0.39371702350E+03  0.12513053889E+03 0.  0.
         35    2    3    3    0    0  0.79244071681E+02  0.28252353377E+02 -0.76118016786E+03  0.11091976619E+04  0.80240039058E+03 0.  0.
         22    1    5    5    0    0  0.31883565406E+03 -0.20510626935E+03 -0.14081289676E+03  0.40441689866E+03  0.00000000000E+00 0. -1.
         22    1    5    5    0    0 -0.23959158238E+03  0.23335862273E+03 -0.62036727110E+03  0.70478076322E+03  0.00000000000E+00 0. -1.
          5    1    4    4  502    0 -0.67445458707E+02 -0.75535887122E+02 -0.25911828331E+03  0.27824258281E+03  0.47000000000E+01 0.  1.
         -5    1    4    4    0  502 -0.11798612973E+02  0.47283533745E+02 -0.10458162659E+03  0.11547444069E+03  0.47000000000E+01 0.  1.
<mgrwt>
<rscale>  0 0.99669321E+03</rscale>
<asrwt>0</asrwt>
<pdfrwt beam="1">  1        2 0.20213806E+00 0.99669321E+03</pdfrwt>
<pdfrwt beam="2">  1       -2 0.29079586E-01 0.99669321E+03</pdfrwt>
<totfact> 0.21170702E+02</totfact>
</mgrwt>
</event>
<event>
 9    1  0.4388925E-036  0.1000238E+04  0.7818608E-02  0.8680812E-01
          2   -1    0    0  501    0  0.00000000000E+00  0.00000000000E+00  0.91734696478E+03  0.91734696478E+03  0.00000000000E+00 0.  1.
         -2   -1    0    0    0  501 -0.00000000000E+00 -0.00000000000E+00 -0.27265463370E+03  0.27265463370E+03  0.00000000000E+00 0.  1.
         36    2    1    2    0    0  0.14210854715E-13 -0.42632564146E-13  0.64469233108E+03  0.11900015985E+04  0.10002377730E+04 0.  0.
         25    2    3    3    0    0  0.69223431049E+02 -0.11961164640E+03  0.14303296145E+03  0.23435843796E+03  0.12396217173E+03 0.  0.
         35    2    3    3    0    0 -0.69223431049E+02  0.11961164640E+03  0.50165936963E+03  0.95564316051E+03  0.80155654681E+03 0.  0.
         22    1    5    5    0    0 -0.20052667598E+03 -0.10324868724E+03 -0.13886123234E+03  0.26486540175E+03  0.00000000000E+00 0.  1.
         22    1    5    5    0    0  0.13130324493E+03  0.22286033365E+03  0.64052060198E+03  0.69077775876E+03  0.00000000000E+00 0.  1.
          5    1    4    4  502    0  0.56758055802E+02 -0.17792994644E+02  0.17399889640E+01  0.59692420946E+02  0.47000000000E+01 0. -1.
         -5    1    4    4    0  502  0.12465375247E+02 -0.10181865176E+03  0.14129297249E+03  0.17466601702E+03  0.47000000000E+01 0. -1.
<mgrwt>
<rscale>  0 0.10002378E+04</rscale>
<asrwt>0</asrwt>
<pdfrwt beam="1">  1        2 0.14113030E+00 0.10002378E+04</pdfrwt>
<pdfrwt beam="2">  1       -2 0.41946867E-01 0.10002378E+04</pdfrwt>
<totfact> 0.18595454E+02</totfact>
</mgrwt>
</event>
<event>
 9    1  0.4388925E-036  0.1000282E+04  0.7818608E-02  0.8680769E-01
         -2   -1    0    0    0  501 -0.00000000000E+00  0.00000000000E+00  0.85831133217E+03  0.85831133217E+03  0.00000000000E+00 0.  1.
          2   -1    0    0  501    0  0.00000000000E+00 -0.00000000000E+00 -0.29143413569E+03  0.29143413569E+03  0.00000000000E+00 0.  1.
         36    2    1    2    0    0  0.00000000000E+00  0.14210854715E-13  0.56687719648E+03  0.11497454679E+04  0.10002824026E+04 0.  0.
         25    2    3    3    0    0  0.24588212908E+02  0.51439228146E+02 -0.39303936547E+02  0.14444833253E+03  0.12676729442E+03 0.  0.
         35    2    3    3    0    0 -0.24588212908E+02 -0.51439228146E+02  0.60618113303E+03  0.10052971353E+04  0.79994761695E+03 0.  0.
         22    1    5    5    0    0  0.29129237313E+03 -0.12223992448E+03 -0.24727286780E+01  0.31591131694E+03  0.00000000000E+00 0.  1.
         22    1    5    5    0    0 -0.31588058604E+03  0.70800696337E+02  0.60865386171E+03  0.68938581840E+03  0.00000000000E+00 0.  1.
          5    1    4    4  502    0 -0.30002821916E+02 -0.28236241876E+02 -0.19136001058E+02  0.45669806379E+02  0.47000000000E+01 0.  1.
         -5    1    4    4    0  502  0.54591034824E+02  0.79675470022E+02 -0.20167935489E+02  0.98778526149E+02  0.47000000000E+01 0.  1.
<mgrwt>
<rscale>  0 0.10002824E+04</rscale>
<asrwt>0</asrwt>
<pdfrwt beam="1">  1        2 0.44836021E-01 0.10002824E+04</pdfrwt>
<pdfrwt beam="2">  1       -2 0.13204790E+00 0.10002824E+04</pdfrwt>
<totfact> 0.54541170E+01</totfact>
</mgrwt>
</event>
<event>
 9    1  0.4388925E-036  0.9996805E+03  0.7818608E-02  0.8681342E-01
          2   -1    0    0  501    0  0.00000000000E+00  0.00000000000E+00  0.30805551896E+04  0.30805551896E+04  0.00000000000E+00 0. -1.
         -2   -1    0    0    0  501 -0.00000000000E+00 -0.00000000000E+00 -0.81102353546E+02  0.81102353546E+02  0.00000000000E+00 0. -1.
         36    2    1    2    0    0  0.28421709430E-13 -0.14210854715E-13  0.29994528360E+04  0.31616575431E+04  0.99968050117E+03 0.  0.
         25    2    3    3    0    0 -0.11298441079E+03 -0.65970627600E+02  0.42139262888E+03  0.45910541845E+03  0.12684020179E+03 0.  0.
         35    2    3    3    0    0  0.11298441079E+03  0.65970627600E+02  0.25780602072E+04  0.27025521247E+04  0.80017245272E+03 0.  0.
         22    1    5    5    0    0  0.13886328134E+03  0.17416916976E+03  0.14245511650E+03  0.26440758464E+03  0.00000000000E+00 0.  1.
         22    1    5    5    0    0 -0.25878870548E+02 -0.10819854216E+03  0.24356050907E+04  0.24381445400E+04  0.00000000000E+00 0.  1.
          5    1    4    4  502    0 -0.50222626100E+02  0.35075760807E+02  0.11468270501E+03  0.13010316674E+03  0.47000000000E+01 0. -1.
         -5    1    4    4    0  502 -0.62761784690E+02 -0.10104638841E+03  0.30670992387E+03  0.32900225170E+03  0.47000000000E+01 0. -1.
<mgrwt>
<rscale>  0 0.99968050E+03</rscale>
<asrwt>0</asrwt>
<pdfrwt beam="1">  1        2 0.47393148E+00 0.99968050E+03</pdfrwt>
<pdfrwt beam="2">  1       -2 0.12477288E-01 0.99968050E+03</pdfrwt>
<totfact> 0.80224542E+01</totfact>
</mgrwt>
</event>
<event>
 9    1  0.4388925E-036  0.1004954E+04  0.7818608E-02  0.8676335E-01
         -2   -1    0    0    0  501 -0.00000000000E+00  0.00000000000E+00  0.31147812820E+03  0.31147812820E+03  0.00000000000E+00 0. -1.
          2   -1    0    0  501    0  0.00000000000E+00 -0.00000000000E+00 -0.81059647432E+03  0.81059647432E+03  0.00000000000E+00 0. -1.
         36    2    1    2    0    0  0.14210854715E-13 -0.28421709430E-13 -0.49911834612E+03  0.11220746025E+04  0.10049538747E+04 0.  0.
         25    2    3    3    0    0  0.11062901303E+03 -0.89424635500E+02 -0.60373153649E+02  0.19917480466E+03  0.12565882847E+03 0.  0.
         35    2    3    3    0    0 -0.11062901303E+03  0.89424635500E+02 -0.43874519247E+03  0.92289979786E+03  0.79938172922E+03 0.  0.
         22    1    5    5    0    0  0.75469473707E+02 -0.29715800237E+03  0.36683476037E+01  0.30661372540E+03  0.00000000000E+00 0.  1.
         22    1    5    5    0    0 -0.18609848674E+03  0.38658263787E+03 -0.44241354007E+03  0.61628607246E+03  0.00000000000E+00 0.  1.
          5    1    4    4  502    0  0.38209266943E+02 -0.15219237798E+02 -0.83173869745E+02  0.92906167115E+02  0.47000000000E+01 0.  1.
         -5    1    4    4    0  502  0.72419746089E+02 -0.74205397702E+02  0.22800716097E+02  0.10626863755E+03  0.47000000000E+01 0.  1.
<mgrwt>
<rscale>  0 0.10049539E+04</rscale>
<asrwt>0</asrwt>
<pdfrwt beam="1">  1        2 0.12470715E+00 0.10049539E+04</pdfrwt>
<pdfrwt beam="2">  1       -2 0.47919712E-01 0.10049539E+04</pdfrwt>
<totfact> 0.16906919E+02</totfact>
</mgrwt>
</event>
<event>
 9    1  0.4388925E-036  0.1000749E+04  0.7818608E-02  0.8680325E-01
          2   -1    0    0  501    0  0.00000000000E+00  0.00000000000E+00  0.14905078515E+04  0.14905078515E+04  0.00000000000E+00 0. -1.
         -2   -1    0    0    0  501 -0.00000000000E+00 -0.00000000000E+00 -0.16797948700E+03  0.16797948700E+03  0.00000000000E+00 0. -1.
         36    2    1    2    0    0 -0.14210854715E-13  0.00000000000E+00  0.13225283645E+04  0.16584873385E+04  0.10007492079E+04 0.  0.
         25    2    3    3    0    0 -0.12283252780E+03 -0.69158860304E+02  0.27094170740E+03  0.32983190068E+03  0.12453471825E+03 0.  0.
         35    2    3    3    0    0  0.12283252780E+03  0.69158860304E+02  0.10515866571E+04  0.13286554378E+04  0.79976246301E+03 0.  0.
         22    1    5    5    0    0 -0.11469224847E+01 -0.10143935615E+03  0.11061732430E+04  0.11108152420E+04  0.00000000000E+00 0. -1.
         22    1    5    5    0    0  0.12397945029E+03  0.17059821645E+03 -0.54586585887E+02  0.21784019581E+03  0.00000000000E+00 0. -1.
          5    1    4    4  502    0 -0.13230690941E+03 -0.21096572662E+02  0.22812727821E+03  0.26460220846E+03  0.47000000000E+01 0.  1.
         -5    1    4    4    0  502  0.94743816055E+01 -0.48062287642E+02  0.42814429186E+02  0.65229692217E+02  0.47000000000E+01 0.  1.
<mgrwt>
<rscale>  0 0.10007492E+04</rscale>
<asrwt>0</asrwt>
<pdfrwt beam="1">  1        2 0.22930889E+00 0.10007492E+04</pdfrwt>
<pdfrwt beam="2">  1       -2 0.25842999E-01 0.10007492E+04</pdfrwt>
<totfact> 0.20744624E+02</totfact>
</mgrwt>
</event>
<event>
 9    1  0.4388925E-036  0.1000186E+04  0.7818608E-02  0.8680861E-01
          2   -1    0    0  501    0  0.00000000000E+00  0.00000000000E+00  0.18323933553E+04  0.18323933553E+04  0.00000000000E+00 0.  1.
         -2   -1    0    0    0  501 -0.00000000000E+00 -0.00000000000E+00 -0.13648422839E+03  0.13648422839E+03  0.00000000000E+00 0.  1.
         36    2    1    2    0    0  0.00000000000E+00  0.00000000000E+00  0.16959091269E+04  0.19688775837E+04  0.10001855692E+04 0.  0.
         25    2    3    3    0    0  0.10112047530E+03  0.97795799691E+02  0.31086385813E+03  0.36326287044E+03  0.12463629403E+03 0.  0.
         35    2    3    3    0    0 -0.10112047530E+03 -0.97795799691E+02  0.13850452688E+04  0.16056147133E+04  0.79991177131E+03 0.  0.
         22    1    5    5    0    0 -0.57222405948E+02 -0.44217076432E+03  0.60259376679E+03  0.74960565388E+03  0.00000000000E+00 0. -1.
         22    1    5    5    0    0 -0.43898069352E+02  0.34437496463E+03  0.78245150200E+03  0.85600905938E+03  0.00000000000E+00 0. -1.
          5    1    4    4  502    0 -0.28477382100E+02  0.10660505401E+02  0.38682969611E+02  0.49427419563E+02  0.47000000000E+01 0. -1.
         -5    1    4    4    0  502  0.12959785740E+03  0.87135294290E+02  0.27218088851E+03  0.31383545088E+03  0.47000000000E+01 0. -1.
<mgrwt>
<rscale>  0 0.10001856E+04</rscale>
<asrwt>0</asrwt>
<pdfrwt beam="1">  1        2 0.28190665E+00 0.10001856E+04</pdfrwt>
<pdfrwt beam="2">  1       -2 0.20997575E-01 0.10001856E+04</pdfrwt>
<totfact> 0.19173943E+02</totfact>
</mgrwt>
</event>
<event>
 9    1  0.4388925E-036  0.9997609E+03  0.7818608E-02  0.8681266E-01
         -2   -1    0    0    0  501 -0.00000000000E+00  0.00000000000E+00  0.33021762846E+03  0.33021762846E+03  0.00000000000E+00 0. -1.
          2   -1    0    0  501    0  0.00000000000E+00 -0.00000000000E+00 -0.75671443946E+03  0.75671443946E+03  0.00000000000E+00 0. -1.
         36    2    1    2    0    0  0.71054273576E-14  0.00000000000E+00 -0.42649681100E+03  0.10869320679E+04  0.99976086664E+03 0.  0.
         25    2    3    3    0    0 -0.26023371953E+02 -0.91196874855E+02  0.32282292807E+02  0.16017851251E+03  0.12498369322E+03 0.  0.
         35    2    3    3    0    0  0.26023371953E+02  0.91196874855E+02 -0.45877910381E+03  0.92675355540E+03  0.79962478731E+03 0.  0.
         22    1    5    5    0    0  0.31839352097E+03  0.56275822380E+02 -0.53272036820E+03  0.62316321543E+03  0.00000000000E+00 0. -1.
         22    1    5    5    0    0 -0.29237014901E+03  0.34921052475E+02  0.73941264389E+02  0.30359033997E+03  0.00000000000E+00 0. -1.
          5    1    4    4  502    0  0.18325500620E+01  0.26023860053E+02  0.29374087745E+02  0.39566735557E+02  0.47000000000E+01 0.  1.
         -5    1    4    4    0  502 -0.27855922015E+02 -0.11722073491E+03  0.29082050618E+01  0.12061177696E+03  0.47000000000E+01 0.  1.
<mgrwt>
<rscale>  0 0.99976087E+03</rscale>
<asrwt>0</asrwt>
<pdfrwt beam="1">  1        2 0.11641760E+00 0.99976087E+03</pdfrwt>
<pdfrwt beam="2">  1       -2 0.50802713E-01 0.99976087E+03</pdfrwt>
<totfact> 0.16433995E+02</totfact>
</mgrwt>
</event>
<event>
 9    1  0.4388925E-036  0.9990143E+03  0.7818608E-02  0.8681977E-01
          2   -1    0    0  501    0  0.00000000000E+00  0.00000000000E+00  0.10168056500E+04  0.10168056500E+04  0.00000000000E+00 0. -1.
         -2   -1    0    0    0  501 -0.00000000000E+00 -0.00000000000E+00 -0.24538355203E+03  0.24538355203E+03  0.00000000000E+00 0. -1.
         36    2    1    2    0    0  0.28421709430E-13 -0.71054273576E-14  0.77142209792E+03  0.12621892020E+04  0.99901427841E+03 0.  0.
         25    2    3    3    0    0  0.12780187189E+03  0.35179106236E+02  0.20073684714E+03  0.27051112040E+03  0.12373397466E+03 0.  0.
         35    2    3    3    0    0 -0.12780187189E+03 -0.35179106236E+02  0.57068525078E+03  0.99167808159E+03  0.80010803900E+03 0.  0.
         22    1    5    5    0    0  0.31429164612E+03  0.64691944906E+02  0.95015287117E+02  0.33465234400E+03  0.00000000000E+00 0. -1.
         22    1    5    5    0    0 -0.44209351802E+03 -0.99871051142E+02  0.47566996366E+03  0.65702573759E+03  0.00000000000E+00 0. -1.
          5    1    4    4  502    0  0.91865304445E+02  0.79690382409E+02  0.11576521170E+03  0.16796864425E+03  0.47000000000E+01 0. -1.
         -5    1    4    4    0  502  0.35936567447E+02 -0.44511276173E+02  0.84971635442E+02  0.10254247616E+03  0.47000000000E+01 0. -1.
<mgrwt>
<rscale>  0 0.99901428E+03</rscale>
<asrwt>0</asrwt>
<pdfrwt beam="1">  1        2 0.15643164E+00 0.99901428E+03</pdfrwt>
<pdfrwt beam="2">  1       -2 0.37751316E-01 0.99901428E+03</pdfrwt>
<totfact> 0.19656964E+02</totfact>
</mgrwt>
</event>
<event>
 9    1  0.4388925E-036  0.9989216E+03  0.7818608E-02  0.8682066E-01
         -3   -1    0    0    0  501 -0.00000000000E+00  0.00000000000E+00  0.27124786831E+03  0.27124786831E+03  0.00000000000E+00 0. -1.
          3   -1    0    0  501    0  0.00000000000E+00 -0.00000000000E+00 -0.91967941665E+03  0.91967941665E+03  0.00000000000E+00 0. -1.
         36    2    1    2    0    0  0.00000000000E+00  0.00000000000E+00 -0.64843154834E+03  0.11909272850E+04  0.99892158110E+03 0.  0.
         25    2    3    3    0    0  0.74704181359E+02 -0.11083948587E+03 -0.16259843060E+03  0.24440156778E+03  0.12420857604E+03 0.  0.
         35    2    3    3    0    0 -0.74704181359E+02  0.11083948587E+03 -0.48583311775E+03  0.94652571718E+03  0.80125589460E+03 0.  0.
         22    1    5    5    0    0  0.96096266040E+02  0.14505677065E+03  0.18469030603E+03  0.25374488803E+03  0.00000000000E+00 0.  1.
         22    1    5    5    0    0 -0.17080044740E+03 -0.34217284782E+02 -0.67052342377E+03  0.69278082915E+03  0.00000000000E+00 0.  1.
          5    1    4    4  502    0  0.35052948892E+02 -0.60359611665E+02 -0.46394016992E+00  0.69959253762E+02  0.47000000000E+01 0. -1.
         -5    1    4    4    0  502  0.39651232467E+02 -0.50479874206E+02 -0.16213449043E+03  0.17444231402E+03  0.47000000000E+01 0. -1.
<mgrwt>
<rscale>  0 0.99892158E+03</rscale>
<asrwt>0</asrwt>
<pdfrwt beam="1">  1        3 0.14148914E+00 0.99892158E+03</pdfrwt>
<pdfrwt beam="2">  1       -3 0.41730441E-01 0.99892158E+03</pdfrwt>
<totfact> 0.89779452E+00</totfact>
</mgrwt>
</event>
<event>
 9    1  0.4388925E-036  0.9994733E+03  0.7818608E-02  0.8681540E-01
          2   -1    0    0  501    0  0.00000000000E+00  0.00000000000E+00  0.12272336225E+04  0.12272336225E+04  0.00000000000E+00 0.  1.
         -2   -1    0    0    0  501 -0.00000000000E+00 -0.00000000000E+00 -0.20349568181E+03  0.20349568181E+03  0.00000000000E+00 0.  1.
         36    2    1    2    0    0  0.00000000000E+00  0.21316282073E-13  0.10237379407E+04  0.14307293043E+04  0.99947334682E+03 0.  0.
         25    2    3    3    0    0 -0.13065343717E+03  0.33989709799E+02  0.16695429652E+03  0.24988646553E+03  0.12784321459E+03 0.  0.
         35    2    3    3    0    0  0.13065343717E+03 -0.33989709799E+02  0.85678364418E+03  0.11808428388E+04  0.80130267437E+03 0.  0.
         22    1    5    5    0    0 -0.12221797175E+03  0.27346451692E+03  0.68432218230E+03  0.74700530374E+03  0.00000000000E+00 0. -1.
         22    1    5    5    0    0  0.25287140892E+03 -0.30745422671E+03  0.17246146188E+03  0.43383753504E+03  0.00000000000E+00 0. -1.
          5    1    4    4  502    0 -0.61729956843E+02  0.21001634944E+02 -0.35400628166E+01  0.65469674559E+02  0.47000000000E+01 0. -1.
         -5    1    4    4    0  502 -0.68923480323E+02  0.12988074854E+02  0.17049435934E+03  0.18441679097E+03  0.47000000000E+01 0. -1.
<mgrwt>
<rscale>  0 0.99947335E+03</rscale>
<asrwt>0</asrwt>
<pdfrwt beam="1">  1        2 0.18880517E+00 0.99947335E+03</pdfrwt>
<pdfrwt beam="2">  1       -2 0.31307029E-01 0.99947335E+03</pdfrwt>
<totfact> 0.20786389E+02</totfact>
</mgrwt>
</event>
<event>
 9    1  0.4388925E-036  0.1000022E+04  0.7818608E-02  0.8681017E-01
          2   -1    0    0  501    0  0.00000000000E+00  0.00000000000E+00  0.28666248922E+04  0.28666248922E+04  0.00000000000E+00 0. -1.
         -2   -1    0    0    0  501 -0.00000000000E+00 -0.00000000000E+00 -0.87214332466E+02  0.87214332466E+02  0.00000000000E+00 0. -1.
         36    2    1    2    0    0 -0.21316282073E-13  0.00000000000E+00  0.27794105597E+04  0.29538392247E+04  0.10000215526E+04 0.  0.
         25    2    3    3    0    0  0.13810964552E+02 -0.11794486643E+03  0.73659697844E+03  0.75660080111E+03  0.12557041585E+03 0.  0.
         35    2    3    3    0    0 -0.13810964552E+02  0.11794486643E+03  0.20428135813E+04  0.21972384236E+04  0.80041715859E+03 0.  0.
         22    1    5    5    0    0  0.21376536300E+03 -0.84425519082E+02  0.13767694221E+03  0.26791461160E+03  0.00000000000E+00 0.  1.
         22    1    5    5    0    0 -0.22757632755E+03  0.20237038551E+03  0.19051366391E+04  0.19293238120E+04  0.00000000000E+00 0.  1.
          5    1    4    4  502    0  0.12893296772E+02 -0.16802000651E+02  0.48369986345E+03  0.48418611321E+03  0.47000000000E+01 0. -1.
         -5    1    4    4    0  502  0.91766777982E+00 -0.10114286578E+03  0.25289711499E+03  0.27241468790E+03  0.47000000000E+01 0. -1.
<mgrwt>
<rscale>  0 0.10000216E+04</rscale>
<asrwt>0</asrwt>
<pdfrwt beam="1">  1        2 0.44101914E+00 0.10000216E+04</pdfrwt>
<pdfrwt beam="2">  1       -2 0.13417592E-01 0.10000216E+04</pdfrwt>
<totfact> 0.98666264E+01</totfact>
</mgrwt>
</event>
<event>
 9    1  0.4388925E-036  0.1010699E+04  0.7818608E-02  0.8670915E-01
          1   -1    0    0  501    0  0.00000000000E+00  0.00000000000E+00  0.85425305610E+03  0.85425305610E+03  0.00000000000E+00 0.  1.
         -1   -1    0    0    0  501 -0.00000000000E+00 -0.00000000000E+00 -0.29894910657E+03  0.29894910657E+03  0.00000000000E+00 0.  1.
         36    2    1    2    0    0 -0.71054273576E-14 -0.35527136788E-14  0.55530394953E+03  0.11532021627E+04  0.10106991400E+04 0.  0.
         25    2    3    3    0    0  0.54314567794E+02  0.29584824262E+02 -0.50459323746E+02  0.14448522396E+03  0.12043463990E+03 0.  0.
         35    2    3    3    0    0 -0.54314567794E+02 -0.29584824262E+02  0.60576327328E+03  0.10087169387E+04  0.80419859803E+03 0.  0.
         22    1    5    5    0    0  0.32441963046E+03  0.58529527113E+01  0.39946379191E+02  0.32692211136E+03  0.00000000000E+00 0.  1.
         22    1    5    5    0    0 -0.37873419825E+03 -0.35437776973E+02  0.56581689409E+03  0.68179482735E+03  0.00000000000E+00 0.  1.
          5    1    4    4  502    0  0.82171783549E+02 -0.51903202140E+01 -0.55488995673E+02  0.99399497364E+02  0.47000000000E+01 0.  1.
         -5    1    4    4    0  502 -0.27857215754E+02  0.34775144476E+02  0.50296719268E+01  0.45085726595E+02  0.47000000000E+01 0.  1.
<mgrwt>
<rscale>  0 0.10106991E+04</rscale>
<asrwt>0</asrwt>
<pdfrwt beam="1">  1        1 0.13142355E+00 0.10106991E+04</pdfrwt>
<pdfrwt beam="2">  1       -1 0.45992171E-01 0.10106991E+04</pdfrwt>
<totfact> 0.10583720E+02</totfact>
</mgrwt>
</event>
<event>
 9    1  0.4388925E-036  0.9976987E+03  0.7818608E-02  0.8683233E-01
         -1   -1    0    0    0  501 -0.00000000000E+00  0.00000000000E+00  0.28376957340E+03  0.28376957340E+03  0.00000000000E+00 0.  1.
          1   -1    0    0  501    0  0.00000000000E+00 -0.00000000000E+00 -0.87694621296E+03  0.87694621296E+03  0.00000000000E+00 0.  1.
         36    2    1    2    0    0  0.00000000000E+00  0.00000000000E+00 -0.59317663956E+03  0.11607157864E+04  0.99769865740E+03 0.  0.
         25    2    3    3    0    0  0.77861804962E+02 -0.82985247932E+02 -0.20930996754E+02  0.17085429624E+03  0.12571424690E+03 0.  0.
         35    2    3    3    0    0 -0.77861804962E+02  0.82985247932E+02 -0.57224564281E+03  0.98986149011E+03  0.79963221662E+03 0.  0.
         22    1    5    5    0    0 -0.20528012308E+03  0.71845002037E+02  0.14493960758E+03  0.26136014060E+03  0.00000000000E+00 0.  1.
         22    1    5    5    0    0  0.12741831812E+03  0.11140245894E+02 -0.71718525038E+03  0.72850134951E+03  0.00000000000E+00 0.  1.
          5    1    4    4  502    0  0.44421157499E+01 -0.78176765857E+02  0.26949621487E+02  0.82944024561E+02  0.47000000000E+01 0.  1.
         -5    1    4    4    0  502  0.73419689212E+02 -0.48084820753E+01 -0.47880618242E+02  0.87910271681E+02  0.47000000000E+01 0.  1.
<mgrwt>
<rscale>  0 0.99769866E+03</rscale>
<asrwt>0</asrwt>
<pdfrwt beam="1">  1        1 0.13491480E+00 0.99769866E+03</pdfrwt>
<pdfrwt beam="2">  1       -1 0.43656858E-01 0.99769866E+03</pdfrwt>
<totfact> 0.11141084E+02</totfact>
</mgrwt>
</event>
<event>
 9    1  0.4388925E-036  0.1000661E+04  0.7818608E-02  0.8680409E-01
         -2   -1    0    0    0  501 -0.00000000000E+00  0.00000000000E+00  0.16329018930E+03  0.16329018930E+03  0.00000000000E+00 0. -1.
          2   -1    0    0  501    0  0.00000000000E+00 -0.00000000000E+00 -0.15330411853E+04  0.15330411853E+04  0.00000000000E+00 0. -1.
         36    2    1    2    0    0 -0.42632564146E-13  0.14210854715E-13 -0.13697509960E+04  0.16963313746E+04  0.10006609523E+04 0.  0.
         25    2    3    3    0    0  0.93347812051E+02 -0.84323262235E+02 -0.36581608676E+03  0.40695046462E+03  0.12634494352E+03 0.  0.
         35    2    3    3    0    0 -0.93347812051E+02  0.84323262235E+02 -0.10039349092E+04  0.12893809100E+04  0.79924564588E+03 0.  0.
         22    1    5    5    0    0 -0.35845933442E+03  0.19838331922E+03 -0.24485473866E+03  0.47728699838E+03  0.00000000000E+00 0. -1.
         22    1    5    5    0    0  0.26511152237E+03 -0.11406005699E+03 -0.75908017056E+03  0.81209391158E+03  0.00000000000E+00 0. -1.
          5    1    4    4  502    0  0.39492271221E+02  0.31176197504E+02 -0.94689325483E+02  0.10733011291E+03  0.47000000000E+01 0. -1.
         -5    1    4    4    0  502  0.53855540830E+02 -0.11549945974E+03 -0.27112676128E+03  0.29962035171E+03  0.47000000000E+01 0. -1.
<mgrwt>
<rscale>  0 0.10006610E+04</rscale>
<asrwt>0</asrwt>
<pdfrwt beam="1">  1        2 0.23585249E+00 0.10006610E+04</pdfrwt>
<pdfrwt beam="2">  1       -2 0.25121568E-01 0.10006610E+04</pdfrwt>
<totfact> 0.20639833E+02</totfact>
</mgrwt>
</event>
<event>
 9    1  0.4388925E-036  0.1001104E+04  0.7818608E-02  0.8679988E-01
         -3   -1    0    0    0  501 -0.00000000000E+00  0.00000000000E+00  0.94973774937E+03  0.94973774937E+03  0.00000000000E+00 0.  1.
          3   -1    0    0  501    0  0.00000000000E+00 -0.00000000000E+00 -0.26381185494E+03  0.26381185494E+03  0.00000000000E+00 0.  1.
         36    2    1    2    0    0  0.28421709430E-13 -0.10658141036E-13  0.68592589443E+03  0.12135496043E+04  0.10011035458E+04 0.  0.
         25    2    3    3    0    0  0.12847147814E+03 -0.20456182293E+02  0.19441247825E+03  0.26507796396E+03  0.12468656378E+03 0.  0.
         35    2    3    3    0    0 -0.12847147814E+03  0.20456182293E+02  0.49151341617E+03  0.94847164036E+03  0.80068073425E+03 0.  0.
         22    1    5    5    0    0  0.76903581649E+02  0.17623777296E+03  0.62801145760E+03  0.65678939118E+03  0.00000000000E+00 0. -1.
         22    1    5    5    0    0 -0.20537505979E+03 -0.15578159066E+03 -0.13649804143E+03  0.29168224918E+03  0.00000000000E+00 0. -1.
          5    1    4    4  502    0  0.12706511502E+03 -0.36418996487E+02  0.20596163824E+03  0.24477371833E+03  0.47000000000E+01 0. -1.
         -5    1    4    4    0  502  0.14063631208E+01  0.15962814194E+02 -0.11549159984E+02  0.20304245629E+02  0.47000000000E+01 0. -1.
<mgrwt>
<rscale>  0 0.10011035E+04</rscale>
<asrwt>0</asrwt>
<pdfrwt beam="1">  1        3 0.40586440E-01 0.10011035E+04</pdfrwt>
<pdfrwt beam="2">  1       -3 0.14611350E+00 0.10011035E+04</pdfrwt>
<totfact> 0.67639853E+00</totfact>
</mgrwt>
</event>
<event>
 9    1  0.4388925E-036  0.9997514E+03  0.7818608E-02  0.8681275E-01
          1   -1    0    0  501    0  0.00000000000E+00  0.00000000000E+00  0.11881248349E+04  0.11881248349E+04  0.00000000000E+00 0. -1.
         -1   -1    0    0    0  501 -0.00000000000E+00 -0.00000000000E+00 -0.21031099040E+03  0.21031099040E+03  0.00000000000E+00 0. -1.
         36    2    1    2    0    0 -0.28421709430E-13  0.71054273576E-14  0.97781384445E+03  0.13984358253E+04  0.99975139057E+03 0.  0.
         25    2    3    3    0    0  0.72997728709E+02  0.57434127169E+02  0.31220164795E+03  0.34831552943E+03  0.12339567131E+03 0.  0.
         35    2    3    3    0    0 -0.72997728709E+02 -0.57434127169E+02  0.66561219650E+03  0.10501202958E+04  0.80689881163E+03 0.  0.
         22    1    5    5    0    0 -0.33893828494E+03  0.17111049203E+03  0.11388652814E+03  0.39639387328E+03  0.00000000000E+00 0.  1.
         22    1    5    5    0    0  0.26594055623E+03 -0.22854461920E+03  0.55172566836E+03  0.65372642255E+03  0.00000000000E+00 0.  1.
          5    1    4    4  502    0  0.39319853244E+02  0.75060038008E+00  0.12680480606E+02  0.41587243819E+02  0.47000000000E+01 0.  1.
         -5    1    4    4    0  502  0.33677875465E+02  0.56683526789E+02  0.29952116734E+03  0.30672828561E+03  0.47000000000E+01 0.  1.
<mgrwt>
<rscale>  0 0.99975139E+03</rscale>
<asrwt>0</asrwt>
<pdfrwt beam="1">  1        1 0.18278843E+00 0.99975139E+03</pdfrwt>
<pdfrwt beam="2">  1       -1 0.32355538E-01 0.99975139E+03</pdfrwt>
<totfact> 0.10739743E+02</totfact>
</mgrwt>
</event>
<event>
 9    1  0.4388925E-036  0.1003292E+04  0.7818608E-02  0.8677910E-01
         -1   -1    0    0    0  501 -0.00000000000E+00  0.00000000000E+00  0.47836744543E+03  0.47836744543E+03  0.00000000000E+00 0. -1.
          1   -1    0    0  501    0  0.00000000000E+00 -0.00000000000E+00 -0.52605695315E+03  0.52605695315E+03  0.00000000000E+00 0. -1.
         36    2    1    2    0    0 -0.14210854715E-13  0.00000000000E+00 -0.47689507715E+02  0.10044243986E+04  0.10032916243E+04 0.  0.
         25    2    3    3    0    0  0.98317839438E+02  0.10458682098E+03 -0.84699408527E+01  0.19071426341E+03  0.12528124240E+03 0.  0.
         35    2    3    3    0    0 -0.98317839438E+02 -0.10458682098E+03 -0.39219566862E+02  0.81371013517E+03  0.79998825552E+03 0.  0.
         22    1    5    5    0    0 -0.34049884525E+03 -0.18511850675E+01 -0.29223415858E+03  0.44871337616E+03  0.00000000000E+00 0. -1.
         22    1    5    5    0    0  0.24218100581E+03 -0.10273563591E+03  0.25301459172E+03  0.36499675901E+03  0.00000000000E+00 0. -1.
          5    1    4    4  502    0  0.10273563667E+03  0.22374548712E+02  0.11472440165E+02  0.10587227378E+03  0.47000000000E+01 0.  1.
         -5    1    4    4    0  502 -0.44177972366E+01  0.82212272264E+02 -0.19942381018E+02  0.84841989628E+02  0.47000000000E+01 0.  1.
<mgrwt>
<rscale>  0 0.10032916E+04</rscale>
<asrwt>0</asrwt>
<pdfrwt beam="1">  1        1 0.80931839E-01 0.10032916E+04</pdfrwt>
<pdfrwt beam="2">  1       -1 0.73594992E-01 0.10032916E+04</pdfrwt>
<totfact> 0.90353935E+01</totfact>
</mgrwt>
</event>
<event>
 9    1  0.4388925E-036  0.9996579E+03  0.7818608E-02  0.8681364E-01
          2   -1    0    0  501    0  0.00000000000E+00  0.00000000000E+00  0.11667039586E+04  0.11667039586E+04  0.00000000000E+00 0. -1.
         -2   -1    0    0    0  501 -0.00000000000E+00 -0.00000000000E+00 -0.21413228786E+03  0.21413228786E+03  0.00000000000E+00 0. -1.
         36    2    1    2    0    0  0.28421709430E-13  0.14210854715E-13  0.95257167072E+03  0.13808362464E+04  0.99965791730E+03 0.  0.
         25    2    3    3    0    0 -0.12991542612E+03  0.16314219625E+02  0.24378005987E+03  0.30365710183E+03  0.12503897871E+03 0.  0.
         35    2    3    3    0    0  0.12991542612E+03 -0.16314219625E+02  0.70879161085E+03  0.10771791446E+04  0.80049059349E+03 0.  0.
         22    1    5    5    0    0  0.31701982454E+03  0.28588506820E+03  0.24279211099E+03  0.49110065213E+03  0.00000000000E+00 0. -1.
         22    1    5    5    0    0 -0.18710439842E+03 -0.30219928783E+03  0.46599949986E+03  0.58607849247E+03  0.00000000000E+00 0. -1.
          5    1    4    4  502    0 -0.28537478350E+02  0.56721880861E+02  0.49017324316E+02  0.80352644774E+02  0.47000000000E+01 0.  1.
         -5    1    4    4    0  502 -0.10137794777E+03 -0.40407661237E+02  0.19476273555E+03  0.22330445706E+03  0.47000000000E+01 0.  1.
<mgrwt>
<rscale>  0 0.99965792E+03</rscale>
<asrwt>0</asrwt>
<pdfrwt beam="1">  1        2 0.17949291E+00 0.99965792E+03</pdfrwt>
<pdfrwt beam="2">  1       -2 0.32943429E-01 0.99965792E+03</pdfrwt>
<totfact> 0.20552430E+02</totfact>
</mgrwt>
</event>
<event>
 9    1  0.4388925E-036  0.1000637E+04  0.7818608E-02  0.8680431E-01
          2   -1    0    0  501    0  0.00000000000E+00  0.00000000000E+00  0.99005835519E+03  0.99005835519E+03  0.00000000000E+00 0. -1.
         -2   -1    0    0    0  501 -0.00000000000E+00 -0.00000000000E+00 -0.25283227868E+03  0.25283227868E+03  0.00000000000E+00 0. -1.
         36    2    1    2    0    0  0.28421709430E-13  0.00000000000E+00  0.73722607651E+03  0.12428906339E+04  0.10006372169E+04 0.  0.
         25    2    3    3    0    0  0.86929868558E+02 -0.48444303116E+02  0.15735663791E+02  0.16058947226E+03  0.12505084939E+03 0.  0.
         35    2    3    3    0    0 -0.86929868558E+02  0.48444303116E+02  0.72149041272E+03  0.10823011616E+04  0.80057712698E+03 0.  0.
         22    1    5    5    0    0  0.13100673271E+03  0.15164965677E+02  0.82731119769E+03  0.83775686092E+03  0.00000000000E+00 0.  1.
         22    1    5    5    0    0 -0.21793660126E+03  0.33279337439E+02 -0.10582078497E+03  0.24454430070E+03  0.00000000000E+00 0.  1.
          5    1    4    4  502    0  0.11619277327E+03 -0.25226046285E+02  0.25500353908E+02  0.12169417414E+03  0.47000000000E+01 0. -1.
         -5    1    4    4    0  502 -0.29262904710E+02 -0.23218256832E+02 -0.97646901166E+01  0.38895298115E+02  0.47000000000E+01 0. -1.
<mgrwt>
<rscale>  0 0.10006372E+04</rscale>
<asrwt>0</asrwt>
<pdfrwt beam="1">  1        2 0.15231667E+00 0.10006372E+04</pdfrwt>
<pdfrwt beam="2">  1       -2 0.38897274E-01 0.10006372E+04</pdfrwt>
<totfact> 0.19303518E+02</totfact>
</mgrwt>
</event>
<event>
 9    1  0.4388925E-036  0.9989432E+03  0.7818608E-02  0.8682045E-01
          2   -1    0    0  501    0  0.00000000000E+00  0.00000000000E+00  0.44103807862E+04  0.44103807862E+04  0.00000000000E+00 0. -1.
         -2   -1    0    0    0  501 -0.00000000000E+00 -0.00000000000E+00 -0.56564705832E+02  0.56564705832E+02  0.00000000000E+00 0. -1.
         36    2    1    2    0    0  0.71054273576E-14 -0.56843418861E-13  0.43538160804E+04  0.44669454920E+04  0.99894322517E+03 0.  0.
         25    2    3    3    0    0 -0.36200852285E+02  0.12941219512E+03  0.76229860916E+03  0.78402205461E+03  0.12463303996E+03 0.  0.
         35    2    3    3    0    0  0.36200852285E+02 -0.12941219512E+03  0.35915174712E+04  0.36829234374E+04  0.80428184233E+03 0.  0.
         22    1    5    5    0    0 -0.14704953681E+03 -0.21487207472E+03  0.35579559076E+03  0.44089009648E+03  0.00000000000E+00 0.  1.
         22    1    5    5    0    0  0.18325038909E+03  0.85459879598E+02  0.32357218804E+04  0.32420333409E+04  0.00000000000E+00 0.  1.
          5    1    4    4  502    0 -0.56804532954E+02  0.88607160466E+02  0.69240915357E+03  0.70037883306E+03  0.47000000000E+01 0.  1.
         -5    1    4    4    0  502  0.20603680669E+02  0.40805034651E+02  0.69889455586E+02  0.83643221555E+02  0.47000000000E+01 0.  1.
<mgrwt>
<rscale>  0 0.99894323E+03</rscale>
<asrwt>0</asrwt>
<pdfrwt beam="1">  1        2 0.67851985E+00 0.99894323E+03</pdfrwt>
<pdfrwt beam="2">  1       -2 0.87022659E-02 0.99894323E+03</pdfrwt>
<totfact> 0.11767249E+01</totfact>
</mgrwt>
</event>
<event>
 9    1  0.4388925E-036  0.9990709E+03  0.7818608E-02  0.8681923E-01
          2   -1    0    0  501    0  0.00000000000E+00  0.00000000000E+00  0.36505082185E+04  0.36505082185E+04  0.00000000000E+00 0. -1.
         -2   -1    0    0    0  501 -0.00000000000E+00 -0.00000000000E+00 -0.68356417273E+02  0.68356417273E+02  0.00000000000E+00 0. -1.
         36    2    1    2    0    0  0.71054273576E-14 -0.28421709430E-13  0.35821518012E+04  0.37188646358E+04  0.99907089447E+03 0.  0.
         25    2    3    3    0    0  0.17941439999E+02  0.87822165847E+02  0.10721447745E+04  0.10831207828E+04  0.12498633777E+03 0.  0.
         35    2    3    3    0    0 -0.17941439999E+02 -0.87822165847E+02  0.25100070267E+04  0.26357438529E+04  0.79935959119E+03 0.  0.
         22    1    5    5    0    0  0.24927051341E+03 -0.18082941075E+03  0.38993080587E+03  0.49687130931E+03  0.00000000000E+00 0.  1.
         22    1    5    5    0    0 -0.26721195341E+03  0.93007244907E+02  0.21200762208E+04  0.21388725436E+04  0.00000000000E+00 0.  1.
          5    1    4    4  502    0 -0.31364487821E+02  0.96834202504E+02  0.78658568965E+03  0.79315807443E+03  0.47000000000E+01 0. -1.
         -5    1    4    4    0  502  0.49305927820E+02 -0.90120366572E+01  0.28555908485E+03  0.28996270841E+03  0.47000000000E+01 0. -1.
<mgrwt>
<rscale>  0 0.99907089E+03</rscale>
<asrwt>0</asrwt>
<pdfrwt beam="1">  1        2 0.56161650E+00 0.99907089E+03</pdfrwt>
<pdfrwt beam="2">  1       -2 0.10516375E-01 0.99907089E+03</pdfrwt>
<totfact> 0.40692422E+01</totfact>
</mgrwt>
</event>
<event>
 9    1  0.4388925E-036  0.9989492E+03  0.7818608E-02  0.8682039E-01
         -1   -1    0    0    0  501 -0.00000000000E+00  0.00000000000E+00  0.27656967747E+03  0.27656967747E+03  0.00000000000E+00 0. -1.
          1   -1    0    0  501    0  0.00000000000E+00 -0.00000000000E+00 -0.90203263109E+03  0.90203263109E+03  0.00000000000E+00 0. -1.
         36    2    1    2    0    0  0.00000000000E+00 -0.21316282073E-13 -0.62546295362E+03  0.11786023086E+04  0.99894919560E+03 0.  0.
         25    2    3    3    0    0 -0.39591431649E+02  0.54359689886E+02  0.23761321888E+02  0.14695792741E+03  0.12848958972E+03 0.  0.
         35    2    3    3    0    0  0.39591431649E+02 -0.54359689886E+02 -0.64922427550E+03  0.10316443812E+04  0.79892146793E+03 0.  0.
         22    1    5    5    0    0  0.85340994462E+02 -0.41119742269E+03 -0.22857244884E+03  0.47813363209E+03  0.00000000000E+00 0.  1.
         22    1    5    5    0    0 -0.45749562814E+02  0.35683773281E+03 -0.42065182666E+03  0.55351074906E+03  0.00000000000E+00 0.  1.
          5    1    4    4  502    0 -0.25463343189E+02 -0.40563806960E+02  0.15321214270E+02  0.50503800730E+02  0.47000000000E+01 0. -1.
         -5    1    4    4    0  502 -0.14128088460E+02  0.94923496846E+02  0.84401076172E+01  0.96454126680E+02  0.47000000000E+01 0. -1.
<mgrwt>
<rscale>  0 0.99894920E+03</rscale>
<asrwt>0</asrwt>
<pdfrwt beam="1">  1        1 0.13877425E+00 0.99894920E+03</pdfrwt>
<pdfrwt beam="2">  1       -1 0.42549180E-01 0.99894920E+03</pdfrwt>
<totfact> 0.11117389E+02</totfact>
</mgrwt>
</event>
<event>
 9    1  0.4388925E-036  0.9993079E+03  0.7818608E-02  0.8681697E-01
         -2   -1    0    0    0  501 -0.00000000000E+00  0.00000000000E+00  0.17427647113E+03  0.17427647113E+03  0.00000000000E+00 0.  1.
          2   -1    0    0  501    0  0.00000000000E+00 -0.00000000000E+00 -0.14325172278E+04  0.14325172278E+04  0.00000000000E+00 0.  1.
         36    2    1    2    0    0  0.00000000000E+00  0.00000000000E+00 -0.12582407566E+04  0.16067936989E+04  0.99930785505E+03 0.  0.
         25    2    3    3    0    0  0.13361282906E+03  0.39035617718E+02 -0.20568465662E+03  0.27778252142E+03  0.12442179751E+03 0.  0.
         35    2    3    3    0    0 -0.13361282906E+03 -0.39035617718E+02 -0.10525561000E+04  0.13290111775E+04  0.79938738960E+03 0.  0.
         22    1    5    5    0    0 -0.32215238889E+02  0.24934827620E+03 -0.20067973453E+02  0.25222035608E+03  0.00000000000E+00 0.  1.
         22    1    5    5    0    0 -0.10139759017E+03 -0.28838389392E+03 -0.10324881266E+04  0.10767908214E+04  0.00000000000E+00 0.  1.
          5    1    4    4  502    0 -0.83843008814E+01  0.30292843164E+01  0.11801752438E+02  0.15519163166E+02  0.47000000000E+01 0. -1.
         -5    1    4    4    0  502  0.14199712994E+03  0.36006333401E+02 -0.21748640906E+03  0.26226335825E+03  0.47000000000E+01 0. -1.
<mgrwt>
<rscale>  0 0.99930786E+03</rscale>
<asrwt>0</asrwt>
<pdfrwt beam="1">  1        2 0.22038726E+00 0.99930786E+03</pdfrwt>
<pdfrwt beam="2">  1       -2 0.26811765E-01 0.99930786E+03</pdfrwt>
<totfact> 0.20954662E+02</totfact>
</mgrwt>
</event>
<event>
 9    1  0.4388925E-036  0.1002372E+04  0.7818608E-02  0.8678782E-01
         -2   -1    0    0    0  501 -0.00000000000E+00  0.00000000000E+00  0.24124484406E+03  0.24124484406E+03  0.00000000000E+00 0.  1.
          2   -1    0    0  501    0  0.00000000000E+00 -0.00000000000E+00 -0.10412139235E+04  0.10412139235E+04  0.00000000000E+00 0.  1.
         36    2    1    2    0    0  0.00000000000E+00  0.00000000000E+00 -0.79996907948E+03  0.12824587676E+04  0.10023721677E+04 0.  0.
         25    2    3    3    0    0  0.13989581280E+03 -0.12040452367E+02 -0.17274608502E+03  0.25634038837E+03  0.12709592396E+03 0.  0.
         35    2    3    3    0    0 -0.13989581280E+03  0.12040452367E+02 -0.62722299446E+03  0.10261183792E+04  0.79987150999E+03 0.  0.
         22    1    5    5    0    0  0.27548911550E+03 -0.15983666277E+03 -0.10123589249E+03  0.33420161199E+03  0.00000000000E+00 0.  1.
         22    1    5    5    0    0 -0.41538492830E+03  0.17187711514E+03 -0.52598710197E+03  0.69191676725E+03  0.00000000000E+00 0.  1.
          5    1    4    4  502    0  0.24823280156E+02  0.28831471194E+02  0.70174067609E+01  0.38971566129E+02  0.47000000000E+01 0. -1.
         -5    1    4    4    0  502  0.11507253265E+03 -0.40871923562E+02 -0.17976349178E+03  0.21736882224E+03  0.47000000000E+01 0. -1.
<mgrwt>
<rscale>  0 0.10023722E+04</rscale>
<asrwt>0</asrwt>
<pdfrwt beam="1">  1        2 0.16018675E+00 0.10023722E+04</pdfrwt>
<pdfrwt beam="2">  1       -2 0.37114592E-01 0.10023722E+04</pdfrwt>
<totfact> 0.19601784E+02</totfact>
</mgrwt>
</event>
<event>
 9    1  0.4388925E-036  0.9995010E+03  0.7818608E-02  0.8681513E-01
         -2   -1    0    0    0  501 -0.00000000000E+00  0.00000000000E+00  0.36193962882E+03  0.36193962882E+03  0.00000000000E+00 0.  1.
          2   -1    0    0  501    0  0.00000000000E+00 -0.00000000000E+00 -0.69003372380E+03  0.69003372380E+03  0.00000000000E+00 0.  1.
         36    2    1    2    0    0 -0.14210854715E-13 -0.71054273576E-14 -0.32809409497E+03  0.10519733526E+04  0.99950097522E+03 0.  0.
         25    2    3    3    0    0 -0.77606587655E+02  0.41207438736E+02 -0.18132529024E+03  0.23600405513E+03  0.12287480500E+03 0.  0.
         35    2    3    3    0    0  0.77606587655E+02 -0.41207438736E+02 -0.14676880473E+03  0.81596929749E+03  0.79783706165E+03 0.  0.
         22    1    5    5    0    0  0.16180702943E+03  0.56923361782E+02  0.30289116982E+03  0.34808740949E+03  0.00000000000E+00 0. -1.
         22    1    5    5    0    0 -0.84200441776E+02 -0.98130800518E+02 -0.44965997455E+03  0.46788188800E+03  0.00000000000E+00 0. -1.
          5    1    4    4  502    0 -0.46918215234E+02  0.45670457232E+02 -0.15781182411E+02  0.67514778403E+02  0.47000000000E+01 0.  1.
         -5    1    4    4    0  502 -0.30688372421E+02 -0.44630184953E+01 -0.16554410783E+03  0.16848927673E+03  0.47000000000E+01 0.  1.
<mgrwt>
<rscale>  0 0.99950098E+03</rscale>
<asrwt>0</asrwt>
<pdfrwt beam="1">  1        2 0.10615903E+00 0.99950098E+03</pdfrwt>
<pdfrwt beam="2">  1       -2 0.55683021E-01 0.99950098E+03</pdfrwt>
<totfact> 0.15299056E+02</totfact>
</mgrwt>
</event>
<event>
 9    1  0.4388925E-036  0.1001888E+04  0.7818608E-02  0.8679242E-01
          2   -1    0    0  501    0  0.00000000000E+00  0.00000000000E+00  0.59472313709E+03  0.59472313709E+03  0.00000000000E+00 0. -1.
         -2   -1    0    0    0  501 -0.00000000000E+00 -0.00000000000E+00 -0.42195251832E+03  0.42195251832E+03  0.00000000000E+00 0. -1.
         36    2    1    2    0    0 -0.71054273576E-14 -0.14210854715E-13  0.17277061877E+03  0.10166756554E+04  0.10018880684E+04 0.  0.
         25    2    3    3    0    0  0.17520117388E+01 -0.75156599321E+02  0.15686608855E+03  0.21288451333E+03  0.12272433463E+03 0.  0.
         35    2    3    3    0    0 -0.17520117388E+01  0.75156599321E+02  0.15904530221E+02  0.80379114208E+03  0.80010978124E+03 0.  0.
         22    1    5    5    0    0 -0.34914120152E+03  0.17760798469E+03 -0.13086519844E+03  0.41300105931E+03  0.00000000000E+00 0.  1.
         22    1    5    5    0    0  0.34738918978E+03 -0.10245138537E+03  0.14676972866E+03  0.39079008277E+03  0.00000000000E+00 0.  1.
          5    1    4    4  502    0  0.60795796211E+02 -0.45287894780E+02  0.99549132214E+02  0.12521677993E+03  0.47000000000E+01 0.  1.
         -5    1    4    4    0  502 -0.59043784472E+02 -0.29868704541E+02  0.57316956336E+02  0.87667733399E+02  0.47000000000E+01 0.  1.
<mgrwt>
<rscale>  0 0.10018881E+04</rscale>
<asrwt>0</asrwt>
<pdfrwt beam="1">  1        2 0.91495867E-01 0.10018881E+04</pdfrwt>
<pdfrwt beam="2">  1       -2 0.64915772E-01 0.10018881E+04</pdfrwt>
<totfact> 0.13279047E+02</totfact>
</mgrwt>
</event>
<event>
 9    1  0.4388925E-036  0.1000159E+04  0.7818608E-02  0.8680886E-01
          2   -1    0    0  501    0  0.00000000000E+00  0.00000000000E+00  0.22246925477E+03  0.22246925477E+03  0.00000000000E+00 0.  1.
         -2   -1    0    0    0  501 -0.00000000000E+00 -0.00000000000E+00 -0.11241085166E+04  0.11241085166E+04  0.00000000000E+00 0.  1.
         36    2    1    2    0    0 -0.14210854715E-13 -0.71054273576E-14 -0.90163926181E+03  0.13465777713E+04  0.10001591552E+04 0.  0.
         25    2    3    3    0    0 -0.69369460519E+02  0.47090434311E+02 -0.31826566951E+03  0.35214864326E+03  0.12524376035E+03 0.  0.
         35    2    3    3    0    0  0.69369460519E+02 -0.47090434311E+02 -0.58337359230E+03  0.99442912808E+03  0.80095874521E+03 0.  0.
         22    1    5    5    0    0  0.53370684903E+02 -0.31658572731E+03 -0.64233018496E+03  0.71809680354E+03  0.00000000000E+00 0.  1.
         22    1    5    5    0    0  0.15998775617E+02  0.26949529300E+03  0.58956592658E+02  0.27633232454E+03  0.00000000000E+00 0.  1.
          5    1    4    4  502    0 -0.66173082959E+02  0.21834301893E+02 -0.58522356364E+02  0.91118438539E+02  0.47000000000E+01 0.  1.
         -5    1    4    4    0  502 -0.31963775599E+01  0.25256132418E+02 -0.25974331314E+03  0.26103020472E+03  0.47000000000E+01 0.  1.
<mgrwt>
<rscale>  0 0.10001592E+04</rscale>
<asrwt>0</asrwt>
<pdfrwt beam="1">  1        2 0.34226040E-01 0.10001592E+04</pdfrwt>
<pdfrwt beam="2">  1       -2 0.17293977E+00 0.10001592E+04</pdfrwt>
<totfact> 0.34590911E+01</totfact>
</mgrwt>
</event>
<event>
 9    1  0.4388925E-036  0.9990335E+03  0.7818608E-02  0.8681959E-01
          1   -1    0    0  501    0  0.00000000000E+00  0.00000000000E+00  0.12315837043E+04  0.12315837043E+04  0.00000000000E+00 0. -1.
         -1   -1    0    0    0  501 -0.00000000000E+00 -0.00000000000E+00 -0.20259846818E+03  0.20259846818E+03  0.00000000000E+00 0. -1.
         36    2    1    2    0    0  0.00000000000E+00  0.71054273576E-14  0.10289852362E+04  0.14341821725E+04  0.99903347679E+03 0.  0.
         25    2    3    3    0    0  0.12800386352E+03  0.50603139083E+02  0.16688089639E+03  0.25007333228E+03  0.12546621528E+03 0.  0.
         35    2    3    3    0    0 -0.12800386352E+03 -0.50603139083E+02  0.86210433978E+03  0.11841088402E+04  0.79996511557E+03 0.  0.
         22    1    5    5    0    0 -0.90901903689E+02  0.34289514278E+03  0.63737579631E+03  0.72944372008E+03  0.00000000000E+00 0. -1.
         22    1    5    5    0    0 -0.37101959828E+02 -0.39349828186E+03  0.22472854346E+03  0.45466512017E+03  0.00000000000E+00 0. -1.
          5    1    4    4  502    0  0.13268351833E+03  0.28341684797E+02  0.17837192719E+03  0.22415798345E+03  0.47000000000E+01 0. -1.
         -5    1    4    4    0  502 -0.46796548145E+01  0.22261454286E+02 -0.11491030802E+02  0.25915348831E+02  0.47000000000E+01 0. -1.
<mgrwt>
<rscale>  0 0.99903348E+03</rscale>
<asrwt>0</asrwt>
<pdfrwt beam="1">  1        1 0.18947441E+00 0.99903348E+03</pdfrwt>
<pdfrwt beam="2">  1       -1 0.31168996E-01 0.99903348E+03</pdfrwt>
<totfact> 0.10631333E+02</totfact>
</mgrwt>
</event>
<event>
 9    1  0.4388925E-036  0.9981638E+03  0.7818608E-02  0.8682789E-01
          2   -1    0    0  501    0  0.00000000000E+00  0.00000000000E+00  0.23979492686E+04  0.23979492686E+04  0.00000000000E+00 0.  1.
         -2   -1    0    0    0  501 -0.00000000000E+00 -0.00000000000E+00 -0.10387322386E+03  0.10387322386E+03  0.00000000000E+00 0.  1.
         36    2    1    2    0    0  0.71054273576E-14  0.14210854715E-13  0.22940760447E+04  0.25018224925E+04  0.99816375648E+03 0.  0.
         25    2    3    3    0    0  0.48123286293E+01  0.65682286112E+02  0.12675431518E+03  0.19065646206E+03  0.12627711151E+03 0.  0.
         35    2    3    3    0    0 -0.48123286293E+01 -0.65682286112E+02  0.21673217296E+04  0.23111660304E+04  0.79991725789E+03 0.  0.
         22    1    5    5    0    0  0.68180471262E+02 -0.89588415572E+02 -0.26777767417E+02  0.11572255482E+03  0.00000000000E+00 0. -1.
         22    1    5    5    0    0 -0.72992799892E+02  0.23906129459E+02  0.21940994970E+04  0.21954434756E+04  0.00000000000E+00 0. -1.
          5    1    4    4  502    0  0.16498381051E+02 -0.33415490634E+02  0.59033941179E+02  0.69970620997E+02  0.47000000000E+01 0. -1.
         -5    1    4    4    0  502 -0.11686052422E+02  0.99097776747E+02  0.67720374003E+02  0.12068584106E+03  0.47000000000E+01 0. -1.
<mgrwt>
<rscale>  0 0.99816376E+03</rscale>
<asrwt>0</asrwt>
<pdfrwt beam="1">  1        2 0.36891523E+00 0.99816376E+03</pdfrwt>
<pdfrwt beam="2">  1       -2 0.15980498E-01 0.99816376E+03</pdfrwt>
<totfact> 0.14425518E+02</totfact>
</mgrwt>
</event>
<event>
 9    1  0.4388925E-036  0.9998526E+03  0.7818608E-02  0.8681178E-01
         -2   -1    0    0    0  501 -0.00000000000E+00  0.00000000000E+00  0.41427319789E+03  0.41427319789E+03  0.00000000000E+00 0.  1.
          2   -1    0    0  501    0  0.00000000000E+00 -0.00000000000E+00 -0.60328867854E+03  0.60328867854E+03  0.00000000000E+00 0.  1.
         36    2    1    2    0    0  0.28421709430E-13  0.00000000000E+00 -0.18901548064E+03  0.10175618764E+04  0.99985264936E+03 0.  0.
         25    2    3    3    0    0  0.13496998185E+03  0.21806812028E+00 -0.70094321486E+02  0.19766075585E+03  0.12625219579E+03 0.  0.
         35    2    3    3    0    0 -0.13496998185E+03 -0.21806812028E+00 -0.11892115916E+03  0.81990112058E+03  0.79992416008E+03 0.  0.
         22    1    5    5    0    0 -0.39855904679E+03  0.22692953411E+03 -0.24166361379E+02  0.45927153215E+03  0.00000000000E+00 0.  1.
         22    1    5    5    0    0  0.26358906493E+03 -0.22714760223E+03 -0.94754797777E+02  0.36062958843E+03  0.00000000000E+00 0.  1.
          5    1    4    4  502    0  0.15518804411E+02 -0.51612124477E+02 -0.26694775300E+02  0.60326989911E+02  0.47000000000E+01 0. -1.
         -5    1    4    4    0  502  0.11945117744E+03  0.51830192597E+02 -0.43399546186E+02  0.13733376594E+03  0.47000000000E+01 0. -1.
<mgrwt>
<rscale>  0 0.99985265E+03</rscale>
<asrwt>0</asrwt>
<pdfrwt beam="1">  1        2 0.92813642E-01 0.99985265E+03</pdfrwt>
<pdfrwt beam="2">  1       -2 0.63734338E-01 0.99985265E+03</pdfrwt>
<totfact> 0.13575576E+02</totfact>
</mgrwt>
</event>
<event>
 9    1  0.4388925E-036  0.1003207E+04  0.7818608E-02  0.8677990E-01
          2   -1    0    0  501    0  0.00000000000E+00  0.00000000000E+00  0.27863507590E+03  0.27863507590E+03  0.00000000000E+00 0.  1.
         -2   -1    0    0    0  501 -0.00000000000E+00 -0.00000000000E+00 -0.90299543436E+03  0.90299543436E+03  0.00000000000E+00 0.  1.
         36    2    1    2    0    0  0.00000000000E+00  0.00000000000E+00 -0.62436035847E+03  0.11816305103E+04  0.10032072595E+04 0.  0.
         25    2    3    3    0    0  0.75920776311E+02  0.91979655946E+02 -0.27210649918E+02  0.17479793546E+03  0.12485862961E+03 0.  0.
         35    2    3    3    0    0 -0.75920776311E+02 -0.91979655946E+02 -0.59714970855E+03  0.10068325748E+04  0.80181035032E+03 0.  0.
         22    1    5    5    0    0  0.25646791890E+03 -0.19971437927E+03 -0.11975218764E+02  0.32527685528E+03  0.00000000000E+00 0. -1.
         22    1    5    5    0    0 -0.33238869522E+03  0.10773472333E+03 -0.58517448978E+03  0.68155571952E+03  0.00000000000E+00 0. -1.
          5    1    4    4  502    0  0.42668421062E+02  0.54967461025E+02 -0.77250208053E+02  0.10407545614E+03  0.47000000000E+01 0.  1.
         -5    1    4    4    0  502  0.33252355249E+02  0.37012194921E+02  0.50039558134E+02  0.70722479317E+02  0.47000000000E+01 0.  1.
<mgrwt>
<rscale>  0 0.10032073E+04</rscale>
<asrwt>0</asrwt>
<pdfrwt beam="1">  1        2 0.42866935E-01 0.10032073E+04</pdfrwt>
<pdfrwt beam="2">  1       -2 0.13892237E+00 0.10032073E+04</pdfrwt>
<totfact> 0.49963982E+01</totfact>
</mgrwt>
</event>
<event>
 9    1  0.4388925E-036  0.9998314E+03  0.7818608E-02  0.8681199E-01
         -2   -1    0    0    0  501 -0.00000000000E+00  0.00000000000E+00  0.11489744636E+04  0.11489744636E+04  0.00000000000E+00 0.  1.
          2   -1    0    0  501    0  0.00000000000E+00 -0.00000000000E+00 -0.21751195685E+03  0.21751195685E+03  0.00000000000E+00 0.  1.
         36    2    1    2    0    0  0.28421709430E-13  0.00000000000E+00  0.93146250673E+03  0.13664864204E+04  0.99983135367E+03 0.  0.
         25    2    3    3    0    0  0.44818603778E+02 -0.18282410990E+02  0.35285804093E+03  0.37741797755E+03  0.12487024839E+03 0.  0.
         35    2    3    3    0    0 -0.44818603778E+02  0.18282410990E+02  0.57860446580E+03  0.98906844288E+03  0.80070612778E+03 0.  0.
         22    1    5    5    0    0  0.28346271577E+03 -0.18677180197E+03  0.64481142193E+02  0.34553239347E+03  0.00000000000E+00 0. -1.
         22    1    5    5    0    0 -0.32828131954E+03  0.20505421296E+03  0.51412332361E+03  0.64353604941E+03  0.00000000000E+00 0. -1.
          5    1    4    4  502    0 -0.75014156106E+01  0.38847894398E+02  0.21978013734E+03  0.22336255037E+03  0.47000000000E+01 0.  1.
         -5    1    4    4    0  502  0.52320019388E+02 -0.57130305387E+02  0.13307790359E+03  0.15405542719E+03  0.47000000000E+01 0.  1.
<mgrwt>
<rscale>  0 0.99983135E+03</rscale>
<asrwt>0</asrwt>
<pdfrwt beam="1">  1        2 0.33463379E-01 0.99983135E+03</pdfrwt>
<pdfrwt beam="2">  1       -2 0.17676530E+00 0.99983135E+03</pdfrwt>
<totfact> 0.33248222E+01</totfact>
</mgrwt>
</event>
<event>
 9    1  0.4388925E-036  0.9996810E+03  0.7818608E-02  0.8681342E-01
         -2   -1    0    0    0  501 -0.00000000000E+00  0.00000000000E+00  0.16180070971E+03  0.16180070971E+03  0.00000000000E+00 0.  1.
          2   -1    0    0  501    0  0.00000000000E+00 -0.00000000000E+00 -0.15441250324E+04  0.15441250324E+04  0.00000000000E+00 0.  1.
         36    2    1    2    0    0  0.71054273576E-14 -0.28421709430E-13 -0.13823243227E+04  0.17059257421E+04  0.99968100139E+03 0.  0.
         25    2    3    3    0    0 -0.48520624038E+02 -0.11565649197E+03 -0.15206506694E+03  0.23319505210E+03  0.12460125460E+03 0.  0.
         35    2    3    3    0    0  0.48520624038E+02  0.11565649197E+03 -0.12302592558E+04  0.14727306901E+04  0.79979195662E+03 0.  0.
         22    1    5    5    0    0  0.67131639100E+01  0.44570263428E+03 -0.89799124055E+03  0.10025388635E+04  0.00000000000E+00 0. -1.
         22    1    5    5    0    0  0.41807460128E+02 -0.33004614232E+03 -0.33226801524E+03  0.47019182652E+03  0.00000000000E+00 0. -1.
          5    1    4    4  502    0 -0.51708152530E+02 -0.13233429831E+03 -0.89005368106E+02  0.16772043733E+03  0.47000000000E+01 0.  1.
         -5    1    4    4    0  502  0.31875284913E+01  0.16677806340E+02 -0.63059698831E+02  0.65474614766E+02  0.47000000000E+01 0.  1.
<mgrwt>
<rscale>  0 0.99968100E+03</rscale>
<asrwt>0</asrwt>
<pdfrwt beam="1">  1        2 0.23755769E+00 0.99968100E+03</pdfrwt>
<pdfrwt beam="2">  1       -2 0.24892417E-01 0.99968100E+03</pdfrwt>
<totfact> 0.20677657E+02</totfact>
</mgrwt>
</event>
<event>
 9    1  0.4388925E-036  0.9988236E+03  0.7818608E-02  0.8682159E-01
         -2   -1    0    0    0  501 -0.00000000000E+00  0.00000000000E+00  0.21890251695E+03  0.21890251695E+03  0.00000000000E+00 0. -1.
          2   -1    0    0  501    0  0.00000000000E+00 -0.00000000000E+00 -0.11393754553E+04  0.11393754553E+04  0.00000000000E+00 0. -1.
         36    2    1    2    0    0 -0.14210854715E-13 -0.14210854715E-13 -0.92047293837E+03  0.13582779723E+04  0.99882361792E+03 0.  0.
         25    2    3    3    0    0 -0.66355548165E+02  0.40033438781E+02 -0.15466143131E+02  0.14797061406E+03  0.12510142305E+03 0.  0.
         35    2    3    3    0    0  0.66355548165E+02 -0.40033438781E+02 -0.90500679524E+03  0.12103073582E+04  0.79987553215E+03 0.  0.
         22    1    5    5    0    0 -0.42157504711E+02  0.36331067910E+03 -0.55849620883E+03  0.66760011986E+03  0.00000000000E+00 0. -1.
         22    1    5    5    0    0  0.10851305288E+03 -0.40334411789E+03 -0.34651058641E+03  0.54270723837E+03  0.00000000000E+00 0. -1.
          5    1    4    4  502    0 -0.89741382097E+02 -0.10634926300E+02 -0.27009715242E+01  0.90531776549E+02  0.47000000000E+01 0.  1.
         -5    1    4    4    0  502  0.23385833931E+02  0.50668365081E+02 -0.12765171607E+02  0.57438837513E+02  0.47000000000E+01 0.  1.
<mgrwt>
<rscale>  0 0.99882362E+03</rscale>
<asrwt>0</asrwt>
<pdfrwt beam="1">  1        2 0.17528854E+00 0.99882362E+03</pdfrwt>
<pdfrwt beam="2">  1       -2 0.33677309E-01 0.99882362E+03</pdfrwt>
<totfact> 0.20487445E+02</totfact>
</mgrwt>
</event>
<event>
 9    1  0.4388925E-036  0.1001949E+04  0.7818608E-02  0.8679185E-01
          2   -1    0    0  501    0  0.00000000000E+00  0.00000000000E+00  0.80402577951E+03  0.80402577951E+03  0.00000000000E+00 0. -1.
         -2   -1    0    0    0  501 -0.00000000000E+00 -0.00000000000E+00 -0.31214824563E+03  0.31214824563E+03  0.00000000000E+00 0. -1.
         36    2    1    2    0    0  0.71054273576E-14 -0.28421709430E-13  0.49187753388E+03  0.11161740251E+04  0.10019485746E+04 0.  0.
         25    2    3    3    0    0 -0.56253689408E+02  0.13558083501E+03  0.11934928194E+03  0.22227220645E+03  0.11667922807E+03 0.  0.
         35    2    3    3    0    0  0.56253689408E+02 -0.13558083501E+03  0.37252825193E+03  0.89390181869E+03  0.79920993649E+03 0.  0.
         22    1    5    5    0    0  0.54399866746E+02 -0.33520609048E+03 -0.12180846998E+03  0.36077662335E+03  0.00000000000E+00 0. -1.
         22    1    5    5    0    0  0.18538226618E+01  0.19962525547E+03  0.49433672192E+03  0.53312519535E+03  0.00000000000E+00 0. -1.
          5    1    4    4  502    0  0.14872351643E+02  0.10360100451E+03  0.43683087278E+02  0.11351060343E+03  0.47000000000E+01 0. -1.
         -5    1    4    4    0  502 -0.71126041051E+02  0.31979830505E+02  0.75666194665E+02  0.10876160301E+03  0.47000000000E+01 0. -1.
<mgrwt>
<rscale>  0 0.10019486E+04</rscale>
<asrwt>0</asrwt>
<pdfrwt beam="1">  1        2 0.12369627E+00 0.10019486E+04</pdfrwt>
<pdfrwt beam="2">  1       -2 0.48022807E-01 0.10019486E+04</pdfrwt>
<totfact> 0.17014678E+02</totfact>
</mgrwt>
</event>
<event>
 9    1  0.4388925E-036  0.9993617E+03  0.7818608E-02  0.8681646E-01
          1   -1    0    0  501    0  0.00000000000E+00  0.00000000000E+00  0.85634801618E+03  0.85634801618E+03  0.00000000000E+00 0. -1.
         -1   -1    0    0    0  501 -0.00000000000E+00 -0.00000000000E+00 -0.29156482288E+03  0.29156482288E+03  0.00000000000E+00 0. -1.
         36    2    1    2    0    0 -0.14210854715E-13  0.00000000000E+00  0.56478319330E+03  0.11479128391E+04  0.99936171163E+03 0.  0.
         25    2    3    3    0    0  0.79649104191E+02 -0.85854647152E+02  0.16126330205E+02  0.17189879743E+03  0.12479638534E+03 0.  0.
         35    2    3    3    0    0 -0.79649104191E+02  0.85854647152E+02  0.54865686309E+03  0.97601404164E+03  0.79866391920E+03 0.  0.
         22    1    5    5    0    0 -0.16817447908E+03 -0.24213297889E+03  0.56350757508E+03  0.63596526796E+03  0.00000000000E+00 0.  1.
         22    1    5    5    0    0  0.88525374887E+02  0.32798762604E+03 -0.14850711987E+02  0.34004877368E+03  0.00000000000E+00 0.  1.
          5    1    4    4  502    0  0.59779632893E+02 -0.33445371029E+02  0.67091073478E+02  0.95997393155E+02  0.47000000000E+01 0. -1.
         -5    1    4    4    0  502  0.19869471298E+02 -0.52409276123E+02 -0.50964743273E+02  0.75901404271E+02  0.47000000000E+01 0. -1.
<mgrwt>
<rscale>  0 0.99936171E+03</rscale>
<asrwt>0</asrwt>
<pdfrwt beam="1">  1        1 0.13174585E+00 0.99936171E+03</pdfrwt>
<pdfrwt beam="2">  1       -1 0.44856127E-01 0.99936171E+03</pdfrwt>
<totfact> 0.11041438E+02</totfact>
</mgrwt>
</event>
<event>
 9    1  0.4388925E-036  0.1000638E+04  0.7818608E-02  0.8680431E-01
          2   -1    0    0  501    0  0.00000000000E+00  0.00000000000E+00  0.19662071579E+04  0.19662071579E+04  0.00000000000E+00 0. -1.
         -2   -1    0    0    0  501 -0.00000000000E+00 -0.00000000000E+00 -0.12731059314E+03  0.12731059314E+03  0.00000000000E+00 0. -1.
         36    2    1    2    0    0  0.00000000000E+00  0.00000000000E+00  0.18388965648E+04  0.20935177511E+04  0.10006377956E+04 0.  0.
         25    2    3    3    0    0  0.94925298317E+02 -0.10158990273E+03  0.38539699235E+03  0.42846767793E+03  0.12538894975E+03 0.  0.
         35    2    3    3    0    0 -0.94925298317E+02  0.10158990273E+03  0.14534995724E+04  0.16650500731E+04  0.80024959757E+03 0.  0.
         22    1    5    5    0    0  0.22539426237E+03  0.44199435637E+02  0.64688134544E+02  0.23862254372E+03  0.00000000000E+00 0.  1.
         22    1    5    5    0    0 -0.32031956069E+03  0.57390467089E+02  0.13888114379E+04  0.14264275294E+04  0.00000000000E+00 0.  1.
          5    1    4    4  502    0  0.92261969876E+01  0.28640021231E+02  0.78779407157E+02  0.84460988148E+02  0.47000000000E+01 0.  1.
         -5    1    4    4    0  502  0.85699101329E+02 -0.13022992396E+03  0.30661758519E+03  0.34400668978E+03  0.47000000000E+01 0.  1.
<mgrwt>
<rscale>  0 0.10006378E+04</rscale>
<asrwt>0</asrwt>
<pdfrwt beam="1">  1        2 0.30249339E+00 0.10006378E+04</pdfrwt>
<pdfrwt beam="2">  1       -2 0.19586246E-01 0.10006378E+04</pdfrwt>
<totfact> 0.18166589E+02</totfact>
</mgrwt>
</event>
<event>
 9    1  0.4388925E-036  0.1000638E+04  0.7818608E-02  0.8680430E-01
          1   -1    0    0  501    0  0.00000000000E+00  0.00000000000E+00  0.91914655183E+03  0.91914655183E+03  0.00000000000E+00 0.  1.
         -1   -1    0    0    0  501 -0.00000000000E+00 -0.00000000000E+00 -0.27233869777E+03  0.27233869777E+03  0.00000000000E+00 0.  1.
         36    2    1    2    0    0 -0.42632564146E-13  0.00000000000E+00  0.64680785406E+03  0.11914852496E+04  0.10006381464E+04 0.  0.
         25    2    3    3    0    0 -0.12487395930E+03  0.29951197207E+02  0.52335273410E+02  0.18641294193E+03  0.12458019164E+03 0.  0.
         35    2    3    3    0    0  0.12487395930E+03 -0.29951197207E+02  0.59447258065E+03  0.10050723077E+04  0.80017630219E+03 0.  0.
         22    1    5    5    0    0  0.13477674985E+03 -0.14032955786E+02  0.79358932517E+03  0.80507497364E+03  0.00000000000E+00 0.  1.
         22    1    5    5    0    0 -0.99027905504E+01 -0.15918241422E+02 -0.19911674453E+03  0.19999733404E+03  0.00000000000E+00 0.  1.
          5    1    4    4  502    0 -0.12969298132E+03  0.57161967032E+02  0.19345801177E+02  0.14312270924E+03  0.47000000000E+01 0. -1.
         -5    1    4    4    0  502  0.48190220163E+01 -0.27210769824E+02  0.32989472232E+02  0.43290232683E+02  0.47000000000E+01 0. -1.
<mgrwt>
<rscale>  0 0.10006381E+04</rscale>
<asrwt>0</asrwt>
<pdfrwt beam="1">  1        1 0.14140716E+00 0.10006381E+04</pdfrwt>
<pdfrwt beam="2">  1       -1 0.41898262E-01 0.10006381E+04</pdfrwt>
<totfact> 0.11060915E+02</totfact>
</mgrwt>
</event>
<event>
 9    1  0.4388925E-036  0.9997921E+03  0.7818608E-02  0.8681236E-01
          2   -1    0    0  501    0  0.00000000000E+00  0.00000000000E+00  0.19235316265E+03  0.19235316265E+03  0.00000000000E+00 0. -1.
         -2   -1    0    0    0  501 -0.00000000000E+00 -0.00000000000E+00 -0.12991523771E+04  0.12991523771E+04  0.00000000000E+00 0. -1.
         36    2    1    2    0    0  0.71054273576E-14  0.14210854715E-13 -0.11067992145E+04  0.14915055398E+04  0.99979211540E+03 0.  0.
         25    2    3    3    0    0  0.43282990345E+02  0.10584615408E+03 -0.32945786495E+03  0.37040383557E+03  0.12481863258E+03 0.  0.
         35    2    3    3    0    0 -0.43282990345E+02 -0.10584615408E+03 -0.77734134953E+03  0.11211017042E+04  0.79970784160E+03 0.  0.
         22    1    5    5    0    0 -0.15049311525E+02 -0.19231069898E+03  0.11470758972E+03  0.22442753365E+03  0.00000000000E+00 0. -1.
         22    1    5    5    0    0 -0.28233678820E+02  0.86464544903E+02 -0.89204893925E+03  0.89667417056E+03  0.00000000000E+00 0. -1.
          5    1    4    4  502    0  0.61217097059E+02  0.20100932682E+02 -0.22450501874E+03  0.23361544021E+03  0.47000000000E+01 0.  1.
         -5    1    4    4    0  502 -0.17934106714E+02  0.85745221395E+02 -0.10495284621E+03  0.13678839535E+03  0.47000000000E+01 0.  1.
<mgrwt>
<rscale>  0 0.99979212E+03</rscale>
<asrwt>0</asrwt>
<pdfrwt beam="1">  1        2 0.29592794E-01 0.99979212E+03</pdfrwt>
<pdfrwt beam="2">  1       -2 0.19986960E+00 0.99979212E+03</pdfrwt>
<totfact> 0.26252753E+01</totfact>
</mgrwt>
</event>
<event>
 9    1  0.4388925E-036  0.1000202E+04  0.7818608E-02  0.8680845E-01
          1   -1    0    0  501    0  0.00000000000E+00  0.00000000000E+00  0.51063146907E+03  0.51063146907E+03  0.00000000000E+00 0. -1.
         -1   -1    0    0    0  501 -0.00000000000E+00 -0.00000000000E+00 -0.48978808469E+03  0.48978808469E+03  0.00000000000E+00 0. -1.
         36    2    1    2    0    0  0.00000000000E+00  0.00000000000E+00  0.20843384383E+02  0.10004195538E+04  0.10002023980E+04 0.  0.
         25    2    3    3    0    0  0.28320666172E+02 -0.13685564113E+03 -0.78149641751E+01  0.18773696495E+03  0.12511022221E+03 0.  0.
         35    2    3    3    0    0 -0.28320666172E+02  0.13685564113E+03  0.28658348558E+02  0.81268258882E+03  0.80006259916E+03 0.  0.
         22    1    5    5    0    0 -0.10006888959E+03  0.80588264669E+02  0.40529131333E+03  0.42516973049E+03  0.00000000000E+00 0.  1.
         22    1    5    5    0    0  0.71748223419E+02  0.56267376460E+02 -0.37663296477E+03  0.38751285833E+03  0.00000000000E+00 0.  1.
          5    1    4    4  502    0 -0.18467323023E+02 -0.63949295361E+02 -0.57218289922E+02  0.87900950498E+02  0.47000000000E+01 0. -1.
         -5    1    4    4    0  502  0.46787989195E+02 -0.72906345769E+02  0.49403325747E+02  0.99836014449E+02  0.47000000000E+01 0. -1.
<mgrwt>
<rscale>  0 0.10002024E+04</rscale>
<asrwt>0</asrwt>
<pdfrwt beam="1">  1        1 0.78558688E-01 0.10002024E+04</pdfrwt>
<pdfrwt beam="2">  1       -1 0.75352013E-01 0.10002024E+04</pdfrwt>
<totfact> 0.89829157E+01</totfact>
</mgrwt>
</event>
<event>
 9    1  0.4388925E-036  0.9995301E+03  0.7818608E-02  0.8681486E-01
         -2   -1    0    0    0  501 -0.00000000000E+00  0.00000000000E+00  0.16624608851E+03  0.16624608851E+03  0.00000000000E+00 0.  1.
          2   -1    0    0  501    0  0.00000000000E+00 -0.00000000000E+00 -0.15023818179E+04  0.15023818179E+04  0.00000000000E+00 0.  1.
         36    2    1    2    0    0  0.28421709430E-13  0.14210854715E-13 -0.13361357294E+04  0.16686279064E+04  0.99953009093E+03 0.  0.
         25    2    3    3    0    0  0.11062812898E+03  0.82366815648E+02 -0.27835982449E+03  0.33500521138E+03  0.12538510485E+03 0.  0.
         35    2    3    3    0    0 -0.11062812898E+03 -0.82366815648E+02 -0.10577759049E+04  0.13336226950E+04  0.80039787135E+03 0.  0.
         22    1    5    5    0    0  0.25676507141E+03 -0.21618224396E+02 -0.54371229735E+02  0.26334745137E+03  0.00000000000E+00 0. -1.
         22    1    5    5    0    0 -0.36739320039E+03 -0.60748591253E+02 -0.10034046751E+04  0.10702752436E+04  0.00000000000E+00 0. -1.
          5    1    4    4  502    0 -0.15660915688E+01  0.68078005006E+02 -0.69328465699E+02  0.97291282059E+02  0.47000000000E+01 0. -1.
         -5    1    4    4    0  502  0.11219422055E+03  0.14288810642E+02 -0.20903135880E+03  0.23771392932E+03  0.47000000000E+01 0. -1.
<mgrwt>
<rscale>  0 0.99953009E+03</rscale>
<asrwt>0</asrwt>
<pdfrwt beam="1">  1        2 0.23113566E+00 0.99953009E+03</pdfrwt>
<pdfrwt beam="2">  1       -2 0.25576322E-01 0.99953009E+03</pdfrwt>
<totfact> 0.20806935E+02</totfact>
</mgrwt>
</event>
<event>
 9    1  0.4388925E-036  0.9987285E+03  0.7818608E-02  0.8682250E-01
          1   -1    0    0  501    0  0.00000000000E+00  0.00000000000E+00  0.23211741739E+03  0.23211741739E+03  0.00000000000E+00 0.  1.
         -1   -1    0    0    0  501 -0.00000000000E+00 -0.00000000000E+00 -0.10743040055E+04  0.10743040055E+04  0.00000000000E+00 0.  1.
         36    2    1    2    0    0 -0.14210854715E-13 -0.28421709430E-13 -0.84218658811E+03  0.13064214229E+04  0.99872853418E+03 0.  0.
         25    2    3    3    0    0  0.25685088274E+02 -0.11877236691E+03 -0.68734880152E+02  0.18711738900E+03  0.12458665504E+03 0.  0.
         35    2    3    3    0    0 -0.25685088274E+02  0.11877236691E+03 -0.77345170796E+03  0.11193040339E+04  0.79990460483E+03 0.  0.
         22    1    5    5    0    0 -0.10723457456E+03 -0.31384361331E+03 -0.50342059290E+03  0.60285102716E+03  0.00000000000E+00 0. -1.
         22    1    5    5    0    0  0.81549486290E+02  0.43261598022E+03 -0.27003111506E+03  0.51645300672E+03  0.00000000000E+00 0. -1.
          5    1    4    4  502    0  0.32337567859E+02 -0.14884895756E+02 -0.74552023816E+02  0.82748852994E+02  0.47000000000E+01 0.  1.
         -5    1    4    4    0  502 -0.66524795850E+01 -0.10388747115E+03  0.58171436638E+01  0.10436853600E+03  0.47000000000E+01 0.  1.
<mgrwt>
<rscale>  0 0.99872853E+03</rscale>
<asrwt>0</asrwt>
<pdfrwt beam="1">  1        1 0.35710372E-01 0.99872853E+03</pdfrwt>
<pdfrwt beam="2">  1       -1 0.16527754E+00 0.99872853E+03</pdfrwt>
<totfact> 0.37387555E+01</totfact>
</mgrwt>
</event>
<event>
 9    1  0.4388925E-036  0.1001026E+04  0.7818608E-02  0.8680062E-01
          2   -1    0    0  501    0  0.00000000000E+00  0.00000000000E+00  0.20949017069E+04  0.20949017069E+04  0.00000000000E+00 0.  1.
         -2   -1    0    0    0  501 -0.00000000000E+00 -0.00000000000E+00 -0.11958226737E+03  0.11958226737E+03  0.00000000000E+00 0.  1.
         36    2    1    2    0    0 -0.28421709430E-13  0.14210854715E-13  0.19753194395E+04  0.22144839742E+04  0.10010256661E+04 0.  0.
         25    2    3    3    0    0  0.71891967813E+02  0.31681745527E+02  0.11511324857E+03  0.18768082663E+03  0.12570141071E+03 0.  0.
         35    2    3    3    0    0 -0.71891967813E+02 -0.31681745527E+02  0.18602061909E+04  0.20268031476E+04  0.80086936409E+03 0.  0.
         22    1    5    5    0    0  0.30180375139E+03  0.13595687529E+03  0.45200285289E+03  0.56024669148E+03  0.00000000000E+00 0. -1.
         22    1    5    5    0    0 -0.37369571920E+03 -0.16763862082E+03  0.14082033380E+04  0.14665564561E+04  0.00000000000E+00 0. -1.
          5    1    4    4  502    0  0.10215064994E+03  0.10552339385E+01  0.96274919464E+02  0.14045219443E+03  0.47000000000E+01 0. -1.
         -5    1    4    4    0  502 -0.30258682131E+02  0.30626511588E+02  0.18838329104E+02  0.47228632203E+02  0.47000000000E+01 0. -1.
<mgrwt>
<rscale>  0 0.10010257E+04</rscale>
<asrwt>0</asrwt>
<pdfrwt beam="1">  1        2 0.32229254E+00 0.10010257E+04</pdfrwt>
<pdfrwt beam="2">  1       -2 0.18397273E-01 0.10010257E+04</pdfrwt>
<totfact> 0.17082498E+02</totfact>
</mgrwt>
</event>
<event>
 9    1  0.4388925E-036  0.1000395E+04  0.7818608E-02  0.8680662E-01
         -2   -1    0    0    0  501 -0.00000000000E+00  0.00000000000E+00  0.28926411251E+03  0.28926411251E+03  0.00000000000E+00 0.  1.
          2   -1    0    0  501    0  0.00000000000E+00 -0.00000000000E+00 -0.86494484099E+03  0.86494484099E+03  0.00000000000E+00 0.  1.
         36    2    1    2    0    0 -0.71054273576E-14  0.00000000000E+00 -0.57568072848E+03  0.11542089535E+04  0.10003949256E+04 0.  0.
         25    2    3    3    0    0  0.36402194933E+02  0.97270819666E+02 -0.21483692487E+03  0.26961566551E+03  0.12550287108E+03 0.  0.
         35    2    3    3    0    0 -0.36402194933E+02 -0.97270819666E+02 -0.36084380362E+03  0.88459328799E+03  0.80094338276E+03 0.  0.
         22    1    5    5    0    0 -0.59930291743E+02  0.25109510853E+03 -0.45485025441E+03  0.52300014085E+03  0.00000000000E+00 0.  1.
         22    1    5    5    0    0  0.23528096810E+02 -0.34836592820E+03  0.94006450789E+02  0.36159314714E+03  0.00000000000E+00 0.  1.
          5    1    4    4  502    0  0.24280518656E+02 -0.26265909544E+02 -0.30022308880E+02  0.46934748544E+02  0.47000000000E+01 0.  1.
         -5    1    4    4    0  502  0.12121676277E+02  0.12353672921E+03 -0.18481461599E+03  0.22268091697E+03  0.47000000000E+01 0.  1.
<mgrwt>
<rscale>  0 0.10003949E+04</rscale>
<asrwt>0</asrwt>
<pdfrwt beam="1">  1        2 0.13306843E+00 0.10003949E+04</pdfrwt>
<pdfrwt beam="2">  1       -2 0.44502173E-01 0.10003949E+04</pdfrwt>
<totfact> 0.17955976E+02</totfact>
</mgrwt>
</event>
<event>
 9    1  0.4388925E-036  0.9999273E+03  0.7818608E-02  0.8681107E-01
         -2   -1    0    0    0  501 -0.00000000000E+00  0.00000000000E+00  0.17166175797E+03  0.17166175797E+03  0.00000000000E+00 0. -1.
          2   -1    0    0  501    0  0.00000000000E+00 -0.00000000000E+00 -0.14561405080E+04  0.14561405080E+04  0.00000000000E+00 0. -1.
         36    2    1    2    0    0  0.00000000000E+00 -0.21316282073E-13 -0.12844787501E+04  0.16278022660E+04  0.99992727626E+03 0.  0.
         25    2    3    3    0    0 -0.12019745461E+03  0.48349695834E+02 -0.32540948411E+03  0.37205023086E+03  0.12547876617E+03 0.  0.
         35    2    3    3    0    0  0.12019745461E+03 -0.48349695834E+02 -0.95906926596E+03  0.12557520351E+04  0.80019634819E+03 0.  0.
         22    1    5    5    0    0  0.44988510352E+02 -0.39586766093E+03 -0.27286110769E+03  0.48289580152E+03  0.00000000000E+00 0.  1.
         22    1    5    5    0    0  0.75208944254E+02  0.34751796510E+03 -0.68620815826E+03  0.77285623361E+03  0.00000000000E+00 0.  1.
          5    1    4    4  502    0 -0.13963649983E+03  0.40306435924E+02 -0.31727457565E+03  0.34901032537E+03  0.47000000000E+01 0.  1.
         -5    1    4    4    0  502  0.19439045229E+02  0.80432599101E+01 -0.81349084541E+01  0.23039905489E+02  0.47000000000E+01 0.  1.
<mgrwt>
<rscale>  0 0.99992728E+03</rscale>
<asrwt>0</asrwt>
<pdfrwt beam="1">  1        2 0.22402161E+00 0.99992728E+03</pdfrwt>
<pdfrwt beam="2">  1       -2 0.26409502E-01 0.99992728E+03</pdfrwt>
<totfact> 0.20873155E+02</totfact>
</mgrwt>
</event>
<event>
 9    1  0.4388925E-036  0.9999956E+03  0.7818608E-02  0.8681042E-01
          2   -1    0    0  501    0  0.00000000000E+00  0.00000000000E+00  0.38758539253E+04  0.38758539253E+04  0.00000000000E+00 0.  1.
         -2   -1    0    0    0  501 -0.00000000000E+00 -0.00000000000E+00 -0.64501341494E+02  0.64501341494E+02  0.00000000000E+00 0.  1.
         36    2    1    2    0    0  0.14210854715E-13  0.00000000000E+00  0.38113525839E+04  0.39403552668E+04  0.99999555523E+03 0.  0.
         25    2    3    3    0    0 -0.99354771860E+02 -0.54198990919E+02  0.40362549013E+03  0.43874971647E+03  0.12953330118E+03 0.  0.
         35    2    3    3    0    0  0.99354771860E+02  0.54198990919E+02  0.34077270937E+04  0.35016055504E+04  0.79738860273E+03 0.  0.
         22    1    5    5    0    0  0.16474181003E+03  0.11567646449E+03  0.34058940311E+04  0.34118374901E+04  0.00000000000E+00 0.  1.
         22    1    5    5    0    0 -0.65387038169E+02 -0.61477473575E+02  0.18330626735E+01  0.89768060224E+02  0.00000000000E+00 0.  1.
          5    1    4    4  502    0 -0.59011279685E+02  0.27050955834E+01  0.33701407243E+03  0.34218448779E+03  0.47000000000E+01 0.  1.
         -5    1    4    4    0  502 -0.40343492174E+02 -0.56904086503E+02  0.66611417698E+02  0.96565228676E+02  0.47000000000E+01 0.  1.
<mgrwt>
<rscale>  0 0.99999556E+03</rscale>
<asrwt>0</asrwt>
<pdfrwt beam="1">  1        2 0.59628503E+00 0.99999556E+03</pdfrwt>
<pdfrwt beam="2">  1       -2 0.99232864E-02 0.99999556E+03</pdfrwt>
<totfact> 0.29339571E+01</totfact>
</mgrwt>
</event>
<event>
 9    1  0.4388925E-036  0.9997284E+03  0.7818608E-02  0.8681297E-01
          2   -1    0    0  501    0  0.00000000000E+00  0.00000000000E+00  0.16446616901E+04  0.16446616901E+04  0.00000000000E+00 0.  1.
         -2   -1    0    0    0  501 -0.00000000000E+00 -0.00000000000E+00 -0.15192438879E+03  0.15192438879E+03  0.00000000000E+00 0.  1.
         36    2    1    2    0    0 -0.10658141036E-13  0.00000000000E+00  0.14927373013E+04  0.17965860789E+04  0.99972840718E+03 0.  0.
         25    2    3    3    0    0  0.22625070541E+02 -0.99907139042E+02  0.45916182083E+03  0.48589597209E+03  0.12154006637E+03 0.  0.
         35    2    3    3    0    0 -0.22625070541E+02  0.99907139042E+02  0.10335754805E+04  0.13106901068E+04  0.79946041301E+03 0.  0.
         22    1    5    5    0    0  0.12822459145E+03 -0.40013597562E+02  0.10892809779E+04  0.10975316317E+04  0.00000000000E+00 0.  1.
         22    1    5    5    0    0 -0.15084966199E+03  0.13992073660E+03 -0.55705497414E+02  0.21315847507E+03  0.00000000000E+00 0.  1.
          5    1    4    4  502    0 -0.26246162874E+01  0.26662971748E+02  0.11831542333E+03  0.12140194426E+03  0.47000000000E+01 0.  1.
         -5    1    4    4    0  502  0.25249686828E+02 -0.12657011079E+03  0.34084639750E+03  0.36449402782E+03  0.47000000000E+01 0.  1.
<mgrwt>
<rscale>  0 0.99972841E+03</rscale>
<asrwt>0</asrwt>
<pdfrwt beam="1">  1        2 0.25302486E+00 0.99972841E+03</pdfrwt>
<pdfrwt beam="2">  1       -2 0.23372984E-01 0.99972841E+03</pdfrwt>
<totfact> 0.20282230E+02</totfact>
</mgrwt>
</event>
