<event>
 9    1  0.2095749E-002  0.2740898E+03  0.7818608E-02  0.1098961E+00
          2   -1    0    0  501    0  0.00000000000E+00  0.00000000000E+00  0.28795810074E+04  0.28795810074E+04  0.00000000000E+00 0. -1.
         -2   -1    0    0    0  501 -0.00000000000E+00 -0.00000000000E+00 -0.65222365908E+01  0.65222365908E+01  0.00000000000E+00 0. -1.
         36    2    1    2    0    0  0.35527136788E-14  0.71054273576E-14  0.28730587708E+04  0.28861032439E+04  0.27408982916E+03 0.  0.
         25    2    3    3    0    0 -0.18778519089E+02 -0.39693060992E+02  0.14442897331E+04  0.14511642478E+04  0.13407710135E+03 0.  0.
         25    2    3    3    0    0  0.18778519089E+02  0.39693060992E+02  0.14287690377E+04  0.14349389962E+04  0.12546229625E+03 0.  0.
          5    1    4    4  502    0 -0.11636599329E+02 -0.30334522983E+02  0.75649668433E+02  0.82465484068E+02  0.47000000000E+01 0.  1.
         -5    1    4    4    0  502 -0.71419197594E+01 -0.93585380094E+01  0.13686400646E+04  0.13686987637E+04  0.47000000000E+01 0.  1.
          5    1    5    5  503    0 -0.28459980785E+02 -0.29326689488E+02  0.73155560359E+03  0.73271120939E+03  0.47000000000E+01 0. -1.
         -5    1    5    5    0  503  0.47238499874E+02  0.69019750481E+02  0.69721343411E+03  0.70222778678E+03  0.47000000000E+01 0. -1.
<mgrwt>
<rscale>  0 0.27408983E+03</rscale>
<asrwt>0</asrwt>
<pdfrwt beam="1">  1        2 0.44301145E+00 0.27408983E+03</pdfrwt>
<pdfrwt beam="2">  1       -2 0.10034233E-02 0.27408983E+03</pdfrwt>
<totfact> 0.52012400E+03</totfact>
</mgrwt>
</event>
<event>
 9    1  0.2095749E-002  0.2760090E+03  0.7818608E-02  0.1097889E+00
         -1   -1    0    0    0  501 -0.00000000000E+00  0.00000000000E+00  0.79554140095E+01  0.79554140095E+01  0.00000000000E+00 0. -1.
          1   -1    0    0  501    0  0.00000000000E+00 -0.00000000000E+00 -0.23939969461E+04  0.23939969461E+04  0.00000000000E+00 0. -1.
         36    2    1    2    0    0  0.00000000000E+00  0.00000000000E+00 -0.23860415321E+04  0.24019523601E+04  0.27600896249E+03 0.  0.
         25    2    3    3    0    0  0.16292429877E+02  0.36532595293E+02 -0.15789684091E+04  0.15847519916E+04  0.12921905461E+03 0.  0.
         25    2    3    3    0    0 -0.16292429877E+02 -0.36532595293E+02 -0.80707312296E+03  0.81720036851E+03  0.12185787906E+03 0.  0.
          5    1    4    4  502    0  0.37171125391E+01  0.35195223112E+02 -0.15647289733E+04  0.15651362147E+04  0.47000000000E+01 0. -1.
         -5    1    4    4    0  502  0.12575317338E+02  0.13373721817E+01 -0.14239435771E+02  0.19615776854E+02  0.47000000000E+01 0. -1.
          5    1    5    5  503    0 -0.27939090892E+02 -0.31247449167E+02 -0.80128764070E+03  0.80239701458E+03  0.47000000000E+01 0.  1.
         -5    1    5    5    0  503  0.11646661015E+02 -0.52851461258E+01 -0.57854822677E+01  0.14803353925E+02  0.47000000000E+01 0.  1.
<mgrwt>
<rscale>  0 0.27600896E+03</rscale>
<asrwt>0</asrwt>
<pdfrwt beam="1">  1        1 0.36830695E+00 0.27600896E+03</pdfrwt>
<pdfrwt beam="2">  1       -1 0.12239107E-02 0.27600896E+03</pdfrwt>
<totfact> 0.26156864E+03</totfact>
</mgrwt>
</event>
<event>
 9    1  0.2095749E-002  0.2776370E+03  0.7818608E-02  0.1096987E+00
         -2   -1    0    0    0  501 -0.00000000000E+00  0.00000000000E+00  0.23406544753E+02  0.23406544753E+02  0.00000000000E+00 0. -1.
          2   -1    0    0  501    0  0.00000000000E+00 -0.00000000000E+00 -0.82329858322E+03  0.82329858322E+03  0.00000000000E+00 0. -1.
         36    2    1    2    0    0  0.00000000000E+00  0.35527136788E-14 -0.79989203847E+03  0.84670512797E+03  0.27763699417E+03 0.  0.
         25    2    3    3    0    0  0.47178381301E+02 -0.30229086330E+02 -0.37006335310E+03  0.39510260705E+03  0.12656850898E+03 0.  0.
         25    2    3    3    0    0 -0.47178381301E+02  0.30229086330E+02 -0.42982868537E+03  0.45160252093E+03  0.12669862201E+03 0.  0.
          5    1    4    4  502    0 -0.38138077272E+02 -0.16162717312E+02 -0.19957659474E+03  0.20388392173E+03  0.47000000000E+01 0.  1.
         -5    1    4    4    0  502  0.85316458573E+02 -0.14066369018E+02 -0.17048675835E+03  0.19121868532E+03  0.47000000000E+01 0.  1.
          5    1    5    5  503    0  0.25437759179E+02  0.11812858589E+02 -0.19539902423E+02  0.34503927411E+02  0.47000000000E+01 0. -1.
         -5    1    5    5    0  503 -0.72616140480E+02  0.18416227740E+02 -0.41028878294E+03  0.41709859352E+03  0.47000000000E+01 0. -1.
<mgrwt>
<rscale>  0 0.27763699E+03</rscale>
<asrwt>0</asrwt>
<pdfrwt beam="1">  1        2 0.12666130E+00 0.27763699E+03</pdfrwt>
<pdfrwt beam="2">  1       -2 0.36010075E-02 0.27763699E+03</pdfrwt>
<totfact> 0.10977820E+04</totfact>
</mgrwt>
</event>
<event>
 9    1  0.2095749E-002  0.2755449E+03  0.7818608E-02  0.1098147E+00
         -2   -1    0    0    0  501 -0.00000000000E+00  0.00000000000E+00  0.12183187027E+04  0.12183187027E+04  0.00000000000E+00 0. -1.
          2   -1    0    0  501    0  0.00000000000E+00 -0.00000000000E+00 -0.15579868315E+02  0.15579868315E+02  0.00000000000E+00 0. -1.
         36    2    1    2    0    0  0.35527136788E-14  0.35527136788E-14  0.12027388344E+04  0.12338985710E+04  0.27554487805E+03 0.  0.
         25    2    3    3    0    0  0.18272042368E+02  0.46585224894E+01  0.78491648252E+03  0.79719130108E+03  0.13807431561E+03 0.  0.
         25    2    3    3    0    0 -0.18272042368E+02 -0.46585224894E+01  0.41782235190E+03  0.43670726996E+03  0.12562703741E+03 0.  0.
          5    1    4    4  502    0  0.64489960232E+02 -0.24571599178E+02  0.60887858698E+03  0.61279518776E+03  0.47000000000E+01 0.  1.
         -5    1    4    4    0  502 -0.46217917864E+02  0.29230121668E+02  0.17603789554E+03  0.18439611332E+03  0.47000000000E+01 0.  1.
          5    1    5    5  503    0 -0.34485596963E+02 -0.57369548401E+02  0.16965979545E+03  0.18244741070E+03  0.47000000000E+01 0.  1.
         -5    1    5    5    0  503  0.16213554595E+02  0.52711025912E+02  0.24816255645E+03  0.25425985926E+03  0.47000000000E+01 0.  1.
<mgrwt>
<rscale>  0 0.27554488E+03</rscale>
<asrwt>0</asrwt>
<pdfrwt beam="1">  1        2 0.23969038E-02 0.27554488E+03</pdfrwt>
<pdfrwt beam="2">  1       -2 0.18743357E+00 0.27554488E+03</pdfrwt>
<totfact> 0.74095725E+02</totfact>
</mgrwt>
</event>
<event>
 9    1  0.2095749E-002  0.2753969E+03  0.7818608E-02  0.1098230E+00
         -2   -1    0    0    0  501 -0.00000000000E+00  0.00000000000E+00  0.54368130745E+01  0.54368130745E+01  0.00000000000E+00 0.  1.
          2   -1    0    0  501    0  0.00000000000E+00 -0.00000000000E+00 -0.34874954946E+04  0.34874954946E+04  0.00000000000E+00 0.  1.
         36    2    1    2    0    0  0.00000000000E+00  0.00000000000E+00 -0.34820586815E+04  0.34929323077E+04  0.27539688526E+03 0.  0.
         25    2    3    3    0    0 -0.45559233621E+02  0.19884713075E+02 -0.20213432894E+04  0.20256963249E+04  0.12306852345E+03 0.  0.
         25    2    3    3    0    0  0.45559233621E+02 -0.19884713075E+02 -0.14607153921E+04  0.14672359828E+04  0.12892217350E+03 0.  0.
          5    1    4    4  502    0 -0.61519153619E+02 -0.38012775098E+02 -0.11211530188E+04  0.11234926608E+04  0.47000000000E+01 0.  1.
         -5    1    4    4    0  502  0.15959919998E+02  0.57897488173E+02 -0.90019027058E+03  0.90220366406E+03  0.47000000000E+01 0.  1.
          5    1    5    5  503    0 -0.44959582335E+02 -0.77024851969E+01 -0.56805838510E+03  0.56990623018E+03  0.47000000000E+01 0. -1.
         -5    1    5    5    0  503  0.90518815957E+02 -0.12182227878E+02 -0.89265700703E+03  0.89732975261E+03  0.47000000000E+01 0. -1.
<mgrwt>
<rscale>  0 0.27539689E+03</rscale>
<asrwt>0</asrwt>
<pdfrwt beam="1">  1        2 0.53653709E+00 0.27539689E+03</pdfrwt>
<pdfrwt beam="2">  1       -2 0.83643383E-03 0.27539689E+03</pdfrwt>
<totfact> 0.28559700E+03</totfact>
</mgrwt>
</event>
<event>
 9    1  0.2095749E-002  0.2746106E+03  0.7818608E-02  0.1098669E+00
         -1   -1    0    0    0  501 -0.00000000000E+00  0.00000000000E+00  0.14611432843E+02  0.14611432843E+02  0.00000000000E+00 0. -1.
          1   -1    0    0  501    0  0.00000000000E+00 -0.00000000000E+00 -0.12902738417E+04  0.12902738417E+04  0.00000000000E+00 0. -1.
         36    2    1    2    0    0  0.35527136788E-14  0.00000000000E+00 -0.12756624089E+04  0.13048852746E+04  0.27461063044E+03 0.  0.
         25    2    3    3    0    0 -0.26483552121E+02 -0.34314981363E+02 -0.47978040793E+03  0.49783039540E+03  0.12556658100E+03 0.  0.
         25    2    3    3    0    0  0.26483552121E+02  0.34314981363E+02 -0.79588200097E+03  0.80705487919E+03  0.12661169805E+03 0.  0.
          5    1    4    4  502    0 -0.33151755872E+02  0.52730496158E+01 -0.43936726629E+03  0.44067281361E+03  0.47000000000E+01 0.  1.
         -5    1    4    4    0  502  0.66682037513E+01 -0.39588030979E+02 -0.40413141648E+02  0.57157581788E+02  0.47000000000E+01 0.  1.
          5    1    5    5  503    0 -0.15904533022E+02 -0.42577977895E+02 -0.29368145622E+03  0.29721494932E+03  0.47000000000E+01 0. -1.
         -5    1    5    5    0  503  0.42388085143E+02  0.76892959258E+02 -0.50220054475E+03  0.50983992987E+03  0.47000000000E+01 0. -1.
<mgrwt>
<rscale>  0 0.27461063E+03</rscale>
<asrwt>0</asrwt>
<pdfrwt beam="1">  1        1 0.19850358E+00 0.27461063E+03</pdfrwt>
<pdfrwt beam="2">  1       -1 0.22479137E-02 0.27461063E+03</pdfrwt>
<totfact> 0.57234518E+03</totfact>
</mgrwt>
</event>
<event>
 9    1  0.2095749E-002  0.2748860E+03  0.7818608E-02  0.1098515E+00
         -3   -1    0    0    0  501 -0.00000000000E+00  0.00000000000E+00  0.14656819232E+03  0.14656819232E+03  0.00000000000E+00 0.  1.
          3   -1    0    0  501    0  0.00000000000E+00 -0.00000000000E+00 -0.12888596193E+03  0.12888596193E+03  0.00000000000E+00 0.  1.
         36    2    1    2    0    0  0.00000000000E+00 -0.71054273576E-14  0.17682230399E+02  0.27545415425E+03  0.27488603060E+03 0.  0.
         25    2    3    3    0    0 -0.38483400973E+02 -0.42465193533E+02 -0.39297143455E+02  0.12716283041E+03  0.10649814619E+03 0.  0.
         25    2    3    3    0    0  0.38483400973E+02  0.42465193533E+02  0.56979373854E+02  0.14829132384E+03  0.12433584708E+03 0.  0.
          5    1    4    4  502    0 -0.52522784323E+02  0.56059815766E+01 -0.53057609515E+02  0.75015130673E+02  0.47000000000E+01 0.  1.
         -5    1    4    4    0  502  0.14039383350E+02 -0.48071175110E+02  0.13760466060E+02  0.52147699733E+02  0.47000000000E+01 0.  1.
          5    1    5    5  503    0  0.54491702735E+02  0.76641783618E+02  0.22161996036E+02  0.96729275462E+02  0.47000000000E+01 0.  1.
         -5    1    5    5    0  503 -0.16008301763E+02 -0.34176590085E+02  0.34817377818E+02  0.51562048381E+02  0.47000000000E+01 0.  1.
<mgrwt>
<rscale>  0 0.27488603E+03</rscale>
<asrwt>0</asrwt>
<pdfrwt beam="1">  1        3 0.19828609E-01 0.27488603E+03</pdfrwt>
<pdfrwt beam="2">  1       -3 0.22548953E-01 0.27488603E+03</pdfrwt>
<totfact> 0.10495287E+03</totfact>
</mgrwt>
</event>
<event>
 9    1  0.2095749E-002  0.2749571E+03  0.7818608E-02  0.1098476E+00
         -2   -1    0    0    0  501 -0.00000000000E+00  0.00000000000E+00  0.17010783035E+03  0.17010783035E+03  0.00000000000E+00 0. -1.
          2   -1    0    0  501    0  0.00000000000E+00 -0.00000000000E+00 -0.11110804848E+03  0.11110804848E+03  0.00000000000E+00 0. -1.
         36    2    1    2    0    0  0.71054273576E-14  0.35527136788E-14  0.58999781871E+02  0.28121587883E+03  0.27495708074E+03 0.  0.
         25    2    3    3    0    0 -0.34523724084E+02  0.27197723830E+02 -0.73460979166E+01  0.13507049498E+03  0.12750870462E+03 0.  0.
         25    2    3    3    0    0  0.34523724084E+02 -0.27197723830E+02  0.66345879788E+02  0.14614538385E+03  0.12257688914E+03 0.  0.
          5    1    4    4  502    0 -0.38381773215E+02 -0.69776438457E+01  0.52686168060E+02  0.65724959746E+02  0.47000000000E+01 0.  1.
         -5    1    4    4    0  502  0.38580491312E+01  0.34175367675E+02 -0.60032265977E+02  0.69345535236E+02  0.47000000000E+01 0.  1.
          5    1    5    5  503    0  0.55382604218E+02 -0.62943318433E+02  0.61767403822E+02  0.10424200862E+03  0.47000000000E+01 0.  1.
         -5    1    5    5    0  503 -0.20858880133E+02  0.35745594603E+02  0.45784759656E+01  0.41903375236E+02  0.47000000000E+01 0.  1.
<mgrwt>
<rscale>  0 0.27495708E+03</rscale>
<asrwt>0</asrwt>
<pdfrwt beam="1">  1        2 0.17093546E-01 0.27495708E+03</pdfrwt>
<pdfrwt beam="2">  1       -2 0.26170435E-01 0.27495708E+03</pdfrwt>
<totfact> 0.43437625E+03</totfact>
</mgrwt>
</event>
<event>
 9    1  0.2095749E-002  0.2753873E+03  0.7818608E-02  0.1098235E+00
         -1   -1    0    0    0  501 -0.00000000000E+00  0.00000000000E+00  0.11905923829E+04  0.11905923829E+04  0.00000000000E+00 0. -1.
          1   -1    0    0  501    0  0.00000000000E+00 -0.00000000000E+00 -0.15924463556E+02  0.15924463556E+02  0.00000000000E+00 0. -1.
         36    2    1    2    0    0  0.71054273576E-14 -0.35527136788E-14  0.11746679193E+04  0.12065168464E+04  0.27538732731E+03 0.  0.
         25    2    3    3    0    0 -0.27543209219E+02 -0.30285677962E+02  0.67885523583E+03  0.69178315636E+03  0.12666354465E+03 0.  0.
         25    2    3    3    0    0  0.27543209219E+02  0.30285677962E+02  0.49581268348E+03  0.51473369007E+03  0.13207840067E+03 0.  0.
          5    1    4    4  502    0  0.39894019337E+02  0.23354198108E+02  0.21412773049E+03  0.21911121905E+03  0.47000000000E+01 0.  1.
         -5    1    4    4    0  502 -0.67437228556E+02 -0.53639876070E+02  0.46472750534E+03  0.47267193731E+03  0.47000000000E+01 0.  1.
          5    1    5    5  503    0  0.28097426951E+02 -0.31209746932E+02  0.53664128513E+02  0.68304043759E+02  0.47000000000E+01 0. -1.
         -5    1    5    5    0  503 -0.55421773199E+00  0.61495424894E+02  0.44214855497E+03  0.44642964631E+03  0.47000000000E+01 0. -1.
<mgrwt>
<rscale>  0 0.27538733E+03</rscale>
<asrwt>0</asrwt>
<pdfrwt beam="1">  1        1 0.24499184E-02 0.27538733E+03</pdfrwt>
<pdfrwt beam="2">  1       -1 0.18316799E+00 0.27538733E+03</pdfrwt>
<totfact> 0.98637412E+02</totfact>
</mgrwt>
</event>
<event>
 9    1  0.2095749E-002  0.2744605E+03  0.7818608E-02  0.1098754E+00
          1   -1    0    0  501    0  0.00000000000E+00  0.00000000000E+00  0.20352404148E+04  0.20352404148E+04  0.00000000000E+00 0. -1.
         -1   -1    0    0    0  501 -0.00000000000E+00 -0.00000000000E+00 -0.92530276119E+01  0.92530276119E+01  0.00000000000E+00 0. -1.
         36    2    1    2    0    0  0.71054273576E-14  0.35527136788E-14  0.20259873871E+04  0.20444934424E+04  0.27446045802E+03 0.  0.
         25    2    3    3    0    0 -0.16124567904E+02  0.25663884089E+02  0.66276451697E+03  0.67525775850E+03  0.12568849912E+03 0.  0.
         25    2    3    3    0    0  0.16124567904E+02 -0.25663884089E+02  0.13632228702E+04  0.13692356839E+04  0.12454367748E+03 0.  0.
          5    1    4    4  502    0  0.38721118572E+02 -0.23351017700E+02  0.13684770882E+03  0.14420118051E+03  0.47000000000E+01 0.  1.
         -5    1    4    4    0  502 -0.54845686477E+02  0.49014901789E+02  0.52591680815E+03  0.53105657798E+03  0.47000000000E+01 0.  1.
          5    1    5    5  503    0  0.49966121049E+01 -0.29988734778E+02  0.76568834809E+02  0.82517675743E+02  0.47000000000E+01 0. -1.
         -5    1    5    5    0  503  0.11127955799E+02  0.43248506889E+01  0.12866540354E+04  0.12867180081E+04  0.47000000000E+01 0. -1.
<mgrwt>
<rscale>  0 0.27446046E+03</rscale>
<asrwt>0</asrwt>
<pdfrwt beam="1">  1        1 0.31311355E+00 0.27446046E+03</pdfrwt>
<pdfrwt beam="2">  1       -1 0.14235443E-02 0.27446046E+03</pdfrwt>
<totfact> 0.36048981E+03</totfact>
</mgrwt>
</event>
<event>
 9    1  0.2095749E-002  0.2747866E+03  0.7818608E-02  0.1098571E+00
          2   -1    0    0  501    0  0.00000000000E+00  0.00000000000E+00  0.10031171344E+02  0.10031171344E+02  0.00000000000E+00 0.  1.
         -2   -1    0    0    0  501 -0.00000000000E+00 -0.00000000000E+00 -0.18818254021E+04  0.18818254021E+04  0.00000000000E+00 0.  1.
         36    2    1    2    0    0 -0.71054273576E-14  0.71054273576E-14 -0.18717942307E+04  0.18918565734E+04  0.27478655751E+03 0.  0.
         25    2    3    3    0    0 -0.33315659293E+02 -0.41337905797E+02 -0.82884506648E+03  0.83980648655E+03  0.12438663521E+03 0.  0.
         25    2    3    3    0    0  0.33315659293E+02  0.41337905797E+02 -0.10429491642E+04  0.10520500868E+04  0.12746635027E+03 0.  0.
          5    1    4    4  502    0 -0.30444745634E+02 -0.84618689546E+02 -0.61479726437E+03  0.62135736209E+03  0.47000000000E+01 0.  1.
         -5    1    4    4    0  502 -0.28709136583E+01  0.43280783749E+02 -0.21404780211E+03  0.21844912446E+03  0.47000000000E+01 0.  1.
          5    1    5    5  503    0 -0.45070788644E+02  0.60617519836E+01 -0.22601986030E+03  0.23059745895E+03  0.47000000000E+01 0. -1.
         -5    1    5    5    0  503  0.78386447936E+02  0.35276153814E+02 -0.81692930393E+03  0.82145262789E+03  0.47000000000E+01 0. -1.
<mgrwt>
<rscale>  0 0.27478656E+03</rscale>
<asrwt>0</asrwt>
<pdfrwt beam="1">  1        2 0.15432577E-02 0.27478656E+03</pdfrwt>
<pdfrwt beam="2">  1       -2 0.28951150E+00 0.27478656E+03</pdfrwt>
<totfact> 0.33106413E+02</totfact>
</mgrwt>
</event>
<event>
 9    1  0.2095749E-002  0.2749223E+03  0.7818608E-02  0.1098495E+00
         -2   -1    0    0    0  501 -0.00000000000E+00  0.00000000000E+00  0.49130632350E+02  0.49130632350E+02  0.00000000000E+00 0. -1.
          2   -1    0    0  501    0  0.00000000000E+00 -0.00000000000E+00 -0.38459859752E+03  0.38459859752E+03  0.00000000000E+00 0. -1.
         36    2    1    2    0    0  0.71054273576E-14  0.71054273576E-14 -0.33546796517E+03  0.43372922987E+03  0.27492233301E+03 0.  0.
         25    2    3    3    0    0 -0.26331351080E+02 -0.49227271832E+02 -0.17759056238E+03  0.22882531813E+03  0.13306372170E+03 0.  0.
         25    2    3    3    0    0  0.26331351080E+02  0.49227271832E+02 -0.15787740279E+03  0.20490391173E+03  0.11808333663E+03 0.  0.
          5    1    4    4  502    0 -0.35180579241E+02 -0.92722457741E+02 -0.11462939564E+03  0.15164799923E+03  0.47000000000E+01 0. -1.
         -5    1    4    4    0  502  0.88492281607E+01  0.43495185909E+02 -0.62961166741E+02  0.77177318907E+02  0.47000000000E+01 0. -1.
          5    1    5    5  503    0  0.40037929108E+02 -0.29534845468E+02 -0.51622216374E+02  0.71849050707E+02  0.47000000000E+01 0. -1.
         -5    1    5    5    0  503 -0.13706578028E+02  0.78762117300E+02 -0.10625518641E+03  0.13305486103E+03  0.47000000000E+01 0. -1.
<mgrwt>
<rscale>  0 0.27492233E+03</rscale>
<asrwt>0</asrwt>
<pdfrwt beam="1">  1        2 0.59169013E-01 0.27492233E+03</pdfrwt>
<pdfrwt beam="2">  1       -2 0.75585590E-02 0.27492233E+03</pdfrwt>
<totfact> 0.85566379E+03</totfact>
</mgrwt>
</event>
<event>
 9    1  0.2095749E-002  0.2753703E+03  0.7818608E-02  0.1098245E+00
          4   -1    0    0  501    0  0.00000000000E+00  0.00000000000E+00  0.70147885512E+02  0.70147885512E+02  0.00000000000E+00 0. -1.
         -4   -1    0    0    0  501 -0.00000000000E+00 -0.00000000000E+00 -0.27024611788E+03  0.27024611788E+03  0.00000000000E+00 0. -1.
         36    2    1    2    0    0  0.00000000000E+00  0.00000000000E+00 -0.20009823236E+03  0.34039400339E+03  0.27537025066E+03 0.  0.
         25    2    3    3    0    0  0.45012376814E+02 -0.45421813614E+02 -0.91162445678E+02  0.16700209537E+03  0.12445823852E+03 0.  0.
         25    2    3    3    0    0 -0.45012376814E+02  0.45421813614E+02 -0.10893578669E+03  0.17339190802E+03  0.11877917717E+03 0.  0.
          5    1    4    4  502    0 -0.43245526497E+02 -0.20426703918E+02 -0.30024825912E+02  0.56665738908E+02  0.47000000000E+01 0.  1.
         -5    1    4    4    0  502  0.88257903311E+02 -0.24995109695E+02 -0.61137619767E+02  0.11033635646E+03  0.47000000000E+01 0.  1.
          5    1    5    5  503    0 -0.80746648615E+02  0.16857677121E+02 -0.93749208894E+02  0.12496082069E+03  0.47000000000E+01 0.  1.
         -5    1    5    5    0  503  0.35734271801E+02  0.28564136493E+02 -0.15186577792E+02  0.48431087328E+02  0.47000000000E+01 0.  1.
<mgrwt>
<rscale>  0 0.27537025E+03</rscale>
<asrwt>0</asrwt>
<pdfrwt beam="1">  1        4 0.10791982E-01 0.27537025E+03</pdfrwt>
<pdfrwt beam="2">  1       -4 0.41576326E-01 0.27537025E+03</pdfrwt>
<totfact> 0.70400656E+02</totfact>
</mgrwt>
</event>
<event>
 9    1  0.2095749E-002  0.2684845E+03  0.7818608E-02  0.1102150E+00
         -2   -1    0    0    0  501 -0.00000000000E+00  0.00000000000E+00  0.11033801511E+02  0.11033801511E+02  0.00000000000E+00 0.  1.
          2   -1    0    0  501    0  0.00000000000E+00 -0.00000000000E+00 -0.16332521226E+04  0.16332521226E+04  0.00000000000E+00 0.  1.
         36    2    1    2    0    0 -0.35527136788E-14  0.00000000000E+00 -0.16222183211E+04  0.16442859241E+04  0.26848448549E+03 0.  0.
         25    2    3    3    0    0  0.24382508223E+02  0.28293292894E+02 -0.64979303498E+03  0.66318091046E+03  0.12721208496E+03 0.  0.
         25    2    3    3    0    0 -0.24382508223E+02 -0.28293292894E+02 -0.97242528608E+03  0.98110501363E+03  0.12474411255E+03 0.  0.
          5    1    4    4  502    0 -0.30462088664E+02 -0.71894763056E+01 -0.48233082956E+03  0.48336812738E+03  0.47000000000E+01 0.  1.
         -5    1    4    4    0  502  0.54844596886E+02  0.35482769200E+02 -0.16746220541E+03  0.17981278308E+03  0.47000000000E+01 0.  1.
          5    1    5    5  503    0 -0.62848505697E+02  0.47229170038E+00 -0.28026376521E+03  0.28726299068E+03  0.47000000000E+01 0.  1.
         -5    1    5    5    0  503  0.38465997474E+02 -0.28765584595E+02 -0.69216152088E+03  0.69384202294E+03  0.47000000000E+01 0.  1.
<mgrwt>
<rscale>  0 0.26848449E+03</rscale>
<asrwt>0</asrwt>
<pdfrwt beam="1">  1        2 0.25126947E+00 0.26848449E+03</pdfrwt>
<pdfrwt beam="2">  1       -2 0.16975085E-02 0.26848449E+03</pdfrwt>
<totfact> 0.11395219E+04</totfact>
</mgrwt>
</event>
<event>
 9    1  0.2095749E-002  0.2747274E+03  0.7818608E-02  0.1098604E+00
          1   -1    0    0  501    0  0.00000000000E+00  0.00000000000E+00  0.17919550772E+04  0.17919550772E+04  0.00000000000E+00 0.  1.
         -1   -1    0    0    0  501 -0.00000000000E+00 -0.00000000000E+00 -0.10529723476E+02  0.10529723476E+02  0.00000000000E+00 0.  1.
         36    2    1    2    0    0 -0.17763568394E-14  0.00000000000E+00  0.17814253537E+04  0.18024848006E+04  0.27472743906E+03 0.  0.
         25    2    3    3    0    0 -0.15336055429E+02 -0.21425830668E+02  0.11492365679E+04  0.11572294130E+04  0.13319521242E+03 0.  0.
         25    2    3    3    0    0  0.15336055429E+02  0.21425830668E+02  0.63218878581E+03  0.64525538761E+03  0.12648159361E+03 0.  0.
          5    1    4    4  502    0  0.25350795472E+02 -0.52580131686E+02  0.93757666217E+03  0.93940375799E+03  0.47000000000E+01 0.  1.
         -5    1    4    4    0  502 -0.40686850901E+02  0.31154301018E+02  0.21165990570E+03  0.21782565503E+03  0.47000000000E+01 0.  1.
          5    1    5    5  503    0 -0.11001568872E+02  0.71062597411E+02  0.31984245006E+03  0.32786004655E+03  0.47000000000E+01 0. -1.
         -5    1    5    5    0  503  0.26337624301E+02 -0.49636766743E+02  0.31234633575E+03  0.31739534106E+03  0.47000000000E+01 0. -1.
<mgrwt>
<rscale>  0 0.27472744E+03</rscale>
<asrwt>0</asrwt>
<pdfrwt beam="1">  1        1 0.27568515E+00 0.27472744E+03</pdfrwt>
<pdfrwt beam="2">  1       -1 0.16199589E-02 0.27472744E+03</pdfrwt>
<totfact> 0.42968282E+03</totfact>
</mgrwt>
</event>
<event>
 9    1  0.2095749E-002  0.2743495E+03  0.7818608E-02  0.1098816E+00
          1   -1    0    0  501    0  0.00000000000E+00  0.00000000000E+00  0.88328017383E+03  0.88328017383E+03  0.00000000000E+00 0.  1.
         -1   -1    0    0    0  501 -0.00000000000E+00 -0.00000000000E+00 -0.21303441810E+02  0.21303441810E+02  0.00000000000E+00 0.  1.
         36    2    1    2    0    0  0.53290705182E-14 -0.14210854715E-13  0.86197673202E+03  0.90458361564E+03  0.27434946900E+03 0.  0.
         25    2    3    3    0    0 -0.15736805523E+02  0.45941741315E+02  0.42787163720E+03  0.44879366341E+03  0.12642517059E+03 0.  0.
         25    2    3    3    0    0  0.15736805523E+02 -0.45941741315E+02  0.43410509482E+03  0.45578995222E+03  0.13014974667E+03 0.  0.
          5    1    4    4  502    0  0.10891669371E+02  0.79402813381E+02  0.17830191064E+03  0.19554308111E+03  0.47000000000E+01 0.  1.
         -5    1    4    4    0  502 -0.26628474894E+02 -0.33461072067E+02  0.24956972656E+03  0.25325058230E+03  0.47000000000E+01 0.  1.
          5    1    5    5  503    0  0.65093128168E+02 -0.14671684792E+01  0.28666903293E+03  0.29400763996E+03  0.47000000000E+01 0.  1.
         -5    1    5    5    0  503 -0.49356322645E+02 -0.44474572836E+02  0.14743606189E+03  0.16178231226E+03  0.47000000000E+01 0.  1.
<mgrwt>
<rscale>  0 0.27434947E+03</rscale>
<asrwt>0</asrwt>
<pdfrwt beam="1">  1        1 0.13588923E+00 0.27434947E+03</pdfrwt>
<pdfrwt beam="2">  1       -1 0.32774533E-02 0.27434947E+03</pdfrwt>
<totfact> 0.65053979E+03</totfact>
</mgrwt>
</event>
<event>
 9    1  0.2095749E-002  0.2760687E+03  0.7818608E-02  0.1097856E+00
         -3   -1    0    0    0  501 -0.00000000000E+00  0.00000000000E+00  0.59745663665E+02  0.59745663665E+02  0.00000000000E+00 0.  1.
          3   -1    0    0  501    0  0.00000000000E+00 -0.00000000000E+00 -0.31890989561E+03  0.31890989561E+03  0.00000000000E+00 0.  1.
         36    2    1    2    0    0 -0.88817841970E-15 -0.10658141036E-13 -0.25916423194E+03  0.37865555927E+03  0.27606871146E+03 0.  0.
         25    2    3    3    0    0  0.38473013083E+01 -0.30160876713E+02 -0.55258007386E+02  0.13932344215E+03  0.12423000419E+03 0.  0.
         25    2    3    3    0    0 -0.38473013083E+01  0.30160876713E+02 -0.20390622456E+03  0.23933211712E+03  0.12156329076E+03 0.  0.
          5    1    4    4  502    0  0.11322157826E+01 -0.53107719738E+02  0.22640410465E+02  0.57934359359E+02  0.47000000000E+01 0.  1.
         -5    1    4    4    0  502  0.27150855258E+01  0.22946843025E+02 -0.77898417851E+02  0.81389082793E+02  0.47000000000E+01 0.  1.
          5    1    5    5  503    0  0.35854877088E+02 -0.10239329905E+02 -0.12410432301E+02  0.39579349639E+02  0.47000000000E+01 0. -1.
         -5    1    5    5    0  503 -0.39702178397E+02  0.40400206619E+02 -0.19149579225E+03  0.19975276748E+03  0.47000000000E+01 0. -1.
<mgrwt>
<rscale>  0 0.27606871E+03</rscale>
<asrwt>0</asrwt>
<pdfrwt beam="1">  1        3 0.49063062E-01 0.27606871E+03</pdfrwt>
<pdfrwt beam="2">  1       -3 0.91916403E-02 0.27606871E+03</pdfrwt>
<totfact> 0.89614586E+02</totfact>
</mgrwt>
</event>
<event>
 9    1  0.2095749E-002  0.2752527E+03  0.7818608E-02  0.1098310E+00
          1   -1    0    0  501    0  0.00000000000E+00  0.00000000000E+00  0.14154418044E+04  0.14154418044E+04  0.00000000000E+00 0.  1.
         -1   -1    0    0    0  501 -0.00000000000E+00 -0.00000000000E+00 -0.13381693199E+02  0.13381693199E+02  0.00000000000E+00 0.  1.
         36    2    1    2    0    0  0.00000000000E+00  0.00000000000E+00  0.14020601112E+04  0.14288234976E+04  0.27525266914E+03 0.  0.
         25    2    3    3    0    0 -0.64915909007E+01 -0.61528995361E+02  0.72434579476E+03  0.73739758631E+03  0.12349255798E+03 0.  0.
         25    2    3    3    0    0  0.64915909007E+01  0.61528995361E+02  0.67771431648E+03  0.69142591134E+03  0.12225030912E+03 0.  0.
          5    1    4    4  502    0 -0.35753197507E+02  0.17636580243E+01  0.52343078717E+03  0.52467445200E+03  0.47000000000E+01 0.  1.
         -5    1    4    4    0  502  0.29261606607E+02 -0.63292653385E+02  0.20091500759E+03  0.21272313431E+03  0.47000000000E+01 0.  1.
          5    1    5    5  503    0 -0.50735793800E+02  0.39985924846E+02  0.48187664653E+03  0.48621002399E+03  0.47000000000E+01 0. -1.
         -5    1    5    5    0  503  0.57227384701E+02  0.21543070515E+02  0.19583766995E+03  0.20521588735E+03  0.47000000000E+01 0. -1.
<mgrwt>
<rscale>  0 0.27525267E+03</rscale>
<asrwt>0</asrwt>
<pdfrwt beam="1">  1        1 0.21776016E+00 0.27525267E+03</pdfrwt>
<pdfrwt beam="2">  1       -1 0.20587231E-02 0.27525267E+03</pdfrwt>
<totfact> 0.53557996E+03</totfact>
</mgrwt>
</event>
<event>
 9    1  0.2095749E-002  0.2809603E+03  0.7818608E-02  0.1095166E+00
         -2   -1    0    0    0  501 -0.00000000000E+00  0.00000000000E+00  0.16740904883E+02  0.16740904883E+02  0.00000000000E+00 0. -1.
          2   -1    0    0  501    0  0.00000000000E+00 -0.00000000000E+00 -0.11788298238E+04  0.11788298238E+04  0.00000000000E+00 0. -1.
         36    2    1    2    0    0 -0.71054273576E-14  0.35527136788E-14 -0.11620889190E+04  0.11955707287E+04  0.28096033851E+03 0.  0.
         25    2    3    3    0    0 -0.62030222204E+02 -0.23628291808E+02 -0.62828064446E+03  0.64384166483E+03  0.12405432891E+03 0.  0.
         25    2    3    3    0    0  0.62030222204E+02  0.23628291808E+02 -0.53380827450E+03  0.55172906390E+03  0.12266882810E+03 0.  0.
          5    1    4    4  502    0 -0.91054719553E+02  0.14682889190E+02 -0.40412362939E+03  0.41454136949E+03  0.47000000000E+01 0. -1.
         -5    1    4    4    0  502  0.29024497349E+02 -0.38311180997E+02 -0.22415701507E+03  0.22930029534E+03  0.47000000000E+01 0. -1.
          5    1    5    5  503    0  0.52822177150E+02 -0.42939316312E+02 -0.33309965527E+03  0.34001681962E+03  0.47000000000E+01 0. -1.
         -5    1    5    5    0  503  0.92080450546E+01  0.66567608119E+02 -0.20070861923E+03  0.21171224428E+03  0.47000000000E+01 0. -1.
<mgrwt>
<rscale>  0 0.28096034E+03</rscale>
<asrwt>0</asrwt>
<pdfrwt beam="1">  1        2 0.18135846E+00 0.28096034E+03</pdfrwt>
<pdfrwt beam="2">  1       -2 0.25755235E-02 0.28096034E+03</pdfrwt>
<totfact> 0.10918252E+04</totfact>
</mgrwt>
</event>
<event>
 9    1  0.2095749E-002  0.2708181E+03  0.7818608E-02  0.1100812E+00
          2   -1    0    0  501    0  0.00000000000E+00  0.00000000000E+00  0.60029461004E+03  0.60029461004E+03  0.00000000000E+00 0. -1.
         -2   -1    0    0    0  501 -0.00000000000E+00 -0.00000000000E+00 -0.30544358113E+02  0.30544358113E+02  0.00000000000E+00 0. -1.
         36    2    1    2    0    0  0.00000000000E+00  0.00000000000E+00  0.56975025193E+03  0.63083896815E+03  0.27081812009E+03 0.  0.
         25    2    3    3    0    0  0.11442649736E+02 -0.51984090908E+02  0.31685829560E+03  0.34401313939E+03  0.12293323652E+03 0.  0.
         25    2    3    3    0    0 -0.11442649736E+02  0.51984090908E+02  0.25289195632E+03  0.28682582876E+03  0.12442441292E+03 0.  0.
          5    1    4    4  502    0 -0.38494155578E+02 -0.82915468550E+01  0.23600332417E+03  0.23931194868E+03  0.47000000000E+01 0. -1.
         -5    1    4    4    0  502  0.49936805314E+02 -0.43692544053E+02  0.80854971434E+02  0.10470119071E+03  0.47000000000E+01 0. -1.
          5    1    5    5  503    0  0.33063509434E+02 -0.10056312985E+02  0.16921321213E+02  0.38765270521E+02  0.47000000000E+01 0.  1.
         -5    1    5    5    0  503 -0.44506159170E+02  0.62040403893E+02  0.23597063511E+03  0.24806055824E+03  0.47000000000E+01 0.  1.
<mgrwt>
<rscale>  0 0.27081812E+03</rscale>
<asrwt>0</asrwt>
<pdfrwt beam="1">  1        2 0.92353008E-01 0.27081812E+03</pdfrwt>
<pdfrwt beam="2">  1       -2 0.46991325E-02 0.27081812E+03</pdfrwt>
<totfact> 0.10793444E+04</totfact>
</mgrwt>
</event>
<event>
 9    1  0.2095749E-002  0.2748563E+03  0.7818608E-02  0.1098532E+00
          2   -1    0    0  501    0  0.00000000000E+00  0.00000000000E+00  0.83345512312E+03  0.83345512312E+03  0.00000000000E+00 0. -1.
         -2   -1    0    0    0  501 -0.00000000000E+00 -0.00000000000E+00 -0.22660489971E+02  0.22660489971E+02  0.00000000000E+00 0. -1.
         36    2    1    2    0    0  0.71054273576E-14 -0.71054273576E-14  0.81079463315E+03  0.85611561309E+03  0.27485633672E+03 0.  0.
         25    2    3    3    0    0 -0.15436723159E+01  0.51538961143E+02  0.48353284143E+03  0.50220276288E+03  0.12547891801E+03 0.  0.
         25    2    3    3    0    0  0.15436723159E+01 -0.51538961143E+02  0.32726179173E+03  0.35391285022E+03  0.12448043133E+03 0.  0.
          5    1    4    4  502    0 -0.60713529410E+02  0.13341498309E+02  0.27744800788E+03  0.28436528499E+03  0.47000000000E+01 0. -1.
         -5    1    4    4    0  502  0.59169857094E+02  0.38197462834E+02  0.20608483355E+03  0.21783747789E+03  0.47000000000E+01 0. -1.
          5    1    5    5  503    0  0.27997696184E+02 -0.16743210185E+02  0.11202522831E+02  0.34810811492E+02  0.47000000000E+01 0.  1.
         -5    1    5    5    0  503 -0.26454023869E+02 -0.34795750958E+02  0.31605926889E+03  0.31910203872E+03  0.47000000000E+01 0.  1.
<mgrwt>
<rscale>  0 0.27485634E+03</rscale>
<asrwt>0</asrwt>
<pdfrwt beam="1">  1        2 0.12822384E+00 0.27485634E+03</pdfrwt>
<pdfrwt beam="2">  1       -2 0.34862299E-02 0.27485634E+03</pdfrwt>
<totfact> 0.11338453E+04</totfact>
</mgrwt>
</event>
<event>
 9    1  0.2095749E-002  0.2780837E+03  0.7818608E-02  0.1096740E+00
          1   -1    0    0  501    0  0.00000000000E+00  0.00000000000E+00  0.72128961135E+03  0.72128961135E+03  0.00000000000E+00 0.  1.
         -1   -1    0    0    0  501 -0.00000000000E+00 -0.00000000000E+00 -0.26802876929E+02  0.26802876929E+02  0.00000000000E+00 0.  1.
         36    2    1    2    0    0  0.00000000000E+00  0.71054273576E-14  0.69448673442E+03  0.74809248827E+03  0.27808370454E+03 0.  0.
         25    2    3    3    0    0 -0.37719543891E+02 -0.52846290300E+02  0.36367364782E+03  0.38839713604E+03  0.11990962754E+03 0.  0.
         25    2    3    3    0    0  0.37719543891E+02  0.52846290300E+02  0.33081308660E+03  0.35969535224E+03  0.12541113892E+03 0.  0.
          5    1    4    4  502    0 -0.16909788238E+02 -0.85775321526E+02  0.17491082128E+03  0.19559967311E+03  0.47000000000E+01 0. -1.
         -5    1    4    4    0  502 -0.20809755653E+02  0.32929031226E+02  0.18876282654E+03  0.19279746292E+03  0.47000000000E+01 0. -1.
          5    1    5    5  503    0  0.48223670514E+00 -0.34269271473E+02  0.35695436387E+02  0.49707843429E+02  0.47000000000E+01 0. -1.
         -5    1    5    5    0  503  0.37237307186E+02  0.87115561773E+02  0.29511765021E+03  0.30998750881E+03  0.47000000000E+01 0. -1.
<mgrwt>
<rscale>  0 0.27808370E+03</rscale>
<asrwt>0</asrwt>
<pdfrwt beam="1">  1        1 0.11096762E+00 0.27808370E+03</pdfrwt>
<pdfrwt beam="2">  1       -1 0.41235201E-02 0.27808370E+03</pdfrwt>
<totfact> 0.63237892E+03</totfact>
</mgrwt>
</event>
<event>
 9    1  0.2095749E-002  0.2750681E+03  0.7818608E-02  0.1098414E+00
         -1   -1    0    0    0  501 -0.00000000000E+00  0.00000000000E+00  0.19616642849E+03  0.19616642849E+03  0.00000000000E+00 0. -1.
          1   -1    0    0  501    0  0.00000000000E+00 -0.00000000000E+00 -0.96426339946E+02  0.96426339946E+02  0.00000000000E+00 0. -1.
         36    2    1    2    0    0 -0.17763568394E-14  0.00000000000E+00  0.99740088545E+02  0.29259276844E+03  0.27506806954E+03 0.  0.
         25    2    3    3    0    0  0.10684126540E+02 -0.11734065532E+02 -0.37836212729E+01  0.12783533796E+03  0.12679005871E+03 0.  0.
         25    2    3    3    0    0 -0.10684126540E+02  0.11734065532E+02  0.10352370982E+03  0.16475743047E+03  0.12718495802E+03 0.  0.
          5    1    4    4  502    0  0.14449299886E+02  0.41583837465E+02 -0.42733013884E+02  0.61532091474E+02  0.47000000000E+01 0. -1.
         -5    1    4    4    0  502 -0.37651733464E+01 -0.53317902997E+02  0.38949392611E+02  0.66303246490E+02  0.47000000000E+01 0. -1.
          5    1    5    5  503    0  0.16854197452E+02 -0.43050366099E+02  0.90739027288E+02  0.10194635386E+03  0.47000000000E+01 0. -1.
         -5    1    5    5    0  503 -0.27538323991E+02  0.54784431631E+02  0.12784682530E+02  0.62811076609E+02  0.47000000000E+01 0. -1.
<mgrwt>
<rscale>  0 0.27506807E+03</rscale>
<asrwt>0</asrwt>
<pdfrwt beam="1">  1        1 0.14834822E-01 0.27506807E+03</pdfrwt>
<pdfrwt beam="2">  1       -1 0.30179451E-01 0.27506807E+03</pdfrwt>
<totfact> 0.38036575E+03</totfact>
</mgrwt>
</event>
<event>
 9    1  0.2095749E-002  0.2751397E+03  0.7818608E-02  0.1098374E+00
          2   -1    0    0  501    0  0.00000000000E+00  0.00000000000E+00  0.57918130494E+03  0.57918130494E+03  0.00000000000E+00 0. -1.
         -2   -1    0    0    0  501 -0.00000000000E+00 -0.00000000000E+00 -0.32676238236E+02  0.32676238236E+02  0.00000000000E+00 0. -1.
         36    2    1    2    0    0 -0.17763568394E-14  0.00000000000E+00  0.54650506670E+03  0.61185754317E+03  0.27513971943E+03 0.  0.
         25    2    3    3    0    0 -0.73083634146E+01  0.52399116932E+02  0.24551378809E+03  0.28202107135E+03  0.12829569328E+03 0.  0.
         25    2    3    3    0    0  0.73083634146E+01 -0.52399116932E+02  0.30099127861E+03  0.32983647182E+03  0.12408573129E+03 0.  0.
          5    1    4    4  502    0 -0.26947470464E+01 -0.69612580638E+01 -0.13546503972E+02  0.16165350146E+02  0.47000000000E+01 0.  1.
         -5    1    4    4    0  502 -0.46136163682E+01  0.59360374996E+02  0.25906029206E+03  0.26585572120E+03  0.47000000000E+01 0.  1.
          5    1    5    5  503    0  0.13151178114E+02 -0.27681465959E+02  0.34727971427E+01  0.31198835931E+02  0.47000000000E+01 0. -1.
         -5    1    5    5    0  503 -0.58428146995E+01 -0.24717650973E+02  0.29751848147E+03  0.29863763589E+03  0.47000000000E+01 0. -1.
<mgrwt>
<rscale>  0 0.27513972E+03</rscale>
<asrwt>0</asrwt>
<pdfrwt beam="1">  1        2 0.89104808E-01 0.27513972E+03</pdfrwt>
<pdfrwt beam="2">  1       -2 0.50271140E-02 0.27513972E+03</pdfrwt>
<totfact> 0.10161217E+04</totfact>
</mgrwt>
</event>
<event>
 9    1  0.2095749E-002  0.2752613E+03  0.7818608E-02  0.1098306E+00
          2   -1    0    0  501    0  0.00000000000E+00  0.00000000000E+00  0.20329969499E+04  0.20329969499E+04  0.00000000000E+00 0.  1.
         -2   -1    0    0    0  501 -0.00000000000E+00 -0.00000000000E+00 -0.93173756005E+01  0.93173756005E+01  0.00000000000E+00 0.  1.
         36    2    1    2    0    0  0.00000000000E+00  0.71054273576E-14  0.20236795743E+04  0.20423143255E+04  0.27526130260E+03 0.  0.
         25    2    3    3    0    0 -0.11655026845E+02 -0.36433277671E+02  0.66133271356E+03  0.67372305490E+03  0.12279484234E+03 0.  0.
         25    2    3    3    0    0  0.11655026845E+02  0.36433277671E+02  0.13623468608E+04  0.13685912706E+04  0.12485941544E+03 0.  0.
          5    1    4    4  502    0 -0.50734653565E+01  0.45172004463E+02  0.19957834572E+03  0.20474339090E+03  0.47000000000E+01 0. -1.
         -5    1    4    4    0  502 -0.65815614886E+01 -0.81605282134E+02  0.46175436784E+03  0.46897966400E+03  0.47000000000E+01 0. -1.
          5    1    5    5  503    0  0.51841757807E+02  0.63348355367E+02  0.85355683668E+03  0.85748582812E+03  0.47000000000E+01 0.  1.
         -5    1    5    5    0  503 -0.40186730962E+02 -0.26915077696E+02  0.50879002408E+03  0.51110544250E+03  0.47000000000E+01 0.  1.
<mgrwt>
<rscale>  0 0.27526130E+03</rscale>
<asrwt>0</asrwt>
<pdfrwt beam="1">  1        2 0.31276841E+00 0.27526130E+03</pdfrwt>
<pdfrwt beam="2">  1       -2 0.14334440E-02 0.27526130E+03</pdfrwt>
<totfact> 0.89999655E+03</totfact>
</mgrwt>
</event>
<event>
 9    1  0.2095749E-002  0.2733023E+03  0.7818608E-02  0.1099404E+00
          2   -1    0    0  501    0  0.00000000000E+00  0.00000000000E+00  0.10622967061E+03  0.10622967061E+03  0.00000000000E+00 0. -1.
         -2   -1    0    0    0  501 -0.00000000000E+00 -0.00000000000E+00 -0.17578460689E+03  0.17578460689E+03  0.00000000000E+00 0. -1.
         36    2    1    2    0    0  0.71054273576E-14  0.00000000000E+00 -0.69554936281E+02  0.28201427751E+03  0.27330232995E+03 0.  0.
         25    2    3    3    0    0  0.38111503615E+02  0.36757032574E+02 -0.23564770309E+02  0.14767437805E+03  0.13582657097E+03 0.  0.
         25    2    3    3    0    0 -0.38111503615E+02 -0.36757032574E+02 -0.45990165972E+02  0.13433989945E+03  0.11457987200E+03 0.  0.
          5    1    4    4  502    0  0.63787184283E+02  0.36640740638E+02  0.36447957191E+02  0.82230726232E+02  0.47000000000E+01 0.  1.
         -5    1    4    4    0  502 -0.25675680668E+02  0.11629193551E+00 -0.60012727500E+02  0.65443651820E+02  0.47000000000E+01 0.  1.
          5    1    5    5  503    0  0.14873312697E+02 -0.40952106851E+02  0.21084458628E+02  0.48630596148E+02  0.47000000000E+01 0.  1.
         -5    1    5    5    0  503 -0.52984816311E+02  0.41950742776E+01 -0.67074624600E+02  0.85709303305E+02  0.47000000000E+01 0.  1.
<mgrwt>
<rscale>  0 0.27330233E+03</rscale>
<asrwt>0</asrwt>
<pdfrwt beam="1">  1        2 0.16343026E-01 0.27330233E+03</pdfrwt>
<pdfrwt beam="2">  1       -2 0.27043786E-01 0.27330233E+03</pdfrwt>
<totfact> 0.43172535E+03</totfact>
</mgrwt>
</event>
<event>
 9    1  0.2095749E-002  0.2785014E+03  0.7818608E-02  0.1096510E+00
         -4   -1    0    0    0  501 -0.00000000000E+00  0.00000000000E+00  0.50942967272E+03  0.50942967272E+03  0.00000000000E+00 0.  1.
          4   -1    0    0  501    0  0.00000000000E+00 -0.00000000000E+00 -0.38063647073E+02  0.38063647073E+02  0.00000000000E+00 0.  1.
         36    2    1    2    0    0  0.14210854715E-13  0.00000000000E+00  0.47136602564E+03  0.54749331979E+03  0.27850135562E+03 0.  0.
         25    2    3    3    0    0 -0.43085988632E+02 -0.42487938483E+02  0.20542610782E+03  0.24623422565E+03  0.12153098689E+03 0.  0.
         25    2    3    3    0    0  0.43085988632E+02  0.42487938483E+02  0.26593991783E+03  0.30125909414E+03  0.12795067244E+03 0.  0.
          5    1    4    4  502    0 -0.76156153298E+02 -0.65807984600E+00  0.15466551087E+03  0.17246362807E+03  0.47000000000E+01 0. -1.
         -5    1    4    4    0  502  0.33070164665E+02 -0.41829858637E+02  0.50760596948E+02  0.73770597578E+02  0.47000000000E+01 0. -1.
          5    1    5    5  503    0  0.28343591314E+02  0.74707823576E+02  0.84732869844E+02  0.11656057354E+03  0.47000000000E+01 0. -1.
         -5    1    5    5    0  503  0.14742397318E+02 -0.32219885093E+02  0.18120704798E+03  0.18469852060E+03  0.47000000000E+01 0. -1.
<mgrwt>
<rscale>  0 0.27850136E+03</rscale>
<asrwt>0</asrwt>
<pdfrwt beam="1">  1        4 0.58559461E-02 0.27850136E+03</pdfrwt>
<pdfrwt beam="2">  1       -4 0.78373791E-01 0.27850136E+03</pdfrwt>
<totfact> 0.51532759E+02</totfact>
</mgrwt>
</event>
<event>
 9    1  0.2095749E-002  0.2760717E+03  0.7818608E-02  0.1097854E+00
          1   -1    0    0  501    0  0.00000000000E+00  0.00000000000E+00  0.26181185861E+04  0.26181185861E+04  0.00000000000E+00 0.  1.
         -1   -1    0    0    0  501 -0.00000000000E+00 -0.00000000000E+00 -0.72777055940E+01  0.72777055940E+01  0.00000000000E+00 0.  1.
         36    2    1    2    0    0  0.00000000000E+00 -0.35527136788E-14  0.26108408805E+04  0.26253962917E+04  0.27607170286E+03 0.  0.
         25    2    3    3    0    0  0.24296876926E-01  0.24242876603E+01  0.18549727410E+04  0.18590761300E+04  0.12342734574E+03 0.  0.
         25    2    3    3    0    0 -0.24296876926E-01 -0.24242876603E+01  0.75586813950E+03  0.76632016164E+03  0.12611133206E+03 0.  0.
          5    1    4    4  502    0 -0.51012591801E+02 -0.18955503173E+02  0.50177709128E+03  0.50474145358E+03  0.47000000000E+01 0. -1.
         -5    1    4    4    0  502  0.51036888677E+02  0.21379790833E+02  0.13531956497E+04  0.13543346764E+04  0.47000000000E+01 0. -1.
          5    1    5    5  503    0  0.50652540748E+02 -0.20102218259E+02  0.57506224393E+03  0.57765773037E+03  0.47000000000E+01 0.  1.
         -5    1    5    5    0  503 -0.50676837625E+02  0.17677930598E+02  0.18080589557E+03  0.18866243128E+03  0.47000000000E+01 0.  1.
<mgrwt>
<rscale>  0 0.27607170E+03</rscale>
<asrwt>0</asrwt>
<pdfrwt beam="1">  1        1 0.40278672E+00 0.27607170E+03</pdfrwt>
<pdfrwt beam="2">  1       -1 0.11196491E-02 0.27607170E+03</pdfrwt>
<totfact> 0.21109584E+03</totfact>
</mgrwt>
</event>
<event>
 9    1  0.2095749E-002  0.2719826E+03  0.7818608E-02  0.1100150E+00
          2   -1    0    0  501    0  0.00000000000E+00  0.00000000000E+00  0.13951757905E+04  0.13951757905E+04  0.00000000000E+00 0. -1.
         -2   -1    0    0    0  501 -0.00000000000E+00 -0.00000000000E+00 -0.13255417469E+02  0.13255417469E+02  0.00000000000E+00 0. -1.
         36    2    1    2    0    0  0.14210854715E-13  0.00000000000E+00  0.13819203730E+04  0.14084312080E+04  0.27198262846E+03 0.  0.
         25    2    3    3    0    0 -0.52378686088E+02 -0.32338172250E+01  0.44256033000E+03  0.45963637040E+03  0.11248094497E+03 0.  0.
         25    2    3    3    0    0  0.52378686088E+02  0.32338172250E+01  0.93936004305E+03  0.94879483758E+03  0.12272069512E+03 0.  0.
          5    1    4    4  502    0  0.30006731472E+02  0.48972137663E+01  0.21982390612E+03  0.22196627297E+03  0.47000000000E+01 0. -1.
         -5    1    4    4    0  502 -0.82385417559E+02 -0.81310309913E+01  0.22273642388E+03  0.23767009743E+03  0.47000000000E+01 0. -1.
          5    1    5    5  503    0  0.30711228984E+02  0.22559556220E+02  0.78050209436E+02  0.86982977389E+02  0.47000000000E+01 0. -1.
         -5    1    5    5    0  503  0.21667457104E+02 -0.19325738995E+02  0.86130983362E+03  0.86181186020E+03  0.47000000000E+01 0. -1.
<mgrwt>
<rscale>  0 0.27198263E+03</rscale>
<asrwt>0</asrwt>
<pdfrwt beam="1">  1        2 0.21464231E+00 0.27198263E+03</pdfrwt>
<pdfrwt beam="2">  1       -2 0.20392961E-02 0.27198263E+03</pdfrwt>
<totfact> 0.11672142E+04</totfact>
</mgrwt>
</event>
<event>
 9    1  0.2095749E-002  0.2751079E+03  0.7818608E-02  0.1098391E+00
         -1   -1    0    0    0  501 -0.00000000000E+00  0.00000000000E+00  0.88231331398E+02  0.88231331398E+02  0.00000000000E+00 0.  1.
          1   -1    0    0  501    0  0.00000000000E+00 -0.00000000000E+00 -0.21444860117E+03  0.21444860117E+03  0.00000000000E+00 0.  1.
         36    2    1    2    0    0 -0.14210854715E-13  0.14210854715E-13 -0.12621726978E+03  0.30267993257E+03  0.27510787410E+03 0.  0.
         25    2    3    3    0    0 -0.20982811794E+02  0.45751335211E+02 -0.33372532107E+02  0.14165479441E+03  0.12813622366E+03 0.  0.
         25    2    3    3    0    0  0.20982811794E+02 -0.45751335211E+02 -0.92844737668E+02  0.16102513817E+03  0.12155445999E+03 0.  0.
          5    1    4    4  502    0 -0.48989285931E+02 -0.28403558960E+02 -0.39038976579E+01  0.56956498440E+02  0.47000000000E+01 0.  1.
         -5    1    4    4    0  502  0.28006474136E+02  0.74154894172E+02 -0.29468634449E+02  0.84698295965E+02  0.47000000000E+01 0.  1.
          5    1    5    5  503    0  0.65176177195E+02 -0.17525817952E+02 -0.83642232405E+02  0.10757881488E+03  0.47000000000E+01 0.  1.
         -5    1    5    5    0  503 -0.44193365401E+02 -0.28225517259E+02 -0.92025052628E+01  0.53446323289E+02  0.47000000000E+01 0.  1.
<mgrwt>
<rscale>  0 0.27510787E+03</rscale>
<asrwt>0</asrwt>
<pdfrwt beam="1">  1        1 0.32992092E-01 0.27510787E+03</pdfrwt>
<pdfrwt beam="2">  1       -1 0.13574051E-01 0.27510787E+03</pdfrwt>
<totfact> 0.50237081E+03</totfact>
</mgrwt>
</event>
<event>
 9    1  0.2095749E-002  0.2740360E+03  0.7818608E-02  0.1098992E+00
          2   -1    0    0  501    0  0.00000000000E+00  0.00000000000E+00  0.47027920927E+03  0.47027920927E+03  0.00000000000E+00 0. -1.
         -2   -1    0    0    0  501 -0.00000000000E+00 -0.00000000000E+00 -0.39920808946E+02  0.39920808946E+02  0.00000000000E+00 0. -1.
         36    2    1    2    0    0  0.00000000000E+00  0.71054273576E-14  0.43035840032E+03  0.51020001821E+03  0.27403595724E+03 0.  0.
         25    2    3    3    0    0  0.56673381704E+01 -0.26966383984E+02  0.12863310697E+03  0.17986895534E+03  0.12266645955E+03 0.  0.
         25    2    3    3    0    0 -0.56673381704E+01  0.26966383984E+02  0.30172529335E+03  0.33033106287E+03  0.13160985474E+03 0.  0.
          5    1    4    4  502    0 -0.20953915865E+02 -0.70109149446E+02  0.89214787998E+02  0.11548042182E+03  0.47000000000E+01 0.  1.
         -5    1    4    4    0  502  0.26621254035E+02  0.43142765463E+02  0.39418318973E+02  0.64388533520E+02  0.47000000000E+01 0.  1.
          5    1    5    5  503    0 -0.29838849503E+02  0.73658036298E+02  0.15223827967E+03  0.17179769221E+03  0.47000000000E+01 0.  1.
         -5    1    5    5    0  503  0.24171511333E+02 -0.46691652314E+02  0.14948701368E+03  0.15853337066E+03  0.47000000000E+01 0.  1.
<mgrwt>
<rscale>  0 0.27403596E+03</rscale>
<asrwt>0</asrwt>
<pdfrwt beam="1">  1        2 0.72350644E-01 0.27403596E+03</pdfrwt>
<pdfrwt beam="2">  1       -2 0.61416632E-02 0.27403596E+03</pdfrwt>
<totfact> 0.94634529E+03</totfact>
</mgrwt>
</event>
<event>
 9    1  0.2095749E-002  0.2749842E+03  0.7818608E-02  0.1098460E+00
          1   -1    0    0  501    0  0.00000000000E+00  0.00000000000E+00  0.28025491417E+03  0.28025491417E+03  0.00000000000E+00 0.  1.
         -1   -1    0    0    0  501 -0.00000000000E+00 -0.00000000000E+00 -0.67453128576E+02  0.67453128576E+02  0.00000000000E+00 0.  1.
         36    2    1    2    0    0 -0.71054273576E-14  0.00000000000E+00  0.21280178559E+03  0.34770804274E+03  0.27498415052E+03 0.  0.
         25    2    3    3    0    0  0.39838470313E+02 -0.42526014119E+02  0.11798586479E+03  0.17862323731E+03  0.12078920078E+03 0.  0.
         25    2    3    3    0    0 -0.39838470313E+02  0.42526014119E+02  0.94815920803E+02  0.16908480543E+03  0.12729511772E+03 0.  0.
          5    1    4    4  502    0  0.25878886537E+02 -0.77254211629E+02  0.11468340130E+03  0.14075618109E+03  0.47000000000E+01 0.  1.
         -5    1    4    4    0  502  0.13959583776E+02  0.34728197510E+02  0.33024634880E+01  0.37867056218E+02  0.47000000000E+01 0.  1.
          5    1    5    5  503    0  0.24699603850E+02  0.58972047933E+02  0.16550530743E+02  0.66210142242E+02  0.47000000000E+01 0.  1.
         -5    1    5    5    0  503 -0.64538074164E+02 -0.16446033814E+02  0.78265390060E+02  0.10287466319E+03  0.47000000000E+01 0.  1.
<mgrwt>
<rscale>  0 0.27498415E+03</rscale>
<asrwt>0</asrwt>
<pdfrwt beam="1">  1        1 0.43116140E-01 0.27498415E+03</pdfrwt>
<pdfrwt beam="2">  1       -1 0.10377405E-01 0.27498415E+03</pdfrwt>
<totfact> 0.54593958E+03</totfact>
</mgrwt>
</event>
<event>
 9    1  0.2095749E-002  0.2747885E+03  0.7818608E-02  0.1098570E+00
         -1   -1    0    0    0  501 -0.00000000000E+00  0.00000000000E+00  0.25142414780E+02  0.25142414780E+02  0.00000000000E+00 0. -1.
          1   -1    0    0  501    0  0.00000000000E+00 -0.00000000000E+00 -0.75081015608E+03  0.75081015608E+03  0.00000000000E+00 0. -1.
         36    2    1    2    0    0  0.17763568394E-14 -0.71054273576E-14 -0.72566774130E+03  0.77595257086E+03  0.27478850314E+03 0.  0.
         25    2    3    3    0    0 -0.12089986272E+02  0.49649382068E+02 -0.29939772639E+03  0.32795055929E+03  0.12369859282E+03 0.  0.
         25    2    3    3    0    0  0.12089986272E+02 -0.49649382068E+02 -0.42627001491E+03  0.44800201157E+03  0.12801737323E+03 0.  0.
          5    1    4    4  502    0 -0.11668368871E+02  0.23811084788E+02 -0.30045903664E+03  0.30166345700E+03  0.47000000000E+01 0. -1.
         -5    1    4    4    0  502 -0.42161740124E+00  0.25838297279E+02  0.10613102492E+01  0.26287102293E+02  0.47000000000E+01 0. -1.
          5    1    5    5  503    0  0.29538537843E+02 -0.23827986593E+02 -0.25429426634E+02  0.45924327996E+02  0.47000000000E+01 0. -1.
         -5    1    5    5    0  503 -0.17448551570E+02 -0.25821395475E+02 -0.40084058828E+03  0.40207768357E+03  0.47000000000E+01 0. -1.
<mgrwt>
<rscale>  0 0.27478850E+03</rscale>
<asrwt>0</asrwt>
<pdfrwt beam="1">  1        1 0.11550927E+00 0.27478850E+03</pdfrwt>
<pdfrwt beam="2">  1       -1 0.38680633E-02 0.27478850E+03</pdfrwt>
<totfact> 0.65500413E+03</totfact>
</mgrwt>
</event>
<event>
 9    1  0.2095749E-002  0.2743820E+03  0.7818608E-02  0.1098798E+00
          2   -1    0    0  501    0  0.00000000000E+00  0.00000000000E+00  0.11743671170E+04  0.11743671170E+04  0.00000000000E+00 0.  1.
         -2   -1    0    0    0  501 -0.00000000000E+00 -0.00000000000E+00 -0.16026817972E+02  0.16026817972E+02  0.00000000000E+00 0.  1.
         36    2    1    2    0    0  0.00000000000E+00 -0.71054273576E-14  0.11583402991E+04  0.11903939350E+04  0.27438198203E+03 0.  0.
         25    2    3    3    0    0  0.31567048672E+02  0.49789245208E+02  0.59127298770E+03  0.60730259423E+03  0.12544818642E+03 0.  0.
         25    2    3    3    0    0 -0.31567048672E+02 -0.49789245208E+02  0.56706731135E+03  0.58309134076E+03  0.12228952763E+03 0.  0.
          5    1    4    4  502    0  0.71571145809E+02  0.26234065311E+02  0.48848655217E+03  0.49442072848E+03  0.47000000000E+01 0. -1.
         -5    1    4    4    0  502 -0.40004097137E+02  0.23555179897E+02  0.10278643553E+03  0.11288186576E+03  0.47000000000E+01 0. -1.
          5    1    5    5  503    0  0.33930412872E+02 -0.47500031497E+02  0.38709539925E+03  0.39150027335E+03  0.47000000000E+01 0.  1.
         -5    1    5    5    0  503 -0.65497461544E+02 -0.22892137110E+01  0.17997191210E+03  0.19159106741E+03  0.47000000000E+01 0.  1.
<mgrwt>
<rscale>  0 0.27438198E+03</rscale>
<asrwt>0</asrwt>
<pdfrwt beam="1">  1        2 0.18067180E+00 0.27438198E+03</pdfrwt>
<pdfrwt beam="2">  1       -2 0.24656652E-02 0.27438198E+03</pdfrwt>
<totfact> 0.11707303E+04</totfact>
</mgrwt>
</event>
<event>
 9    1  0.2095749E-002  0.2738258E+03  0.7818608E-02  0.1099110E+00
          2   -1    0    0  501    0  0.00000000000E+00  0.00000000000E+00  0.66892472130E+03  0.66892472130E+03  0.00000000000E+00 0. -1.
         -2   -1    0    0    0  501 -0.00000000000E+00 -0.00000000000E+00 -0.28022787686E+02  0.28022787686E+02  0.00000000000E+00 0. -1.
         36    2    1    2    0    0  0.00000000000E+00 -0.35527136788E-14  0.64090193362E+03  0.69694750899E+03  0.27382575075E+03 0.  0.
         25    2    3    3    0    0 -0.24738377089E+02 -0.14161184774E+02  0.24079788658E+03  0.27257607931E+03  0.12450530260E+03 0.  0.
         25    2    3    3    0    0  0.24738377089E+02  0.14161184774E+02  0.40010404703E+03  0.42437142968E+03  0.13854723172E+03 0.  0.
          5    1    4    4  502    0 -0.28436828108E+01  0.31695508649E+02  0.21108884871E+03  0.21352583883E+03  0.47000000000E+01 0. -1.
         -5    1    4    4    0  502 -0.21894694278E+02 -0.45856693423E+02  0.29709037876E+02  0.59050240480E+02  0.47000000000E+01 0. -1.
          5    1    5    5  503    0  0.58877943549E+02 -0.91344301606E+01  0.71700595136E+02  0.93344069944E+02  0.47000000000E+01 0.  1.
         -5    1    5    5    0  503 -0.34139566460E+02  0.23295614935E+02  0.32840345190E+03  0.33102735973E+03  0.47000000000E+01 0.  1.
<mgrwt>
<rscale>  0 0.27382575E+03</rscale>
<asrwt>0</asrwt>
<pdfrwt beam="1">  1        2 0.10291148E+00 0.27382575E+03</pdfrwt>
<pdfrwt beam="2">  1       -2 0.43111986E-02 0.27382575E+03</pdfrwt>
<totfact> 0.10827510E+04</totfact>
</mgrwt>
</event>
<event>
 9    1  0.2095749E-002  0.2748020E+03  0.7818608E-02  0.1098562E+00
         -2   -1    0    0    0  501 -0.00000000000E+00  0.00000000000E+00  0.20434431727E+02  0.20434431727E+02  0.00000000000E+00 0.  1.
          2   -1    0    0  501    0  0.00000000000E+00 -0.00000000000E+00 -0.92388375876E+03  0.92388375876E+03  0.00000000000E+00 0.  1.
         36    2    1    2    0    0  0.00000000000E+00  0.00000000000E+00 -0.90344932704E+03  0.94431819049E+03  0.27480203487E+03 0.  0.
         25    2    3    3    0    0 -0.37436193358E+02 -0.16663424583E+02 -0.58821476122E+03  0.60270885241E+03  0.12482875135E+03 0.  0.
         25    2    3    3    0    0  0.37436193358E+02  0.16663424583E+02 -0.31523456582E+03  0.34160933808E+03  0.12507985484E+03 0.  0.
          5    1    4    4  502    0 -0.58156425476E+02 -0.44986168474E+02 -0.52591889953E+03  0.53105433249E+03  0.47000000000E+01 0. -1.
         -5    1    4    4    0  502  0.20720232118E+02  0.28322743891E+02 -0.62295861693E+02  0.71654519918E+02  0.47000000000E+01 0. -1.
          5    1    5    5  503    0 -0.30725014067E+02 -0.19998944407E+02 -0.19548548493E+03  0.19894886048E+03  0.47000000000E+01 0.  1.
         -5    1    5    5    0  503  0.68161207424E+02  0.36662368990E+02 -0.11974908089E+03  0.14266047761E+03  0.47000000000E+01 0.  1.
<mgrwt>
<rscale>  0 0.27480203E+03</rscale>
<asrwt>0</asrwt>
<pdfrwt beam="1">  1        2 0.14213597E+00 0.27480203E+03</pdfrwt>
<pdfrwt beam="2">  1       -2 0.31437585E-02 0.27480203E+03</pdfrwt>
<totfact> 0.11544924E+04</totfact>
</mgrwt>
</event>
<event>
 9    1  0.2095749E-002  0.2750642E+03  0.7818608E-02  0.1098416E+00
         -1   -1    0    0    0  501 -0.00000000000E+00  0.00000000000E+00  0.25681993796E+02  0.25681993796E+02  0.00000000000E+00 0.  1.
          1   -1    0    0  501    0  0.00000000000E+00 -0.00000000000E+00 -0.73651155266E+03  0.73651155266E+03  0.00000000000E+00 0.  1.
         36    2    1    2    0    0  0.00000000000E+00  0.00000000000E+00 -0.71082955887E+03  0.76219354646E+03  0.27506424796E+03 0.  0.
         25    2    3    3    0    0 -0.34825955031E+02  0.22954589203E+02 -0.31610109199E+03  0.34266545758E+03  0.12553866000E+03 0.  0.
         25    2    3    3    0    0  0.34825955031E+02 -0.22954589203E+02 -0.39472846688E+03  0.41952808888E+03  0.13584363984E+03 0.  0.
          5    1    4    4  502    0  0.42932892288E+01 -0.44419679644E+02 -0.59928934884E+02  0.74867265934E+02  0.47000000000E+01 0.  1.
         -5    1    4    4    0  502 -0.39119244260E+02  0.67374268847E+02 -0.25617215711E+03  0.26779819165E+03  0.47000000000E+01 0.  1.
          5    1    5    5  503    0 -0.46013940473E+02  0.19092029571E+02 -0.11890425362E+03  0.12900426288E+03  0.47000000000E+01 0.  1.
         -5    1    5    5    0  503  0.80839895505E+02 -0.42046618774E+02 -0.27582421326E+03  0.29052382600E+03  0.47000000000E+01 0.  1.
<mgrwt>
<rscale>  0 0.27506425E+03</rscale>
<asrwt>0</asrwt>
<pdfrwt beam="1">  1        1 0.11330946E+00 0.27506425E+03</pdfrwt>
<pdfrwt beam="2">  1       -1 0.39510764E-02 0.27506425E+03</pdfrwt>
<totfact> 0.65315520E+03</totfact>
</mgrwt>
</event>
<event>
 9    1  0.2095749E-002  0.2739197E+03  0.7818608E-02  0.1099057E+00
         -2   -1    0    0    0  501 -0.00000000000E+00  0.00000000000E+00  0.10687099877E+02  0.10687099877E+02  0.00000000000E+00 0. -1.
          2   -1    0    0  501    0  0.00000000000E+00 -0.00000000000E+00 -0.17552006136E+04  0.17552006136E+04  0.00000000000E+00 0. -1.
         36    2    1    2    0    0  0.00000000000E+00  0.00000000000E+00 -0.17445135137E+04  0.17658877135E+04  0.27391972737E+03 0.  0.
         25    2    3    3    0    0  0.85612389362E+01  0.75118521868E+01 -0.50025352365E+03  0.51599241363E+03  0.12595578695E+03 0.  0.
         25    2    3    3    0    0 -0.85612389362E+01 -0.75118521868E+01 -0.12442599901E+04  0.12498952998E+04  0.11800684276E+03 0.  0.
          5    1    4    4  502    0  0.22582042237E+02 -0.52840658212E+02 -0.15906520785E+03  0.16919194467E+03  0.47000000000E+01 0. -1.
         -5    1    4    4    0  502 -0.14020803300E+02  0.60352510399E+02 -0.34118831580E+03  0.34680046897E+03  0.47000000000E+01 0. -1.
          5    1    5    5  503    0 -0.46217291239E+02 -0.18746519130E+02 -0.25669006881E+03  0.26153269664E+03  0.47000000000E+01 0.  1.
         -5    1    5    5    0  503  0.37656052303E+02  0.11234666943E+02 -0.98756992124E+03  0.98836260318E+03  0.47000000000E+01 0.  1.
<mgrwt>
<rscale>  0 0.27391973E+03</rscale>
<asrwt>0</asrwt>
<pdfrwt beam="1">  1        2 0.27003088E+00 0.27391973E+03</pdfrwt>
<pdfrwt beam="2">  1       -2 0.16441691E-02 0.27391973E+03</pdfrwt>
<totfact> 0.10303225E+04</totfact>
</mgrwt>
</event>
<event>
 9    1  0.2095749E-002  0.2751918E+03  0.7818608E-02  0.1098344E+00
         -2   -1    0    0    0  501 -0.00000000000E+00  0.00000000000E+00  0.14874572709E+02  0.14874572709E+02  0.00000000000E+00 0.  1.
          2   -1    0    0  501    0  0.00000000000E+00 -0.00000000000E+00 -0.12728183525E+04  0.12728183525E+04  0.00000000000E+00 0.  1.
         36    2    1    2    0    0 -0.71054273576E-14 -0.71054273576E-14 -0.12579437798E+04  0.12876929252E+04  0.27519178134E+03 0.  0.
         25    2    3    3    0    0  0.29029626980E+02  0.34414021383E+02 -0.44652581842E+03  0.46604128154E+03  0.12562692974E+03 0.  0.
         25    2    3    3    0    0 -0.29029626980E+02 -0.34414021383E+02 -0.81141796140E+03  0.82165164370E+03  0.12118280157E+03 0.  0.
          5    1    4    4  502    0  0.69382573095E+02 -0.62113675497E+01 -0.31277680171E+03  0.32047455473E+03  0.47000000000E+01 0. -1.
         -5    1    4    4    0  502 -0.40352946114E+02  0.40625388932E+02 -0.13374901670E+03  0.14556672681E+03  0.47000000000E+01 0. -1.
          5    1    5    5  503    0 -0.33276541111E+02 -0.40808464214E+02 -0.13226002377E+03  0.14243406484E+03  0.47000000000E+01 0. -1.
         -5    1    5    5    0  503  0.42469141303E+01  0.63944428313E+01 -0.67915793763E+03  0.67921757885E+03  0.47000000000E+01 0. -1.
<mgrwt>
<rscale>  0 0.27519178E+03</rscale>
<asrwt>0</asrwt>
<pdfrwt beam="1">  1        2 0.19581819E+00 0.27519178E+03</pdfrwt>
<pdfrwt beam="2">  1       -2 0.22883960E-02 0.27519178E+03</pdfrwt>
<totfact> 0.11502355E+04</totfact>
</mgrwt>
</event>
<event>
 9    1  0.2095749E-002  0.2748772E+03  0.7818608E-02  0.1098520E+00
         -2   -1    0    0    0  501 -0.00000000000E+00  0.00000000000E+00  0.13262704628E+04  0.13262704628E+04  0.00000000000E+00 0. -1.
          2   -1    0    0  501    0  0.00000000000E+00 -0.00000000000E+00 -0.14242467125E+02  0.14242467125E+02  0.00000000000E+00 0. -1.
         36    2    1    2    0    0 -0.71054273576E-14  0.00000000000E+00  0.13120279956E+04  0.13405129299E+04  0.27487716140E+03 0.  0.
         25    2    3    3    0    0  0.32503311275E+02  0.18564194660E+02  0.87517379567E+03  0.88494363807E+03  0.12567806239E+03 0.  0.
         25    2    3    3    0    0 -0.32503311275E+02 -0.18564194660E+02  0.43685419996E+03  0.45556929181E+03  0.12369597023E+03 0.  0.
          5    1    4    4  502    0  0.64584620552E+02 -0.13498170633E+02  0.26733813663E+03  0.27539996936E+03  0.47000000000E+01 0.  1.
         -5    1    4    4    0  502 -0.32081309277E+02  0.32062365293E+02  0.60783565904E+03  0.60954366872E+03  0.47000000000E+01 0.  1.
          5    1    5    5  503    0 -0.78477497637E+02 -0.72857353411E+01  0.22534386827E+03  0.23877551914E+03  0.47000000000E+01 0.  1.
         -5    1    5    5    0  503  0.45974186362E+02 -0.11278459319E+02  0.21151033169E+03  0.21679377267E+03  0.47000000000E+01 0.  1.
<mgrwt>
<rscale>  0 0.27487716E+03</rscale>
<asrwt>0</asrwt>
<pdfrwt beam="1">  1        2 0.21911498E-02 0.27487716E+03</pdfrwt>
<pdfrwt beam="2">  1       -2 0.20404151E+00 0.27487716E+03</pdfrwt>
<totfact> 0.65637647E+02</totfact>
</mgrwt>
</event>
<event>
 9    1  0.2095749E-002  0.2743429E+03  0.7818608E-02  0.1098819E+00
          1   -1    0    0  501    0  0.00000000000E+00  0.00000000000E+00  0.33490005653E+02  0.33490005653E+02  0.00000000000E+00 0. -1.
         -1   -1    0    0    0  501 -0.00000000000E+00 -0.00000000000E+00 -0.56183943640E+03  0.56183943640E+03  0.00000000000E+00 0. -1.
         36    2    1    2    0    0 -0.35527136788E-14  0.00000000000E+00 -0.52834943075E+03  0.59532944205E+03  0.27434289421E+03 0.  0.
         25    2    3    3    0    0  0.21462455911E+02 -0.38397520988E+02 -0.22497848785E+03  0.26233672910E+03  0.12755482276E+03 0.  0.
         25    2    3    3    0    0 -0.21462455911E+02  0.38397520988E+02 -0.30337094290E+03  0.33299271295E+03  0.13005849166E+03 0.  0.
          5    1    4    4  502    0  0.10381341092E+02  0.28505256624E+01  0.14711421230E+02  0.18825877245E+02  0.47000000000E+01 0. -1.
         -5    1    4    4    0  502  0.11081114819E+02 -0.41248046651E+02 -0.23968990908E+03  0.24351085186E+03  0.47000000000E+01 0. -1.
          5    1    5    5  503    0  0.15864860771E+02 -0.33451252719E+02 -0.30114921486E+02  0.47954964413E+02  0.47000000000E+01 0.  1.
         -5    1    5    5    0  503 -0.37327316682E+02  0.71848773707E+02 -0.27325602141E+03  0.28503774854E+03  0.47000000000E+01 0.  1.
<mgrwt>
<rscale>  0 0.27434289E+03</rscale>
<asrwt>0</asrwt>
<pdfrwt beam="1">  1        1 0.51523086E-02 0.27434289E+03</pdfrwt>
<pdfrwt beam="2">  1       -1 0.86436835E-01 0.27434289E+03</pdfrwt>
<totfact> 0.22084370E+03</totfact>
</mgrwt>
</event>
<event>
 9    1  0.2095749E-002  0.2746366E+03  0.7818608E-02  0.1098655E+00
          1   -1    0    0  501    0  0.00000000000E+00  0.00000000000E+00  0.41843592099E+02  0.41843592099E+02  0.00000000000E+00 0. -1.
         -1   -1    0    0    0  501 -0.00000000000E+00 -0.00000000000E+00 -0.45063810851E+03  0.45063810851E+03  0.00000000000E+00 0. -1.
         36    2    1    2    0    0  0.35527136788E-14  0.00000000000E+00 -0.40879451641E+03  0.49248170060E+03  0.27463661225E+03 0.  0.
         25    2    3    3    0    0 -0.83739312076E+01 -0.35692748238E+02 -0.29396128150E+03  0.31988910878E+03  0.12071334597E+03 0.  0.
         25    2    3    3    0    0  0.83739312076E+01  0.35692748238E+02 -0.11483323491E+03  0.17259259182E+03  0.12352099381E+03 0.  0.
          5    1    4    4  502    0  0.24063543511E+02 -0.50905788255E+02 -0.57254674619E+02  0.80440295685E+02  0.47000000000E+01 0. -1.
         -5    1    4    4    0  502 -0.32437474719E+02  0.15213040017E+02 -0.23670660688E+03  0.23944881309E+03  0.47000000000E+01 0. -1.
          5    1    5    5  503    0 -0.27269673192E+02  0.72154716343E+02 -0.62669893823E+02  0.99496450983E+02  0.47000000000E+01 0. -1.
         -5    1    5    5    0  503  0.35643604400E+02 -0.36461968105E+02 -0.52163341085E+02  0.73096140841E+02  0.47000000000E+01 0. -1.
<mgrwt>
<rscale>  0 0.27463661E+03</rscale>
<asrwt>0</asrwt>
<pdfrwt beam="1">  1        1 0.64374754E-02 0.27463661E+03</pdfrwt>
<pdfrwt beam="2">  1       -1 0.69328943E-01 0.27463661E+03</pdfrwt>
<totfact> 0.25562484E+03</totfact>
</mgrwt>
</event>
<event>
 9    1  0.2095749E-002  0.2757667E+03  0.7818608E-02  0.1098024E+00
          2   -1    0    0  501    0  0.00000000000E+00  0.00000000000E+00  0.31366355943E+04  0.31366355943E+04  0.00000000000E+00 0. -1.
         -2   -1    0    0    0  501 -0.00000000000E+00 -0.00000000000E+00 -0.60612135532E+01  0.60612135532E+01  0.00000000000E+00 0. -1.
         36    2    1    2    0    0  0.00000000000E+00  0.00000000000E+00  0.31305743808E+04  0.31426968079E+04  0.27576669977E+03 0.  0.
         25    2    3    3    0    0 -0.15857535933E+02 -0.29970236211E+02  0.21011075621E+04  0.21051189812E+04  0.12539242715E+03 0.  0.
         25    2    3    3    0    0  0.15857535933E+02  0.29970236211E+02  0.10294668187E+04  0.10375778267E+04  0.12496455203E+03 0.  0.
          5    1    4    4  502    0 -0.31566472831E+02 -0.60218158893E+02  0.64227543884E+03  0.64588117964E+03  0.47000000000E+01 0.  1.
         -5    1    4    4    0  502  0.15708936897E+02  0.30247922682E+02  0.14588321233E+04  0.14592378015E+04  0.47000000000E+01 0.  1.
          5    1    5    5  503    0  0.51264458932E+02 -0.20633950817E+02  0.27282776508E+03  0.27840776583E+03  0.47000000000E+01 0.  1.
         -5    1    5    5    0  503 -0.35406922999E+02  0.50604187027E+02  0.75663905358E+03  0.75917006089E+03  0.47000000000E+01 0.  1.
<mgrwt>
<rscale>  0 0.27576670E+03</rscale>
<asrwt>0</asrwt>
<pdfrwt beam="1">  1        2 0.48255802E+00 0.27576670E+03</pdfrwt>
<pdfrwt beam="2">  1       -2 0.93249690E-03 0.27576670E+03</pdfrwt>
<totfact> 0.40698502E+03</totfact>
</mgrwt>
</event>
<event>
 9    1  0.2095749E-002  0.2746889E+03  0.7818608E-02  0.1098626E+00
          4   -1    0    0  501    0  0.00000000000E+00  0.00000000000E+00  0.10364080678E+03  0.10364080678E+03  0.00000000000E+00 0.  1.
         -4   -1    0    0    0  501 -0.00000000000E+00 -0.00000000000E+00 -0.18200843147E+03  0.18200843147E+03  0.00000000000E+00 0.  1.
         36    2    1    2    0    0  0.00000000000E+00  0.00000000000E+00 -0.78367624688E+02  0.28564923826E+03  0.27468891990E+03 0.  0.
         25    2    3    3    0    0 -0.24400056197E+02 -0.89882990317E+02 -0.36347784072E+02  0.15594190851E+03  0.11967624131E+03 0.  0.
         25    2    3    3    0    0  0.24400056197E+02  0.89882990317E+02 -0.42019840617E+02  0.12970732974E+03  0.79899998077E+02 0.  0.
          5    1    4    4  502    0 -0.55778846400E+02 -0.23213220338E+02  0.19175100030E+02  0.63560268764E+02  0.47000000000E+01 0. -1.
         -5    1    4    4    0  502  0.31378790203E+02 -0.66669769979E+02 -0.55522884102E+02  0.92381639749E+02  0.47000000000E+01 0. -1.
          5    1    5    5  503    0 -0.14630587301E+02  0.48384724977E+02 -0.50864950389E+02  0.71864239187E+02  0.47000000000E+01 0. -1.
         -5    1    5    5    0  503  0.39030643498E+02  0.41498265340E+02  0.88451097726E+01  0.57843090556E+02  0.47000000000E+01 0. -1.
<mgrwt>
<rscale>  0 0.27468892E+03</rscale>
<asrwt>0</asrwt>
<pdfrwt beam="1">  1        4 0.15944740E-01 0.27468892E+03</pdfrwt>
<pdfrwt beam="2">  1       -4 0.28001297E-01 0.27468892E+03</pdfrwt>
<totfact> 0.76890403E+02</totfact>
</mgrwt>
</event>
<event>
 9    1  0.2095749E-002  0.2741107E+03  0.7818608E-02  0.1098950E+00
         -2   -1    0    0    0  501 -0.00000000000E+00  0.00000000000E+00  0.87871458224E+03  0.87871458224E+03  0.00000000000E+00 0.  1.
          2   -1    0    0  501    0  0.00000000000E+00 -0.00000000000E+00 -0.21376865868E+02  0.21376865868E+02  0.00000000000E+00 0.  1.
         36    2    1    2    0    0  0.35527136788E-14  0.00000000000E+00  0.85733771638E+03  0.90009144811E+03  0.27411066204E+03 0.  0.
         25    2    3    3    0    0  0.16726299168E+02  0.49408996695E+02  0.49411429326E+03  0.51198887019E+03  0.12354209950E+03 0.  0.
         25    2    3    3    0    0 -0.16726299168E+02 -0.49408996695E+02  0.36322342311E+03  0.38810257793E+03  0.12637775855E+03 0.  0.
          5    1    4    4  502    0  0.30285367861E+02  0.14590510874E+02  0.27036390122E+02  0.43395194491E+02  0.47000000000E+01 0. -1.
         -5    1    4    4    0  502 -0.13559068693E+02  0.34818485822E+02  0.46707790314E+03  0.46859367570E+03  0.47000000000E+01 0. -1.
          5    1    5    5  503    0  0.12090975319E+02 -0.51415644324E+01  0.31829118390E+03  0.31859691637E+03  0.47000000000E+01 0.  1.
         -5    1    5    5    0  503 -0.28817274488E+02 -0.44267432263E+02  0.44932239208E+02  0.69505661556E+02  0.47000000000E+01 0.  1.
<mgrwt>
<rscale>  0 0.27411066E+03</rscale>
<asrwt>0</asrwt>
<pdfrwt beam="1">  1        2 0.32887493E-02 0.27411066E+03</pdfrwt>
<pdfrwt beam="2">  1       -2 0.13518683E+00 0.27411066E+03</pdfrwt>
<totfact> 0.11428276E+03</totfact>
</mgrwt>
</event>
<event>
 9    1  0.2095749E-002  0.2764871E+03  0.7818608E-02  0.1097623E+00
          2   -1    0    0  501    0  0.00000000000E+00  0.00000000000E+00  0.11180745521E+03  0.11180745521E+03  0.00000000000E+00 0.  1.
         -2   -1    0    0    0  501 -0.00000000000E+00 -0.00000000000E+00 -0.17093032474E+03  0.17093032474E+03  0.00000000000E+00 0.  1.
         36    2    1    2    0    0  0.71054273576E-14 -0.35527136788E-14 -0.59122869540E+02  0.28273777995E+03  0.27648713986E+03 0.  0.
         25    2    3    3    0    0  0.54118364657E+02  0.12365212312E+00 -0.37113325403E+02  0.14561515997E+03  0.12999062738E+03 0.  0.
         25    2    3    3    0    0 -0.54118364657E+02 -0.12365212312E+00 -0.22009544137E+02  0.13712261998E+03  0.12405394066E+03 0.  0.
          5    1    4    4  502    0  0.29632990501E+02 -0.13712704163E+02  0.46647717960E+02  0.57133632586E+02  0.47000000000E+01 0. -1.
         -5    1    4    4    0  502  0.24485374156E+02  0.13836356286E+02 -0.83761043363E+02  0.88481527384E+02  0.47000000000E+01 0. -1.
          5    1    5    5  503    0  0.32025413702E+02 -0.29692548272E+02 -0.34915159447E+01  0.44063082385E+02  0.47000000000E+01 0.  1.
         -5    1    5    5    0  503 -0.86143778359E+02  0.29568896148E+02 -0.18518028192E+02  0.93059537596E+02  0.47000000000E+01 0.  1.
<mgrwt>
<rscale>  0 0.27648714E+03</rscale>
<asrwt>0</asrwt>
<pdfrwt beam="1">  1        2 0.17201147E-01 0.27648714E+03</pdfrwt>
<pdfrwt beam="2">  1       -2 0.26296973E-01 0.27648714E+03</pdfrwt>
<totfact> 0.42760529E+03</totfact>
</mgrwt>
</event>
<event>
 9    1  0.2095749E-002  0.2742556E+03  0.7818608E-02  0.1098868E+00
          1   -1    0    0  501    0  0.00000000000E+00  0.00000000000E+00  0.49690029657E+02  0.49690029657E+02  0.00000000000E+00 0. -1.
         -1   -1    0    0    0  501 -0.00000000000E+00 -0.00000000000E+00 -0.37842659464E+03  0.37842659464E+03  0.00000000000E+00 0. -1.
         36    2    1    2    0    0  0.00000000000E+00  0.71054273576E-14 -0.32873656498E+03  0.42811662429E+03  0.27425556483E+03 0.  0.
         25    2    3    3    0    0 -0.43320721316E+02  0.19683070333E+02 -0.24567520331E+03  0.27338558231E+03  0.11008752398E+03 0.  0.
         25    2    3    3    0    0  0.43320721316E+02 -0.19683070333E+02 -0.83061361668E+02  0.15473104199E+03  0.12156643204E+03 0.  0.
          5    1    4    4  502    0  0.30145258922E+02 -0.19511227084E+02 -0.65519430639E+02  0.74861942328E+02  0.47000000000E+01 0.  1.
         -5    1    4    4    0  502 -0.73465980238E+02  0.39194297417E+02 -0.18015577267E+03  0.19852363998E+03  0.47000000000E+01 0.  1.
          5    1    5    5  503    0 -0.12463607416E+02  0.39022801237E+02 -0.39508336080E+01  0.41422452999E+02  0.47000000000E+01 0. -1.
         -5    1    5    5    0  503  0.55784328733E+02 -0.58705871570E+02 -0.79110528060E+02  0.11330858899E+03  0.47000000000E+01 0. -1.
<mgrwt>
<rscale>  0 0.27425556E+03</rscale>
<asrwt>0</asrwt>
<pdfrwt beam="1">  1        1 0.76446201E-02 0.27425556E+03</pdfrwt>
<pdfrwt beam="2">  1       -1 0.58219475E-01 0.27425556E+03</pdfrwt>
<totfact> 0.28410831E+03</totfact>
</mgrwt>
</event>
<event>
 9    1  0.2095749E-002  0.2758678E+03  0.7818608E-02  0.1097968E+00
         -2   -1    0    0    0  501 -0.00000000000E+00  0.00000000000E+00  0.21219380567E+02  0.21219380567E+02  0.00000000000E+00 0.  1.
          2   -1    0    0  501    0  0.00000000000E+00 -0.00000000000E+00 -0.89662188692E+03  0.89662188692E+03  0.00000000000E+00 0.  1.
         36    2    1    2    0    0 -0.71054273576E-14 -0.35527136788E-14 -0.87540250635E+03  0.91784126749E+03  0.27586780199E+03 0.  0.
         25    2    3    3    0    0 -0.52655519577E+02  0.24036387905E+02 -0.40218788183E+03  0.42431251669E+03  0.12221157002E+03 0.  0.
         25    2    3    3    0    0  0.52655519577E+02 -0.24036387905E+02 -0.47321462452E+03  0.49352875079E+03  0.12762521425E+03 0.  0.
          5    1    4    4  502    0 -0.10137356381E+01 -0.46187504656E+02 -0.11102590816E+03  0.12034598261E+03  0.47000000000E+01 0.  1.
         -5    1    4    4    0  502 -0.51641783939E+02  0.70223892561E+02 -0.29116197367E+03  0.30396653409E+03  0.47000000000E+01 0.  1.
          5    1    5    5  503    0 -0.34276770950E+02  0.72639667131E+01 -0.24074133699E+03  0.24332312585E+03  0.47000000000E+01 0. -1.
         -5    1    5    5    0  503  0.86932290527E+02 -0.31300354618E+02 -0.23247328754E+03  0.25020562494E+03  0.47000000000E+01 0. -1.
<mgrwt>
<rscale>  0 0.27586780E+03</rscale>
<asrwt>0</asrwt>
<pdfrwt beam="1">  1        2 0.13794184E+00 0.27586780E+03</pdfrwt>
<pdfrwt beam="2">  1       -2 0.32645198E-02 0.27586780E+03</pdfrwt>
<totfact> 0.11364089E+04</totfact>
</mgrwt>
</event>
<event>
 9    1  0.2095749E-002  0.2738668E+03  0.7818608E-02  0.1099087E+00
         -1   -1    0    0    0  501 -0.00000000000E+00  0.00000000000E+00  0.19120561417E+02  0.19120561417E+02  0.00000000000E+00 0.  1.
          1   -1    0    0  501    0  0.00000000000E+00 -0.00000000000E+00 -0.98065910836E+03  0.98065910836E+03  0.00000000000E+00 0.  1.
         36    2    1    2    0    0 -0.71054273576E-14  0.00000000000E+00 -0.96153854694E+03  0.99977966977E+03  0.27386677572E+03 0.  0.
         25    2    3    3    0    0  0.35563025563E+02  0.28934375102E+02 -0.59328753704E+03  0.60821437701E+03  0.12582805705E+03 0.  0.
         25    2    3    3    0    0 -0.35563025563E+02 -0.28934375102E+02 -0.36825100990E+03  0.39156529276E+03  0.12495057166E+03 0.  0.
          5    1    4    4  502    0  0.18689671540E+02 -0.55645193879E+01 -0.79140328093E+01  0.21563617822E+02  0.47000000000E+01 0.  1.
         -5    1    4    4    0  502  0.16873354023E+02  0.34498894490E+02 -0.58537350423E+03  0.58665075919E+03  0.47000000000E+01 0.  1.
          5    1    5    5  503    0  0.22559321252E+02 -0.52438201800E+02 -0.26129728150E+03  0.26750149028E+03  0.47000000000E+01 0. -1.
         -5    1    5    5    0  503 -0.58122346815E+02  0.23503826698E+02 -0.10695372840E+03  0.12406380249E+03  0.47000000000E+01 0. -1.
<mgrwt>
<rscale>  0 0.27386678E+03</rscale>
<asrwt>0</asrwt>
<pdfrwt beam="1">  1        1 0.15087067E+00 0.27386678E+03</pdfrwt>
<pdfrwt beam="2">  1       -1 0.29416241E-02 0.27386678E+03</pdfrwt>
<totfact> 0.64167261E+03</totfact>
</mgrwt>
</event>
<event>
 9    1  0.2095749E-002  0.2750194E+03  0.7818608E-02  0.1098441E+00
         -2   -1    0    0    0  501 -0.00000000000E+00  0.00000000000E+00  0.60073872742E+02  0.60073872742E+02  0.00000000000E+00 0.  1.
          2   -1    0    0  501    0  0.00000000000E+00 -0.00000000000E+00 -0.31476102868E+03  0.31476102868E+03  0.00000000000E+00 0.  1.
         36    2    1    2    0    0 -0.71054273576E-14 -0.35527136788E-14 -0.25468715594E+03  0.37483490142E+03  0.27501937373E+03 0.  0.
         25    2    3    3    0    0  0.14213982624E+02  0.16786195841E+01 -0.12850927576E+03  0.19624688743E+03  0.14762571525E+03 0.  0.
         25    2    3    3    0    0 -0.14213982624E+02 -0.16786195841E+01 -0.12617788018E+03  0.17858801399E+03  0.12557056275E+03 0.  0.
          5    1    4    4  502    0 -0.64395623107E+02 -0.18228540074E+02 -0.58088573357E+02  0.88743722613E+02  0.47000000000E+01 0. -1.
         -5    1    4    4    0  502  0.78609605732E+02  0.19907159659E+02 -0.70420702403E+02  0.10750316482E+03  0.47000000000E+01 0. -1.
          5    1    5    5  503    0 -0.35357800741E+02 -0.25098014942E+02 -0.13787668694E+03  0.14461035658E+03  0.47000000000E+01 0. -1.
         -5    1    5    5    0  503  0.21143818117E+02  0.23419395358E+02  0.11698806766E+02  0.33977657412E+02  0.47000000000E+01 0. -1.
<mgrwt>
<rscale>  0 0.27501937E+03</rscale>
<asrwt>0</asrwt>
<pdfrwt beam="1">  1        2 0.48424774E-01 0.27501937E+03</pdfrwt>
<pdfrwt beam="2">  1       -2 0.92421343E-02 0.27501937E+03</pdfrwt>
<totfact> 0.77509410E+03</totfact>
</mgrwt>
</event>
<event>
 9    1  0.2095749E-002  0.2746472E+03  0.7818608E-02  0.1098649E+00
          1   -1    0    0  501    0  0.00000000000E+00  0.00000000000E+00  0.54150685328E+03  0.54150685328E+03  0.00000000000E+00 0. -1.
         -1   -1    0    0    0  501 -0.00000000000E+00 -0.00000000000E+00 -0.34824629277E+02  0.34824629277E+02  0.00000000000E+00 0. -1.
         36    2    1    2    0    0 -0.17763568394E-14 -0.35527136788E-14  0.50668222400E+03  0.57633148255E+03  0.27464723131E+03 0.  0.
         25    2    3    3    0    0  0.83355692697E+01  0.15926931152E+02  0.38479972962E+03  0.40487158375E+03  0.12460745790E+03 0.  0.
         25    2    3    3    0    0 -0.83355692697E+01 -0.15926931152E+02  0.12188249439E+03  0.17145989881E+03  0.11924766501E+03 0.  0.
          5    1    4    4  502    0  0.23609796181E+02 -0.30732230821E+02  0.32509485854E+03  0.32743037357E+03  0.47000000000E+01 0. -1.
         -5    1    4    4    0  502 -0.15274226911E+02  0.46659161973E+02  0.59704871077E+02  0.77441210179E+02  0.47000000000E+01 0. -1.
          5    1    5    5  503    0  0.19248099941E+02 -0.62101031347E+02  0.79588001959E+02  0.10287549515E+03  0.47000000000E+01 0. -1.
         -5    1    5    5    0  503 -0.27583669210E+02  0.46174100195E+02  0.42294492427E+02  0.68584403661E+02  0.47000000000E+01 0. -1.
<mgrwt>
<rscale>  0 0.27464723E+03</rscale>
<asrwt>0</asrwt>
<pdfrwt beam="1">  1        1 0.83308740E-01 0.27464723E+03</pdfrwt>
<pdfrwt beam="2">  1       -1 0.53576357E-02 0.27464723E+03</pdfrwt>
<totfact> 0.64002614E+03</totfact>
</mgrwt>
</event>
<event>
 9    1  0.2095749E-002  0.2745397E+03  0.7818608E-02  0.1098709E+00
         -2   -1    0    0    0  501 -0.00000000000E+00  0.00000000000E+00  0.96873271003E+02  0.96873271003E+02  0.00000000000E+00 0.  1.
          2   -1    0    0  501    0  0.00000000000E+00 -0.00000000000E+00 -0.19451203490E+03  0.19451203490E+03  0.00000000000E+00 0.  1.
         36    2    1    2    0    0  0.00000000000E+00  0.35527136788E-14 -0.97638763900E+02  0.29138530591E+03  0.27453973898E+03 0.  0.
         25    2    3    3    0    0 -0.81804241169E+01  0.10524434332E+02 -0.10665064479E+03  0.16328353883E+03  0.12292058804E+03 0.  0.
         25    2    3    3    0    0  0.81804241169E+01 -0.10524434332E+02  0.90118808871E+01  0.12810176707E+03  0.12708723647E+03 0.  0.
          5    1    4    4  502    0 -0.63236943569E+02  0.18821645494E+02 -0.70820764100E+02  0.96906325896E+02  0.47000000000E+01 0.  1.
         -5    1    4    4    0  502  0.55056519452E+02 -0.82972111615E+01 -0.35829880687E+02  0.66377212937E+02  0.47000000000E+01 0.  1.
          5    1    5    5  503    0 -0.18688099923E+02 -0.16584268622E+02  0.62655576175E+02  0.67617263108E+02  0.47000000000E+01 0. -1.
         -5    1    5    5    0  503  0.26868524040E+02  0.60598342898E+01 -0.53643695288E+02  0.60484503964E+02  0.47000000000E+01 0. -1.
<mgrwt>
<rscale>  0 0.27453974E+03</rscale>
<asrwt>0</asrwt>
<pdfrwt beam="1">  1        2 0.29924928E-01 0.27453974E+03</pdfrwt>
<pdfrwt beam="2">  1       -2 0.14903580E-01 0.27453974E+03</pdfrwt>
<totfact> 0.60388805E+03</totfact>
</mgrwt>
</event>
<event>
 9    1  0.2095749E-002  0.2742394E+03  0.7818608E-02  0.1098878E+00
          3   -1    0    0  501    0  0.00000000000E+00  0.00000000000E+00  0.15993281393E+04  0.15993281393E+04  0.00000000000E+00 0. -1.
         -3   -1    0    0    0  501 -0.00000000000E+00 -0.00000000000E+00 -0.11756064853E+02  0.11756064853E+02  0.00000000000E+00 0. -1.
         36    2    1    2    0    0 -0.71054273576E-14  0.00000000000E+00  0.15875720745E+04  0.16110842042E+04  0.27423935040E+03 0.  0.
         25    2    3    3    0    0 -0.62126777940E+02  0.18117426960E+02  0.80545876849E+03  0.81682270088E+03  0.11936297266E+03 0.  0.
         25    2    3    3    0    0  0.62126777940E+02 -0.18117426960E+02  0.78211330599E+03  0.79426150330E+03  0.12231980431E+03 0.  0.
          5    1    4    4  502    0 -0.59666848119E+02  0.34478973655E+02  0.20904423054E+03  0.22016019784E+03  0.47000000000E+01 0. -1.
         -5    1    4    4    0  502 -0.24599298210E+01 -0.16361546695E+02  0.59641453795E+03  0.59666250305E+03  0.47000000000E+01 0. -1.
          5    1    5    5  503    0  0.54701073553E+02  0.46981428258E+02  0.37816556998E+03  0.38500746794E+03  0.47000000000E+01 0. -1.
         -5    1    5    5    0  503  0.74257043869E+01 -0.65098855218E+02  0.40394773601E+03  0.40925403537E+03  0.47000000000E+01 0. -1.
<mgrwt>
<rscale>  0 0.27423935E+03</rscale>
<asrwt>0</asrwt>
<pdfrwt beam="1">  1        3 0.24605031E+00 0.27423935E+03</pdfrwt>
<pdfrwt beam="2">  1       -3 0.18086266E-02 0.27423935E+03</pdfrwt>
<totfact> 0.24489539E+02</totfact>
</mgrwt>
</event>
<event>
 9    1  0.2095749E-002  0.2742503E+03  0.7818608E-02  0.1098871E+00
         -2   -1    0    0    0  501 -0.00000000000E+00  0.00000000000E+00  0.19628396718E+02  0.19628396718E+02  0.00000000000E+00 0.  1.
          2   -1    0    0  501    0  0.00000000000E+00 -0.00000000000E+00 -0.95796461670E+03  0.95796461670E+03  0.00000000000E+00 0.  1.
         36    2    1    2    0    0  0.71054273576E-14 -0.35527136788E-14 -0.93833621998E+03  0.97759301342E+03  0.27425032024E+03 0.  0.
         25    2    3    3    0    0 -0.28854102751E+02 -0.20118643856E+00 -0.28700250646E+03  0.31526148188E+03  0.12722721218E+03 0.  0.
         25    2    3    3    0    0  0.28854102751E+02  0.20118643856E+00 -0.65133371352E+03  0.66233153154E+03  0.11668269616E+03 0.  0.
          5    1    4    4  502    0 -0.19316386827E+02  0.34654813429E+02 -0.18030886232E+02  0.43832428089E+02  0.47000000000E+01 0.  1.
         -5    1    4    4    0  502 -0.95377159233E+01 -0.34855999867E+02 -0.26897162023E+03  0.27142905379E+03  0.47000000000E+01 0.  1.
          5    1    5    5  503    0  0.30256255625E+02 -0.24405710987E+02 -0.62400191185E+03  0.62522920256E+03  0.47000000000E+01 0. -1.
         -5    1    5    5    0  503 -0.14021528744E+01  0.24606897426E+02 -0.27331801666E+02  0.37102328982E+02  0.47000000000E+01 0. -1.
<mgrwt>
<rscale>  0 0.27425032E+03</rscale>
<asrwt>0</asrwt>
<pdfrwt beam="1">  1        2 0.14737913E+00 0.27425032E+03</pdfrwt>
<pdfrwt beam="2">  1       -2 0.30197542E-02 0.27425032E+03</pdfrwt>
<totfact> 0.11665068E+04</totfact>
</mgrwt>
</event>
<event>
 9    1  0.2095749E-002  0.2752644E+03  0.7818608E-02  0.1098304E+00
         -2   -1    0    0    0  501 -0.00000000000E+00  0.00000000000E+00  0.31385650500E+02  0.31385650500E+02  0.00000000000E+00 0. -1.
          2   -1    0    0  501    0  0.00000000000E+00 -0.00000000000E+00 -0.60354422213E+03  0.60354422213E+03  0.00000000000E+00 0. -1.
         36    2    1    2    0    0  0.71054273576E-14  0.00000000000E+00 -0.57215857163E+03  0.63492987263E+03  0.27526444025E+03 0.  0.
         25    2    3    3    0    0  0.19195275031E+02  0.50045775754E+02 -0.21988739077E+03  0.25707469786E+03  0.12191758447E+03 0.  0.
         25    2    3    3    0    0 -0.19195275031E+02 -0.50045775754E+02 -0.35227118086E+03  0.37785517478E+03  0.12572394356E+03 0.  0.
          5    1    4    4  502    0 -0.49656551776E+02  0.20785749047E+02 -0.61641440275E+02  0.81973030058E+02  0.47000000000E+01 0.  1.
         -5    1    4    4    0  502  0.68851826807E+02  0.29260026707E+02 -0.15824595050E+03  0.17510166780E+03  0.47000000000E+01 0.  1.
          5    1    5    5  503    0  0.32550339462E+02  0.23801278125E+02 -0.16544573918E+03  0.17035377322E+03  0.47000000000E+01 0.  1.
         -5    1    5    5    0  503 -0.51745614493E+02 -0.73847053879E+02 -0.18682544168E+03  0.20750140155E+03  0.47000000000E+01 0.  1.
<mgrwt>
<rscale>  0 0.27526444E+03</rscale>
<asrwt>0</asrwt>
<pdfrwt beam="1">  1        2 0.92852950E-01 0.27526444E+03</pdfrwt>
<pdfrwt beam="2">  1       -2 0.48285620E-02 0.27526444E+03</pdfrwt>
<totfact> 0.10299555E+04</totfact>
</mgrwt>
</event>
<event>
 9    1  0.2095749E-002  0.2747754E+03  0.7818608E-02  0.1098577E+00
         -2   -1    0    0    0  501 -0.00000000000E+00  0.00000000000E+00  0.25382224370E+02  0.25382224370E+02  0.00000000000E+00 0. -1.
          2   -1    0    0  501    0  0.00000000000E+00 -0.00000000000E+00 -0.74364587410E+03  0.74364587410E+03  0.00000000000E+00 0. -1.
         36    2    1    2    0    0  0.14210854715E-13 -0.71054273576E-14 -0.71826364973E+03  0.76902809847E+03  0.27477544598E+03 0.  0.
         25    2    3    3    0    0 -0.43060442671E+02 -0.35464149199E+01 -0.24224049304E+03  0.27499537517E+03  0.12278119203E+03 0.  0.
         25    2    3    3    0    0  0.43060442671E+02  0.35464149199E+01 -0.47602315669E+03  0.49403272330E+03  0.12491399922E+03 0.  0.
          5    1    4    4  502    0  0.23533345689E+01  0.40026444048E+02 -0.18641553396E+03  0.19073671830E+03  0.47000000000E+01 0. -1.
         -5    1    4    4    0  502 -0.45413777240E+02 -0.43572858968E+02 -0.55824959081E+02  0.84258656874E+02  0.47000000000E+01 0. -1.
          5    1    5    5  503    0 -0.36154077882E+02  0.29463329838E+02 -0.13374225707E+03  0.14171904064E+03  0.47000000000E+01 0.  1.
         -5    1    5    5    0  503  0.79214520553E+02 -0.25916914918E+02 -0.34228089962E+03  0.35231368266E+03  0.47000000000E+01 0.  1.
<mgrwt>
<rscale>  0 0.27477545E+03</rscale>
<asrwt>0</asrwt>
<pdfrwt beam="1">  1        2 0.11440704E+00 0.27477545E+03</pdfrwt>
<pdfrwt beam="2">  1       -2 0.39049581E-02 0.27477545E+03</pdfrwt>
<totfact> 0.11049641E+04</totfact>
</mgrwt>
</event>
<event>
 9    1  0.2095749E-002  0.2741276E+03  0.7818608E-02  0.1098940E+00
         -2   -1    0    0    0  501 -0.00000000000E+00  0.00000000000E+00  0.12050538032E+02  0.12050538032E+02  0.00000000000E+00 0.  1.
          2   -1    0    0  501    0  0.00000000000E+00 -0.00000000000E+00 -0.15589745259E+04  0.15589745259E+04  0.00000000000E+00 0.  1.
         36    2    1    2    0    0  0.00000000000E+00  0.00000000000E+00 -0.15469239878E+04  0.15710250639E+04  0.27412757479E+03 0.  0.
         25    2    3    3    0    0 -0.96864465366E+01 -0.49530533684E+02 -0.80449689863E+03  0.81577479990E+03  0.12540400006E+03 0.  0.
         25    2    3    3    0    0  0.96864465366E+01  0.49530533684E+02 -0.74242708920E+03  0.75525026399E+03  0.12906539998E+03 0.  0.
          5    1    4    4  502    0 -0.44269279297E+02  0.10876131559E+02 -0.13320963564E+03  0.14087212767E+03  0.47000000000E+01 0. -1.
         -5    1    4    4    0  502  0.34582832761E+02 -0.60406665243E+02 -0.67128726299E+03  0.67490267222E+03  0.47000000000E+01 0. -1.
          5    1    5    5  503    0  0.34867110013E+02  0.73013099866E+02 -0.67036887956E+03  0.67525043710E+03  0.47000000000E+01 0.  1.
         -5    1    5    5    0  503 -0.25180663477E+02 -0.23482566183E+02 -0.72058209636E+02  0.79999826897E+02  0.47000000000E+01 0.  1.
<mgrwt>
<rscale>  0 0.27412757E+03</rscale>
<asrwt>0</asrwt>
<pdfrwt beam="1">  1        2 0.23984214E+00 0.27412757E+03</pdfrwt>
<pdfrwt beam="2">  1       -2 0.18539297E-02 0.27412757E+03</pdfrwt>
<totfact> 0.10967547E+04</totfact>
</mgrwt>
</event>
<event>
 9    1  0.2095749E-002  0.2754246E+03  0.7818608E-02  0.1098214E+00
         -2   -1    0    0    0  501 -0.00000000000E+00  0.00000000000E+00  0.57560182215E+02  0.57560182215E+02  0.00000000000E+00 0. -1.
          2   -1    0    0  501    0  0.00000000000E+00 -0.00000000000E+00 -0.32947571894E+03  0.32947571894E+03  0.00000000000E+00 0. -1.
         36    2    1    2    0    0  0.00000000000E+00  0.00000000000E+00 -0.27191553672E+03  0.38703590115E+03  0.27542463519E+03 0.  0.
         25    2    3    3    0    0 -0.44861423282E+02 -0.18959041166E+02 -0.87814404880E+02  0.15948835307E+03  0.12390791952E+03 0.  0.
         25    2    3    3    0    0  0.44861423282E+02  0.18959041166E+02 -0.18410113184E+03  0.22754754809E+03  0.12454985890E+03 0.  0.
          5    1    4    4  502    0 -0.17357085669E+02  0.20362367214E+02  0.24927190281E+02  0.36869353626E+02  0.47000000000E+01 0.  1.
         -5    1    4    4    0  502 -0.27504337613E+02 -0.39321408381E+02 -0.11274159516E+03  0.12261899944E+03  0.47000000000E+01 0.  1.
          5    1    5    5  503    0  0.82790834143E+02  0.32999136876E+02 -0.99525933919E+02  0.13368158727E+03  0.47000000000E+01 0. -1.
         -5    1    5    5    0  503 -0.37929410861E+02 -0.14040095710E+02 -0.84575197925E+02  0.93865960816E+02  0.47000000000E+01 0. -1.
<mgrwt>
<rscale>  0 0.27542464E+03</rscale>
<asrwt>0</asrwt>
<pdfrwt beam="1">  1        2 0.50688573E-01 0.27542464E+03</pdfrwt>
<pdfrwt beam="2">  1       -2 0.88554125E-02 0.27542464E+03</pdfrwt>
<totfact> 0.78939016E+03</totfact>
</mgrwt>
</event>
<event>
 9    1  0.2095749E-002  0.2750860E+03  0.7818608E-02  0.1098404E+00
          2   -1    0    0  501    0  0.00000000000E+00  0.00000000000E+00  0.94513678287E+03  0.94513678287E+03  0.00000000000E+00 0. -1.
         -2   -1    0    0    0  501 -0.00000000000E+00 -0.00000000000E+00 -0.20016230675E+02  0.20016230675E+02  0.00000000000E+00 0. -1.
         36    2    1    2    0    0  0.00000000000E+00 -0.71054273576E-14  0.92512055219E+03  0.96515301354E+03  0.27508599285E+03 0.  0.
         25    2    3    3    0    0 -0.33122864077E+02 -0.43778072011E+02  0.57125417317E+03  0.58621724097E+03  0.11960635242E+03 0.  0.
         25    2    3    3    0    0  0.33122864077E+02  0.43778072011E+02  0.35386637902E+03  0.37893577257E+03  0.12392441976E+03 0.  0.
          5    1    4    4  502    0  0.27359180089E+02  0.16332110909E+01  0.37203185661E+03  0.37306967774E+03  0.47000000000E+01 0. -1.
         -5    1    4    4    0  502 -0.60482044167E+02 -0.45411283102E+02  0.19922231655E+03  0.21314756324E+03  0.47000000000E+01 0. -1.
          5    1    5    5  503    0 -0.52357498660E+01  0.32465932494E+02  0.12957801481E+02  0.35657319986E+02  0.47000000000E+01 0.  1.
         -5    1    5    5    0  503  0.38358613943E+02  0.11312139517E+02  0.34090857754E+03  0.34327845258E+03  0.47000000000E+01 0.  1.
<mgrwt>
<rscale>  0 0.27508599E+03</rscale>
<asrwt>0</asrwt>
<pdfrwt beam="1">  1        2 0.14540562E+00 0.27508599E+03</pdfrwt>
<pdfrwt beam="2">  1       -2 0.30794208E-02 0.27508599E+03</pdfrwt>
<totfact> 0.11543210E+04</totfact>
</mgrwt>
</event>
<event>
 9    1  0.2095749E-002  0.2757248E+03  0.7818608E-02  0.1098047E+00
          2   -1    0    0  501    0  0.00000000000E+00  0.00000000000E+00  0.10145535766E+04  0.10145535766E+04  0.00000000000E+00 0.  1.
         -2   -1    0    0    0  501 -0.00000000000E+00 -0.00000000000E+00 -0.18733399803E+02  0.18733399803E+02  0.00000000000E+00 0.  1.
         36    2    1    2    0    0 -0.35527136788E-14  0.00000000000E+00  0.99582017677E+03  0.10332869764E+04  0.27572477416E+03 0.  0.
         25    2    3    3    0    0  0.83928775101E+01 -0.53004356214E+02  0.52222675717E+03  0.53938399114E+03  0.12383215185E+03 0.  0.
         25    2    3    3    0    0 -0.83928775101E+01  0.53004356214E+02  0.47359341960E+03  0.49390298523E+03  0.12949721834E+03 0.  0.
          5    1    4    4  502    0 -0.52828372679E+02 -0.46806506359E+02  0.22659654474E+03  0.23738106514E+03  0.47000000000E+01 0. -1.
         -5    1    4    4    0  502  0.61221250189E+02 -0.61978498550E+01  0.29563021242E+03  0.30200292600E+03  0.47000000000E+01 0. -1.
          5    1    5    5  503    0  0.11532837579E+02  0.44793437524E+01 -0.36764693852E+01  0.13735985229E+02  0.47000000000E+01 0.  1.
         -5    1    5    5    0  503 -0.19925715089E+02  0.48525012461E+02  0.47726988899E+03  0.48016700000E+03  0.47000000000E+01 0.  1.
<mgrwt>
<rscale>  0 0.27572477E+03</rscale>
<asrwt>0</asrwt>
<pdfrwt beam="1">  1        2 0.15608512E+00 0.27572477E+03</pdfrwt>
<pdfrwt beam="2">  1       -2 0.28820623E-02 0.27572477E+03</pdfrwt>
<totfact> 0.11540109E+04</totfact>
</mgrwt>
</event>
<event>
 9    1  0.2095749E-002  0.2758666E+03  0.7818608E-02  0.1097968E+00
          1   -1    0    0  501    0  0.00000000000E+00  0.00000000000E+00  0.68565022445E+03  0.68565022445E+03  0.00000000000E+00 0.  1.
         -1   -1    0    0    0  501 -0.00000000000E+00 -0.00000000000E+00 -0.27748259018E+02  0.27748259018E+02  0.00000000000E+00 0.  1.
         36    2    1    2    0    0  0.00000000000E+00 -0.14210854715E-13  0.65790196543E+03  0.71339848346E+03  0.27586663462E+03 0.  0.
         25    2    3    3    0    0 -0.67921011553E+01 -0.46737546232E+02  0.29651854924E+03  0.32564288726E+03  0.12605359620E+03 0.  0.
         25    2    3    3    0    0  0.67921011553E+01  0.46737546232E+02  0.36138341618E+03  0.38775559620E+03  0.13238541470E+03 0.  0.
          5    1    4    4  502    0 -0.66234764921E+01 -0.59854203488E+02  0.49125068434E+02  0.77857295514E+02  0.47000000000E+01 0. -1.
         -5    1    4    4    0  502 -0.16862466326E+00  0.13116657256E+02  0.24739348081E+03  0.24778559175E+03  0.47000000000E+01 0. -1.
          5    1    5    5  503    0  0.30555261602E+02 -0.58056197825E+00  0.31700121768E+03  0.31850560918E+03  0.47000000000E+01 0.  1.
         -5    1    5    5    0  503 -0.23763160447E+02  0.47318108210E+02  0.44382198499E+02  0.69249987023E+02  0.47000000000E+01 0.  1.
<mgrwt>
<rscale>  0 0.27586663E+03</rscale>
<asrwt>0</asrwt>
<pdfrwt beam="1">  1        1 0.10548464E+00 0.27586663E+03</pdfrwt>
<pdfrwt beam="2">  1       -1 0.42689634E-02 0.27586663E+03</pdfrwt>
<totfact> 0.64661132E+03</totfact>
</mgrwt>
</event>
<event>
 9    1  0.2095749E-002  0.2753830E+03  0.7818608E-02  0.1098238E+00
         -1   -1    0    0    0  501 -0.00000000000E+00  0.00000000000E+00  0.17782417442E+03  0.17782417442E+03  0.00000000000E+00 0. -1.
          1   -1    0    0  501    0  0.00000000000E+00 -0.00000000000E+00 -0.10661627337E+03  0.10661627337E+03  0.00000000000E+00 0. -1.
         36    2    1    2    0    0  0.35527136788E-14  0.17763568394E-14  0.71207901050E+02  0.28444044779E+03  0.27538301176E+03 0.  0.
         25    2    3    3    0    0 -0.23427407716E+02 -0.10163389314E+02 -0.76107328954E+01  0.12824897998E+03  0.12545014825E+03 0.  0.
         25    2    3    3    0    0  0.23427407716E+02  0.10163389314E+02  0.78818633945E+02  0.15619146781E+03  0.13240566319E+03 0.  0.
          5    1    4    4  502    0 -0.25583495832E+02  0.17709530344E+02  0.52829152543E+02  0.61491073193E+02  0.47000000000E+01 0.  1.
         -5    1    4    4    0  502  0.21560881157E+01 -0.27872919658E+02 -0.60439885439E+02  0.66757906783E+02  0.47000000000E+01 0.  1.
          5    1    5    5  503    0  0.10695793583E+02 -0.32806468961E+01 -0.36932308182E+02  0.38874773724E+02  0.47000000000E+01 0.  1.
         -5    1    5    5    0  503  0.12731614133E+02  0.13444036210E+02  0.11575094213E+03  0.11731669409E+03  0.47000000000E+01 0.  1.
<mgrwt>
<rscale>  0 0.27538301E+03</rscale>
<asrwt>0</asrwt>
<pdfrwt beam="1">  1        1 0.16402504E-01 0.27538301E+03</pdfrwt>
<pdfrwt beam="2">  1       -1 0.27357565E-01 0.27538301E+03</pdfrwt>
<totfact> 0.39376830E+03</totfact>
</mgrwt>
</event>
<event>
 9    1  0.2095749E-002  0.2745070E+03  0.7818608E-02  0.1098727E+00
         -1   -1    0    0    0  501 -0.00000000000E+00  0.00000000000E+00  0.97110331841E+02  0.97110331841E+02  0.00000000000E+00 0.  1.
          1   -1    0    0  501    0  0.00000000000E+00 -0.00000000000E+00 -0.19399091269E+03  0.19399091269E+03  0.00000000000E+00 0.  1.
         36    2    1    2    0    0  0.00000000000E+00  0.35527136788E-14 -0.96880580847E+02  0.29110124453E+03  0.27450699011E+03 0.  0.
         25    2    3    3    0    0 -0.77461656612E+01 -0.28663143756E+02  0.64228498387E+01  0.12923613016E+03  0.12561506855E+03 0.  0.
         25    2    3    3    0    0  0.77461656612E+01  0.28663143756E+02 -0.10330343069E+03  0.16186511437E+03  0.12102535918E+03 0.  0.
          5    1    4    4  502    0 -0.57897781457E+02 -0.39573941710E+02 -0.17472532963E+02  0.72426717227E+02  0.47000000000E+01 0. -1.
         -5    1    4    4    0  502  0.50151615796E+02  0.10910797954E+02  0.23895382801E+02  0.56809412936E+02  0.47000000000E+01 0. -1.
          5    1    5    5  503    0 -0.48569418486E+02  0.16078734423E+02 -0.10431795986E+02  0.52425437339E+02  0.47000000000E+01 0. -1.
         -5    1    5    5    0  503  0.56315584147E+02  0.12584409333E+02 -0.92871634700E+02  0.10943967703E+03  0.47000000000E+01 0. -1.
<mgrwt>
<rscale>  0 0.27450699E+03</rscale>
<asrwt>0</asrwt>
<pdfrwt beam="1">  1        1 0.29844756E-01 0.27450699E+03</pdfrwt>
<pdfrwt beam="2">  1       -1 0.14940051E-01 0.27450699E+03</pdfrwt>
<totfact> 0.48981434E+03</totfact>
</mgrwt>
</event>
<event>
 9    1  0.2095749E-002  0.2752440E+03  0.7818608E-02  0.1098315E+00
         -2   -1    0    0    0  501 -0.00000000000E+00  0.00000000000E+00  0.81546361381E+01  0.81546361381E+01  0.00000000000E+00 0.  1.
          2   -1    0    0  501    0  0.00000000000E+00 -0.00000000000E+00 -0.23225816883E+04  0.23225816883E+04  0.00000000000E+00 0.  1.
         36    2    1    2    0    0 -0.17763568394E-14  0.00000000000E+00 -0.23144270522E+04  0.23307363244E+04  0.27524395411E+03 0.  0.
         25    2    3    3    0    0 -0.14300998571E+01  0.46989646441E+02 -0.89180329404E+03  0.90179227393E+03  0.12532405197E+03 0.  0.
         25    2    3    3    0    0  0.14300998571E+01 -0.46989646441E+02 -0.14226237581E+04  0.14289440505E+04  0.12574844034E+03 0.  0.
          5    1    4    4  502    0 -0.12634042371E+02  0.87997187515E+02 -0.52370565504E+03  0.53121824814E+03  0.47000000000E+01 0. -1.
         -5    1    4    4    0  502  0.11203942514E+02 -0.41007541074E+02 -0.36809763899E+03  0.37057402578E+03  0.47000000000E+01 0. -1.
          5    1    5    5  503    0  0.44024878133E+02 -0.57841765614E+02 -0.50175153160E+03  0.50701138963E+03  0.47000000000E+01 0.  1.
         -5    1    5    5    0  503 -0.42594778276E+02  0.10852119173E+02 -0.92087222651E+03  0.92193266088E+03  0.47000000000E+01 0.  1.
<mgrwt>
<rscale>  0 0.27524395E+03</rscale>
<asrwt>0</asrwt>
<pdfrwt beam="1">  1        2 0.35732097E+00 0.27524395E+03</pdfrwt>
<pdfrwt beam="2">  1       -2 0.12545569E-02 0.27524395E+03</pdfrwt>
<totfact> 0.76708046E+03</totfact>
</mgrwt>
</event>
<event>
 9    1  0.2095749E-002  0.2768531E+03  0.7818608E-02  0.1097420E+00
          1   -1    0    0  501    0  0.00000000000E+00  0.00000000000E+00  0.10296294702E+04  0.10296294702E+04  0.00000000000E+00 0. -1.
         -1   -1    0    0    0  501 -0.00000000000E+00 -0.00000000000E+00 -0.18610490004E+02  0.18610490004E+02  0.00000000000E+00 0. -1.
         36    2    1    2    0    0 -0.71054273576E-14  0.14210854715E-13  0.10110189802E+04  0.10482399602E+04  0.27685309436E+03 0.  0.
         25    2    3    3    0    0 -0.35040367460E+02 -0.55173124132E+02  0.58056656795E+03  0.59758993069E+03  0.12563552227E+03 0.  0.
         25    2    3    3    0    0  0.35040367460E+02  0.55173124132E+02  0.43045241226E+03  0.45065002954E+03  0.11629389030E+03 0.  0.
          5    1    4    4  502    0  0.35263205230E+02 -0.37400728388E+02  0.39406960624E+03  0.39743584726E+03  0.47000000000E+01 0. -1.
         -5    1    4    4    0  502 -0.70303572690E+02 -0.17772395743E+02  0.18649696171E+03  0.20015408342E+03  0.47000000000E+01 0. -1.
          5    1    5    5  503    0  0.39638881991E+02  0.32640627314E+01  0.39638062856E+02  0.56348567844E+02  0.47000000000E+01 0.  1.
         -5    1    5    5    0  503 -0.45985145308E+01  0.51909061401E+02  0.39081434941E+03  0.39430146169E+03  0.47000000000E+01 0.  1.
<mgrwt>
<rscale>  0 0.27685309E+03</rscale>
<asrwt>0</asrwt>
<pdfrwt beam="1">  1        1 0.15840449E+00 0.27685309E+03</pdfrwt>
<pdfrwt beam="2">  1       -1 0.28631531E-02 0.27685309E+03</pdfrwt>
<totfact> 0.61395670E+03</totfact>
</mgrwt>
</event>
<event>
 9    1  0.2095749E-002  0.2773024E+03  0.7818608E-02  0.1097172E+00
         -1   -1    0    0    0  501 -0.00000000000E+00  0.00000000000E+00  0.33230019717E+02  0.33230019717E+02  0.00000000000E+00 0.  1.
          1   -1    0    0  501    0  0.00000000000E+00 -0.00000000000E+00 -0.57851769348E+03  0.57851769348E+03  0.00000000000E+00 0.  1.
         36    2    1    2    0    0  0.71054273576E-14 -0.71054273576E-14 -0.54528767376E+03  0.61174771319E+03  0.27730239351E+03 0.  0.
         25    2    3    3    0    0  0.48834192728E+02 -0.25668218871E+02 -0.22350221568E+03  0.26223628490E+03  0.12558261371E+03 0.  0.
         25    2    3    3    0    0 -0.48834192728E+02  0.25668218871E+02 -0.32178545808E+03  0.34951142829E+03  0.12477468347E+03 0.  0.
          5    1    4    4  502    0  0.62901756933E+02 -0.67726799666E+02 -0.15283049140E+03  0.17866952600E+03  0.47000000000E+01 0.  1.
         -5    1    4    4    0  502 -0.14067564205E+02  0.42058580795E+02 -0.70671724276E+02  0.83566758902E+02  0.47000000000E+01 0.  1.
          5    1    5    5  503    0 -0.43156491606E+01  0.71819858508E+02 -0.16653491042E+03  0.18147364352E+03  0.47000000000E+01 0.  1.
         -5    1    5    5    0  503 -0.44518543567E+02 -0.46151639637E+02 -0.15525054766E+03  0.16803778477E+03  0.47000000000E+01 0.  1.
<mgrwt>
<rscale>  0 0.27730239E+03</rscale>
<asrwt>0</asrwt>
<pdfrwt beam="1">  1        1 0.89002720E-01 0.27730239E+03</pdfrwt>
<pdfrwt beam="2">  1       -1 0.51123109E-02 0.27730239E+03</pdfrwt>
<totfact> 0.62764472E+03</totfact>
</mgrwt>
</event>
<event>
 9    1  0.2095749E-002  0.2733973E+03  0.7818608E-02  0.1099351E+00
          2   -1    0    0  501    0  0.00000000000E+00  0.00000000000E+00  0.11268012521E+03  0.11268012521E+03  0.00000000000E+00 0. -1.
         -2   -1    0    0    0  501 -0.00000000000E+00 -0.00000000000E+00 -0.16583694398E+03  0.16583694398E+03  0.00000000000E+00 0. -1.
         36    2    1    2    0    0 -0.35527136788E-14  0.00000000000E+00 -0.53156818766E+02  0.27851706919E+03  0.27339734902E+03 0.  0.
         25    2    3    3    0    0  0.21691413659E+02 -0.51486817144E+02 -0.40168005890E+02  0.14321417793E+03  0.12560024799E+03 0.  0.
         25    2    3    3    0    0 -0.21691413659E+02  0.51486817144E+02 -0.12988812876E+02  0.13530289126E+03  0.12254286335E+03 0.  0.
          5    1    4    4  502    0 -0.37536739748E+02 -0.60741341117E+02 -0.42152187428E+02  0.83050672824E+02  0.47000000000E+01 0. -1.
         -5    1    4    4    0  502  0.59228153407E+02  0.92545239729E+01  0.19841815381E+01  0.60163505104E+02  0.47000000000E+01 0. -1.
          5    1    5    5  503    0  0.60808826873E+01  0.36589489951E+02 -0.64605002642E+02  0.74643581609E+02  0.47000000000E+01 0.  1.
         -5    1    5    5    0  503 -0.27772296346E+02  0.14897327193E+02  0.51616189766E+02  0.60659309655E+02  0.47000000000E+01 0.  1.
<mgrwt>
<rscale>  0 0.27339735E+03</rscale>
<asrwt>0</asrwt>
<pdfrwt beam="1">  1        2 0.17335404E-01 0.27339735E+03</pdfrwt>
<pdfrwt beam="2">  1       -2 0.25513376E-01 0.27339735E+03</pdfrwt>
<totfact> 0.44693811E+03</totfact>
</mgrwt>
</event>
<event>
 9    1  0.2095749E-002  0.2752077E+03  0.7818608E-02  0.1098336E+00
          2   -1    0    0  501    0  0.00000000000E+00  0.00000000000E+00  0.15117529257E+04  0.15117529257E+04  0.00000000000E+00 0.  1.
         -2   -1    0    0    0  501 -0.00000000000E+00 -0.00000000000E+00 -0.12525079978E+02  0.12525079978E+02  0.00000000000E+00 0.  1.
         36    2    1    2    0    0  0.00000000000E+00  0.35527136788E-14  0.14992278457E+04  0.15242780056E+04  0.27520774917E+03 0.  0.
         25    2    3    3    0    0  0.54209790432E+02 -0.12297690648E+02  0.70025481560E+03  0.71348282330E+03  0.12494397863E+03 0.  0.
         25    2    3    3    0    0 -0.54209790432E+02  0.12297690648E+02  0.79897303009E+03  0.81079518235E+03  0.12625763475E+03 0.  0.
          5    1    4    4  502    0  0.44639428593E+01  0.31175958121E+02  0.52760220002E+03  0.52856223722E+03  0.47000000000E+01 0.  1.
         -5    1    4    4    0  502  0.49745847573E+02 -0.43473648770E+02  0.17265261558E+03  0.18492058608E+03  0.47000000000E+01 0.  1.
          5    1    5    5  503    0  0.33980880177E+02 -0.21019891748E+02  0.16502028833E+03  0.16985382429E+03  0.47000000000E+01 0.  1.
         -5    1    5    5    0  503 -0.88190670609E+02  0.33317582396E+02  0.63395274176E+03  0.64094135805E+03  0.47000000000E+01 0.  1.
<mgrwt>
<rscale>  0 0.27520775E+03</rscale>
<asrwt>0</asrwt>
<pdfrwt beam="1">  1        2 0.23257723E+00 0.27520775E+03</pdfrwt>
<pdfrwt beam="2">  1       -2 0.19269366E-02 0.27520775E+03</pdfrwt>
<totfact> 0.10981815E+04</totfact>
</mgrwt>
</event>
<event>
 9    1  0.2095749E-002  0.2751862E+03  0.7818608E-02  0.1098348E+00
         -1   -1    0    0    0  501 -0.00000000000E+00  0.00000000000E+00  0.77444481552E+01  0.77444481552E+01  0.00000000000E+00 0. -1.
          1   -1    0    0  501    0  0.00000000000E+00 -0.00000000000E+00 -0.24445721156E+04  0.24445721156E+04  0.00000000000E+00 0. -1.
         36    2    1    2    0    0  0.00000000000E+00  0.00000000000E+00 -0.24368276675E+04  0.24523165638E+04  0.27518620613E+03 0.  0.
         25    2    3    3    0    0 -0.23482794908E+02 -0.17329511080E+02 -0.81234473749E+03  0.82245466020E+03  0.12520360193E+03 0.  0.
         25    2    3    3    0    0  0.23482794908E+02  0.17329511080E+02 -0.16244829300E+04  0.16298619036E+04  0.12904759338E+03 0.  0.
          5    1    4    4  502    0  0.38791335314E+02 -0.17176763585E+02 -0.12124426366E+03  0.12853820589E+03  0.47000000000E+01 0. -1.
         -5    1    4    4    0  502 -0.62274130222E+02 -0.15274749517E+00 -0.69110047383E+03  0.69391645430E+03  0.47000000000E+01 0. -1.
          5    1    5    5  503    0 -0.44221308646E+02 -0.13151253839E+01 -0.27770388637E+03  0.28124507497E+03  0.47000000000E+01 0.  1.
         -5    1    5    5    0  503  0.67704103553E+02  0.18644636464E+02 -0.13467790436E+04  0.13486168286E+04  0.47000000000E+01 0.  1.
<mgrwt>
<rscale>  0 0.27518621E+03</rscale>
<asrwt>0</asrwt>
<pdfrwt beam="1">  1        1 0.37608811E+00 0.27518621E+03</pdfrwt>
<pdfrwt beam="2">  1       -1 0.11914533E-02 0.27518621E+03</pdfrwt>
<totfact> 0.25182446E+03</totfact>
</mgrwt>
</event>
<event>
 9    1  0.2095749E-002  0.2749378E+03  0.7818608E-02  0.1098486E+00
         -1   -1    0    0    0  501 -0.00000000000E+00  0.00000000000E+00  0.84232148825E+01  0.84232148825E+01  0.00000000000E+00 0. -1.
          1   -1    0    0  501    0  0.00000000000E+00 -0.00000000000E+00 -0.22435251838E+04  0.22435251838E+04  0.00000000000E+00 0. -1.
         36    2    1    2    0    0  0.71054273576E-14  0.35527136788E-14 -0.22351019689E+04  0.22519483986E+04  0.27493777272E+03 0.  0.
         25    2    3    3    0    0 -0.49485024981E+02 -0.23827521610E+02 -0.12492930613E+04  0.12566018358E+04  0.12368711470E+03 0.  0.
         25    2    3    3    0    0  0.49485024981E+02  0.23827521610E+02 -0.98580890761E+03  0.99534656283E+03  0.12601213965E+03 0.  0.
          5    1    4    4  502    0 -0.51813964211E+01 -0.43835134709E+02 -0.15530829940E+03  0.16152747063E+03  0.47000000000E+01 0. -1.
         -5    1    4    4    0  502 -0.44303628560E+02  0.20007613099E+02 -0.10939847619E+04  0.10950743652E+04  0.47000000000E+01 0. -1.
          5    1    5    5  503    0 -0.13615324111E+02 -0.21166163322E+02 -0.48636164438E+02  0.54963169592E+02  0.47000000000E+01 0. -1.
         -5    1    5    5    0  503  0.63100349092E+02  0.44993684932E+02 -0.93717274317E+03  0.94038339324E+03  0.47000000000E+01 0. -1.
<mgrwt>
<rscale>  0 0.27493777E+03</rscale>
<asrwt>0</asrwt>
<pdfrwt beam="1">  1        1 0.34515766E+00 0.27493777E+03</pdfrwt>
<pdfrwt beam="2">  1       -1 0.12958794E-02 0.27493777E+03</pdfrwt>
<totfact> 0.30231177E+03</totfact>
</mgrwt>
</event>
<event>
 9    1  0.2095749E-002  0.2747942E+03  0.7818608E-02  0.1098567E+00
          2   -1    0    0  501    0  0.00000000000E+00  0.00000000000E+00  0.29065229298E+03  0.29065229298E+03  0.00000000000E+00 0.  1.
         -2   -1    0    0    0  501 -0.00000000000E+00 -0.00000000000E+00 -0.64950334739E+02  0.64950334739E+02  0.00000000000E+00 0.  1.
         36    2    1    2    0    0  0.00000000000E+00  0.00000000000E+00  0.22570195824E+03  0.35560262772E+03  0.27479420461E+03 0.  0.
         25    2    3    3    0    0  0.46228763256E+02 -0.18026103999E+02  0.12392521795E+03  0.18588709160E+03  0.12936194263E+03 0.  0.
         25    2    3    3    0    0 -0.46228763256E+02  0.18026103999E+02  0.10177674029E+03  0.16971553612E+03  0.12642317572E+03 0.  0.
          5    1    4    4  502    0 -0.38993699628E+02 -0.12264715589E+02  0.79444905990E+02  0.89467954861E+02  0.47000000000E+01 0.  1.
         -5    1    4    4    0  502  0.85222462884E+02 -0.57613884099E+01  0.44480311961E+02  0.96419136734E+02  0.47000000000E+01 0.  1.
          5    1    5    5  503    0 -0.15942909284E+02 -0.24764568302E+02 -0.20769220688E+02  0.36344335564E+02  0.47000000000E+01 0.  1.
         -5    1    5    5    0  503 -0.30285853972E+02  0.42790672301E+02  0.12254596097E+03  0.13337120056E+03  0.47000000000E+01 0.  1.
<mgrwt>
<rscale>  0 0.27479420E+03</rscale>
<asrwt>0</asrwt>
<pdfrwt beam="1">  1        2 0.44715737E-01 0.27479420E+03</pdfrwt>
<pdfrwt beam="2">  1       -2 0.99923593E-02 0.27479420E+03</pdfrwt>
<totfact> 0.74620452E+03</totfact>
</mgrwt>
</event>
<event>
 9    1  0.2095749E-002  0.2757372E+03  0.7818608E-02  0.1098040E+00
         -1   -1    0    0    0  501 -0.00000000000E+00  0.00000000000E+00  0.18021369215E+02  0.18021369215E+02  0.00000000000E+00 0.  1.
          1   -1    0    0  501    0  0.00000000000E+00 -0.00000000000E+00 -0.10547339544E+04  0.10547339544E+04  0.00000000000E+00 0.  1.
         36    2    1    2    0    0  0.71054273576E-14  0.00000000000E+00 -0.10367125852E+04  0.10727553236E+04  0.27573719383E+03 0.  0.
         25    2    3    3    0    0  0.41145650853E+02  0.36134076531E+02 -0.40803134992E+03  0.43026497047E+03  0.12505889103E+03 0.  0.
         25    2    3    3    0    0 -0.41145650853E+02 -0.36134076531E+02 -0.62868123524E+03  0.64249035312E+03  0.12064461132E+03 0.  0.
          5    1    4    4  502    0  0.22820312584E+02 -0.32999650854E+02 -0.28523140240E+03  0.28807774391E+03  0.47000000000E+01 0. -1.
         -5    1    4    4    0  502  0.18325338268E+02  0.69133727385E+02 -0.12279994752E+03  0.14218722656E+03  0.47000000000E+01 0. -1.
          5    1    5    5  503    0 -0.42022064032E+02 -0.69215368108E+02 -0.56280423987E+03  0.56861878572E+03  0.47000000000E+01 0.  1.
         -5    1    5    5    0  503  0.87641317929E+00  0.33081291577E+02 -0.65876995363E+02  0.73871567402E+02  0.47000000000E+01 0.  1.
<mgrwt>
<rscale>  0 0.27573719E+03</rscale>
<asrwt>0</asrwt>
<pdfrwt beam="1">  1        1 0.16226682E+00 0.27573719E+03</pdfrwt>
<pdfrwt beam="2">  1       -1 0.27725174E-02 0.27573719E+03</pdfrwt>
<totfact> 0.61688685E+03</totfact>
</mgrwt>
</event>
<event>
 9    1  0.2095749E-002  0.2790631E+03  0.7818608E-02  0.1096202E+00
          2   -1    0    0  501    0  0.00000000000E+00  0.00000000000E+00  0.55999617547E+02  0.55999617547E+02  0.00000000000E+00 0. -1.
         -2   -1    0    0    0  501 -0.00000000000E+00 -0.00000000000E+00 -0.34766401057E+03  0.34766401057E+03  0.00000000000E+00 0. -1.
         36    2    1    2    0    0  0.00000000000E+00  0.71054273576E-14 -0.29166439302E+03  0.40366362812E+03  0.27906308697E+03 0.  0.
         25    2    3    3    0    0  0.33071086199E+02 -0.47749350794E+02 -0.12133714802E+03  0.18418373110E+03  0.12580638326E+03 0.  0.
         25    2    3    3    0    0 -0.33071086199E+02  0.47749350794E+02 -0.17032724500E+03  0.21947989702E+03  0.12564377247E+03 0.  0.
          5    1    4    4  502    0 -0.41098229996E+02 -0.26957318990E+02 -0.86310054834E+02  0.99434788286E+02  0.47000000000E+01 0.  1.
         -5    1    4    4    0  502  0.74169316195E+02 -0.20792031804E+02 -0.35027093183E+02  0.84748942815E+02  0.47000000000E+01 0.  1.
          5    1    5    5  503    0 -0.52292491915E+02  0.44205425492E+02 -0.18318255024E+03  0.19561840677E+03  0.47000000000E+01 0.  1.
         -5    1    5    5    0  503  0.19221405716E+02  0.35439253023E+01  0.12855305235E+02  0.23861490250E+02  0.47000000000E+01 0.  1.
<mgrwt>
<rscale>  0 0.27906309E+03</rscale>
<asrwt>0</asrwt>
<pdfrwt beam="1">  1        2 0.86153259E-02 0.27906309E+03</pdfrwt>
<pdfrwt beam="2">  1       -2 0.53486770E-01 0.27906309E+03</pdfrwt>
<totfact> 0.25857482E+03</totfact>
</mgrwt>
</event>
<event>
 9    1  0.2095749E-002  0.2757063E+03  0.7818608E-02  0.1098057E+00
          3   -1    0    0  501    0  0.00000000000E+00  0.00000000000E+00  0.89114688733E+03  0.89114688733E+03  0.00000000000E+00 0. -1.
         -3   -1    0    0    0  501 -0.00000000000E+00 -0.00000000000E+00 -0.21324764198E+02  0.21324764198E+02  0.00000000000E+00 0. -1.
         36    2    1    2    0    0  0.71054273576E-14  0.00000000000E+00  0.86982212313E+03  0.91247165152E+03  0.27570634551E+03 0.  0.
         25    2    3    3    0    0  0.78314793144E+00 -0.25112485406E+02  0.62953237257E+03  0.64246207639E+03  0.12575874223E+03 0.  0.
         25    2    3    3    0    0 -0.78314793144E+00  0.25112485406E+02  0.24028975056E+03  0.27000957513E+03  0.12056017665E+03 0.  0.
          5    1    4    4  502    0 -0.33155403928E+02 -0.43704964571E+02  0.12701767680E+03  0.13843765729E+03  0.47000000000E+01 0.  1.
         -5    1    4    4    0  502  0.33938551859E+02  0.18592479165E+02  0.50251469577E+03  0.50402441910E+03  0.47000000000E+01 0.  1.
          5    1    5    5  503    0  0.52705234070E+02  0.38223270426E+02  0.15721485400E+03  0.17022767230E+03  0.47000000000E+01 0.  1.
         -5    1    5    5    0  503 -0.53488382002E+02 -0.13110785020E+02  0.83074896563E+02  0.99781902828E+02  0.47000000000E+01 0.  1.
<mgrwt>
<rscale>  0 0.27570635E+03</rscale>
<asrwt>0</asrwt>
<pdfrwt beam="1">  1        3 0.13709949E+00 0.27570635E+03</pdfrwt>
<pdfrwt beam="2">  1       -3 0.32807336E-02 0.27570635E+03</pdfrwt>
<totfact> 0.48275062E+02</totfact>
</mgrwt>
</event>
<event>
 9    1  0.2095749E-002  0.2784064E+03  0.7818608E-02  0.1096563E+00
          1   -1    0    0  501    0  0.00000000000E+00  0.00000000000E+00  0.90942717513E+03  0.90942717513E+03  0.00000000000E+00 0. -1.
         -1   -1    0    0    0  501 -0.00000000000E+00 -0.00000000000E+00 -0.21307395897E+02  0.21307395897E+02  0.00000000000E+00 0. -1.
         36    2    1    2    0    0  0.00000000000E+00  0.00000000000E+00  0.88811977923E+03  0.93073457103E+03  0.27840635668E+03 0.  0.
         25    2    3    3    0    0 -0.56798993279E+02 -0.27613035790E+02  0.49000296026E+03  0.50913118686E+03  0.12297584716E+03 0.  0.
         25    2    3    3    0    0  0.56798993279E+02  0.27613035790E+02  0.39811681897E+03  0.42160338417E+03  0.12354677904E+03 0.  0.
          5    1    4    4  502    0 -0.88702901067E+02 -0.39464371331E+02  0.42065863560E+03  0.43174230620E+03  0.47000000000E+01 0. -1.
         -5    1    4    4    0  502  0.31903907788E+02  0.11851335540E+02  0.69344324661E+02  0.77388880655E+02  0.47000000000E+01 0. -1.
          5    1    5    5  503    0  0.93278768805E+02  0.28776410013E+02  0.23743652931E+03  0.25676293723E+03  0.47000000000E+01 0.  1.
         -5    1    5    5    0  503 -0.36479775526E+02 -0.11633742221E+01  0.16068028966E+03  0.16484044694E+03  0.47000000000E+01 0.  1.
<mgrwt>
<rscale>  0 0.27840636E+03</rscale>
<asrwt>0</asrwt>
<pdfrwt beam="1">  1        1 0.13991184E+00 0.27840636E+03</pdfrwt>
<pdfrwt beam="2">  1       -1 0.32780616E-02 0.27840636E+03</pdfrwt>
<totfact> 0.62045443E+03</totfact>
</mgrwt>
</event>
<event>
 8    1  0.2095749E-002  0.3035672E+03  0.7818608E-02  0.1083471E+00
         -2   -1    0    0    0  501 -0.00000000000E+00  0.00000000000E+00  0.27282562050E+03  0.27282562050E+03  0.00000000000E+00 0. -1.
          2   -1    0    0  501    0  0.00000000000E+00 -0.00000000000E+00 -0.84443168553E+02  0.84443168553E+02  0.00000000000E+00 0. -1.
         25    2    1    2    0    0 -0.64324329963E+02  0.42276322642E+02  0.14275014690E+03  0.20511723367E+03  0.12558092303E+03 0.  0.
         25    2    1    2    0    0  0.64324329963E+02 -0.42276322642E+02  0.45632305047E+02  0.15215155538E+03  0.12305641657E+03 0.  0.
          5    1    3    3  502    0 -0.35978731083E+02  0.38238050325E+02  0.16195794824E+03  0.17032053482E+03  0.47000000000E+01 0. -1.
         -5    1    3    3    0  502 -0.28345598880E+02  0.40382723175E+01 -0.19207801337E+02  0.34796698857E+02  0.47000000000E+01 0. -1.
          5    1    4    4  503    0  0.52261253405E+02 -0.33434822650E+02  0.87545030991E+02  0.10740273937E+03  0.47000000000E+01 0.  1.
         -5    1    4    4    0  503  0.12063076558E+02 -0.88414999920E+01 -0.41912725944E+02  0.44748816009E+02  0.47000000000E+01 0.  1.
<mgrwt>
<rscale>  0 0.30356719E+03</rscale>
<asrwt>0</asrwt>
<pdfrwt beam="1">  1        2 0.12991257E-01 0.30356719E+03</pdfrwt>
<pdfrwt beam="2">  1       -2 0.41973172E-01 0.30356719E+03</pdfrwt>
<totfact> 0.25175299E+03</totfact>
</mgrwt>
</event>
<event>
 9    1  0.2095749E-002  0.2721241E+03  0.7818608E-02  0.1100070E+00
          1   -1    0    0  501    0  0.00000000000E+00  0.00000000000E+00  0.56202492478E+03  0.56202492478E+03  0.00000000000E+00 0. -1.
         -1   -1    0    0    0  501 -0.00000000000E+00 -0.00000000000E+00 -0.32939603791E+02  0.32939603791E+02  0.00000000000E+00 0. -1.
         36    2    1    2    0    0  0.00000000000E+00  0.00000000000E+00  0.52908532099E+03  0.59496452857E+03  0.27212407716E+03 0.  0.
         25    2    3    3    0    0 -0.13913164055E+02  0.52074098811E+02  0.26858423461E+03  0.30088686351E+03  0.12445933334E+03 0.  0.
         25    2    3    3    0    0  0.13913164055E+02 -0.52074098811E+02  0.26050108638E+03  0.29407766506E+03  0.12536175325E+03 0.  0.
          5    1    4    4  502    0 -0.69318817086E+01  0.28151799398E+02 -0.16954818203E+01  0.29420051869E+02  0.47000000000E+01 0. -1.
         -5    1    4    4    0  502 -0.69812823464E+01  0.23922299413E+02  0.27027971643E+03  0.27146681164E+03  0.47000000000E+01 0. -1.
          5    1    5    5  503    0  0.79519770887E+01  0.30541872036E+02  0.16282912843E+03  0.16592605266E+03  0.47000000000E+01 0. -1.
         -5    1    5    5    0  503  0.59611869663E+01 -0.82615970846E+02  0.97671957952E+02  0.12815161239E+03  0.47000000000E+01 0. -1.
<mgrwt>
<rscale>  0 0.27212408E+03</rscale>
<asrwt>0</asrwt>
<pdfrwt beam="1">  1        1 0.86465366E-01 0.27212408E+03</pdfrwt>
<pdfrwt beam="2">  1       -1 0.50676318E-02 0.27212408E+03</pdfrwt>
<totfact> 0.66129085E+03</totfact>
</mgrwt>
</event>
<event>
 9    1  0.2095749E-002  0.2756609E+03  0.7818608E-02  0.1098083E+00
         -3   -1    0    0    0  501 -0.00000000000E+00  0.00000000000E+00  0.22549633514E+03  0.22549633514E+03  0.00000000000E+00 0. -1.
          3   -1    0    0  501    0  0.00000000000E+00 -0.00000000000E+00 -0.84246306277E+02  0.84246306277E+02  0.00000000000E+00 0. -1.
         36    2    1    2    0    0  0.00000000000E+00  0.14210854715E-13  0.14125002886E+03  0.30974264141E+03  0.27566090266E+03 0.  0.
         25    2    3    3    0    0  0.40081968395E+02 -0.36097369811E+02  0.91557830670E+02  0.16470892174E+03  0.12584358643E+03 0.  0.
         25    2    3    3    0    0 -0.40081968395E+02  0.36097369811E+02  0.49692198189E+02  0.14503371968E+03  0.12512346297E+03 0.  0.
          5    1    4    4  502    0 -0.43654986991E+02  0.57948402004E+00  0.41301233869E+02  0.60282465195E+02  0.47000000000E+01 0.  1.
         -5    1    4    4    0  502  0.83736955385E+02 -0.36676853831E+02  0.50256596801E+02  0.10442645654E+03  0.47000000000E+01 0.  1.
          5    1    5    5  503    0 -0.20043790571E+02  0.74075837957E+02 -0.29460199493E+01  0.76939926846E+02  0.47000000000E+01 0.  1.
         -5    1    5    5    0  503 -0.20038177824E+02 -0.37978468146E+02  0.52638218139E+02  0.68093792830E+02  0.47000000000E+01 0.  1.
<mgrwt>
<rscale>  0 0.27566090E+03</rscale>
<asrwt>0</asrwt>
<pdfrwt beam="1">  1        3 0.12960970E-01 0.27566090E+03</pdfrwt>
<pdfrwt beam="2">  1       -3 0.34691744E-01 0.27566090E+03</pdfrwt>
<totfact> 0.99021518E+02</totfact>
</mgrwt>
</event>
<event>
 9    1  0.2095749E-002  0.2776494E+03  0.7818608E-02  0.1096980E+00
          2   -1    0    0  501    0  0.00000000000E+00  0.00000000000E+00  0.13456816869E+04  0.13456816869E+04  0.00000000000E+00 0.  1.
         -2   -1    0    0    0  501 -0.00000000000E+00 -0.00000000000E+00 -0.14321583719E+02  0.14321583719E+02  0.00000000000E+00 0.  1.
         36    2    1    2    0    0  0.00000000000E+00 -0.71054273576E-14  0.13313601032E+04  0.13600032706E+04  0.27764936836E+03 0.  0.
         25    2    3    3    0    0  0.47090524569E+01 -0.49618995516E+02  0.49192088267E+03  0.50971138637E+03  0.12383587001E+03 0.  0.
         25    2    3    3    0    0 -0.47090524569E+01  0.49618995516E+02  0.83943922052E+03  0.85029188425E+03  0.12591212646E+03 0.  0.
          5    1    4    4  502    0 -0.38501288601E+01  0.24469021757E+00  0.42805857558E+03  0.42810176067E+03  0.47000000000E+01 0. -1.
         -5    1    4    4    0  502  0.85591813170E+01 -0.49863685734E+02  0.63862307089E+02  0.81609625698E+02  0.47000000000E+01 0. -1.
          5    1    5    5  503    0 -0.38816174896E+02 -0.16607483719E+02  0.54080793639E+03  0.54247379477E+03  0.47000000000E+01 0. -1.
         -5    1    5    5    0  503  0.34107122439E+02  0.66226479235E+02  0.29863128413E+03  0.30781808949E+03  0.47000000000E+01 0. -1.
<mgrwt>
<rscale>  0 0.27764937E+03</rscale>
<asrwt>0</asrwt>
<pdfrwt beam="1">  1        2 0.20702785E+00 0.27764937E+03</pdfrwt>
<pdfrwt beam="2">  1       -2 0.22033216E-02 0.27764937E+03</pdfrwt>
<totfact> 0.11088686E+04</totfact>
</mgrwt>
</event>
<event>
 9    1  0.2095749E-002  0.2745095E+03  0.7818608E-02  0.1098726E+00
          2   -1    0    0  501    0  0.00000000000E+00  0.00000000000E+00  0.21804197656E+04  0.21804197656E+04  0.00000000000E+00 0. -1.
         -2   -1    0    0    0  501 -0.00000000000E+00 -0.00000000000E+00 -0.86400203073E+01  0.86400203073E+01  0.00000000000E+00 0. -1.
         36    2    1    2    0    0  0.71054273576E-14  0.00000000000E+00  0.21717797453E+04  0.21890597859E+04  0.27450953392E+03 0.  0.
         25    2    3    3    0    0 -0.30087888556E+02 -0.43124952319E+02  0.10276364028E+04  0.10366501675E+04  0.12586481202E+03 0.  0.
         25    2    3    3    0    0  0.30087888556E+02  0.43124952319E+02  0.11441433425E+04  0.11524096184E+04  0.12735343669E+03 0.  0.
          5    1    4    4  502    0 -0.16446094612E+02 -0.63807732823E+02  0.98426968714E+03  0.98648406364E+03  0.47000000000E+01 0. -1.
         -5    1    4    4    0  502 -0.13641793944E+02  0.20682780504E+02  0.43366715688E+02  0.50166103905E+02  0.47000000000E+01 0. -1.
          5    1    5    5  503    0  0.72830152696E+02  0.25087482560E+02  0.43942331019E+03  0.44614857219E+03  0.47000000000E+01 0. -1.
         -5    1    5    5    0  503 -0.42742264140E+02  0.18037469760E+02  0.70472003230E+03  0.70626104620E+03  0.47000000000E+01 0. -1.
<mgrwt>
<rscale>  0 0.27450953E+03</rscale>
<asrwt>0</asrwt>
<pdfrwt beam="1">  1        2 0.33544876E+00 0.27450953E+03</pdfrwt>
<pdfrwt beam="2">  1       -2 0.13292356E-02 0.27450953E+03</pdfrwt>
<totfact> 0.83975427E+03</totfact>
</mgrwt>
</event>
<event>
 9    1  0.2095749E-002  0.2756944E+03  0.7818608E-02  0.1098064E+00
          2   -1    0    0  501    0  0.00000000000E+00  0.00000000000E+00  0.96415572470E+03  0.96415572470E+03  0.00000000000E+00 0.  1.
         -2   -1    0    0    0  501 -0.00000000000E+00 -0.00000000000E+00 -0.19708276046E+02  0.19708276046E+02  0.00000000000E+00 0.  1.
         36    2    1    2    0    0  0.00000000000E+00  0.14210854715E-13  0.94444744865E+03  0.98386400074E+03  0.27569437552E+03 0.  0.
         25    2    3    3    0    0 -0.64893917569E+02  0.49668087212E+02  0.45195045816E+03  0.47575108196E+03  0.12410373050E+03 0.  0.
         25    2    3    3    0    0  0.64893917569E+02 -0.49668087212E+02  0.49249699049E+03  0.50811291879E+03  0.94590238252E+02 0.  0.
          5    1    4    4  502    0 -0.72181499658E+02  0.14268256588E+01  0.39050824558E+03  0.39715360327E+03  0.47000000000E+01 0. -1.
         -5    1    4    4    0  502  0.72875820887E+01  0.48241261553E+02  0.61442212586E+02  0.78597478690E+02  0.47000000000E+01 0. -1.
          5    1    5    5  503    0  0.34159847786E+01 -0.11795178811E+01  0.30253744087E+03  0.30259552763E+03  0.47000000000E+01 0. -1.
         -5    1    5    5    0  503  0.61477932790E+02 -0.48488569331E+02  0.18995954962E+03  0.20551739116E+03  0.47000000000E+01 0. -1.
<mgrwt>
<rscale>  0 0.27569438E+03</rscale>
<asrwt>0</asrwt>
<pdfrwt beam="1">  1        2 0.14833161E+00 0.27569438E+03</pdfrwt>
<pdfrwt beam="2">  1       -2 0.30320432E-02 0.27569438E+03</pdfrwt>
<totfact> 0.11493938E+04</totfact>
</mgrwt>
</event>
<event>
 9    1  0.2095749E-002  0.2749592E+03  0.7818608E-02  0.1098474E+00
          2   -1    0    0  501    0  0.00000000000E+00  0.00000000000E+00  0.70236516487E+03  0.70236516487E+03  0.00000000000E+00 0. -1.
         -2   -1    0    0    0  501 -0.00000000000E+00 -0.00000000000E+00 -0.26909999955E+02  0.26909999955E+02  0.00000000000E+00 0. -1.
         36    2    1    2    0    0  0.17763568394E-14  0.14210854715E-13  0.67545516492E+03  0.72927516483E+03  0.27495924465E+03 0.  0.
         25    2    3    3    0    0 -0.14167041088E+02  0.68663841518E+02  0.28993540595E+03  0.32278634685E+03  0.12334122551E+03 0.  0.
         25    2    3    3    0    0  0.14167041088E+02 -0.68663841518E+02  0.38551975897E+03  0.40648881797E+03  0.10813069127E+03 0.  0.
          5    1    4    4  502    0 -0.36748786104E+02 -0.25183550663E+02  0.80368485288E+02  0.92010151242E+02  0.47000000000E+01 0.  1.
         -5    1    4    4    0  502  0.22581745015E+02  0.93847392181E+02  0.20956692066E+03  0.23077619561E+03  0.47000000000E+01 0.  1.
          5    1    5    5  503    0  0.19519870592E+02  0.24668834057E+02  0.14385763227E+03  0.14733188754E+03  0.47000000000E+01 0.  1.
         -5    1    5    5    0  503 -0.53528295036E+01 -0.93332675574E+02  0.24166212670E+03  0.25915693044E+03  0.47000000000E+01 0.  1.
<mgrwt>
<rscale>  0 0.27495924E+03</rscale>
<asrwt>0</asrwt>
<pdfrwt beam="1">  1        2 0.10805617E+00 0.27495924E+03</pdfrwt>
<pdfrwt beam="2">  1       -2 0.41400005E-02 0.27495924E+03</pdfrwt>
<totfact> 0.10853944E+04</totfact>
</mgrwt>
</event>
<event>
 9    1  0.2095749E-002  0.2738622E+03  0.7818608E-02  0.1099089E+00
         -1   -1    0    0    0  501 -0.00000000000E+00  0.00000000000E+00  0.15365806784E+02  0.15365806784E+02  0.00000000000E+00 0. -1.
          1   -1    0    0  501    0  0.00000000000E+00 -0.00000000000E+00 -0.12202496092E+04  0.12202496092E+04  0.00000000000E+00 0. -1.
         36    2    1    2    0    0  0.71054273576E-14  0.00000000000E+00 -0.12048838024E+04  0.12356154160E+04  0.27386215308E+03 0.  0.
         25    2    3    3    0    0 -0.25912060602E+02 -0.53173262665E+02 -0.61726711536E+03  0.63202123320E+03  0.12220195074E+03 0.  0.
         25    2    3    3    0    0  0.25912060602E+02  0.53173262665E+02 -0.58761668704E+03  0.60359418276E+03  0.12463440872E+03 0.  0.
          5    1    4    4  502    0  0.21251496966E+02  0.23947413646E+02 -0.31037409084E+03  0.31205651893E+03  0.47000000000E+01 0. -1.
         -5    1    4    4    0  502 -0.47163557568E+02 -0.77120676311E+02 -0.30689302452E+03  0.31996471427E+03  0.47000000000E+01 0. -1.
          5    1    5    5  503    0 -0.25543471739E+02  0.76851638371E+02 -0.34548275050E+03  0.35487894297E+03  0.47000000000E+01 0.  1.
         -5    1    5    5    0  503  0.51455532340E+02 -0.23678375706E+02 -0.24213393654E+03  0.24871523980E+03  0.47000000000E+01 0.  1.
<mgrwt>
<rscale>  0 0.27386215E+03</rscale>
<asrwt>0</asrwt>
<pdfrwt beam="1">  1        1 0.18773079E+00 0.27386215E+03</pdfrwt>
<pdfrwt beam="2">  1       -1 0.23639692E-02 0.27386215E+03</pdfrwt>
<totfact> 0.59418566E+03</totfact>
</mgrwt>
</event>
<event>
 9    1  0.2095749E-002  0.2751700E+03  0.7818608E-02  0.1098357E+00
         -4   -1    0    0    0  501 -0.00000000000E+00  0.00000000000E+00  0.43820129540E+03  0.43820129540E+03  0.00000000000E+00 0.  1.
          4   -1    0    0  501    0  0.00000000000E+00 -0.00000000000E+00 -0.43198486326E+02  0.43198486326E+02  0.00000000000E+00 0.  1.
         36    2    1    2    0    0  0.35527136788E-14 -0.35527136788E-14  0.39500280908E+03  0.48139978173E+03  0.27517000322E+03 0.  0.
         25    2    3    3    0    0  0.26058895218E+02 -0.11617015406E+02  0.24643306762E+03  0.27883997384E+03  0.12731242330E+03 0.  0.
         25    2    3    3    0    0 -0.26058895218E+02  0.11617015406E+02  0.14856974146E+03  0.20255980789E+03  0.13469776030E+03 0.  0.
          5    1    4    4  502    0 -0.19317960777E+02 -0.58822870146E+02  0.14829641319E+03  0.16077073685E+03  0.47000000000E+01 0.  1.
         -5    1    4    4    0  502  0.45376855994E+02  0.47205854740E+02  0.98136654430E+02  0.11806923699E+03  0.47000000000E+01 0.  1.
          5    1    5    5  503    0  0.18846038494E+02  0.13356796577E+02 -0.18197805073E+02  0.29779645585E+02  0.47000000000E+01 0. -1.
         -5    1    5    5    0  503 -0.44904933712E+02 -0.17397811709E+01  0.16676754653E+03  0.17278016230E+03  0.47000000000E+01 0. -1.
<mgrwt>
<rscale>  0 0.27517000E+03</rscale>
<asrwt>0</asrwt>
<pdfrwt beam="1">  1        4 0.66459213E-02 0.27517000E+03</pdfrwt>
<pdfrwt beam="2">  1       -4 0.67415581E-01 0.27517000E+03</pdfrwt>
<totfact> 0.58172627E+02</totfact>
</mgrwt>
</event>
<event>
 9    1  0.2095749E-002  0.2750410E+03  0.7818608E-02  0.1098429E+00
          2   -1    0    0  501    0  0.00000000000E+00  0.00000000000E+00  0.36332648449E+03  0.36332648449E+03  0.00000000000E+00 0.  1.
         -2   -1    0    0    0  501 -0.00000000000E+00 -0.00000000000E+00 -0.52052048374E+02  0.52052048374E+02  0.00000000000E+00 0.  1.
         36    2    1    2    0    0 -0.71054273576E-14  0.71054273576E-14  0.31127443611E+03  0.41537853286E+03  0.27504099873E+03 0.  0.
         25    2    3    3    0    0 -0.30665241547E+02  0.45347033265E+02  0.12083123292E+03  0.18165928728E+03  0.12410962631E+03 0.  0.
         25    2    3    3    0    0  0.30665241547E+02 -0.45347033265E+02  0.19044320320E+03  0.23371924558E+03  0.12393289170E+03 0.  0.
          5    1    4    4  502    0 -0.38946936174E+02 -0.33856855226E+02  0.26773268572E+02  0.58327081130E+02  0.47000000000E+01 0.  1.
         -5    1    4    4    0  502  0.82816946272E+01  0.79203888491E+02  0.94057964344E+02  0.12333220615E+03  0.47000000000E+01 0.  1.
          5    1    5    5  503    0 -0.37651961831E+02 -0.32764595350E+02  0.13719138726E+03  0.14606421764E+03  0.47000000000E+01 0. -1.
         -5    1    5    5    0  503  0.68317203378E+02 -0.12582437915E+02  0.53251815939E+02  0.87655027934E+02  0.47000000000E+01 0. -1.
<mgrwt>
<rscale>  0 0.27504100E+03</rscale>
<asrwt>0</asrwt>
<pdfrwt beam="1">  1        2 0.55896381E-01 0.27504100E+03</pdfrwt>
<pdfrwt beam="2">  1       -2 0.80080077E-02 0.27504100E+03</pdfrwt>
<totfact> 0.83164300E+03</totfact>
</mgrwt>
</event>
<event>
 9    1  0.2095749E-002  0.2734964E+03  0.7818608E-02  0.1099295E+00
         -1   -1    0    0    0  501 -0.00000000000E+00  0.00000000000E+00  0.10525264231E+02  0.10525264231E+02  0.00000000000E+00 0. -1.
          1   -1    0    0  501    0  0.00000000000E+00 -0.00000000000E+00 -0.17766838935E+04  0.17766838935E+04  0.00000000000E+00 0. -1.
         36    2    1    2    0    0  0.35527136788E-14 -0.14210854715E-13 -0.17661586292E+04  0.17872091577E+04  0.27349637975E+03 0.  0.
         25    2    3    3    0    0  0.83044763171E+01 -0.46067127438E+02 -0.71108445423E+03  0.72321362026E+03  0.12331137386E+03 0.  0.
         25    2    3    3    0    0 -0.83044763171E+01  0.46067127438E+02 -0.10550741750E+04  0.10639955374E+04  0.12928203420E+03 0.  0.
          5    1    4    4  502    0 -0.11224788389E+02  0.37496623749E+02 -0.34150294262E+03  0.34377077026E+03  0.47000000000E+01 0.  1.
         -5    1    4    4    0  502  0.19529264706E+02 -0.83563751186E+02 -0.36958151162E+03  0.37944285001E+03  0.47000000000E+01 0.  1.
          5    1    5    5  503    0 -0.29862042844E+02  0.55400152608E+02 -0.10173607284E+04  0.10193163690E+04  0.47000000000E+01 0. -1.
         -5    1    5    5    0  503  0.21557566527E+02 -0.93330251704E+01 -0.37713446603E+02  0.44679168390E+02  0.47000000000E+01 0. -1.
<mgrwt>
<rscale>  0 0.27349638E+03</rscale>
<asrwt>0</asrwt>
<pdfrwt beam="1">  1        1 0.27333563E+00 0.27349638E+03</pdfrwt>
<pdfrwt beam="2">  1       -1 0.16192735E-02 0.27349638E+03</pdfrwt>
<totfact> 0.43988968E+03</totfact>
</mgrwt>
</event>
<event>
 9    1  0.2095749E-002  0.2746387E+03  0.7818608E-02  0.1098654E+00
         -1   -1    0    0    0  501 -0.00000000000E+00  0.00000000000E+00  0.92465775018E+02  0.92465775018E+02  0.00000000000E+00 0.  1.
          1   -1    0    0  501    0  0.00000000000E+00 -0.00000000000E+00 -0.20393067097E+03  0.20393067097E+03  0.00000000000E+00 0.  1.
         36    2    1    2    0    0  0.00000000000E+00  0.00000000000E+00 -0.11146489595E+03  0.29639644599E+03  0.27463872663E+03 0.  0.
         25    2    3    3    0    0  0.10719754389E+02  0.18308066034E+00  0.65500655510E+01  0.12450626186E+03  0.12387073597E+03 0.  0.
         25    2    3    3    0    0 -0.10719754389E+02 -0.18308066034E+00 -0.11801496150E+03  0.17189018413E+03  0.12451408598E+03 0.  0.
          5    1    4    4  502    0 -0.37304209815E+02  0.12090908288E+02  0.46305580161E+02  0.60861242898E+02  0.47000000000E+01 0. -1.
         -5    1    4    4    0  502  0.48023964204E+02 -0.11907827627E+02 -0.39755514610E+02  0.63645018961E+02  0.47000000000E+01 0. -1.
          5    1    5    5  503    0 -0.43004265111E+02 -0.47464967563E+02 -0.81737238604E+02  0.10394881499E+03  0.47000000000E+01 0.  1.
         -5    1    5    5    0  503  0.32284510721E+02  0.47281886902E+02 -0.36277722900E+02  0.67941369138E+02  0.47000000000E+01 0.  1.
<mgrwt>
<rscale>  0 0.27463873E+03</rscale>
<asrwt>0</asrwt>
<pdfrwt beam="1">  1        1 0.31373949E-01 0.27463873E+03</pdfrwt>
<pdfrwt beam="2">  1       -1 0.14225504E-01 0.27463873E+03</pdfrwt>
<totfact> 0.49702155E+03</totfact>
</mgrwt>
</event>
<event>
 9    1  0.2095749E-002  0.2751773E+03  0.7818608E-02  0.1098353E+00
          1   -1    0    0  501    0  0.00000000000E+00  0.00000000000E+00  0.52673284696E+02  0.52673284696E+02  0.00000000000E+00 0. -1.
         -1   -1    0    0    0  501 -0.00000000000E+00 -0.00000000000E+00 -0.35939731626E+03  0.35939731626E+03  0.00000000000E+00 0. -1.
         36    2    1    2    0    0  0.00000000000E+00  0.71054273576E-14 -0.30672403157E+03  0.41207060096E+03  0.27517730400E+03 0.  0.
         25    2    3    3    0    0 -0.41901069647E+02  0.29345702336E+02 -0.22849860883E+03  0.26521396260E+03  0.12453899724E+03 0.  0.
         25    2    3    3    0    0  0.41901069647E+02 -0.29345702336E+02 -0.78225422732E+02  0.14685663836E+03  0.11327305764E+03 0.  0.
          5    1    4    4  502    0 -0.61349400347E+01 -0.37605222241E+02 -0.15414970707E+03  0.15885846663E+03  0.47000000000E+01 0. -1.
         -5    1    4    4    0  502 -0.35766129612E+02  0.66950924578E+02 -0.74348901762E+02  0.10635549597E+03  0.47000000000E+01 0. -1.
          5    1    5    5  503    0 -0.36223619285E+02 -0.22653188009E+02 -0.42900251949E+02  0.60727581364E+02  0.47000000000E+01 0. -1.
         -5    1    5    5    0  503  0.78124688932E+02 -0.66925143275E+01 -0.35325170784E+02  0.86129056999E+02  0.47000000000E+01 0. -1.
<mgrwt>
<rscale>  0 0.27517730E+03</rscale>
<asrwt>0</asrwt>
<pdfrwt beam="1">  1        1 0.81035820E-02 0.27517730E+03</pdfrwt>
<pdfrwt beam="2">  1       -1 0.55291897E-01 0.27517730E+03</pdfrwt>
<totfact> 0.28948051E+03</totfact>
</mgrwt>
</event>
<event>
 9    1  0.2095749E-002  0.2750880E+03  0.7818608E-02  0.1098402E+00
         -4   -1    0    0    0  501 -0.00000000000E+00  0.00000000000E+00  0.92584677482E+03  0.92584677482E+03  0.00000000000E+00 0.  1.
          4   -1    0    0  501    0  0.00000000000E+00 -0.00000000000E+00 -0.20433567652E+02  0.20433567652E+02  0.00000000000E+00 0.  1.
         36    2    1    2    0    0  0.00000000000E+00 -0.17763568394E-14  0.90541320717E+03  0.94628034248E+03  0.27508800562E+03 0.  0.
         25    2    3    3    0    0  0.28232179373E+02  0.27718184991E+01  0.29046906408E+03  0.31771139177E+03  0.12555282690E+03 0.  0.
         25    2    3    3    0    0 -0.28232179373E+02 -0.27718184991E+01  0.61494414309E+03  0.62856895071E+03  0.12703498628E+03 0.  0.
          5    1    4    4  502    0 -0.45411217613E+02  0.11932391224E+02  0.65180669693E+02  0.80468443175E+02  0.47000000000E+01 0. -1.
         -5    1    4    4    0  502  0.73643396986E+02 -0.91605727251E+01  0.22528839438E+03  0.23724294859E+03  0.47000000000E+01 0. -1.
          5    1    5    5  503    0 -0.10390608151E+01  0.60682168440E+02  0.27578706763E+03  0.28242521467E+03  0.47000000000E+01 0. -1.
         -5    1    5    5    0  503 -0.27193118558E+02 -0.63453986939E+02  0.33915707547E+03  0.34614373603E+03  0.47000000000E+01 0. -1.
<mgrwt>
<rscale>  0 0.27508801E+03</rscale>
<asrwt>0</asrwt>
<pdfrwt beam="1">  1        4 0.31436265E-02 0.27508801E+03</pdfrwt>
<pdfrwt beam="2">  1       -4 0.14243793E+00 0.27508801E+03</pdfrwt>
<totfact> 0.33876007E+02</totfact>
</mgrwt>
</event>
<event>
 9    1  0.2095749E-002  0.2753679E+03  0.7818608E-02  0.1098246E+00
         -2   -1    0    0    0  501 -0.00000000000E+00  0.00000000000E+00  0.29256770335E+02  0.29256770335E+02  0.00000000000E+00 0.  1.
          2   -1    0    0  501    0  0.00000000000E+00 -0.00000000000E+00 -0.64794818374E+03  0.64794818374E+03  0.00000000000E+00 0.  1.
         36    2    1    2    0    0  0.00000000000E+00  0.71054273576E-14 -0.61869141340E+03  0.67720495407E+03  0.27536790808E+03 0.  0.
         25    2    3    3    0    0  0.21786494060E+02 -0.19875802435E+02 -0.36911323054E+03  0.39169698818E+03  0.12771943761E+03 0.  0.
         25    2    3    3    0    0 -0.21786494060E+02  0.19875802435E+02 -0.24957818286E+03  0.28550796589E+03  0.13548369046E+03 0.  0.
          5    1    4    4  502    0  0.16423935700E+01 -0.59050577101E+02 -0.32047450051E+03  0.32590744635E+03  0.47000000000E+01 0.  1.
         -5    1    4    4    0  502  0.20144100490E+02  0.39174774666E+02 -0.48638730033E+02  0.65789541828E+02  0.47000000000E+01 0.  1.
          5    1    5    5  503    0 -0.69784176297E+02  0.25601961142E+02 -0.80842855593E+02  0.10992246802E+03  0.47000000000E+01 0.  1.
         -5    1    5    5    0  503  0.47997682237E+02 -0.57261587073E+01 -0.16873532727E+03  0.17558549787E+03  0.47000000000E+01 0.  1.
<mgrwt>
<rscale>  0 0.27536791E+03</rscale>
<asrwt>0</asrwt>
<pdfrwt beam="1">  1        2 0.99684334E-01 0.27536791E+03</pdfrwt>
<pdfrwt beam="2">  1       -2 0.45010417E-02 0.27536791E+03</pdfrwt>
<totfact> 0.10539669E+04</totfact>
</mgrwt>
</event>
<event>
 9    1  0.2095749E-002  0.2749285E+03  0.7818608E-02  0.1098492E+00
         -2   -1    0    0    0  501 -0.00000000000E+00  0.00000000000E+00  0.13662970781E+02  0.13662970781E+02  0.00000000000E+00 0.  1.
          2   -1    0    0  501    0  0.00000000000E+00 -0.00000000000E+00 -0.13830392861E+04  0.13830392861E+04  0.00000000000E+00 0.  1.
         36    2    1    2    0    0  0.00000000000E+00  0.00000000000E+00 -0.13693763153E+04  0.13967022569E+04  0.27492853875E+03 0.  0.
         25    2    3    3    0    0 -0.17841466832E+02 -0.49120865376E+02 -0.80760208468E+03  0.81928225745E+03  0.12755827230E+03 0.  0.
         25    2    3    3    0    0  0.17841466832E+02  0.49120865376E+02 -0.56177423063E+03  0.57741999943E+03  0.12285109761E+03 0.  0.
          5    1    4    4  502    0 -0.62114269706E+02 -0.36491451009E+02 -0.67473839364E+03  0.67858956546E+03  0.47000000000E+01 0. -1.
         -5    1    4    4    0  502  0.44272802874E+02 -0.12629414367E+02 -0.13286369104E+03  0.14069269199E+03  0.47000000000E+01 0. -1.
          5    1    5    5  503    0 -0.38153522274E+02  0.52185239416E+02 -0.17585916976E+03  0.18742339252E+03  0.47000000000E+01 0. -1.
         -5    1    5    5    0  503  0.55994989106E+02 -0.30643740399E+01 -0.38591506088E+03  0.38999660691E+03  0.47000000000E+01 0. -1.
<mgrwt>
<rscale>  0 0.27492854E+03</rscale>
<asrwt>0</asrwt>
<pdfrwt beam="1">  1        2 0.21277535E+00 0.27492854E+03</pdfrwt>
<pdfrwt beam="2">  1       -2 0.21019948E-02 0.27492854E+03</pdfrwt>
<totfact> 0.11337025E+04</totfact>
</mgrwt>
</event>
<event>
 9    1  0.2095749E-002  0.2750163E+03  0.7818608E-02  0.1098442E+00
         -2   -1    0    0    0  501 -0.00000000000E+00  0.00000000000E+00  0.55280064685E+02  0.55280064685E+02  0.00000000000E+00 0. -1.
          2   -1    0    0  501    0  0.00000000000E+00 -0.00000000000E+00 -0.34204911418E+03  0.34204911418E+03  0.00000000000E+00 0. -1.
         36    2    1    2    0    0  0.00000000000E+00 -0.71054273576E-14 -0.28676904950E+03  0.39732917887E+03  0.27501634248E+03 0.  0.
         25    2    3    3    0    0  0.41977234320E+02 -0.93286930861E+01 -0.19579932021E+03  0.23643549640E+03  0.12536050992E+03 0.  0.
         25    2    3    3    0    0 -0.41977234320E+02  0.93286930861E+01 -0.90969729284E+02  0.16089368246E+03  0.12554749179E+03 0.  0.
          5    1    4    4  502    0  0.43328114118E+02 -0.47094115004E+02 -0.18650867332E+03  0.19723781677E+03  0.47000000000E+01 0.  1.
         -5    1    4    4    0  502 -0.13508797979E+01  0.37765421918E+02 -0.92906468911E+01  0.39197679632E+02  0.47000000000E+01 0.  1.
          5    1    5    5  503    0 -0.56950624411E+02  0.55022217091E+02 -0.34303047020E+02  0.86426888347E+02  0.47000000000E+01 0. -1.
         -5    1    5    5    0  503  0.14973390090E+02 -0.45693524005E+02 -0.56666682264E+02  0.74466794114E+02  0.47000000000E+01 0. -1.
<mgrwt>
<rscale>  0 0.27501634E+03</rscale>
<asrwt>0</asrwt>
<pdfrwt beam="1">  1        2 0.52622942E-01 0.27501634E+03</pdfrwt>
<pdfrwt beam="2">  1       -2 0.85046252E-02 0.27501634E+03</pdfrwt>
<totfact> 0.80783554E+03</totfact>
</mgrwt>
</event>
<event>
 9    1  0.2095749E-002  0.2814103E+03  0.7818608E-02  0.1094921E+00
          1   -1    0    0  501    0  0.00000000000E+00  0.00000000000E+00  0.32038133356E+03  0.32038133356E+03  0.00000000000E+00 0.  1.
         -1   -1    0    0    0  501 -0.00000000000E+00 -0.00000000000E+00 -0.61794922949E+02  0.61794922949E+02  0.00000000000E+00 0.  1.
         36    2    1    2    0    0  0.00000000000E+00  0.00000000000E+00  0.25858641061E+03  0.38217625651E+03  0.28141030416E+03 0.  0.
         25    2    3    3    0    0 -0.17633041374E+02  0.58350229533E+02  0.11221098203E+03  0.18034625868E+03  0.12734910716E+03 0.  0.
         25    2    3    3    0    0  0.17633041374E+02 -0.58350229533E+02  0.14637542858E+03  0.20182999783E+03  0.12487557207E+03 0.  0.
          5    1    4    4  502    0 -0.52691492396E+02  0.14789813512E+02  0.11142374483E+03  0.12422750447E+03  0.47000000000E+01 0. -1.
         -5    1    4    4    0  502  0.35058451022E+02  0.43560416021E+02  0.78723720839E+00  0.56118754213E+02  0.47000000000E+01 0. -1.
          5    1    5    5  503    0  0.52572104370E+02 -0.80389637158E+02  0.89448256538E+02  0.13133697316E+03  0.47000000000E+01 0.  1.
         -5    1    5    5    0  503 -0.34939062996E+02  0.22039407624E+02  0.56927172041E+02  0.70493024677E+02  0.47000000000E+01 0.  1.
<mgrwt>
<rscale>  0 0.28141030E+03</rscale>
<asrwt>0</asrwt>
<pdfrwt beam="1">  1        1 0.49289435E-01 0.28141030E+03</pdfrwt>
<pdfrwt beam="2">  1       -1 0.95069114E-02 0.28141030E+03</pdfrwt>
<totfact> 0.52861356E+03</totfact>
</mgrwt>
</event>
<event>
 9    1  0.2095749E-002  0.2752344E+03  0.7818608E-02  0.1098321E+00
         -4   -1    0    0    0  501 -0.00000000000E+00  0.00000000000E+00  0.82746956725E+02  0.82746956725E+02  0.00000000000E+00 0. -1.
          4   -1    0    0  501    0  0.00000000000E+00 -0.00000000000E+00 -0.22887237431E+03  0.22887237431E+03  0.00000000000E+00 0. -1.
         36    2    1    2    0    0  0.00000000000E+00  0.00000000000E+00 -0.14612541758E+03  0.31161933103E+03  0.27523439067E+03 0.  0.
         25    2    3    3    0    0  0.71464004699E+01  0.91559508735E+01 -0.96741447987E+01  0.12569353462E+03  0.12478130105E+03 0.  0.
         25    2    3    3    0    0 -0.71464004699E+01 -0.91559508735E+01 -0.13645127279E+03  0.18592579641E+03  0.12575591219E+03 0.  0.
          5    1    4    4  502    0 -0.49986155184E+02  0.36239401809E+02 -0.47358882616E+01  0.62100149687E+02  0.47000000000E+01 0.  1.
         -5    1    4    4    0  502  0.57132555654E+02 -0.27083450935E+02 -0.49382565371E+01  0.63593384937E+02  0.47000000000E+01 0.  1.
          5    1    5    5  503    0 -0.46947923447E+02  0.33190516476E+02 -0.10468878748E+03  0.11953054055E+03  0.47000000000E+01 0.  1.
         -5    1    5    5    0  503  0.39801522978E+02 -0.42346467349E+02 -0.31762485309E+02  0.66395255864E+02  0.47000000000E+01 0.  1.
<mgrwt>
<rscale>  0 0.27523439E+03</rscale>
<asrwt>0</asrwt>
<pdfrwt beam="1">  1        4 0.35211134E-01 0.27523439E+03</pdfrwt>
<pdfrwt beam="2">  1       -4 0.12730301E-01 0.27523439E+03</pdfrwt>
<totfact> 0.73524032E+02</totfact>
</mgrwt>
</event>
<event>
 9    1  0.2095749E-002  0.2755227E+03  0.7818608E-02  0.1098160E+00
         -1   -1    0    0    0  501 -0.00000000000E+00  0.00000000000E+00  0.27382282696E+02  0.27382282696E+02  0.00000000000E+00 0.  1.
          1   -1    0    0  501    0  0.00000000000E+00 -0.00000000000E+00 -0.69308293225E+03  0.69308293225E+03  0.00000000000E+00 0.  1.
         36    2    1    2    0    0  0.00000000000E+00  0.17763568394E-14 -0.66570064955E+03  0.72046521495E+03  0.27552272344E+03 0.  0.
         25    2    3    3    0    0  0.10063795787E+02 -0.78860997481E+01 -0.46937853847E+03  0.48578698503E+03  0.12453638782E+03 0.  0.
         25    2    3    3    0    0 -0.10063795787E+02  0.78860997481E+01 -0.19632211108E+03  0.23467822992E+03  0.12793760097E+03 0.  0.
          5    1    4    4  502    0  0.15126787245E+02 -0.21119354125E+02 -0.13476092864E+02  0.29640207319E+02  0.47000000000E+01 0.  1.
         -5    1    4    4    0  502 -0.50629914583E+01  0.13233254377E+02 -0.45590244561E+03  0.45614677771E+03  0.47000000000E+01 0.  1.
          5    1    5    5  503    0  0.24179397691E+02 -0.15346710167E+02 -0.19041586044E+03  0.19261478316E+03  0.47000000000E+01 0.  1.
         -5    1    5    5    0  503 -0.34243193478E+02  0.23232809915E+02 -0.59062506399E+01  0.42063446753E+02  0.47000000000E+01 0.  1.
<mgrwt>
<rscale>  0 0.27552272E+03</rscale>
<asrwt>0</asrwt>
<pdfrwt beam="1">  1        1 0.10662814E+00 0.27552272E+03</pdfrwt>
<pdfrwt beam="2">  1       -1 0.42126588E-02 0.27552272E+03</pdfrwt>
<totfact> 0.64926501E+03</totfact>
</mgrwt>
</event>
<event>
 9    1  0.2095749E-002  0.2756866E+03  0.7818608E-02  0.1098068E+00
         -2   -1    0    0    0  501 -0.00000000000E+00  0.00000000000E+00  0.11180652725E+03  0.11180652725E+03  0.00000000000E+00 0. -1.
          2   -1    0    0  501    0  0.00000000000E+00 -0.00000000000E+00 -0.16994331173E+03  0.16994331173E+03  0.00000000000E+00 0. -1.
         36    2    1    2    0    0  0.00000000000E+00  0.71054273576E-14 -0.58136784487E+02  0.28174983898E+03  0.27568657213E+03 0.  0.
         25    2    3    3    0    0 -0.18326331657E+02  0.42797009794E+02 -0.38176521995E+02  0.14411200415E+03  0.13093274773E+03 0.  0.
         25    2    3    3    0    0  0.18326331657E+02 -0.42797009794E+02 -0.19960262492E+02  0.13763783483E+03  0.12797782237E+03 0.  0.
          5    1    4    4  502    0  0.52187230337E+01 -0.67274963501E+01  0.44080451631E+02  0.45140563724E+02  0.47000000000E+01 0.  1.
         -5    1    4    4    0  502 -0.23545054690E+02  0.49524506144E+02 -0.82256973627E+02  0.98971440423E+02  0.47000000000E+01 0.  1.
          5    1    5    5  503    0  0.57322167477E+02  0.13184877541E+02 -0.33602761596E+02  0.67903663134E+02  0.47000000000E+01 0.  1.
         -5    1    5    5    0  503 -0.38995835821E+02 -0.55981887334E+02  0.13642499105E+02  0.69734171700E+02  0.47000000000E+01 0.  1.
<mgrwt>
<rscale>  0 0.27568657E+03</rscale>
<asrwt>0</asrwt>
<pdfrwt beam="1">  1        2 0.26145125E-01 0.27568657E+03</pdfrwt>
<pdfrwt beam="2">  1       -2 0.17201004E-01 0.27568657E+03</pdfrwt>
<totfact> 0.55231057E+03</totfact>
</mgrwt>
</event>
<event>
 9    1  0.2095749E-002  0.2747073E+03  0.7818608E-02  0.1098615E+00
          3   -1    0    0  501    0  0.00000000000E+00  0.00000000000E+00  0.48567097517E+03  0.48567097517E+03  0.00000000000E+00 0.  1.
         -3   -1    0    0    0  501 -0.00000000000E+00 -0.00000000000E+00 -0.38845272737E+02  0.38845272737E+02  0.00000000000E+00 0.  1.
         36    2    1    2    0    0 -0.35527136788E-14  0.00000000000E+00  0.44682570244E+03  0.52451624791E+03  0.27470727323E+03 0.  0.
         25    2    3    3    0    0 -0.78677622496E+01 -0.51087152226E+02  0.27455219710E+03  0.30618746203E+03  0.12529985700E+03 0.  0.
         25    2    3    3    0    0  0.78677622496E+01  0.51087152226E+02  0.17227350533E+03  0.21832878588E+03  0.12376388528E+03 0.  0.
          5    1    4    4  502    0 -0.51055904963E+02  0.43965665374E+01  0.18617073725E+03  0.19315193149E+03  0.47000000000E+01 0. -1.
         -5    1    4    4    0  502  0.43188142713E+02 -0.55483718763E+02  0.88381459856E+02  0.11303553054E+03  0.47000000000E+01 0. -1.
          5    1    5    5  503    0 -0.14156293728E+02  0.38112788554E+02  0.18494132897E+03  0.18941586645E+03  0.47000000000E+01 0. -1.
         -5    1    5    5    0  503  0.22024055978E+02  0.12974363672E+02 -0.12667823635E+02  0.28912919431E+02  0.47000000000E+01 0. -1.
<mgrwt>
<rscale>  0 0.27470727E+03</rscale>
<asrwt>0</asrwt>
<pdfrwt beam="1">  1        3 0.74718607E-01 0.27470727E+03</pdfrwt>
<pdfrwt beam="2">  1       -3 0.59761962E-02 0.27470727E+03</pdfrwt>
<totfact> 0.75356350E+02</totfact>
</mgrwt>
</event>
<event>
 9    1  0.2095749E-002  0.2744475E+03  0.7818608E-02  0.1098761E+00
          1   -1    0    0  501    0  0.00000000000E+00  0.00000000000E+00  0.58473891148E+02  0.58473891148E+02  0.00000000000E+00 0.  1.
         -1   -1    0    0    0  501 -0.00000000000E+00 -0.00000000000E+00 -0.32203013897E+03  0.32203013897E+03  0.00000000000E+00 0.  1.
         36    2    1    2    0    0  0.71054273576E-14  0.00000000000E+00 -0.26355624782E+03  0.38050403012E+03  0.27444748345E+03 0.  0.
         25    2    3    3    0    0  0.42520338017E+02 -0.32225135188E+02 -0.15810218312E+03  0.20898412541E+03  0.12582378902E+03 0.  0.
         25    2    3    3    0    0 -0.42520338017E+02  0.32225135188E+02 -0.10545406471E+03  0.17151990471E+03  0.12430639351E+03 0.  0.
          5    1    4    4  502    0  0.49110820171E+02  0.15489950003E+02 -0.15157061397E+03  0.16014853177E+03  0.47000000000E+01 0.  1.
         -5    1    4    4    0  502 -0.65904821541E+01 -0.47715085191E+02 -0.65315691417E+01  0.48835593631E+02  0.47000000000E+01 0.  1.
          5    1    5    5  503    0 -0.51851594132E+02 -0.29385707038E+02 -0.88446015814E+02  0.10675624247E+03  0.47000000000E+01 0. -1.
         -5    1    5    5    0  503  0.93312561150E+01  0.61610842225E+02 -0.17008048892E+02  0.64763662246E+02  0.47000000000E+01 0. -1.
<mgrwt>
<rscale>  0 0.27444748E+03</rscale>
<asrwt>0</asrwt>
<pdfrwt beam="1">  1        1 0.89959833E-02 0.27444748E+03</pdfrwt>
<pdfrwt beam="2">  1       -1 0.49543098E-01 0.27444748E+03</pdfrwt>
<totfact> 0.30837563E+03</totfact>
</mgrwt>
</event>
<event>
 9    1  0.2095749E-002  0.2749087E+03  0.7818608E-02  0.1098503E+00
          4   -1    0    0  501    0  0.00000000000E+00  0.00000000000E+00  0.24415728406E+02  0.24415728406E+02  0.00000000000E+00 0. -1.
         -4   -1    0    0    0  501 -0.00000000000E+00 -0.00000000000E+00 -0.77383295275E+03  0.77383295275E+03  0.00000000000E+00 0. -1.
         36    2    1    2    0    0 -0.71054273576E-14  0.00000000000E+00 -0.74941722435E+03  0.79824868116E+03  0.27490867724E+03 0.  0.
         25    2    3    3    0    0  0.12620253281E+01  0.34356494539E+02 -0.51928510053E+03  0.53582923152E+03  0.12756954299E+03 0.  0.
         25    2    3    3    0    0 -0.12620253281E+01 -0.34356494539E+02 -0.23013212382E+03  0.26241944963E+03  0.12133100061E+03 0.  0.
          5    1    4    4  502    0  0.39496706751E+02 -0.24698611745E+02 -0.97119347774E+02  0.10781590318E+03  0.47000000000E+01 0. -1.
         -5    1    4    4    0  502 -0.38234681423E+02  0.59055106284E+02 -0.42216575276E+03  0.42801332835E+03  0.47000000000E+01 0. -1.
          5    1    5    5  503    0 -0.48378837165E+02 -0.29878594465E+02 -0.19530882252E+03  0.20347203358E+03  0.47000000000E+01 0. -1.
         -5    1    5    5    0  503  0.47116811837E+02 -0.44779000733E+01 -0.34823301294E+02  0.58947416057E+02  0.47000000000E+01 0. -1.
<mgrwt>
<rscale>  0 0.27490868E+03</rscale>
<asrwt>0</asrwt>
<pdfrwt beam="1">  1        4 0.37562665E-02 0.27490868E+03</pdfrwt>
<pdfrwt beam="2">  1       -4 0.11905121E+00 0.27490868E+03</pdfrwt>
<totfact> 0.39898835E+02</totfact>
</mgrwt>
</event>
<event>
 9    1  0.2095749E-002  0.2737862E+03  0.7818608E-02  0.1099132E+00
          1   -1    0    0  501    0  0.00000000000E+00  0.00000000000E+00  0.41723190618E+02  0.41723190618E+02  0.00000000000E+00 0.  1.
         -1   -1    0    0    0  501 -0.00000000000E+00 -0.00000000000E+00 -0.44914410417E+03  0.44914410417E+03  0.00000000000E+00 0.  1.
         36    2    1    2    0    0  0.00000000000E+00  0.71054273576E-14 -0.40742091355E+03  0.49086729479E+03  0.27378623101E+03 0.  0.
         25    2    3    3    0    0 -0.24296339922E+01  0.53686218611E+02 -0.20899021965E+03  0.24921329878E+03  0.12466853329E+03 0.  0.
         25    2    3    3    0    0  0.24296339922E+01 -0.53686218611E+02 -0.19843069391E+03  0.24165399601E+03  0.12701889746E+03 0.  0.
          5    1    4    4  502    0  0.31322493906E+02  0.83563914063E+02 -0.12334170988E+03  0.15231314374E+03  0.47000000000E+01 0.  1.
         -5    1    4    4    0  502 -0.33752127899E+02 -0.29877695453E+02 -0.85648509761E+02  0.96900155044E+02  0.47000000000E+01 0.  1.
          5    1    5    5  503    0  0.53902938633E+02 -0.11068235757E+02 -0.14750018622E+03  0.15750056372E+03  0.47000000000E+01 0. -1.
         -5    1    5    5    0  503 -0.51473304641E+02 -0.42617982854E+02 -0.50930507689E+02  0.84153432292E+02  0.47000000000E+01 0. -1.
<mgrwt>
<rscale>  0 0.27378623E+03</rscale>
<asrwt>0</asrwt>
<pdfrwt beam="1">  1        1 0.64189522E-02 0.27378623E+03</pdfrwt>
<pdfrwt beam="2">  1       -1 0.69099095E-01 0.27378623E+03</pdfrwt>
<totfact> 0.25832270E+03</totfact>
</mgrwt>
</event>
<event>
 9    1  0.2095749E-002  0.2760708E+03  0.7818608E-02  0.1097855E+00
         -1   -1    0    0    0  501 -0.00000000000E+00  0.00000000000E+00  0.10484910090E+02  0.10484910090E+02  0.00000000000E+00 0.  1.
          1   -1    0    0  501    0  0.00000000000E+00 -0.00000000000E+00 -0.18172569842E+04  0.18172569842E+04  0.00000000000E+00 0.  1.
         36    2    1    2    0    0  0.71054273576E-14  0.00000000000E+00 -0.18067720741E+04  0.18277418943E+04  0.27607083213E+03 0.  0.
         25    2    3    3    0    0  0.16210486774E+02 -0.16459855900E+02 -0.11792819408E+04  0.11883166812E+04  0.14441929322E+03 0.  0.
         25    2    3    3    0    0 -0.16210486774E+02  0.16459855900E+02 -0.62749013331E+03  0.63942521306E+03  0.12077677325E+03 0.  0.
          5    1    4    4  502    0  0.63328953042E+02 -0.24954594917E+02 -0.29752206718E+03  0.30524540711E+03  0.47000000000E+01 0.  1.
         -5    1    4    4    0  502 -0.47118466268E+02  0.84947390177E+01 -0.88175987360E+03  0.88307127410E+03  0.47000000000E+01 0.  1.
          5    1    5    5  503    0 -0.41065319840E+02  0.56903797390E+02 -0.45727442911E+03  0.46265148457E+03  0.47000000000E+01 0.  1.
         -5    1    5    5    0  503  0.24854833066E+02 -0.40443941490E+02 -0.17021570420E+03  0.17677372850E+03  0.47000000000E+01 0.  1.
<mgrwt>
<rscale>  0 0.27607083E+03</rscale>
<asrwt>0</asrwt>
<pdfrwt beam="1">  1        1 0.27957774E+00 0.27607083E+03</pdfrwt>
<pdfrwt beam="2">  1       -1 0.16130646E-02 0.27607083E+03</pdfrwt>
<totfact> 0.41629504E+03</totfact>
</mgrwt>
</event>
<event>
 9    1  0.2095749E-002  0.2751632E+03  0.7818608E-02  0.1098360E+00
          2   -1    0    0  501    0  0.00000000000E+00  0.00000000000E+00  0.37166197275E+03  0.37166197275E+03  0.00000000000E+00 0. -1.
         -2   -1    0    0    0  501 -0.00000000000E+00 -0.00000000000E+00 -0.50929858827E+02  0.50929858827E+02  0.00000000000E+00 0. -1.
         36    2    1    2    0    0 -0.71054273576E-14 -0.71054273576E-14  0.32073211393E+03  0.42259183158E+03  0.27516316471E+03 0.  0.
         25    2    3    3    0    0  0.30825461738E+02  0.47689732962E+02  0.13628089742E+03  0.19243776221E+03  0.12343131531E+03 0.  0.
         25    2    3    3    0    0 -0.30825461738E+02 -0.47689732962E+02  0.18445121650E+03  0.23015406937E+03  0.12539587177E+03 0.  0.
          5    1    4    4  502    0  0.69231929919E+02  0.59678023272E+02  0.11404361936E+03  0.14622778019E+03  0.47000000000E+01 0.  1.
         -5    1    4    4    0  502 -0.38406468181E+02 -0.11988290310E+02  0.22237278068E+02  0.46209982023E+02  0.47000000000E+01 0.  1.
          5    1    5    5  503    0  0.45863976925E+02 -0.93561738289E+01  0.38374774488E+02  0.60710424848E+02  0.47000000000E+01 0. -1.
         -5    1    5    5    0  503 -0.76689438664E+02 -0.38333559133E+02  0.14607644201E+03  0.16944364452E+03  0.47000000000E+01 0. -1.
<mgrwt>
<rscale>  0 0.27516316E+03</rscale>
<asrwt>0</asrwt>
<pdfrwt beam="1">  1        2 0.57178763E-01 0.27516316E+03</pdfrwt>
<pdfrwt beam="2">  1       -2 0.78353631E-02 0.27516316E+03</pdfrwt>
<totfact> 0.83957860E+03</totfact>
</mgrwt>
</event>
<event>
 9    1  0.2095749E-002  0.2775317E+03  0.7818608E-02  0.1097045E+00
          1   -1    0    0  501    0  0.00000000000E+00  0.00000000000E+00  0.17633253606E+04  0.17633253606E+04  0.00000000000E+00 0.  1.
         -1   -1    0    0    0  501 -0.00000000000E+00 -0.00000000000E+00 -0.10920252740E+02  0.10920252740E+02  0.00000000000E+00 0.  1.
         36    2    1    2    0    0  0.00000000000E+00  0.00000000000E+00  0.17524051078E+04  0.17742456133E+04  0.27753168180E+03 0.  0.
         25    2    3    3    0    0  0.28135764954E+01  0.55076555334E+02  0.69509795329E+03  0.70850182200E+03  0.12558791325E+03 0.  0.
         25    2    3    3    0    0 -0.28135764954E+01 -0.55076555334E+02  0.10573071546E+04  0.10657437913E+04  0.12194288214E+03 0.  0.
          5    1    4    4  502    0  0.98672273715E+01  0.86395490494E+02  0.62757358480E+03  0.63358680328E+03  0.47000000000E+01 0.  1.
         -5    1    4    4    0  502 -0.70536508761E+01 -0.31318935160E+02  0.67524368485E+02  0.74915018718E+02  0.47000000000E+01 0.  1.
          5    1    5    5  503    0  0.30363881285E+01  0.30322780260E+02  0.57859428367E+03  0.57941533096E+03  0.47000000000E+01 0.  1.
         -5    1    5    5    0  503 -0.58499646240E+01 -0.85399335594E+02  0.47871287089E+03  0.48632846036E+03  0.47000000000E+01 0.  1.
<mgrwt>
<rscale>  0 0.27753168E+03</rscale>
<asrwt>0</asrwt>
<pdfrwt beam="1">  1        1 0.27128060E+00 0.27753168E+03</pdfrwt>
<pdfrwt beam="2">  1       -1 0.16800403E-02 0.27753168E+03</pdfrwt>
<totfact> 0.42532781E+03</totfact>
</mgrwt>
</event>
<event>
 9    1  0.2095749E-002  0.2846195E+03  0.7818608E-02  0.1093192E+00
         -1   -1    0    0    0  501 -0.00000000000E+00  0.00000000000E+00  0.18796310023E+03  0.18796310023E+03  0.00000000000E+00 0.  1.
          1   -1    0    0  501    0  0.00000000000E+00 -0.00000000000E+00 -0.10774492491E+03  0.10774492491E+03  0.00000000000E+00 0.  1.
         36    2    1    2    0    0  0.00000000000E+00  0.14210854715E-13  0.80218175327E+02  0.29570802514E+03  0.28461953636E+03 0.  0.
         25    2    3    3    0    0 -0.55313041230E+02  0.49734972605E+02  0.83004272568E+02  0.13816230312E+03  0.81645653334E+02 0.  0.
         25    2    3    3    0    0  0.55313041230E+02 -0.49734972605E+02 -0.27860972408E+01  0.15754572202E+03  0.13885169124E+03 0.  0.
          5    1    4    4  502    0  0.20894000963E+02  0.13130733880E+02  0.12927312447E+02  0.28252094711E+02  0.47000000000E+01 0.  1.
         -5    1    4    4    0  502 -0.76207042193E+02  0.36604238726E+02  0.70076960121E+02  0.10991020841E+03  0.47000000000E+01 0.  1.
          5    1    5    5  503    0  0.39564712488E+02 -0.23503310157E+02 -0.69794746313E+02  0.83732721653E+02  0.47000000000E+01 0.  1.
         -5    1    5    5    0  503  0.15748328742E+02 -0.26231662448E+02  0.67008649072E+02  0.73813000368E+02  0.47000000000E+01 0.  1.
<mgrwt>
<rscale>  0 0.28461954E+03</rscale>
<asrwt>0</asrwt>
<pdfrwt beam="1">  1        1 0.16576142E-01 0.28461954E+03</pdfrwt>
<pdfrwt beam="2">  1       -1 0.28917400E-01 0.28461954E+03</pdfrwt>
<totfact> 0.35400755E+03</totfact>
</mgrwt>
</event>
<event>
 9    1  0.2095749E-002  0.2746325E+03  0.7818608E-02  0.1098657E+00
         -2   -1    0    0    0  501 -0.00000000000E+00  0.00000000000E+00  0.31383022601E+03  0.31383022601E+03  0.00000000000E+00 0. -1.
          2   -1    0    0  501    0  0.00000000000E+00 -0.00000000000E+00 -0.60082666938E+02  0.60082666938E+02  0.00000000000E+00 0. -1.
         36    2    1    2    0    0  0.00000000000E+00  0.00000000000E+00  0.25374755907E+03  0.37391289294E+03  0.27463253226E+03 0.  0.
         25    2    3    3    0    0  0.58848220175E+01 -0.19926975974E+02  0.58253372720E+02  0.14012443154E+03  0.12573657137E+03 0.  0.
         25    2    3    3    0    0 -0.58848220175E+01  0.19926975974E+02  0.19549418635E+03  0.23378846140E+03  0.12652016554E+03 0.  0.
          5    1    4    4  502    0  0.56730904501E+02 -0.50964777508E+01  0.64968063557E+02  0.86529237217E+02  0.47000000000E+01 0.  1.
         -5    1    4    4    0  502 -0.50846082484E+02 -0.14830498223E+02 -0.67146908367E+01  0.53595194323E+02  0.47000000000E+01 0.  1.
          5    1    5    5  503    0 -0.48312173559E+02  0.42694889474E+02  0.16342314847E+03  0.17574451672E+03  0.47000000000E+01 0.  1.
         -5    1    5    5    0  503  0.42427351541E+02 -0.22767913500E+02  0.32071037880E+02  0.58043944685E+02  0.47000000000E+01 0.  1.
<mgrwt>
<rscale>  0 0.27463253E+03</rscale>
<asrwt>0</asrwt>
<pdfrwt beam="1">  1        2 0.92434874E-02 0.27463253E+03</pdfrwt>
<pdfrwt beam="2">  1       -2 0.48281572E-01 0.27463253E+03</pdfrwt>
<totfact> 0.29037728E+03</totfact>
</mgrwt>
</event>
<event>
 9    1  0.2095749E-002  0.2745135E+03  0.7818608E-02  0.1098724E+00
         -1   -1    0    0    0  501 -0.00000000000E+00  0.00000000000E+00  0.38501340645E+02  0.38501340645E+02  0.00000000000E+00 0.  1.
          3   -1    0    0  501    0  0.00000000000E+00 -0.00000000000E+00 -0.48931834522E+03  0.48931834522E+03  0.00000000000E+00 0.  1.
         36    2    1    2    0    0  0.71054273576E-14 -0.35527136788E-14 -0.45081700458E+03  0.52781968587E+03  0.27451347721E+03 0.  0.
         25    2    3    3    0    0  0.48329259899E+02  0.14280232649E+02 -0.17799515204E+03  0.22261923982E+03  0.12384429490E+03 0.  0.
         25    2    3    3    0    0 -0.48329259899E+02 -0.14280232649E+02 -0.27282185253E+03  0.30520044605E+03  0.12718453774E+03 0.  0.
          5    1    4    4  502    0 -0.26704824552E+02 -0.34248663210E+02 -0.68013077498E+02  0.80833082935E+02  0.47000000000E+01 0.  1.
         -5    1    4    4    0  502  0.75034084451E+02  0.48528895859E+02 -0.10998207455E+03  0.14178615689E+03  0.47000000000E+01 0.  1.
          5    1    5    5  503    0 -0.75837143195E+02  0.31361821558E+02 -0.14585846625E+03  0.16742645644E+03  0.47000000000E+01 0. -1.
         -5    1    5    5    0  503  0.27507883296E+02 -0.45642054207E+02 -0.12696338628E+03  0.13777398960E+03  0.47000000000E+01 0. -1.
<mgrwt>
<rscale>  0 0.27451348E+03</rscale>
<asrwt>0</asrwt>
<pdfrwt beam="1">  1        3 0.75279743E-01 0.27451348E+03</pdfrwt>
<pdfrwt beam="2">  1       -1 0.59232834E-02 0.27451348E+03</pdfrwt>
<totfact> 0.10471987E+03</totfact>
</mgrwt>
</event>
<event>
 9    1  0.2095749E-002  0.2729411E+03  0.7818608E-02  0.1099608E+00
         -2   -1    0    0    0  501 -0.00000000000E+00  0.00000000000E+00  0.36090007170E+02  0.36090007170E+02  0.00000000000E+00 0.  1.
          2   -1    0    0  501    0  0.00000000000E+00 -0.00000000000E+00 -0.51604880456E+03  0.51604880456E+03  0.00000000000E+00 0.  1.
         36    2    1    2    0    0 -0.35527136788E-14 -0.35527136788E-14 -0.47995879739E+03  0.55213881173E+03  0.27294105632E+03 0.  0.
         25    2    3    3    0    0 -0.29679093590E+02 -0.99523861671E+01 -0.15677885274E+03  0.20231026549E+03  0.12397554706E+03 0.  0.
         25    2    3    3    0    0  0.29679093590E+02  0.99523861671E+01 -0.32317994465E+03  0.34982854624E+03  0.13021073901E+03 0.  0.
          5    1    4    4  502    0 -0.58372382057E+02 -0.38852016809E+02 -0.14252209877E+03  0.15890705722E+03  0.47000000000E+01 0.  1.
         -5    1    4    4    0  502  0.28693288467E+02  0.28899630642E+02 -0.14256753973E+02  0.43403208270E+02  0.47000000000E+01 0.  1.
          5    1    5    5  503    0 -0.20787481182E+02  0.19384110479E+02 -0.28300725246E+03  0.28446978408E+03  0.47000000000E+01 0.  1.
         -5    1    5    5    0  503  0.50466574772E+02 -0.94317243121E+01 -0.40172692190E+02  0.65358762156E+02  0.47000000000E+01 0.  1.
<mgrwt>
<rscale>  0 0.27294106E+03</rscale>
<asrwt>0</asrwt>
<pdfrwt beam="1">  1        2 0.79392120E-01 0.27294106E+03</pdfrwt>
<pdfrwt beam="2">  1       -2 0.55523091E-02 0.27294106E+03</pdfrwt>
<totfact> 0.99557618E+03</totfact>
</mgrwt>
</event>
<event>
 9    1  0.2095749E-002  0.2782847E+03  0.7818608E-02  0.1096629E+00
          1   -1    0    0  501    0  0.00000000000E+00  0.00000000000E+00  0.46999223169E+02  0.46999223169E+02  0.00000000000E+00 0.  1.
         -1   -1    0    0    0  501 -0.00000000000E+00 -0.00000000000E+00 -0.41193442378E+03  0.41193442378E+03  0.00000000000E+00 0.  1.
         36    2    1    2    0    0  0.00000000000E+00  0.00000000000E+00 -0.36493520061E+03  0.45893364695E+03  0.27828473127E+03 0.  0.
         25    2    3    3    0    0 -0.33795276687E+02 -0.21130812674E+02 -0.16269713531E+03  0.21134587937E+03  0.12887238229E+03 0.  0.
         25    2    3    3    0    0  0.33795276687E+02  0.21130812674E+02 -0.20223806530E+03  0.24758776758E+03  0.13715259979E+03 0.  0.
          5    1    4    4  502    0 -0.39916514780E+02  0.54981577399E+01  0.54476294944E+01  0.40930728773E+02  0.47000000000E+01 0. -1.
         -5    1    4    4    0  502  0.61212380931E+01 -0.26628970414E+02 -0.16814476481E+03  0.17041515060E+03  0.47000000000E+01 0. -1.
          5    1    5    5  503    0 -0.43023915921E+02 -0.17639511227E+02 -0.31579884360E+02  0.56405574137E+02  0.47000000000E+01 0.  1.
         -5    1    5    5    0  503  0.76819192609E+02  0.38770323901E+02 -0.17065818094E+03  0.19118219344E+03  0.47000000000E+01 0.  1.
<mgrwt>
<rscale>  0 0.27828473E+03</rscale>
<asrwt>0</asrwt>
<pdfrwt beam="1">  1        1 0.72306494E-02 0.27828473E+03</pdfrwt>
<pdfrwt beam="2">  1       -1 0.63374529E-01 0.27828473E+03</pdfrwt>
<totfact> 0.26031996E+03</totfact>
</mgrwt>
</event>
<event>
 9    1  0.2095749E-002  0.2750398E+03  0.7818608E-02  0.1098429E+00
         -4   -1    0    0    0  501 -0.00000000000E+00  0.00000000000E+00  0.49460157831E+03  0.49460157831E+03  0.00000000000E+00 0.  1.
          4   -1    0    0  501    0  0.00000000000E+00 -0.00000000000E+00 -0.38236274913E+02  0.38236274913E+02  0.00000000000E+00 0.  1.
         36    2    1    2    0    0  0.14210854715E-13  0.00000000000E+00  0.45636530339E+03  0.53283785322E+03  0.27503979291E+03 0.  0.
         25    2    3    3    0    0  0.53543804729E+02  0.22590694956E+02  0.22708287073E+03  0.26637057302E+03  0.12652815287E+03 0.  0.
         25    2    3    3    0    0 -0.53543804729E+02 -0.22590694956E+02  0.22928243266E+03  0.26646728020E+03  0.12270737128E+03 0.  0.
          5    1    4    4  502    0  0.19130098235E+01  0.11449632073E+01  0.20656686207E+03  0.20663235239E+03  0.47000000000E+01 0. -1.
         -5    1    4    4    0  502  0.51630794906E+02  0.21445731748E+02  0.20516008660E+02  0.59738220631E+02  0.47000000000E+01 0. -1.
          5    1    5    5  503    0 -0.47585954512E+02 -0.18886013316E+02  0.24407668068E+03  0.24943259735E+03  0.47000000000E+01 0.  1.
         -5    1    5    5    0  503 -0.59578502173E+01 -0.37046816393E+01 -0.14794248024E+02  0.17034682851E+02  0.47000000000E+01 0.  1.
<mgrwt>
<rscale>  0 0.27503979E+03</rscale>
<asrwt>0</asrwt>
<pdfrwt beam="1">  1        4 0.58825042E-02 0.27503979E+03</pdfrwt>
<pdfrwt beam="2">  1       -4 0.76092546E-01 0.27503979E+03</pdfrwt>
<totfact> 0.54530513E+02</totfact>
</mgrwt>
</event>
<event>
 9    1  0.2095749E-002  0.2799721E+03  0.7818608E-02  0.1095704E+00
          2   -1    0    0  501    0  0.00000000000E+00  0.00000000000E+00  0.14992734986E+04  0.14992734986E+04  0.00000000000E+00 0.  1.
         -2   -1    0    0    0  501 -0.00000000000E+00 -0.00000000000E+00 -0.13070390439E+02  0.13070390439E+02  0.00000000000E+00 0.  1.
         36    2    1    2    0    0  0.35527136788E-14  0.00000000000E+00  0.14862031082E+04  0.15123438890E+04  0.27997207005E+03 0.  0.
         25    2    3    3    0    0 -0.25434473538E+02 -0.19891322634E+02  0.47404037350E+03  0.49186445380E+03  0.12717620864E+03 0.  0.
         25    2    3    3    0    0  0.25434473538E+02  0.19891322634E+02  0.10121627347E+04  0.10204794352E+04  0.12594561979E+03 0.  0.
          5    1    4    4  502    0 -0.55776610278E+02 -0.52375702241E+02  0.19971853453E+03  0.21392481734E+03  0.47000000000E+01 0.  1.
         -5    1    4    4    0  502  0.30342136740E+02  0.32484379607E+02  0.27432183897E+03  0.27793963646E+03  0.47000000000E+01 0.  1.
          5    1    5    5  503    0 -0.30687048904E+02  0.52637814924E+02  0.36904063774E+03  0.37406619311E+03  0.47000000000E+01 0.  1.
         -5    1    5    5    0  503  0.56121522442E+02 -0.32746492290E+02  0.64312209693E+03  0.64641324213E+03  0.47000000000E+01 0.  1.
<mgrwt>
<rscale>  0 0.27997207E+03</rscale>
<asrwt>0</asrwt>
<pdfrwt beam="1">  1        2 0.23065733E+00 0.27997207E+03</pdfrwt>
<pdfrwt beam="2">  1       -2 0.20108305E-02 0.27997207E+03</pdfrwt>
<totfact> 0.10477933E+04</totfact>
</mgrwt>
</event>
<event>
 9    1  0.2095749E-002  0.2747055E+03  0.7818608E-02  0.1098616E+00
         -2   -1    0    0    0  501 -0.00000000000E+00  0.00000000000E+00  0.38787636590E+03  0.38787636590E+03  0.00000000000E+00 0. -1.
          2   -1    0    0  501    0  0.00000000000E+00 -0.00000000000E+00 -0.48638646990E+02  0.48638646990E+02  0.00000000000E+00 0. -1.
         36    2    1    2    0    0 -0.71054273576E-14  0.00000000000E+00  0.33923771891E+03  0.43651501289E+03  0.27470552697E+03 0.  0.
         25    2    3    3    0    0  0.38382996140E+02  0.31105024472E+02  0.18613260358E+03  0.23164135093E+03  0.12873069722E+03 0.  0.
         25    2    3    3    0    0 -0.38382996140E+02 -0.31105024472E+02  0.15310511533E+03  0.20487366195E+03  0.12685134640E+03 0.  0.
          5    1    4    4  502    0 -0.25818158101E+02  0.23224626488E+02  0.15643424551E+03  0.16031133376E+03  0.47000000000E+01 0.  1.
         -5    1    4    4    0  502  0.64201154241E+02  0.78803979839E+01  0.29698358071E+02  0.71330017176E+02  0.47000000000E+01 0.  1.
          5    1    5    5  503    0  0.12741331117E+02 -0.41388058836E+02  0.52792333345E+00  0.43562387859E+02  0.47000000000E+01 0.  1.
         -5    1    5    5    0  503 -0.51124327258E+02  0.10283034364E+02  0.15257719199E+03  0.16131127409E+03  0.47000000000E+01 0.  1.
<mgrwt>
<rscale>  0 0.27470553E+03</rscale>
<asrwt>0</asrwt>
<pdfrwt beam="1">  1        2 0.74828690E-02 0.27470553E+03</pdfrwt>
<pdfrwt beam="2">  1       -2 0.59673285E-01 0.27470553E+03</pdfrwt>
<totfact> 0.24713097E+03</totfact>
</mgrwt>
</event>
<event>
 9    1  0.2095749E-002  0.2770693E+03  0.7818608E-02  0.1097300E+00
         -1   -1    0    0    0  501 -0.00000000000E+00  0.00000000000E+00  0.26965826389E+03  0.26965826389E+03  0.00000000000E+00 0.  1.
          1   -1    0    0  501    0  0.00000000000E+00 -0.00000000000E+00 -0.71170990944E+02  0.71170990944E+02  0.00000000000E+00 0.  1.
         36    2    1    2    0    0  0.00000000000E+00  0.00000000000E+00  0.19848727295E+03  0.34082925484E+03  0.27706927551E+03 0.  0.
         25    2    3    3    0    0  0.47193801685E+02  0.39109037389E+01  0.59141125844E+02  0.14523870896E+03  0.12391149959E+03 0.  0.
         25    2    3    3    0    0 -0.47193801685E+02 -0.39109037389E+01  0.13934614710E+03  0.19559054587E+03  0.12882454283E+03 0.  0.
          5    1    4    4  502    0 -0.67882946499E+01  0.56460705554E+02  0.28372795500E+02  0.63725958136E+02  0.47000000000E+01 0.  1.
         -5    1    4    4    0  502  0.53982096335E+02 -0.52549801815E+02  0.30768330344E+02  0.81512750829E+02  0.47000000000E+01 0.  1.
          5    1    5    5  503    0  0.17522454955E+02  0.19955318745E+02 -0.11757986298E+02  0.29420934990E+02  0.47000000000E+01 0. -1.
         -5    1    5    5    0  503 -0.64716256640E+02 -0.23866222484E+02  0.15110413340E+03  0.16616961088E+03  0.47000000000E+01 0. -1.
<mgrwt>
<rscale>  0 0.27706928E+03</rscale>
<asrwt>0</asrwt>
<pdfrwt beam="1">  1        1 0.10949383E-01 0.27706928E+03</pdfrwt>
<pdfrwt beam="2">  1       -1 0.41485886E-01 0.27706928E+03</pdfrwt>
<totfact> 0.32686478E+03</totfact>
</mgrwt>
</event>
<event>
 9    1  0.2095749E-002  0.2752100E+03  0.7818608E-02  0.1098334E+00
          2   -1    0    0  501    0  0.00000000000E+00  0.00000000000E+00  0.12915768946E+04  0.12915768946E+04  0.00000000000E+00 0.  1.
         -2   -1    0    0    0  501 -0.00000000000E+00 -0.00000000000E+00 -0.14660474084E+02  0.14660474084E+02  0.00000000000E+00 0.  1.
         36    2    1    2    0    0  0.00000000000E+00  0.35527136788E-14  0.12769164205E+04  0.13062373687E+04  0.27520995324E+03 0.  0.
         25    2    3    3    0    0 -0.34078562612E+02 -0.20005958760E+02  0.78013102683E+03  0.79084862686E+03  0.12359427484E+03 0.  0.
         25    2    3    3    0    0  0.34078562612E+02  0.20005958760E+02  0.49678539371E+03  0.51538874185E+03  0.13140867932E+03 0.  0.
          5    1    4    4  502    0  0.34212142220E+01  0.30237083798E+02  0.55285296296E+02  0.63281434323E+02  0.47000000000E+01 0.  1.
         -5    1    4    4    0  502 -0.37499776834E+02 -0.50243042558E+02  0.72484573053E+03  0.72756719254E+03  0.47000000000E+01 0.  1.
          5    1    5    5  503    0  0.54781662314E+02 -0.42350366884E+02  0.29794978648E+03  0.30592605212E+03  0.47000000000E+01 0.  1.
         -5    1    5    5    0  503 -0.20703099702E+02  0.62356325643E+02  0.19883560723E+03  0.20946268973E+03  0.47000000000E+01 0.  1.
<mgrwt>
<rscale>  0 0.27520995E+03</rscale>
<asrwt>0</asrwt>
<pdfrwt beam="1">  1        2 0.19870405E+00 0.27520995E+03</pdfrwt>
<pdfrwt beam="2">  1       -2 0.22554586E-02 0.27520995E+03</pdfrwt>
<totfact> 0.11472286E+04</totfact>
</mgrwt>
</event>
<event>
 9    1  0.2095749E-002  0.2748759E+03  0.7818608E-02  0.1098521E+00
          1   -1    0    0  501    0  0.00000000000E+00  0.00000000000E+00  0.62508093422E+03  0.62508093422E+03  0.00000000000E+00 0. -1.
         -1   -1    0    0    0  501 -0.00000000000E+00 -0.00000000000E+00 -0.30218789419E+02  0.30218789419E+02  0.00000000000E+00 0. -1.
         36    2    1    2    0    0 -0.71054273576E-14 -0.71054273576E-14  0.59486214480E+03  0.65529972363E+03  0.27487589287E+03 0.  0.
         25    2    3    3    0    0 -0.17507994686E+02 -0.37135011642E+02  0.21353607603E+03  0.25094642358E+03  0.12526337363E+03 0.  0.
         25    2    3    3    0    0  0.17507994686E+02  0.37135011642E+02  0.38132606876E+03  0.40435330005E+03  0.12808778855E+03 0.  0.
          5    1    4    4  502    0  0.35590780352E+02  0.10152904306E+02  0.15288583141E+03  0.15737201962E+03  0.47000000000E+01 0. -1.
         -5    1    4    4    0  502 -0.53098775038E+02 -0.47287915948E+02  0.60650244624E+02  0.93574403969E+02  0.47000000000E+01 0. -1.
          5    1    5    5  503    0  0.51759423698E+02  0.42291332650E+02  0.97035654271E+02  0.11792202067E+03  0.47000000000E+01 0.  1.
         -5    1    5    5    0  503 -0.34251429012E+02 -0.51563210085E+01  0.28429041449E+03  0.28643127938E+03  0.47000000000E+01 0.  1.
<mgrwt>
<rscale>  0 0.27487589E+03</rscale>
<asrwt>0</asrwt>
<pdfrwt beam="1">  1        1 0.96166288E-01 0.27487589E+03</pdfrwt>
<pdfrwt beam="2">  1       -1 0.46490450E-02 0.27487589E+03</pdfrwt>
<totfact> 0.64957302E+03</totfact>
</mgrwt>
</event>
<event>
 9    1  0.2095749E-002  0.2745331E+03  0.7818608E-02  0.1098713E+00
          1   -1    0    0  501    0  0.00000000000E+00  0.00000000000E+00  0.35907241050E+02  0.35907241050E+02  0.00000000000E+00 0. -1.
         -1   -1    0    0    0  501 -0.00000000000E+00 -0.00000000000E+00 -0.52474403754E+03  0.52474403754E+03  0.00000000000E+00 0. -1.
         36    2    1    2    0    0  0.35527136788E-14  0.00000000000E+00 -0.48883679649E+03  0.56065127859E+03  0.27453313567E+03 0.  0.
         25    2    3    3    0    0  0.28131180817E+02 -0.84680420895E+01 -0.33462132052E+03  0.35901628529E+03  0.12672092917E+03 0.  0.
         25    2    3    3    0    0 -0.28131180817E+02  0.84680420895E+01 -0.15421547598E+03  0.20163499330E+03  0.12653531690E+03 0.  0.
          5    1    4    4  502    0 -0.96488671931E+01 -0.56591493838E+01  0.78321852620E+01  0.14441597413E+02  0.47000000000E+01 0. -1.
         -5    1    4    4    0  502  0.37780048010E+02 -0.28088927057E+01 -0.34245350578E+03  0.34457468788E+03  0.47000000000E+01 0. -1.
          5    1    5    5  503    0  0.35896230175E+02  0.28369582934E+01 -0.12627493505E+03  0.13139268205E+03  0.47000000000E+01 0.  1.
         -5    1    5    5    0  503 -0.64027410993E+02  0.56310837961E+01 -0.27940540923E+02  0.70242311253E+02  0.47000000000E+01 0.  1.
<mgrwt>
<rscale>  0 0.27453314E+03</rscale>
<asrwt>0</asrwt>
<pdfrwt beam="1">  1        1 0.55241911E-02 0.27453314E+03</pdfrwt>
<pdfrwt beam="2">  1       -1 0.80729849E-01 0.27453314E+03</pdfrwt>
<totfact> 0.23149648E+03</totfact>
</mgrwt>
</event>
<event>
 9    1  0.2095749E-002  0.2758464E+03  0.7818608E-02  0.1097979E+00
          1   -1    0    0  501    0  0.00000000000E+00  0.00000000000E+00  0.16880817929E+03  0.16880817929E+03  0.00000000000E+00 0. -1.
         -1   -1    0    0    0  501 -0.00000000000E+00 -0.00000000000E+00 -0.11268893662E+03  0.11268893662E+03  0.00000000000E+00 0. -1.
         36    2    1    2    0    0  0.53290705182E-14  0.00000000000E+00  0.56119242674E+02  0.28149711591E+03  0.27584643712E+03 0.  0.
         25    2    3    3    0    0  0.12042985305E+02 -0.95177765046E+01 -0.33186013487E+02  0.12989359299E+03  0.12464113464E+03 0.  0.
         25    2    3    3    0    0 -0.12042985305E+02  0.95177765046E+01  0.89305256161E+02  0.15160352292E+03  0.12154249389E+03 0.  0.
          5    1    4    4  502    0  0.12853699063E+02 -0.51305318059E+02 -0.59916249129E+02  0.80059353922E+02  0.47000000000E+01 0. -1.
         -5    1    4    4    0  502 -0.81071375833E+00  0.41787541554E+02  0.26730235642E+02  0.49834239067E+02  0.47000000000E+01 0. -1.
          5    1    5    5  503    0  0.44553655876E+02  0.10152526684E+02  0.20034238463E+00  0.45937263600E+02  0.47000000000E+01 0. -1.
         -5    1    5    5    0  503 -0.56596641181E+02 -0.63475017978E+00  0.89104913776E+02  0.10566625933E+03  0.47000000000E+01 0. -1.
<mgrwt>
<rscale>  0 0.27584644E+03</rscale>
<asrwt>0</asrwt>
<pdfrwt beam="1">  1        1 0.25970489E-01 0.27584644E+03</pdfrwt>
<pdfrwt beam="2">  1       -1 0.17336760E-01 0.27584644E+03</pdfrwt>
<totfact> 0.46074107E+03</totfact>
</mgrwt>
</event>
<event>
 9    1  0.2095749E-002  0.2747525E+03  0.7818608E-02  0.1098590E+00
          2   -1    0    0  501    0  0.00000000000E+00  0.00000000000E+00  0.66841885658E+03  0.66841885658E+03  0.00000000000E+00 0. -1.
         -2   -1    0    0    0  501 -0.00000000000E+00 -0.00000000000E+00 -0.28234139131E+02  0.28234139131E+02  0.00000000000E+00 0. -1.
         36    2    1    2    0    0 -0.71054273576E-14  0.00000000000E+00  0.64018471745E+03  0.69665299571E+03  0.27475247765E+03 0.  0.
         25    2    3    3    0    0 -0.41446432244E+02  0.35380219895E+02  0.36120374142E+03  0.38661006846E+03  0.12660819687E+03 0.  0.
         25    2    3    3    0    0  0.41446432244E+02 -0.35380219895E+02  0.27898097603E+03  0.31004292725E+03  0.12380090891E+03 0.  0.
          5    1    4    4  502    0 -0.48751461499E+02  0.20227363091E+02  0.36492482718E+03  0.36875204503E+03  0.47000000000E+01 0.  1.
         -5    1    4    4    0  502  0.73050292551E+01  0.15152856804E+02 -0.37210857635E+01  0.17858023434E+02  0.47000000000E+01 0.  1.
          5    1    5    5  503    0  0.36320941800E+01 -0.47443088599E+02  0.26996936400E+02  0.54908681818E+02  0.47000000000E+01 0.  1.
         -5    1    5    5    0  503  0.37814338064E+02  0.12062868704E+02  0.25198403963E+03  0.25513424543E+03  0.47000000000E+01 0.  1.
<mgrwt>
<rscale>  0 0.27475248E+03</rscale>
<asrwt>0</asrwt>
<pdfrwt beam="1">  1        2 0.10283366E+00 0.27475248E+03</pdfrwt>
<pdfrwt beam="2">  1       -2 0.43437142E-02 0.27475248E+03</pdfrwt>
<totfact> 0.10716441E+04</totfact>
</mgrwt>
</event>
<event>
 9    1  0.2095749E-002  0.2734541E+03  0.7818608E-02  0.1099319E+00
         -2   -1    0    0    0  501 -0.00000000000E+00  0.00000000000E+00  0.22120639347E+02  0.22120639347E+02  0.00000000000E+00 0. -1.
          2   -1    0    0  501    0  0.00000000000E+00 -0.00000000000E+00 -0.84510605920E+03  0.84510605920E+03  0.00000000000E+00 0. -1.
         36    2    1    2    0    0  0.00000000000E+00 -0.71054273576E-14 -0.82298541986E+03  0.86722669855E+03  0.27345410105E+03 0.  0.
         25    2    3    3    0    0 -0.19544125230E+01  0.11782223833E+02 -0.25812437845E+03  0.28882001705E+03  0.12902002546E+03 0.  0.
         25    2    3    3    0    0  0.19544125230E+01 -0.11782223833E+02 -0.56486104140E+03  0.57840668150E+03  0.12386949819E+03 0.  0.
          5    1    4    4  502    0 -0.48377349549E+02 -0.33307938023E+02 -0.80844737106E+02  0.10003873351E+03  0.47000000000E+01 0. -1.
         -5    1    4    4    0  502  0.46422937026E+02  0.45090161856E+02 -0.17727964135E+03  0.18878128354E+03  0.47000000000E+01 0. -1.
          5    1    5    5  503    0  0.18430173992E+02 -0.59869952766E+02 -0.42302391536E+03  0.42766272403E+03  0.47000000000E+01 0.  1.
         -5    1    5    5    0  503 -0.16475761469E+02  0.48087728933E+02 -0.14183712604E+03  0.15074395747E+03  0.47000000000E+01 0.  1.
<mgrwt>
<rscale>  0 0.27345410E+03</rscale>
<asrwt>0</asrwt>
<pdfrwt beam="1">  1        2 0.13001634E+00 0.27345410E+03</pdfrwt>
<pdfrwt beam="2">  1       -2 0.34031748E-02 0.27345410E+03</pdfrwt>
<totfact> 0.11542798E+04</totfact>
</mgrwt>
</event>
<event>
 9    1  0.2095749E-002  0.2750531E+03  0.7818608E-02  0.1098422E+00
          2   -1    0    0  501    0  0.00000000000E+00  0.00000000000E+00  0.63208424487E+03  0.63208424487E+03  0.00000000000E+00 0. -1.
         -2   -1    0    0    0  501 -0.00000000000E+00 -0.00000000000E+00 -0.29922508288E+02  0.29922508288E+02  0.00000000000E+00 0. -1.
         36    2    1    2    0    0  0.00000000000E+00  0.00000000000E+00  0.60216173658E+03  0.66200675316E+03  0.27505305710E+03 0.  0.
         25    2    3    3    0    0  0.48579820861E+02  0.32191072784E+02  0.25748372895E+03  0.28962642769E+03  0.11911898581E+03 0.  0.
         25    2    3    3    0    0 -0.48579820861E+02 -0.32191072784E+02  0.34467800763E+03  0.37238032547E+03  0.12832736921E+03 0.  0.
          5    1    4    4  502    0  0.38554041383E+02  0.68710261054E+02  0.98994410560E+02  0.12660765144E+03  0.47000000000E+01 0. -1.
         -5    1    4    4    0  502  0.10025779478E+02 -0.36519188270E+02  0.15848931839E+03  0.16301877625E+03  0.47000000000E+01 0. -1.
          5    1    5    5  503    0 -0.79126260415E+02  0.57344226896E+01  0.13140840166E+03  0.15357117802E+03  0.47000000000E+01 0. -1.
         -5    1    5    5    0  503  0.30546439554E+02 -0.37925495474E+02  0.21326960597E+03  0.21880914745E+03  0.47000000000E+01 0. -1.
<mgrwt>
<rscale>  0 0.27505306E+03</rscale>
<asrwt>0</asrwt>
<pdfrwt beam="1">  1        2 0.97243720E-01 0.27505306E+03</pdfrwt>
<pdfrwt beam="2">  1       -2 0.46034633E-02 0.27505306E+03</pdfrwt>
<totfact> 0.10489224E+04</totfact>
</mgrwt>
</event>
<event>
 9    1  0.2095749E-002  0.2744872E+03  0.7818608E-02  0.1098739E+00
         -2   -1    0    0    0  501 -0.00000000000E+00  0.00000000000E+00  0.45992381480E+03  0.45992381480E+03  0.00000000000E+00 0.  1.
          2   -1    0    0  501    0  0.00000000000E+00 -0.00000000000E+00 -0.40954195307E+02  0.40954195307E+02  0.00000000000E+00 0.  1.
         36    2    1    2    0    0  0.35527136788E-14  0.00000000000E+00  0.41896961949E+03  0.50087801010E+03  0.27448722912E+03 0.  0.
         25    2    3    3    0    0 -0.30603814019E+02  0.27385352761E+02  0.33997373705E+03  0.36449370257E+03  0.12484777271E+03 0.  0.
         25    2    3    3    0    0  0.30603814019E+02 -0.27385352761E+02  0.78995882440E+02  0.13638430753E+03  0.10331398221E+03 0.  0.
          5    1    4    4  502    0  0.42914272654E+02 -0.14607059244E+02  0.14169035360E+03  0.14883966972E+03  0.47000000000E+01 0.  1.
         -5    1    4    4    0  502 -0.73518086673E+02  0.41992412006E+02  0.19828338345E+03  0.21565403285E+03  0.47000000000E+01 0.  1.
          5    1    5    5  503    0  0.39759235767E+02  0.31781215058E+02  0.36982612188E+02  0.63092361373E+02  0.47000000000E+01 0.  1.
         -5    1    5    5    0  503 -0.91554217484E+01 -0.59166567819E+02  0.42013270251E+02  0.73291946161E+02  0.47000000000E+01 0.  1.
<mgrwt>
<rscale>  0 0.27448723E+03</rscale>
<asrwt>0</asrwt>
<pdfrwt beam="1">  1        2 0.63006458E-02 0.27448723E+03</pdfrwt>
<pdfrwt beam="2">  1       -2 0.70757506E-01 0.27448723E+03</pdfrwt>
<totfact> 0.21542388E+03</totfact>
</mgrwt>
</event>
<event>
 9    1  0.2095749E-002  0.2739533E+03  0.7818608E-02  0.1099038E+00
         -1   -1    0    0    0  501 -0.00000000000E+00  0.00000000000E+00  0.34603987183E+02  0.34603987183E+02  0.00000000000E+00 0.  1.
          1   -1    0    0  501    0  0.00000000000E+00 -0.00000000000E+00 -0.54220928510E+03  0.54220928510E+03  0.00000000000E+00 0.  1.
         36    2    1    2    0    0 -0.14210854715E-13  0.00000000000E+00 -0.50760529792E+03  0.57681327228E+03  0.27395330370E+03 0.  0.
         25    2    3    3    0    0 -0.38536527512E+02  0.91618139425E+01 -0.18005772378E+03  0.22347423689E+03  0.12629706201E+03 0.  0.
         25    2    3    3    0    0  0.38536527512E+02 -0.91618139425E+01 -0.32754757413E+03  0.35333903539E+03  0.12645970830E+03 0.  0.
          5    1    4    4  502    0 -0.38828225936E+02  0.63652008652E+02 -0.80103666016E+02  0.10953491062E+03  0.47000000000E+01 0. -1.
         -5    1    4    4    0  502  0.29169842430E+00 -0.54490194710E+02 -0.99954057765E+02  0.11393932627E+03  0.47000000000E+01 0. -1.
          5    1    5    5  503    0  0.39329119278E+02 -0.25401517418E+02 -0.31087561441E+02  0.56396304725E+02  0.47000000000E+01 0. -1.
         -5    1    5    5    0  503 -0.79259176568E+00  0.16239703475E+02 -0.29646001269E+03  0.29694273067E+03  0.47000000000E+01 0. -1.
<mgrwt>
<rscale>  0 0.27395330E+03</rscale>
<asrwt>0</asrwt>
<pdfrwt beam="1">  1        1 0.83416817E-01 0.27395330E+03</pdfrwt>
<pdfrwt beam="2">  1       -1 0.53236901E-02 0.27395330E+03</pdfrwt>
<totfact> 0.64498243E+03</totfact>
</mgrwt>
</event>
<event>
 9    1  0.2095749E-002  0.2750200E+03  0.7818608E-02  0.1098440E+00
          2   -1    0    0  501    0  0.00000000000E+00  0.00000000000E+00  0.18500652799E+03  0.18500652799E+03  0.00000000000E+00 0. -1.
         -2   -1    0    0    0  501 -0.00000000000E+00 -0.00000000000E+00 -0.10220722749E+03  0.10220722749E+03  0.00000000000E+00 0. -1.
         36    2    1    2    0    0  0.71054273576E-14  0.00000000000E+00  0.82799300492E+02  0.28721375548E+03  0.27502003050E+03 0.  0.
         25    2    3    3    0    0 -0.33527717557E+02  0.31720613729E+02  0.38098183928E+02  0.14666142561E+03  0.13389472344E+03 0.  0.
         25    2    3    3    0    0  0.33527717557E+02 -0.31720613729E+02  0.44701116564E+02  0.14055232987E+03  0.12500584958E+03 0.  0.
          5    1    4    4  502    0  0.32819625268E+02  0.40115940319E+02  0.56822975896E+02  0.77054247515E+02  0.47000000000E+01 0.  1.
         -5    1    4    4    0  502 -0.66347342825E+02 -0.83953265901E+01 -0.18724791968E+02  0.69607178098E+02  0.47000000000E+01 0.  1.
          5    1    5    5  503    0  0.37651511420E+02 -0.43347062559E+02 -0.29821693922E+02  0.64869311489E+02  0.47000000000E+01 0. -1.
         -5    1    5    5    0  503 -0.41237938622E+01  0.11626448830E+02  0.74522810486E+02  0.75683018379E+02  0.47000000000E+01 0. -1.
<mgrwt>
<rscale>  0 0.27502003E+03</rscale>
<asrwt>0</asrwt>
<pdfrwt beam="1">  1        2 0.28462543E-01 0.27502003E+03</pdfrwt>
<pdfrwt beam="2">  1       -2 0.15724189E-01 0.27502003E+03</pdfrwt>
<totfact> 0.58395287E+03</totfact>
</mgrwt>
</event>
<event>
 9    1  0.2095749E-002  0.2738090E+03  0.7818608E-02  0.1099119E+00
         -1   -1    0    0    0  501 -0.00000000000E+00  0.00000000000E+00  0.10800109638E+03  0.10800109638E+03  0.00000000000E+00 0. -1.
          1   -1    0    0  501    0  0.00000000000E+00 -0.00000000000E+00 -0.17354304991E+03  0.17354304991E+03  0.00000000000E+00 0. -1.
         36    2    1    2    0    0  0.00000000000E+00  0.00000000000E+00 -0.65541953527E+02  0.28154414629E+03  0.27380898203E+03 0.  0.
         25    2    3    3    0    0 -0.14553574873E+02  0.35012634414E+02 -0.46406812844E+02  0.15218206514E+03  0.13988601631E+03 0.  0.
         25    2    3    3    0    0  0.14553574873E+02 -0.35012634414E+02 -0.19135140683E+02  0.12936208116E+03  0.12219125714E+03 0.  0.
          5    1    4    4  502    0  0.52597486933E+02  0.13852765336E+02  0.17141498106E+02  0.57221636610E+02  0.47000000000E+01 0.  1.
         -5    1    4    4    0  502 -0.67151061806E+02  0.21159869079E+02 -0.63548310950E+02  0.94960428525E+02  0.47000000000E+01 0.  1.
          5    1    5    5  503    0 -0.14555974681E+02 -0.16843262589E+02 -0.66728245718E+02  0.70500501205E+02  0.47000000000E+01 0. -1.
         -5    1    5    5    0  503  0.29109549554E+02 -0.18169371825E+02  0.47593105035E+02  0.58861579954E+02  0.47000000000E+01 0. -1.
<mgrwt>
<rscale>  0 0.27380898E+03</rscale>
<asrwt>0</asrwt>
<pdfrwt beam="1">  1        1 0.26698930E-01 0.27380898E+03</pdfrwt>
<pdfrwt beam="2">  1       -1 0.16615553E-01 0.27380898E+03</pdfrwt>
<totfact> 0.47606427E+03</totfact>
</mgrwt>
</event>
<event>
 9    1  0.2095749E-002  0.2721557E+03  0.7818608E-02  0.1100052E+00
          1   -1    0    0  501    0  0.00000000000E+00  0.00000000000E+00  0.65616733514E+03  0.65616733514E+03  0.00000000000E+00 0.  1.
         -1   -1    0    0    0  501 -0.00000000000E+00 -0.00000000000E+00 -0.28220218519E+02  0.28220218519E+02  0.00000000000E+00 0.  1.
         36    2    1    2    0    0 -0.71054273576E-14  0.00000000000E+00  0.62794711662E+03  0.68438755366E+03  0.27215573176E+03 0.  0.
         25    2    3    3    0    0  0.31517811638E+02  0.17942976794E+02  0.39946519138E+03  0.42042266278E+03  0.12596608030E+03 0.  0.
         25    2    3    3    0    0 -0.31517811638E+02 -0.17942976794E+02  0.22848192524E+03  0.26396489088E+03  0.12711471429E+03 0.  0.
          5    1    4    4  502    0  0.75247574434E+02  0.12753908189E+02  0.32419391728E+03  0.33308954597E+03  0.47000000000E+01 0. -1.
         -5    1    4    4    0  502 -0.43729762796E+02  0.51890686049E+01  0.75271274105E+02  0.87333116814E+02  0.47000000000E+01 0. -1.
          5    1    5    5  503    0 -0.34345610018E+02  0.13433791483E+01  0.23887449165E+03  0.24138048462E+03  0.47000000000E+01 0. -1.
         -5    1    5    5    0  503  0.28277983804E+01 -0.19286355942E+02 -0.10392566413E+02  0.22584406255E+02  0.47000000000E+01 0. -1.
<mgrwt>
<rscale>  0 0.27215573E+03</rscale>
<asrwt>0</asrwt>
<pdfrwt beam="1">  1        1 0.10094881E+00 0.27215573E+03</pdfrwt>
<pdfrwt beam="2">  1       -1 0.43415726E-02 0.27215573E+03</pdfrwt>
<totfact> 0.67144678E+03</totfact>
</mgrwt>
</event>
<event>
 9    1  0.2095749E-002  0.2781818E+03  0.7818608E-02  0.1096686E+00
          2   -1    0    0  501    0  0.00000000000E+00  0.00000000000E+00  0.50555428415E+03  0.50555428415E+03  0.00000000000E+00 0. -1.
         -2   -1    0    0    0  501 -0.00000000000E+00 -0.00000000000E+00 -0.38267460205E+02  0.38267460205E+02  0.00000000000E+00 0. -1.
         36    2    1    2    0    0  0.88817841970E-15 -0.35527136788E-14  0.46728682395E+03  0.54382174436E+03  0.27818179991E+03 0.  0.
         25    2    3    3    0    0 -0.20600073678E+00 -0.31898327662E+02  0.34074354479E+03  0.36494256776E+03  0.12672556452E+03 0.  0.
         25    2    3    3    0    0  0.20600073678E+00  0.31898327662E+02  0.12654327916E+03  0.17887917660E+03  0.12233974243E+03 0.  0.
          5    1    4    4  502    0  0.74266087894E+01  0.10922307250E+02 -0.61444436731E+01  0.15306714273E+02  0.47000000000E+01 0. -1.
         -5    1    4    4    0  502 -0.76326095261E+01 -0.42820634912E+02  0.34688798846E+03  0.34963585348E+03  0.47000000000E+01 0. -1.
          5    1    5    5  503    0  0.47008487590E+02 -0.19301750739E+02  0.27801450647E+02  0.58115111161E+02  0.47000000000E+01 0. -1.
         -5    1    5    5    0  503 -0.46802486853E+02  0.51200078401E+02  0.98741828511E+02  0.12076406544E+03  0.47000000000E+01 0. -1.
<mgrwt>
<rscale>  0 0.27818180E+03</rscale>
<asrwt>0</asrwt>
<pdfrwt beam="1">  1        2 0.77777577E-01 0.27818180E+03</pdfrwt>
<pdfrwt beam="2">  1       -2 0.58873019E-02 0.27818180E+03</pdfrwt>
<totfact> 0.93214034E+03</totfact>
</mgrwt>
</event>
<event>
 9    1  0.2095749E-002  0.2747622E+03  0.7818608E-02  0.1098585E+00
         -2   -1    0    0    0  501 -0.00000000000E+00  0.00000000000E+00  0.14114450456E+02  0.14114450456E+02  0.00000000000E+00 0.  1.
          2   -1    0    0  501    0  0.00000000000E+00 -0.00000000000E+00 -0.13371802201E+04  0.13371802201E+04  0.00000000000E+00 0.  1.
         36    2    1    2    0    0 -0.35527136788E-14  0.00000000000E+00 -0.13230657697E+04  0.13512946706E+04  0.27476218057E+03 0.  0.
         25    2    3    3    0    0  0.26981388254E+02  0.36938309902E+02 -0.76087700997E+03  0.77250636313E+03  0.12545845021E+03 0.  0.
         25    2    3    3    0    0 -0.26981388254E+02 -0.36938309902E+02 -0.56218875971E+03  0.57878830746E+03  0.12979703100E+03 0.  0.
          5    1    4    4  502    0 -0.26016498208E+02  0.11738755526E+02 -0.60796664867E+03  0.60865441135E+03  0.47000000000E+01 0. -1.
         -5    1    4    4    0  502  0.52997886461E+02  0.25199554377E+02 -0.15291036130E+03  0.16385195178E+03  0.47000000000E+01 0. -1.
          5    1    5    5  503    0  0.24426038437E+02 -0.42727993663E+02 -0.47298598272E+03  0.47556297442E+03  0.47000000000E+01 0. -1.
         -5    1    5    5    0  503 -0.51407426691E+02  0.57896837602E+01 -0.89202776996E+02  0.10322533304E+03  0.47000000000E+01 0. -1.
<mgrwt>
<rscale>  0 0.27476218E+03</rscale>
<asrwt>0</asrwt>
<pdfrwt beam="1">  1        2 0.20572011E+00 0.27476218E+03</pdfrwt>
<pdfrwt beam="2">  1       -2 0.21714531E-02 0.27476218E+03</pdfrwt>
<totfact> 0.11449053E+04</totfact>
</mgrwt>
</event>
<event>
 9    1  0.2095749E-002  0.2672938E+03  0.7818608E-02  0.1102839E+00
         -1   -1    0    0    0  501 -0.00000000000E+00  0.00000000000E+00  0.75898377800E+02  0.75898377800E+02  0.00000000000E+00 0.  1.
          1   -1    0    0  501    0  0.00000000000E+00 -0.00000000000E+00 -0.23533428275E+03  0.23533428275E+03  0.00000000000E+00 0.  1.
         36    2    1    2    0    0 -0.35527136788E-14  0.00000000000E+00 -0.15943590495E+03  0.31123266055E+03  0.26729377322E+03 0.  0.
         25    2    3    3    0    0  0.18518401663E+02  0.35186555937E+02 -0.10655199631E+03  0.17029457391E+03  0.12675128823E+03 0.  0.
         25    2    3    3    0    0 -0.18518401663E+02 -0.35186555937E+02 -0.52883908633E+02  0.14093808663E+03  0.12444200076E+03 0.  0.
          5    1    4    4  502    0 -0.56537462731E+01  0.79119174811E+02 -0.82289660338E+02  0.11439181294E+03  0.47000000000E+01 0. -1.
         -5    1    4    4    0  502  0.24172147937E+02 -0.43932618875E+02 -0.24262335975E+02  0.55902760970E+02  0.47000000000E+01 0. -1.
          5    1    5    5  503    0  0.74947989818E+01  0.33595673577E+02 -0.57419847666E+02  0.67111624931E+02  0.47000000000E+01 0. -1.
         -5    1    5    5    0  503 -0.26013200645E+02 -0.68782229513E+02  0.45359390333E+01  0.73826461703E+02  0.47000000000E+01 0. -1.
<mgrwt>
<rscale>  0 0.26729377E+03</rscale>
<asrwt>0</asrwt>
<pdfrwt beam="1">  1        1 0.36205274E-01 0.26729377E+03</pdfrwt>
<pdfrwt beam="2">  1       -1 0.11676674E-01 0.26729377E+03</pdfrwt>
<totfact> 0.56537158E+03</totfact>
</mgrwt>
</event>
<event>
 9    1  0.2095749E-002  0.2738227E+03  0.7818608E-02  0.1099111E+00
         -2   -1    0    0    0  501 -0.00000000000E+00  0.00000000000E+00  0.49178787149E+02  0.49178787149E+02  0.00000000000E+00 0. -1.
          2   -1    0    0  501    0  0.00000000000E+00 -0.00000000000E+00 -0.38115454343E+03  0.38115454343E+03  0.00000000000E+00 0. -1.
         36    2    1    2    0    0  0.35527136788E-14 -0.14210854715E-13 -0.33197575629E+03  0.43033333058E+03  0.27382270295E+03 0.  0.
         25    2    3    3    0    0 -0.11228183937E+02  0.40268338033E+02 -0.23019191929E+03  0.26546626260E+03  0.12544483133E+03 0.  0.
         25    2    3    3    0    0  0.11228183937E+02 -0.40268338033E+02 -0.10178383699E+03  0.16486706799E+03  0.12277454733E+03 0.  0.
          5    1    4    4  502    0  0.18826756193E+02 -0.15840880654E+01 -0.20842798902E+03  0.20933531162E+03  0.47000000000E+01 0.  1.
         -5    1    4    4    0  502 -0.30054940130E+02  0.41852426098E+02 -0.21763930269E+02  0.56130950974E+02  0.47000000000E+01 0.  1.
          5    1    5    5  503    0 -0.21559405949E+02 -0.51635451057E+02  0.11241586294E+01  0.56163880950E+02  0.47000000000E+01 0.  1.
         -5    1    5    5    0  503  0.32787589886E+02  0.11367113025E+02 -0.10290799562E+03  0.10870318704E+03  0.47000000000E+01 0.  1.
<mgrwt>
<rscale>  0 0.27382270E+03</rscale>
<asrwt>0</asrwt>
<pdfrwt beam="1">  1        2 0.58639160E-01 0.27382270E+03</pdfrwt>
<pdfrwt beam="2">  1       -2 0.75659673E-02 0.27382270E+03</pdfrwt>
<totfact> 0.86259039E+03</totfact>
</mgrwt>
</event>
<event>
 9    1  0.2095749E-002  0.2750605E+03  0.7818608E-02  0.1098418E+00
          1   -1    0    0  501    0  0.00000000000E+00  0.00000000000E+00  0.14891578676E+04  0.14891578676E+04  0.00000000000E+00 0. -1.
         -1   -1    0    0    0  501 -0.00000000000E+00 -0.00000000000E+00 -0.12701521518E+02  0.12701521518E+02  0.00000000000E+00 0. -1.
         36    2    1    2    0    0  0.00000000000E+00 -0.71054273576E-14  0.14764563460E+04  0.15018593891E+04  0.27506050751E+03 0.  0.
         25    2    3    3    0    0  0.37084154241E+02  0.37192004878E+02  0.78548986710E+03  0.79759497154E+03  0.12808172231E+03 0.  0.
         25    2    3    3    0    0 -0.37084154241E+02 -0.37192004878E+02  0.69096647895E+03  0.70426441754E+03  0.12567901600E+03 0.  0.
          5    1    4    4  502    0  0.62086282208E+02  0.20233476205E+02  0.73935943075E+03  0.74225235455E+03  0.47000000000E+01 0. -1.
         -5    1    4    4    0  502 -0.25002127967E+02  0.16958528673E+02  0.46130436349E+02  0.55342616991E+02  0.47000000000E+01 0. -1.
          5    1    5    5  503    0 -0.33115083940E+02  0.19670727850E+02  0.56013701106E+03  0.56147939185E+03  0.47000000000E+01 0.  1.
         -5    1    5    5    0  503 -0.39690703009E+01 -0.56862732729E+02  0.13082946789E+03  0.14278502569E+03  0.47000000000E+01 0.  1.
<mgrwt>
<rscale>  0 0.27506051E+03</rscale>
<asrwt>0</asrwt>
<pdfrwt beam="1">  1        1 0.22910107E+00 0.27506051E+03</pdfrwt>
<pdfrwt beam="2">  1       -1 0.19540814E-02 0.27506051E+03</pdfrwt>
<totfact> 0.51617035E+03</totfact>
</mgrwt>
</event>
<event>
 9    1  0.2095749E-002  0.2775187E+03  0.7818608E-02  0.1097052E+00
         -2   -1    0    0    0  501 -0.00000000000E+00  0.00000000000E+00  0.11362987641E+02  0.11362987641E+02  0.00000000000E+00 0. -1.
          2   -1    0    0  501    0  0.00000000000E+00 -0.00000000000E+00 -0.16944626259E+04  0.16944626259E+04  0.00000000000E+00 0. -1.
         36    2    1    2    0    0  0.71054273576E-14 -0.71054273576E-14 -0.16830996383E+04  0.17058256136E+04  0.27751870479E+03 0.  0.
         25    2    3    3    0    0  0.19332873526E+02  0.52584081436E+02 -0.99865512699E+03  0.10072343475E+04  0.11861754714E+03 0.  0.
         25    2    3    3    0    0 -0.19332873526E+02 -0.52584081436E+02 -0.68444451131E+03  0.69859126608E+03  0.12816638550E+03 0.  0.
          5    1    4    4  502    0  0.57832432862E+02  0.15702394183E+02 -0.26972049831E+03  0.27633746160E+03  0.47000000000E+01 0.  1.
         -5    1    4    4    0  502 -0.38499559336E+02  0.36881687254E+02 -0.72893462868E+03  0.73089688589E+03  0.47000000000E+01 0.  1.
          5    1    5    5  503    0  0.22270053159E+02 -0.84299653294E+02 -0.43482762388E+03  0.44350821785E+03  0.47000000000E+01 0. -1.
         -5    1    5    5    0  503 -0.41602926685E+02  0.31715571858E+02 -0.24961688743E+03  0.25508304823E+03  0.47000000000E+01 0. -1.
<mgrwt>
<rscale>  0 0.27751870E+03</rscale>
<asrwt>0</asrwt>
<pdfrwt beam="1">  1        2 0.26068637E+00 0.27751870E+03</pdfrwt>
<pdfrwt beam="2">  1       -2 0.17481532E-02 0.27751870E+03</pdfrwt>
<totfact> 0.10138457E+04</totfact>
</mgrwt>
</event>
<event>
 9    1  0.2095749E-002  0.2749094E+03  0.7818608E-02  0.1098502E+00
         -1   -1    0    0    0  501 -0.00000000000E+00  0.00000000000E+00  0.71716372835E+02  0.71716372835E+02  0.00000000000E+00 0.  1.
          1   -1    0    0  501    0  0.00000000000E+00 -0.00000000000E+00 -0.26345166931E+03  0.26345166931E+03  0.00000000000E+00 0.  1.
         36    2    1    2    0    0  0.00000000000E+00 -0.71054273576E-14 -0.19173529647E+03  0.33516804214E+03  0.27490942610E+03 0.  0.
         25    2    3    3    0    0 -0.47794008953E+02 -0.24993888344E+02 -0.14281218754E+03  0.19095703912E+03  0.11471838620E+03 0.  0.
         25    2    3    3    0    0  0.47794008953E+02  0.24993888344E+02 -0.48923108933E+02  0.14421100303E+03  0.12447642773E+03 0.  0.
          5    1    4    4  502    0 -0.38319698526E+02  0.31409631527E+00  0.64955688010E+01  0.39150739018E+02  0.47000000000E+01 0. -1.
         -5    1    4    4    0  502 -0.94743104267E+01 -0.25307984659E+02 -0.14930775634E+03  0.15180630010E+03  0.47000000000E+01 0. -1.
          5    1    5    5  503    0  0.20333055855E+01 -0.33293254903E+02 -0.60320235282E+02  0.69088319839E+02  0.47000000000E+01 0. -1.
         -5    1    5    5    0  503  0.45760703367E+02  0.58287143247E+02  0.11397126349E+02  0.75122683189E+02  0.47000000000E+01 0. -1.
<mgrwt>
<rscale>  0 0.27490943E+03</rscale>
<asrwt>0</asrwt>
<pdfrwt beam="1">  1        1 0.40531026E-01 0.27490943E+03</pdfrwt>
<pdfrwt beam="2">  1       -1 0.11033288E-01 0.27490943E+03</pdfrwt>
<totfact> 0.53646511E+03</totfact>
</mgrwt>
</event>
<event>
 9    1  0.2095749E-002  0.2718310E+03  0.7818608E-02  0.1100236E+00
         -1   -1    0    0    0  501 -0.00000000000E+00  0.00000000000E+00  0.31384959524E+02  0.31384959524E+02  0.00000000000E+00 0. -1.
          1   -1    0    0  501    0  0.00000000000E+00 -0.00000000000E+00 -0.58859471554E+03  0.58859471554E+03  0.00000000000E+00 0. -1.
         36    2    1    2    0    0 -0.71054273576E-14  0.00000000000E+00 -0.55720975601E+03  0.61997967506E+03  0.27183098663E+03 0.  0.
         25    2    3    3    0    0 -0.20795313190E+02  0.69449984330E+01 -0.37971687585E+03  0.39929251678E+03  0.12152748702E+03 0.  0.
         25    2    3    3    0    0  0.20795313190E+02 -0.69449984330E+01 -0.17749288017E+03  0.22068715828E+03  0.12929973420E+03 0.  0.
          5    1    4    4  502    0 -0.14714349802E+02  0.58465780645E+02 -0.28352079383E+03  0.28989806852E+03  0.47000000000E+01 0.  1.
         -5    1    4    4    0  502 -0.60809633886E+01 -0.51520782212E+02 -0.96196082020E+02  0.10939444827E+03  0.47000000000E+01 0.  1.
          5    1    5    5  503    0 -0.44502117621E+02  0.17470478562E+02 -0.27830797744E+02  0.55518459966E+02  0.47000000000E+01 0. -1.
         -5    1    5    5    0  503  0.65297430811E+02 -0.24415476995E+02 -0.14966208242E+03  0.16516869831E+03  0.47000000000E+01 0. -1.
<mgrwt>
<rscale>  0 0.27183099E+03</rscale>
<asrwt>0</asrwt>
<pdfrwt beam="1">  1        1 0.90553024E-01 0.27183099E+03</pdfrwt>
<pdfrwt beam="2">  1       -1 0.48284558E-02 0.27183099E+03</pdfrwt>
<totfact> 0.66723965E+03</totfact>
</mgrwt>
</event>
<event>
 9    1  0.2095749E-002  0.2750113E+03  0.7818608E-02  0.1098445E+00
          2   -1    0    0  501    0  0.00000000000E+00  0.00000000000E+00  0.11979925181E+03  0.11979925181E+03  0.00000000000E+00 0. -1.
         -2   -1    0    0    0  501 -0.00000000000E+00 -0.00000000000E+00 -0.15782908908E+03  0.15782908908E+03  0.00000000000E+00 0. -1.
         36    2    1    2    0    0 -0.14210854715E-13 -0.35527136788E-14 -0.38029837273E+02  0.27762834090E+03  0.27501132185E+03 0.  0.
         25    2    3    3    0    0 -0.42170060362E+02 -0.10314393640E+01  0.16386829184E+02  0.13402507412E+03  0.12615393162E+03 0.  0.
         25    2    3    3    0    0  0.42170060362E+02  0.10314393640E+01 -0.54416666457E+02  0.14360326678E+03  0.12602121561E+03 0.  0.
          5    1    4    4  502    0  0.12425292098E+02  0.53757804983E+02  0.36412905590E+01  0.55494490512E+02  0.47000000000E+01 0.  1.
         -5    1    4    4    0  502 -0.54595352460E+02 -0.54789244347E+02  0.12745538625E+02  0.78530583604E+02  0.47000000000E+01 0.  1.
          5    1    5    5  503    0  0.79152932465E+02  0.29940163536E+02 -0.26577697483E+02  0.88826032861E+02  0.47000000000E+01 0.  1.
         -5    1    5    5    0  503 -0.36982872103E+02 -0.28908724172E+02 -0.27838968974E+02  0.54777233918E+02  0.47000000000E+01 0.  1.
<mgrwt>
<rscale>  0 0.27501132E+03</rscale>
<asrwt>0</asrwt>
<pdfrwt beam="1">  1        2 0.18430654E-01 0.27501132E+03</pdfrwt>
<pdfrwt beam="2">  1       -2 0.24281398E-01 0.27501132E+03</pdfrwt>
<totfact> 0.45430152E+03</totfact>
</mgrwt>
</event>
<event>
 9    1  0.2095749E-002  0.2726169E+03  0.7818608E-02  0.1099791E+00
         -1   -1    0    0    0  501 -0.00000000000E+00  0.00000000000E+00  0.16694471037E+03  0.16694471037E+03  0.00000000000E+00 0. -1.
          1   -1    0    0  501    0  0.00000000000E+00 -0.00000000000E+00 -0.11129428085E+03  0.11129428085E+03  0.00000000000E+00 0. -1.
         36    2    1    2    0    0 -0.71054273576E-14  0.35527136788E-14  0.55650429518E+02  0.27823899123E+03  0.27261688490E+03 0.  0.
         25    2    3    3    0    0  0.51401494199E+02 -0.15520753180E+02  0.41003159499E+02  0.14803246992E+03  0.13171691492E+03 0.  0.
         25    2    3    3    0    0 -0.51401494199E+02  0.15520753180E+02  0.14647270018E+02  0.13020652130E+03  0.11771231153E+03 0.  0.
          5    1    4    4  502    0  0.93540315640E+02 -0.17705578619E+02  0.10795990403E+02  0.95926646836E+02  0.47000000000E+01 0. -1.
         -5    1    4    4    0  502 -0.42138821442E+02  0.21848254393E+01  0.30207169096E+02  0.52105823086E+02  0.47000000000E+01 0. -1.
          5    1    5    5  503    0 -0.24614727561E+02  0.32933549748E+02  0.61000675995E+02  0.73713472200E+02  0.47000000000E+01 0. -1.
         -5    1    5    5    0  503 -0.26786766638E+02 -0.17412796569E+02 -0.46353405977E+02  0.56493049103E+02  0.47000000000E+01 0. -1.
<mgrwt>
<rscale>  0 0.27261688E+03</rscale>
<asrwt>0</asrwt>
<pdfrwt beam="1">  1        1 0.17122197E-01 0.27261688E+03</pdfrwt>
<pdfrwt beam="2">  1       -1 0.25683802E-01 0.27261688E+03</pdfrwt>
<totfact> 0.41373319E+03</totfact>
</mgrwt>
</event>
<event>
 9    1  0.2095749E-002  0.2753583E+03  0.7818608E-02  0.1098251E+00
         -1   -1    0    0    0  501 -0.00000000000E+00  0.00000000000E+00  0.72928465026E+02  0.72928465026E+02  0.00000000000E+00 0. -1.
          1   -1    0    0  501    0  0.00000000000E+00 -0.00000000000E+00 -0.25991972232E+03  0.25991972232E+03  0.00000000000E+00 0. -1.
         36    2    1    2    0    0  0.35527136788E-14  0.71054273576E-14 -0.18699125729E+03  0.33284818734E+03  0.27535828572E+03 0.  0.
         25    2    3    3    0    0  0.20694013833E+02 -0.38747612107E+02 -0.43105134575E+02  0.13877343622E+03  0.12438003988E+03 0.  0.
         25    2    3    3    0    0 -0.20694013833E+02  0.38747612107E+02 -0.14388612271E+03  0.19407475112E+03  0.12260576276E+03 0.  0.
          5    1    4    4  502    0 -0.35100887526E+02 -0.61900052380E+02 -0.22761704132E+02  0.74859027276E+02  0.47000000000E+01 0. -1.
         -5    1    4    4    0  502  0.55794901360E+02  0.23152440273E+02 -0.20343430443E+02  0.63914408943E+02  0.47000000000E+01 0. -1.
          5    1    5    5  503    0 -0.37507470606E+02  0.65746253998E-01 -0.14674894855E+03  0.15153929713E+03  0.47000000000E+01 0.  1.
         -5    1    5    5    0  503  0.16813456772E+02  0.38681865853E+02  0.28628258380E+01  0.42535453991E+02  0.47000000000E+01 0.  1.
<mgrwt>
<rscale>  0 0.27535829E+03</rscale>
<asrwt>0</asrwt>
<pdfrwt beam="1">  1        1 0.39987650E-01 0.27535829E+03</pdfrwt>
<pdfrwt beam="2">  1       -1 0.11219764E-01 0.27535829E+03</pdfrwt>
<totfact> 0.53161696E+03</totfact>
</mgrwt>
</event>
<event>
 9    1  0.2095749E-002  0.2747160E+03  0.7818608E-02  0.1098610E+00
          1   -1    0    0  501    0  0.00000000000E+00  0.00000000000E+00  0.20427596797E+02  0.20427596797E+02  0.00000000000E+00 0. -1.
         -1   -1    0    0    0  501 -0.00000000000E+00 -0.00000000000E+00 -0.92361445168E+03  0.92361445168E+03  0.00000000000E+00 0. -1.
         36    2    1    2    0    0  0.00000000000E+00 -0.71054273576E-14 -0.90318685488E+03  0.94404204847E+03  0.27471602512E+03 0.  0.
         25    2    3    3    0    0 -0.58645255190E+02  0.20279130166E+02 -0.35932020950E+03  0.38315031478E+03  0.11765475632E+03 0.  0.
         25    2    3    3    0    0  0.58645255190E+02 -0.20279130166E+02 -0.54386664538E+03  0.56089173370E+03  0.12230331103E+03 0.  0.
          5    1    4    4  502    0 -0.42006257328E+02 -0.27362529770E+02 -0.30392742395E+03  0.30807012630E+03  0.47000000000E+01 0. -1.
         -5    1    4    4    0  502 -0.16638997862E+02  0.47641659936E+02 -0.55392785548E+02  0.75080188479E+02  0.47000000000E+01 0. -1.
          5    1    5    5  503    0  0.34612926737E+02 -0.71842698579E+02 -0.33114346126E+03  0.34064278940E+03  0.47000000000E+01 0.  1.
         -5    1    5    5    0  503  0.24032328453E+02  0.51563568413E+02 -0.21272318413E+03  0.22024894429E+03  0.47000000000E+01 0.  1.
<mgrwt>
<rscale>  0 0.27471603E+03</rscale>
<asrwt>0</asrwt>
<pdfrwt beam="1">  1        1 0.31427066E-02 0.27471603E+03</pdfrwt>
<pdfrwt beam="2">  1       -1 0.14209456E+00 0.27471603E+03</pdfrwt>
<totfact> 0.13886891E+03</totfact>
</mgrwt>
</event>
<event>
 9    1  0.2095749E-002  0.2750652E+03  0.7818608E-02  0.1098415E+00
          2   -1    0    0  501    0  0.00000000000E+00  0.00000000000E+00  0.29372683772E+04  0.29372683772E+04  0.00000000000E+00 0.  1.
         -2   -1    0    0    0  501 -0.00000000000E+00 -0.00000000000E+00 -0.64397307820E+01  0.64397307820E+01  0.00000000000E+00 0.  1.
         36    2    1    2    0    0  0.35527136788E-14  0.00000000000E+00  0.29308286465E+04  0.29437081080E+04  0.27506521106E+03 0.  0.
         25    2    3    3    0    0  0.27550585219E+02  0.17179252880E+02  0.18214282145E+04  0.18267678345E+04  0.13574173744E+03 0.  0.
         25    2    3    3    0    0 -0.27550585219E+02 -0.17179252880E+02  0.11094004320E+04  0.11169402735E+04  0.12542764690E+03 0.  0.
          5    1    4    4  502    0 -0.48140539126E+02  0.31198404855E+02  0.55022509267E+03  0.55322743477E+03  0.47000000000E+01 0.  1.
         -5    1    4    4    0  502  0.75691124345E+02 -0.14019151975E+02  0.12712031218E+04  0.12735403998E+04  0.47000000000E+01 0.  1.
          5    1    5    5  503    0  0.27915199490E+00 -0.67560148522E+02  0.45726437807E+03  0.46225236943E+03  0.47000000000E+01 0. -1.
         -5    1    5    5    0  503 -0.27829737214E+02  0.50380895642E+02  0.65213605389E+03  0.65468790404E+03  0.47000000000E+01 0. -1.
<mgrwt>
<rscale>  0 0.27506521E+03</rscale>
<asrwt>0</asrwt>
<pdfrwt beam="1">  1        2 0.45188637E+00 0.27506521E+03</pdfrwt>
<pdfrwt beam="2">  1       -2 0.99073016E-03 0.27506521E+03</pdfrwt>
<totfact> 0.49032326E+03</totfact>
</mgrwt>
</event>
<event>
 9    1  0.2095749E-002  0.2757136E+03  0.7818608E-02  0.1098053E+00
         -1   -1    0    0    0  501 -0.00000000000E+00  0.00000000000E+00  0.12708046225E+02  0.12708046225E+02  0.00000000000E+00 0.  1.
          1   -1    0    0  501    0  0.00000000000E+00 -0.00000000000E+00 -0.14954691521E+04  0.14954691521E+04  0.00000000000E+00 0.  1.
         36    2    1    2    0    0  0.00000000000E+00 -0.71054273576E-14 -0.14827611059E+04  0.15081771983E+04  0.27571355507E+03 0.  0.
         25    2    3    3    0    0  0.37270181063E+02 -0.40539060519E+02 -0.72141545663E+03  0.73432507381E+03  0.12554111335E+03 0.  0.
         25    2    3    3    0    0 -0.37270181063E+02  0.40539060519E+02 -0.76134564925E+03  0.77385212452E+03  0.12715121377E+03 0.  0.
          5    1    4    4  502    0  0.78532471910E+02 -0.24139858173E+02 -0.31913989293E+03  0.32957919103E+03  0.47000000000E+01 0. -1.
         -5    1    4    4    0  502 -0.41262290847E+02 -0.16399202347E+02 -0.40227556369E+03  0.40474588278E+03  0.47000000000E+01 0. -1.
          5    1    5    5  503    0 -0.52726562691E+02 -0.23442816300E+02 -0.53381506823E+03  0.53694531669E+03  0.47000000000E+01 0.  1.
         -5    1    5    5    0  503  0.15456381628E+02  0.63981876819E+02 -0.22753058102E+03  0.23690680783E+03  0.47000000000E+01 0.  1.
<mgrwt>
<rscale>  0 0.27571356E+03</rscale>
<asrwt>0</asrwt>
<pdfrwt beam="1">  1        1 0.23007228E+00 0.27571356E+03</pdfrwt>
<pdfrwt beam="2">  1       -1 0.19550832E-02 0.27571356E+03</pdfrwt>
<totfact> 0.51084312E+03</totfact>
</mgrwt>
</event>
<event>
 9    1  0.2095749E-002  0.2740455E+03  0.7818608E-02  0.1098986E+00
          1   -1    0    0  501    0  0.00000000000E+00  0.00000000000E+00  0.91501229186E+03  0.91501229186E+03  0.00000000000E+00 0.  1.
         -1   -1    0    0    0  501 -0.00000000000E+00 -0.00000000000E+00 -0.20519109111E+02  0.20519109111E+02  0.00000000000E+00 0.  1.
         36    2    1    2    0    0 -0.17763568394E-14  0.00000000000E+00  0.89449318275E+03  0.93553140097E+03  0.27404552216E+03 0.  0.
         25    2    3    3    0    0 -0.28130381174E+01 -0.48307003306E+02  0.48560677640E+03  0.50367181637E+03  0.12461892939E+03 0.  0.
         25    2    3    3    0    0  0.28130381174E+01  0.48307003306E+02  0.40888640634E+03  0.43185958460E+03  0.13028095704E+03 0.  0.
          5    1    4    4  502    0  0.12073585153E+02 -0.83195396346E+02  0.41427930374E+03  0.42274895262E+03  0.47000000000E+01 0. -1.
         -5    1    4    4    0  502 -0.14886623270E+02  0.34888393039E+02  0.71327472666E+02  0.80922863754E+02  0.47000000000E+01 0. -1.
          5    1    5    5  503    0  0.33477223428E+02 -0.32854102024E+02  0.20277792106E+03  0.20818523429E+03  0.47000000000E+01 0. -1.
         -5    1    5    5    0  503 -0.30664185310E+02  0.81161105330E+02  0.20610848528E+03  0.22367435030E+03  0.47000000000E+01 0. -1.
<mgrwt>
<rscale>  0 0.27404552E+03</rscale>
<asrwt>0</asrwt>
<pdfrwt beam="1">  1        1 0.14077109E+00 0.27404552E+03</pdfrwt>
<pdfrwt beam="2">  1       -1 0.31567867E-02 0.27404552E+03</pdfrwt>
<totfact> 0.64923022E+03</totfact>
</mgrwt>
</event>
<event>
 9    1  0.2095749E-002  0.2742373E+03  0.7818608E-02  0.1098879E+00
          1   -1    0    0  501    0  0.00000000000E+00  0.00000000000E+00  0.10768993560E+03  0.10768993560E+03  0.00000000000E+00 0. -1.
         -1   -1    0    0    0  501 -0.00000000000E+00 -0.00000000000E+00 -0.17458942244E+03  0.17458942244E+03  0.00000000000E+00 0. -1.
         36    2    1    2    0    0 -0.10658141036E-13 -0.35527136788E-14 -0.66899486844E+02  0.28227935804E+03  0.27423729621E+03 0.  0.
         25    2    3    3    0    0 -0.63979526545E+01  0.14807574682E+02 -0.38318420850E+02  0.13088936507E+03  0.12411094411E+03 0.  0.
         25    2    3    3    0    0  0.63979526545E+01 -0.14807574682E+02 -0.28581065994E+02  0.15138999296E+03  0.14778990009E+03 0.  0.
          5    1    4    4  502    0 -0.26457260611E+02 -0.36574103140E+02 -0.56638271348E+02  0.72578477807E+02  0.47000000000E+01 0.  1.
         -5    1    4    4    0  502  0.20059307956E+02  0.51381677822E+02  0.18319850498E+02  0.58310887266E+02  0.47000000000E+01 0.  1.
          5    1    5    5  503    0  0.71863884958E+02 -0.21658719698E+02  0.85195738061E+01  0.75684815109E+02  0.47000000000E+01 0. -1.
         -5    1    5    5    0  503 -0.65465932304E+02  0.68511450163E+01 -0.37100639800E+02  0.75705177854E+02  0.47000000000E+01 0. -1.
<mgrwt>
<rscale>  0 0.27423730E+03</rscale>
<asrwt>0</asrwt>
<pdfrwt beam="1">  1        1 0.16567683E-01 0.27423730E+03</pdfrwt>
<pdfrwt beam="2">  1       -1 0.26859911E-01 0.27423730E+03</pdfrwt>
<totfact> 0.40077314E+03</totfact>
</mgrwt>
</event>
<event>
 9    1  0.2095749E-002  0.2775491E+03  0.7818608E-02  0.1097035E+00
         -2   -1    0    0    0  501 -0.00000000000E+00  0.00000000000E+00  0.47992266491E+02  0.47992266491E+02  0.00000000000E+00 0. -1.
          2   -1    0    0  501    0  0.00000000000E+00 -0.00000000000E+00 -0.40128084693E+03  0.40128084693E+03  0.00000000000E+00 0. -1.
         36    2    1    2    0    0  0.71054273576E-14  0.00000000000E+00 -0.35328858044E+03  0.44927311342E+03  0.27754911164E+03 0.  0.
         25    2    3    3    0    0  0.39856408231E+02 -0.25959630333E+01 -0.24249209342E+03  0.27167199680E+03  0.11579285888E+03 0.  0.
         25    2    3    3    0    0 -0.39856408231E+02  0.25959630333E+01 -0.11079648701E+03  0.17760111662E+03  0.13293239933E+03 0.  0.
          5    1    4    4  502    0  0.38777729382E+02  0.27210198882E+02 -0.23604517397E+03  0.24079767726E+03  0.47000000000E+01 0. -1.
         -5    1    4    4    0  502  0.10786788481E+01 -0.29806161915E+02 -0.64469194496E+01  0.30874319532E+02  0.47000000000E+01 0. -1.
          5    1    5    5  503    0 -0.80321033219E+02  0.26863860129E+02 -0.95602975588E+02  0.12780905406E+03  0.47000000000E+01 0. -1.
         -5    1    5    5    0  503  0.40464624989E+02 -0.24267897095E+02 -0.15193511425E+02  0.49792062564E+02  0.47000000000E+01 0. -1.
<mgrwt>
<rscale>  0 0.27754911E+03</rscale>
<asrwt>0</asrwt>
<pdfrwt beam="1">  1        2 0.61735514E-01 0.27754911E+03</pdfrwt>
<pdfrwt beam="2">  1       -2 0.73834258E-02 0.27754911E+03</pdfrwt>
<totfact> 0.84777008E+03</totfact>
</mgrwt>
</event>
<event>
 9    1  0.2095749E-002  0.2757272E+03  0.7818608E-02  0.1098046E+00
          1   -1    0    0  501    0  0.00000000000E+00  0.00000000000E+00  0.72585763250E+03  0.72585763250E+03  0.00000000000E+00 0. -1.
         -1   -1    0    0    0  501 -0.00000000000E+00 -0.00000000000E+00 -0.26184706571E+02  0.26184706571E+02  0.00000000000E+00 0. -1.
         36    2    1    2    0    0  0.14210854715E-13  0.35527136788E-14  0.69967292592E+03  0.75204233907E+03  0.27572717762E+03 0.  0.
         25    2    3    3    0    0 -0.44704708829E+02  0.80637544204E+01  0.25867027609E+03  0.29166673734E+03  0.12686858875E+03 0.  0.
         25    2    3    3    0    0  0.44704708829E+02 -0.80637544204E+01  0.44100264984E+03  0.46037560173E+03  0.12409199159E+03 0.  0.
          5    1    4    4  502    0 -0.72293096552E+02  0.46645716377E+02  0.14965041042E+03  0.17268309126E+03  0.47000000000E+01 0. -1.
         -5    1    4    4    0  502  0.27588387723E+02 -0.38581961956E+02  0.10901986566E+03  0.11898364608E+03  0.47000000000E+01 0. -1.
          5    1    5    5  503    0 -0.30124179165E+02  0.19567285229E+02  0.26010707373E+03  0.26261782998E+03  0.47000000000E+01 0.  1.
         -5    1    5    5    0  503  0.74828887994E+02 -0.27631039649E+02  0.18089557611E+03  0.19775777175E+03  0.47000000000E+01 0.  1.
<mgrwt>
<rscale>  0 0.27572718E+03</rscale>
<asrwt>0</asrwt>
<pdfrwt beam="1">  1        1 0.11167039E+00 0.27572718E+03</pdfrwt>
<pdfrwt beam="2">  1       -1 0.40284170E-02 0.27572718E+03</pdfrwt>
<totfact> 0.64850030E+03</totfact>
</mgrwt>
</event>
<event>
 9    1  0.2095749E-002  0.2745109E+03  0.7818608E-02  0.1098725E+00
         -2   -1    0    0    0  501 -0.00000000000E+00  0.00000000000E+00  0.49039450362E+02  0.49039450362E+02  0.00000000000E+00 0. -1.
          2   -1    0    0  501    0  0.00000000000E+00 -0.00000000000E+00 -0.38416128711E+03  0.38416128711E+03  0.00000000000E+00 0. -1.
         36    2    1    2    0    0  0.00000000000E+00  0.00000000000E+00 -0.33512183674E+03  0.43320073747E+03  0.27451089865E+03 0.  0.
         25    2    3    3    0    0  0.18919711715E+02  0.53870799199E+02 -0.15005518961E+03  0.20330103097E+03  0.12471860635E+03 0.  0.
         25    2    3    3    0    0 -0.18919711715E+02 -0.53870799199E+02 -0.18506664714E+03  0.22989970650E+03  0.12387167822E+03 0.  0.
          5    1    4    4  502    0  0.30013832851E+02  0.87095800521E+02 -0.13794020837E+03  0.16594004856E+03  0.47000000000E+01 0.  1.
         -5    1    4    4    0  502 -0.11094121135E+02 -0.33225001322E+02 -0.12114981236E+02  0.37360982414E+02  0.47000000000E+01 0.  1.
          5    1    5    5  503    0 -0.23138748897E+02 -0.44801141603E+00 -0.17321163845E+03  0.17481408441E+03  0.47000000000E+01 0.  1.
         -5    1    5    5    0  503  0.42190371818E+01 -0.53422787783E+02 -0.11855008689E+02  0.55085622083E+02  0.47000000000E+01 0.  1.
<mgrwt>
<rscale>  0 0.27451090E+03</rscale>
<asrwt>0</asrwt>
<pdfrwt beam="1">  1        2 0.59101735E-01 0.27451090E+03</pdfrwt>
<pdfrwt beam="2">  1       -2 0.75445310E-02 0.27451090E+03</pdfrwt>
<totfact> 0.85914944E+03</totfact>
</mgrwt>
</event>
<event>
 9    1  0.2095749E-002  0.2741032E+03  0.7818608E-02  0.1098954E+00
          2   -1    0    0  501    0  0.00000000000E+00  0.00000000000E+00  0.89493380116E+02  0.89493380116E+02  0.00000000000E+00 0.  1.
         -2   -1    0    0    0  501 -0.00000000000E+00 -0.00000000000E+00 -0.20988294816E+03  0.20988294816E+03  0.00000000000E+00 0.  1.
         36    2    1    2    0    0  0.00000000000E+00  0.71054273576E-14 -0.12038956804E+03  0.29937632827E+03  0.27410315182E+03 0.  0.
         25    2    3    3    0    0  0.38003065940E+01  0.48535457203E+02 -0.72427673500E+02  0.15622807477E+03  0.12958128925E+03 0.  0.
         25    2    3    3    0    0 -0.38003065940E+01 -0.48535457203E+02 -0.47961894541E+02  0.14314825350E+03  0.12578134288E+03 0.  0.
          5    1    4    4  502    0  0.15110264258E+02  0.90533040838E+02 -0.33977310369E+02  0.97985198827E+02  0.47000000000E+01 0.  1.
         -5    1    4    4    0  502 -0.11309957664E+02 -0.41997583635E+02 -0.38450363130E+02  0.58242875946E+02  0.47000000000E+01 0.  1.
          5    1    5    5  503    0 -0.47339648800E+02 -0.38061976395E+02 -0.70181493110E+02  0.92937012921E+02  0.47000000000E+01 0. -1.
         -5    1    5    5    0  503  0.43539342206E+02 -0.10473480808E+02  0.22219598568E+02  0.50211240579E+02  0.47000000000E+01 0. -1.
<mgrwt>
<rscale>  0 0.27410315E+03</rscale>
<asrwt>0</asrwt>
<pdfrwt beam="1">  1        2 0.13768212E-01 0.27410315E+03</pdfrwt>
<pdfrwt beam="2">  1       -2 0.32289684E-01 0.27410315E+03</pdfrwt>
<totfact> 0.38370894E+03</totfact>
</mgrwt>
</event>
<event>
 9    1  0.2095749E-002  0.2755125E+03  0.7818608E-02  0.1098165E+00
         -2   -1    0    0    0  501 -0.00000000000E+00  0.00000000000E+00  0.12860624722E+03  0.12860624722E+03  0.00000000000E+00 0.  1.
          2   -1    0    0  501    0  0.00000000000E+00 -0.00000000000E+00 -0.14755726009E+03  0.14755726009E+03  0.00000000000E+00 0.  1.
         36    2    1    2    0    0  0.00000000000E+00  0.00000000000E+00 -0.18951012867E+02  0.27616350731E+03  0.27551250767E+03 0.  0.
         25    2    3    3    0    0  0.53596168970E+02 -0.19316754833E+02 -0.11806819759E+02  0.13924871062E+03  0.12651132783E+03 0.  0.
         25    2    3    3    0    0 -0.53596168970E+02  0.19316754833E+02 -0.71441931080E+01  0.13691479669E+03  0.12429374768E+03 0.  0.
          5    1    4    4  502    0  0.50301329535E+02 -0.53001873438E+02  0.35111880880E+02  0.81205643400E+02  0.47000000000E+01 0. -1.
         -5    1    4    4    0  502  0.32948394342E+01  0.33685118605E+02 -0.46918700639E+02  0.58043067217E+02  0.47000000000E+01 0. -1.
          5    1    5    5  503    0  0.31771150005E+02 -0.10703672210E+02 -0.27999048859E+02  0.43931893977E+02  0.47000000000E+01 0. -1.
         -5    1    5    5    0  503 -0.85367318975E+02  0.30020427043E+02  0.20854855750E+02  0.92982902714E+02  0.47000000000E+01 0. -1.
<mgrwt>
<rscale>  0 0.27551251E+03</rscale>
<asrwt>0</asrwt>
<pdfrwt beam="1">  1        2 0.22701117E-01 0.27551251E+03</pdfrwt>
<pdfrwt beam="2">  1       -2 0.19785577E-01 0.27551251E+03</pdfrwt>
<totfact> 0.51051174E+03</totfact>
</mgrwt>
</event>
<event>
 9    1  0.2095749E-002  0.2749686E+03  0.7818608E-02  0.1098469E+00
          1   -1    0    0  501    0  0.00000000000E+00  0.00000000000E+00  0.58526725148E+03  0.58526725148E+03  0.00000000000E+00 0. -1.
         -1   -1    0    0    0  501 -0.00000000000E+00 -0.00000000000E+00 -0.32296235728E+02  0.32296235728E+02  0.00000000000E+00 0. -1.
         36    2    1    2    0    0 -0.14210854715E-13  0.71054273576E-14  0.55297101575E+03  0.61756348721E+03  0.27496857361E+03 0.  0.
         25    2    3    3    0    0 -0.39941452692E+02 -0.28447751875E+02  0.33770816635E+03  0.36479226401E+03  0.12892632016E+03 0.  0.
         25    2    3    3    0    0  0.39941452692E+02  0.28447751875E+02  0.21526284940E+03  0.25277122320E+03  0.12308778459E+03 0.  0.
          5    1    4    4  502    0 -0.40782145273E+01  0.48917326854E+02  0.87874533816E+02  0.10076487679E+03  0.47000000000E+01 0.  1.
         -5    1    4    4    0  502 -0.35863238165E+02 -0.77365078729E+02  0.24983363253E+03  0.26402738722E+03  0.47000000000E+01 0.  1.
          5    1    5    5  503    0  0.59680818700E+02 -0.16809024507E+02  0.48702732996E+02  0.78983476923E+02  0.47000000000E+01 0.  1.
         -5    1    5    5    0  503 -0.19739366008E+02  0.45256776382E+02  0.16656011640E+03  0.17378774628E+03  0.47000000000E+01 0.  1.
<mgrwt>
<rscale>  0 0.27496857E+03</rscale>
<asrwt>0</asrwt>
<pdfrwt beam="1">  1        1 0.90041108E-01 0.27496857E+03</pdfrwt>
<pdfrwt beam="2">  1       -1 0.49686521E-02 0.27496857E+03</pdfrwt>
<totfact> 0.64449713E+03</totfact>
</mgrwt>
</event>
<event>
 9    1  0.2095749E-002  0.2829926E+03  0.7818608E-02  0.1094066E+00
          4   -1    0    0  501    0  0.00000000000E+00  0.00000000000E+00  0.17896671349E+03  0.17896671349E+03  0.00000000000E+00 0.  1.
         -4   -1    0    0    0  501 -0.00000000000E+00 -0.00000000000E+00 -0.11187106554E+03  0.11187106554E+03  0.00000000000E+00 0.  1.
         36    2    1    2    0    0 -0.71054273576E-14  0.00000000000E+00  0.67095647944E+02  0.29083777903E+03  0.28299255774E+03 0.  0.
         25    2    3    3    0    0 -0.33883230808E+02 -0.62844879521E+02  0.74441643865E+02  0.14715201888E+03  0.10495049361E+03 0.  0.
         25    2    3    3    0    0  0.33883230808E+02  0.62844879521E+02 -0.73459959213E+01  0.14368576014E+03  0.12447522565E+03 0.  0.
          5    1    4    4  502    0  0.26227244483E+02 -0.41957327650E+02  0.66245776877E+02  0.82818347307E+02  0.47000000000E+01 0.  1.
         -5    1    4    4    0  502 -0.60110475291E+02 -0.20887551871E+02  0.81958669885E+01  0.64333671577E+02  0.47000000000E+01 0.  1.
          5    1    5    5  503    0 -0.38291171549E+02  0.16669118575E+02  0.28405953441E+02  0.50725353853E+02  0.47000000000E+01 0. -1.
         -5    1    5    5    0  503  0.72174402357E+02  0.46175760946E+02 -0.35751949362E+02  0.92960406290E+02  0.47000000000E+01 0. -1.
<mgrwt>
<rscale>  0 0.28299256E+03</rscale>
<asrwt>0</asrwt>
<pdfrwt beam="1">  1        4 0.27533341E-01 0.28299256E+03</pdfrwt>
<pdfrwt beam="2">  1       -4 0.17210933E-01 0.28299256E+03</pdfrwt>
<totfact> 0.69569789E+02</totfact>
</mgrwt>
</event>
<event>
 9    1  0.2095749E-002  0.2746336E+03  0.7818608E-02  0.1098657E+00
         -2   -1    0    0    0  501 -0.00000000000E+00  0.00000000000E+00  0.15059997618E+02  0.15059997618E+02  0.00000000000E+00 0. -1.
          2   -1    0    0  501    0  0.00000000000E+00 -0.00000000000E+00 -0.12520520187E+04  0.12520520187E+04  0.00000000000E+00 0. -1.
         36    2    1    2    0    0 -0.14210854715E-13  0.71054273576E-14 -0.12369920211E+04  0.12671120163E+04  0.27463357711E+03 0.  0.
         25    2    3    3    0    0 -0.39219664496E+02  0.38939990676E+02 -0.58086114347E+03  0.59706341747E+03  0.12661181438E+03 0.  0.
         25    2    3    3    0    0  0.39219664496E+02 -0.38939990676E+02 -0.65613087761E+03  0.67004859884E+03  0.12410838526E+03 0.  0.
          5    1    4    4  502    0 -0.52385945956E+02  0.68756930197E+01 -0.54273950689E+03  0.54532543020E+03  0.47000000000E+01 0. -1.
         -5    1    4    4    0  502  0.13166281459E+02  0.32064297656E+02 -0.38121636579E+02  0.51737987273E+02  0.47000000000E+01 0. -1.
          5    1    5    5  503    0  0.17047900843E+00  0.27615421190E+02 -0.38579525796E+02  0.47677147159E+02  0.47000000000E+01 0. -1.
         -5    1    5    5    0  503  0.39049185488E+02 -0.66555411865E+02 -0.61755135182E+03  0.62237145168E+03  0.47000000000E+01 0. -1.
<mgrwt>
<rscale>  0 0.27463358E+03</rscale>
<asrwt>0</asrwt>
<pdfrwt beam="1">  1        2 0.19262346E+00 0.27463358E+03</pdfrwt>
<pdfrwt beam="2">  1       -2 0.23169219E-02 0.27463358E+03</pdfrwt>
<totfact> 0.11599042E+04</totfact>
</mgrwt>
</event>
<event>
 9    1  0.2095749E-002  0.2748386E+03  0.7818608E-02  0.1098542E+00
          2   -1    0    0  501    0  0.00000000000E+00  0.00000000000E+00  0.44766790039E+03  0.44766790039E+03  0.00000000000E+00 0. -1.
         -2   -1    0    0    0  501 -0.00000000000E+00 -0.00000000000E+00 -0.42183195600E+02  0.42183195600E+02  0.00000000000E+00 0. -1.
         36    2    1    2    0    0  0.71054273576E-14  0.00000000000E+00  0.40548470479E+03  0.48985109598E+03  0.27483858976E+03 0.  0.
         25    2    3    3    0    0 -0.36695954944E+00  0.24065577783E+01  0.31390661286E+03  0.33737301627E+03  0.12360123109E+03 0.  0.
         25    2    3    3    0    0  0.36695954944E+00 -0.24065577783E+01  0.91578091924E+02  0.15247807972E+03  0.12188967017E+03 0.  0.
          5    1    4    4  502    0  0.29467860330E+02 -0.47619772248E+02  0.21746277244E+03  0.22460664483E+03  0.47000000000E+01 0.  1.
         -5    1    4    4    0  502 -0.29834819880E+02  0.50026330026E+02  0.96443840417E+02  0.11276637144E+03  0.47000000000E+01 0.  1.
          5    1    5    5  503    0 -0.39883658333E+02  0.44187560616E+02  0.51585634785E+02  0.78907632276E+02  0.47000000000E+01 0. -1.
         -5    1    5    5    0  503  0.40250617883E+02 -0.46594118394E+02  0.39992457138E+02  0.73570447442E+02  0.47000000000E+01 0. -1.
<mgrwt>
<rscale>  0 0.27483859E+03</rscale>
<asrwt>0</asrwt>
<pdfrwt beam="1">  1        2 0.68871981E-01 0.27483859E+03</pdfrwt>
<pdfrwt beam="2">  1       -2 0.64897227E-02 0.27483859E+03</pdfrwt>
<totfact> 0.91808460E+03</totfact>
</mgrwt>
</event>
<event>
 9    1  0.2095749E-002  0.2758314E+03  0.7818608E-02  0.1097988E+00
         -3   -1    0    0    0  501 -0.00000000000E+00  0.00000000000E+00  0.22737867921E+03  0.22737867921E+03  0.00000000000E+00 0. -1.
          3   -1    0    0  501    0  0.00000000000E+00 -0.00000000000E+00 -0.83652286247E+02  0.83652286247E+02  0.00000000000E+00 0. -1.
         36    2    1    2    0    0  0.71054273576E-14  0.00000000000E+00  0.14372639297E+03  0.31103096546E+03  0.27583144389E+03 0.  0.
         25    2    3    3    0    0  0.15251397135E+02 -0.56861095766E+02  0.82726488062E+02  0.16123973251E+03  0.12525490085E+03 0.  0.
         25    2    3    3    0    0 -0.15251397135E+02  0.56861095766E+02  0.60999904904E+02  0.14979123295E+03  0.12349346438E+03 0.  0.
          5    1    4    4  502    0 -0.17625795115E+02 -0.83313077762E+02  0.23680413097E+02  0.88513216776E+02  0.47000000000E+01 0. -1.
         -5    1    4    4    0  502  0.32877192251E+02  0.26451981995E+02  0.59046074965E+02  0.72726515732E+02  0.47000000000E+01 0. -1.
          5    1    5    5  503    0 -0.56469456237E+02  0.64650557749E+02  0.64443457162E+02  0.10744088270E+03  0.47000000000E+01 0. -1.
         -5    1    5    5    0  503  0.41218059102E+02 -0.77894619828E+01 -0.34435522573E+01  0.42350350249E+02  0.47000000000E+01 0. -1.
<mgrwt>
<rscale>  0 0.27583144E+03</rscale>
<asrwt>0</asrwt>
<pdfrwt beam="1">  1        3 0.12869583E-01 0.27583144E+03</pdfrwt>
<pdfrwt beam="2">  1       -3 0.34981335E-01 0.27583144E+03</pdfrwt>
<totfact> 0.98652941E+02</totfact>
</mgrwt>
</event>
<event>
 9    1  0.2095749E-002  0.2740413E+03  0.7818608E-02  0.1098989E+00
          1   -1    0    0  501    0  0.00000000000E+00  0.00000000000E+00  0.12612413103E+03  0.12612413103E+03  0.00000000000E+00 0. -1.
         -1   -1    0    0    0  501 -0.00000000000E+00 -0.00000000000E+00 -0.14885860805E+03  0.14885860805E+03  0.00000000000E+00 0. -1.
         36    2    1    2    0    0 -0.14210854715E-13 -0.35527136788E-14 -0.22734477019E+02  0.27498273907E+03  0.27404132963E+03 0.  0.
         25    2    3    3    0    0 -0.45157856883E+02 -0.69096676140E+01 -0.28660815645E+02  0.14102440493E+03  0.13030527574E+03 0.  0.
         25    2    3    3    0    0  0.45157856883E+02  0.69096676140E+01  0.59263386261E+01  0.13395833415E+03  0.12578846630E+03 0.  0.
          5    1    4    4  502    0 -0.26355927594E+02 -0.46315670192E+02 -0.64887225949E+02  0.84096482186E+02  0.47000000000E+01 0.  1.
         -5    1    4    4    0  502 -0.18801929289E+02  0.39406002578E+02  0.36226410304E+02  0.56927922741E+02  0.47000000000E+01 0.  1.
          5    1    5    5  503    0 -0.38329050510E+02  0.13308665290E+02  0.25086421279E+02  0.47933862951E+02  0.47000000000E+01 0.  1.
         -5    1    5    5    0  503  0.83486907393E+02 -0.63989976760E+01 -0.19160082653E+02  0.86024471196E+02  0.47000000000E+01 0.  1.
<mgrwt>
<rscale>  0 0.27404133E+03</rscale>
<asrwt>0</asrwt>
<pdfrwt beam="1">  1        1 0.19403713E-01 0.27404133E+03</pdfrwt>
<pdfrwt beam="2">  1       -1 0.22901324E-01 0.27404133E+03</pdfrwt>
<totfact> 0.42552905E+03</totfact>
</mgrwt>
</event>
<event>
 9    1  0.2095749E-002  0.2746706E+03  0.7818608E-02  0.1098636E+00
          1   -1    0    0  501    0  0.00000000000E+00  0.00000000000E+00  0.12044663433E+03  0.12044663433E+03  0.00000000000E+00 0. -1.
         -1   -1    0    0    0  501 -0.00000000000E+00 -0.00000000000E+00 -0.15659199505E+03  0.15659199505E+03  0.00000000000E+00 0. -1.
         36    2    1    2    0    0 -0.17763568394E-14  0.00000000000E+00 -0.36145360721E+02  0.27703862938E+03  0.27467055733E+03 0.  0.
         25    2    3    3    0    0  0.12252559654E+02  0.22796954475E+02 -0.69390495533E+02  0.14744852489E+03  0.12749980498E+03 0.  0.
         25    2    3    3    0    0 -0.12252559654E+02 -0.22796954475E+02  0.33245134812E+02  0.12959010449E+03  0.12255011155E+03 0.  0.
          5    1    4    4  502    0  0.12204153063E+02  0.10948193449E+02  0.36766025046E+02  0.40529432385E+02  0.47000000000E+01 0.  1.
         -5    1    4    4    0  502  0.48406591073E-01  0.11848761026E+02 -0.10615652058E+03  0.10691909251E+03  0.47000000000E+01 0.  1.
          5    1    5    5  503    0  0.80564560011E+01  0.89320564958E+01 -0.42740205348E+02  0.44648664815E+02  0.47000000000E+01 0. -1.
         -5    1    5    5    0  503 -0.20309015655E+02 -0.31729010971E+02  0.75985340160E+02  0.84941439671E+02  0.47000000000E+01 0. -1.
<mgrwt>
<rscale>  0 0.27467056E+03</rscale>
<asrwt>0</asrwt>
<pdfrwt beam="1">  1        1 0.18530252E-01 0.27467056E+03</pdfrwt>
<pdfrwt beam="2">  1       -1 0.24091076E-01 0.27467056E+03</pdfrwt>
<totfact> 0.41541609E+03</totfact>
</mgrwt>
</event>
<event>
 9    1  0.2095749E-002  0.2762421E+03  0.7818608E-02  0.1097759E+00
         -2   -1    0    0    0  501 -0.00000000000E+00  0.00000000000E+00  0.10236324370E+03  0.10236324370E+03  0.00000000000E+00 0. -1.
          2   -1    0    0  501    0  0.00000000000E+00 -0.00000000000E+00 -0.18636980674E+03  0.18636980674E+03  0.00000000000E+00 0. -1.
         36    2    1    2    0    0  0.00000000000E+00 -0.35527136788E-14 -0.84006563040E+02  0.28873305045E+03  0.27624205289E+03 0.  0.
         25    2    3    3    0    0 -0.40688323898E+02 -0.42689830431E+01 -0.91940400043E+02  0.15967291218E+03  0.12397031018E+03 0.  0.
         25    2    3    3    0    0  0.40688323898E+02  0.42689830431E+01  0.79338370024E+01  0.12906013827E+03  0.12214667250E+03 0.  0.
          5    1    4    4  502    0 -0.49098153516E+02  0.30723681375E+02  0.28425333819E+01  0.58178546492E+02  0.47000000000E+01 0.  1.
         -5    1    4    4    0  502  0.84098296184E+01 -0.34992664418E+02 -0.94782933425E+02  0.10149436569E+03  0.47000000000E+01 0.  1.
          5    1    5    5  503    0  0.18646417157E+02  0.35821785885E+02  0.54798650328E+02  0.68233945324E+02  0.47000000000E+01 0. -1.
         -5    1    5    5    0  503  0.22041906741E+02 -0.31552802842E+02 -0.46864813325E+02  0.60826192943E+02  0.47000000000E+01 0. -1.
<mgrwt>
<rscale>  0 0.27624205E+03</rscale>
<asrwt>0</asrwt>
<pdfrwt beam="1">  1        2 0.28672278E-01 0.27624205E+03</pdfrwt>
<pdfrwt beam="2">  1       -2 0.15748191E-01 0.27624205E+03</pdfrwt>
<totfact> 0.57787342E+03</totfact>
</mgrwt>
</event>
<event>
 9    1  0.2095749E-002  0.2760314E+03  0.7818608E-02  0.1097876E+00
         -1   -1    0    0    0  501 -0.00000000000E+00  0.00000000000E+00  0.87095791817E+01  0.87095791817E+01  0.00000000000E+00 0.  1.
          1   -1    0    0  501    0  0.00000000000E+00 -0.00000000000E+00 -0.21870555128E+04  0.21870555128E+04  0.00000000000E+00 0.  1.
         36    2    1    2    0    0 -0.14210854715E-13  0.00000000000E+00 -0.21783459336E+04  0.21957650920E+04  0.27603139795E+03 0.  0.
         25    2    3    3    0    0 -0.41942642053E+02  0.37510438761E+02 -0.11063162653E+04  0.11150223047E+04  0.12717249280E+03 0.  0.
         25    2    3    3    0    0  0.41942642053E+02 -0.37510438761E+02 -0.10720296683E+04  0.10807427873E+04  0.12486450344E+03 0.  0.
          5    1    4    4  502    0 -0.82095537643E+02  0.50177004565E+02 -0.80469475801E+03  0.81044009813E+03  0.47000000000E+01 0. -1.
         -5    1    4    4    0  502  0.40152895590E+02 -0.12666565804E+02 -0.30162150731E+03  0.30458220661E+03  0.47000000000E+01 0. -1.
          5    1    5    5  503    0  0.30701968527E+02  0.23592506737E+02 -0.11023043594E+03  0.11692756840E+03  0.47000000000E+01 0. -1.
         -5    1    5    5    0  503  0.11240673526E+02 -0.61102945498E+02 -0.96179923239E+03  0.96381521887E+03  0.47000000000E+01 0. -1.
<mgrwt>
<rscale>  0 0.27603140E+03</rscale>
<asrwt>0</asrwt>
<pdfrwt beam="1">  1        1 0.33646991E+00 0.27603140E+03</pdfrwt>
<pdfrwt beam="2">  1       -1 0.13399359E-02 0.27603140E+03</pdfrwt>
<totfact> 0.31350984E+03</totfact>
</mgrwt>
</event>
<event>
 9    1  0.2095749E-002  0.2745548E+03  0.7818608E-02  0.1098701E+00
         -1   -1    0    0    0  501 -0.00000000000E+00  0.00000000000E+00  0.36338486068E+03  0.36338486068E+03  0.00000000000E+00 0. -1.
          1   -1    0    0  501    0  0.00000000000E+00 -0.00000000000E+00 -0.51859853942E+02  0.51859853942E+02  0.00000000000E+00 0. -1.
         36    2    1    2    0    0  0.35527136788E-14  0.00000000000E+00  0.31152500674E+03  0.41524471462E+03  0.27455480910E+03 0.  0.
         25    2    3    3    0    0 -0.15480425001E+02 -0.19861109713E+02  0.76918642859E+02  0.14901871622E+03  0.12512391029E+03 0.  0.
         25    2    3    3    0    0  0.15480425001E+02  0.19861109713E+02  0.23460636388E+03  0.26622599841E+03  0.12329650853E+03 0.  0.
          5    1    4    4  502    0 -0.53010000925E+02  0.19533896284E+02  0.75466313555E+02  0.94386904725E+02  0.47000000000E+01 0.  1.
         -5    1    4    4    0  502  0.37529575924E+02 -0.39395005997E+02  0.14523293043E+01  0.54631811493E+02  0.47000000000E+01 0.  1.
          5    1    5    5  503    0  0.15380028136E+02  0.62354918516E+02  0.65712208559E+02  0.92004703588E+02  0.47000000000E+01 0. -1.
         -5    1    5    5    0  503  0.10039686511E+00 -0.42493808802E+02  0.16889415532E+03  0.17422129482E+03  0.47000000000E+01 0. -1.
<mgrwt>
<rscale>  0 0.27455481E+03</rscale>
<asrwt>0</asrwt>
<pdfrwt beam="1">  1        1 0.79784393E-02 0.27455481E+03</pdfrwt>
<pdfrwt beam="2">  1       -1 0.55905361E-01 0.27455481E+03</pdfrwt>
<totfact> 0.28955072E+03</totfact>
</mgrwt>
</event>
<event>
 9    1  0.2095749E-002  0.2764984E+03  0.7818608E-02  0.1097617E+00
         -2   -1    0    0    0  501 -0.00000000000E+00  0.00000000000E+00  0.28721925528E+02  0.28721925528E+02  0.00000000000E+00 0. -1.
          2   -1    0    0  501    0  0.00000000000E+00 -0.00000000000E+00 -0.66544448401E+03  0.66544448401E+03  0.00000000000E+00 0. -1.
         36    2    1    2    0    0  0.00000000000E+00  0.00000000000E+00 -0.63672255848E+03  0.69416640954E+03  0.27649844059E+03 0.  0.
         25    2    3    3    0    0 -0.15225521358E+02  0.40228303931E+02 -0.39922405302E+03  0.42078482359E+03  0.12581689200E+03 0.  0.
         25    2    3    3    0    0  0.15225521358E+02 -0.40228303931E+02 -0.23749850546E+03  0.27338158595E+03  0.12838153490E+03 0.  0.
          5    1    4    4  502    0 -0.38213105871E+02 -0.35067142197E+02 -0.12420010230E+03  0.13467628349E+03  0.47000000000E+01 0.  1.
         -5    1    4    4    0  502  0.22987584513E+02  0.75295446128E+02 -0.27502395072E+03  0.28610854010E+03  0.47000000000E+01 0.  1.
          5    1    5    5  503    0  0.36684951502E+02  0.29990905721E+02 -0.38553882525E+02  0.61267707240E+02  0.47000000000E+01 0.  1.
         -5    1    5    5    0  503 -0.21459430144E+02 -0.70219209652E+02 -0.19894462293E+03  0.21211387871E+03  0.47000000000E+01 0.  1.
<mgrwt>
<rscale>  0 0.27649844E+03</rscale>
<asrwt>0</asrwt>
<pdfrwt beam="1">  1        2 0.10237606E+00 0.27649844E+03</pdfrwt>
<pdfrwt beam="2">  1       -2 0.44187583E-02 0.27649844E+03</pdfrwt>
<totfact> 0.10501023E+04</totfact>
</mgrwt>
</event>
<event>
 9    1  0.2095749E-002  0.2748385E+03  0.7818608E-02  0.1098542E+00
         -2   -1    0    0    0  501 -0.00000000000E+00  0.00000000000E+00  0.13047987767E+03  0.13047987767E+03  0.00000000000E+00 0.  1.
          2   -1    0    0  501    0  0.00000000000E+00 -0.00000000000E+00 -0.14472763352E+03  0.14472763352E+03  0.00000000000E+00 0.  1.
         36    2    1    2    0    0  0.00000000000E+00  0.14210854715E-13 -0.14247755846E+02  0.27520751119E+03  0.27483845377E+03 0.  0.
         25    2    3    3    0    0 -0.32368135371E+02 -0.59020640489E+02 -0.52114021833E+02  0.12682044649E+03  0.94002245636E+02 0.  0.
         25    2    3    3    0    0  0.32368135371E+02  0.59020640489E+02  0.37866265986E+02  0.14838706470E+03  0.12670333334E+03 0.  0.
          5    1    4    4  502    0  0.27620777750E+01 -0.49121642557E+02  0.13813914542E+02  0.51317434426E+02  0.47000000000E+01 0. -1.
         -5    1    4    4    0  502 -0.35130213146E+02 -0.98989979320E+01 -0.65927936375E+02  0.75503012061E+02  0.47000000000E+01 0. -1.
          5    1    5    5  503    0  0.51215990319E+02  0.89132139063E+02  0.44201952864E+02  0.11199785049E+03  0.47000000000E+01 0. -1.
         -5    1    5    5    0  503 -0.18847854949E+02 -0.30111498574E+02 -0.63356868772E+01  0.36389214209E+02  0.47000000000E+01 0. -1.
<mgrwt>
<rscale>  0 0.27483845E+03</rscale>
<asrwt>0</asrwt>
<pdfrwt beam="1">  1        2 0.22265790E-01 0.27483845E+03</pdfrwt>
<pdfrwt beam="2">  1       -2 0.20073827E-01 0.27483845E+03</pdfrwt>
<totfact> 0.50901594E+03</totfact>
</mgrwt>
</event>
<event>
 9    1  0.2095749E-002  0.2745926E+03  0.7818608E-02  0.1098680E+00
          4   -1    0    0  501    0  0.00000000000E+00  0.00000000000E+00  0.65503421262E+02  0.65503421262E+02  0.00000000000E+00 0. -1.
         -4   -1    0    0    0  501 -0.00000000000E+00 -0.00000000000E+00 -0.28777532891E+03  0.28777532891E+03  0.00000000000E+00 0. -1.
         36    2    1    2    0    0  0.35527136788E-14  0.00000000000E+00 -0.22227190764E+03  0.35327875017E+03  0.27459256070E+03 0.  0.
         25    2    3    3    0    0 -0.10878577325E+02  0.37784639014E+02 -0.16948087207E+03  0.21225957778E+03  0.12159087124E+03 0.  0.
         25    2    3    3    0    0  0.10878577325E+02 -0.37784639014E+02 -0.52791035569E+02  0.14101917239E+03  0.12471363661E+03 0.  0.
          5    1    4    4  502    0  0.20326775713E+02  0.49354989800E+02 -0.17144702756E+02  0.56259431757E+02  0.47000000000E+01 0. -1.
         -5    1    4    4    0  502 -0.31205353038E+02 -0.11570350786E+02 -0.15233616932E+03  0.15600014602E+03  0.47000000000E+01 0. -1.
          5    1    5    5  503    0 -0.39774986872E+02  0.10714517306E+02  0.14296214423E+02  0.43855697561E+02  0.47000000000E+01 0.  1.
         -5    1    5    5    0  503  0.50653564197E+02 -0.48499156320E+02 -0.67087249992E+02  0.97163474830E+02  0.47000000000E+01 0.  1.
<mgrwt>
<rscale>  0 0.27459256E+03</rscale>
<asrwt>0</asrwt>
<pdfrwt beam="1">  1        4 0.10077449E-01 0.27459256E+03</pdfrwt>
<pdfrwt beam="2">  1       -4 0.44273127E-01 0.27459256E+03</pdfrwt>
<totfact> 0.69717511E+02</totfact>
</mgrwt>
</event>
<event>
 9    1  0.2095749E-002  0.2743991E+03  0.7818608E-02  0.1098788E+00
         -2   -1    0    0    0  501 -0.00000000000E+00  0.00000000000E+00  0.40013215342E+03  0.40013215342E+03  0.00000000000E+00 0.  1.
          2   -1    0    0  501    0  0.00000000000E+00 -0.00000000000E+00 -0.47043742259E+02  0.47043742259E+02  0.00000000000E+00 0.  1.
         36    2    1    2    0    0  0.35527136788E-14 -0.71054273576E-14  0.35308841116E+03  0.44717589568E+03  0.27439908087E+03 0.  0.
         25    2    3    3    0    0 -0.27737356747E+02  0.24793998493E+02  0.24541120540E+03  0.27792251993E+03  0.12502065439E+03 0.  0.
         25    2    3    3    0    0  0.27737356747E+02 -0.24793998493E+02  0.10767720576E+03  0.16925337575E+03  0.12517276558E+03 0.  0.
          5    1    4    4  502    0 -0.59622607403E+01  0.63619617444E+02  0.62107417962E+02  0.89232424840E+02  0.47000000000E+01 0. -1.
         -5    1    4    4    0  502 -0.21775096007E+02 -0.38825618951E+02  0.18330378744E+03  0.18869009509E+03  0.47000000000E+01 0. -1.
          5    1    5    5  503    0  0.22913283723E+02 -0.19357903891E+01 -0.25094749476E+02  0.34359893869E+02  0.47000000000E+01 0.  1.
         -5    1    5    5    0  503  0.48240730246E+01 -0.22858208104E+02  0.13277195524E+03  0.13489348189E+03  0.47000000000E+01 0.  1.
<mgrwt>
<rscale>  0 0.27439908E+03</rscale>
<asrwt>0</asrwt>
<pdfrwt beam="1">  1        2 0.72374991E-02 0.27439908E+03</pdfrwt>
<pdfrwt beam="2">  1       -2 0.61558791E-01 0.27439908E+03</pdfrwt>
<totfact> 0.24178324E+03</totfact>
</mgrwt>
</event>
<event>
 9    1  0.2095749E-002  0.2748495E+03  0.7818608E-02  0.1098536E+00
         -3   -1    0    0    0  501 -0.00000000000E+00  0.00000000000E+00  0.38929439936E+03  0.38929439936E+03  0.00000000000E+00 0. -1.
          3   -1    0    0  501    0  0.00000000000E+00 -0.00000000000E+00 -0.48512289083E+02  0.48512289083E+02  0.00000000000E+00 0. -1.
         36    2    1    2    0    0  0.00000000000E+00  0.71054273576E-14  0.34078211028E+03  0.43780668845E+03  0.27484950384E+03 0.  0.
         25    2    3    3    0    0 -0.15290034210E+01 -0.19900008422E+02  0.25143809170E+03  0.28321758557E+03  0.12881280460E+03 0.  0.
         25    2    3    3    0    0  0.15290034210E+01  0.19900008422E+02  0.89344018581E+02  0.15458910288E+03  0.12456760769E+03 0.  0.
          5    1    4    4  502    0 -0.51854590025E+02  0.13780958861E+02  0.18727273260E+03  0.19486400311E+03  0.47000000000E+01 0. -1.
         -5    1    4    4    0  502  0.50325586604E+02 -0.33680967283E+02  0.64165359104E+02  0.88353582457E+02  0.47000000000E+01 0. -1.
          5    1    5    5  503    0  0.22340191658E+02 -0.26371201092E+02  0.96984759621E+02  0.10306627969E+03  0.47000000000E+01 0.  1.
         -5    1    5    5    0  503 -0.20811188237E+02  0.46271209514E+02 -0.76407410404E+01  0.51522823189E+02  0.47000000000E+01 0.  1.
<mgrwt>
<rscale>  0 0.27484950E+03</rscale>
<asrwt>0</asrwt>
<pdfrwt beam="1">  1        3 0.74634293E-02 0.27484950E+03</pdfrwt>
<pdfrwt beam="2">  1       -3 0.59891444E-01 0.27484950E+03</pdfrwt>
<totfact> 0.83907338E+02</totfact>
</mgrwt>
</event>
<event>
 9    1  0.2095749E-002  0.2754000E+03  0.7818608E-02  0.1098228E+00
         -2   -1    0    0    0  501 -0.00000000000E+00  0.00000000000E+00  0.77342109475E+03  0.77342109475E+03  0.00000000000E+00 0.  1.
          2   -1    0    0  501    0  0.00000000000E+00 -0.00000000000E+00 -0.24516121235E+02  0.24516121235E+02  0.00000000000E+00 0.  1.
         36    2    1    2    0    0  0.71054273576E-14  0.00000000000E+00  0.74890497352E+03  0.79793721599E+03  0.27539996605E+03 0.  0.
         25    2    3    3    0    0  0.17091432850E+02  0.51046578713E+02  0.44153684788E+03  0.46136403950E+03  0.12249130022E+03 0.  0.
         25    2    3    3    0    0 -0.17091432850E+02 -0.51046578713E+02  0.30736812564E+03  0.33657317649E+03  0.12612877625E+03 0.  0.
          5    1    4    4  502    0 -0.42366638290E+02  0.51752123175E+02  0.30638074746E+03  0.31363109971E+03  0.47000000000E+01 0.  1.
         -5    1    4    4    0  502  0.59458071140E+02 -0.70554446168E+00  0.13515610042E+03  0.14773293979E+03  0.47000000000E+01 0.  1.
          5    1    5    5  503    0  0.33221100582E+02 -0.30893268237E+02  0.26140453537E+03  0.26535345609E+03  0.47000000000E+01 0. -1.
         -5    1    5    5    0  503 -0.50312533432E+02 -0.20153310476E+02  0.45963590263E+02  0.71219720397E+02  0.47000000000E+01 0. -1.
<mgrwt>
<rscale>  0 0.27539997E+03</rscale>
<asrwt>0</asrwt>
<pdfrwt beam="1">  1        2 0.37717116E-02 0.27539997E+03</pdfrwt>
<pdfrwt beam="2">  1       -2 0.11898784E+00 0.27539997E+03</pdfrwt>
<totfact> 0.13007354E+03</totfact>
</mgrwt>
</event>
<event>
 9    1  0.2095749E-002  0.2771834E+03  0.7818608E-02  0.1097237E+00
          2   -1    0    0  501    0  0.00000000000E+00  0.00000000000E+00  0.19043761626E+04  0.19043761626E+04  0.00000000000E+00 0.  1.
         -2   -1    0    0    0  501 -0.00000000000E+00 -0.00000000000E+00 -0.10086062543E+02  0.10086062543E+02  0.00000000000E+00 0.  1.
         36    2    1    2    0    0  0.17763568394E-14  0.00000000000E+00  0.18942901000E+04  0.19144622251E+04  0.27718338392E+03 0.  0.
         25    2    3    3    0    0 -0.10860036724E+01  0.39490588114E+02  0.52555508185E+03  0.54046674852E+03  0.11973084915E+03 0.  0.
         25    2    3    3    0    0  0.10860036724E+01 -0.39490588114E+02  0.13687350182E+04  0.13739954766E+04  0.11343427071E+03 0.  0.
          5    1    4    4  502    0  0.27371946879E+01  0.49294612710E+02  0.75913280344E+02  0.90677269531E+02  0.47000000000E+01 0. -1.
         -5    1    4    4    0  502 -0.38231983603E+01 -0.98040245961E+01  0.44964180151E+03  0.44978947898E+03  0.47000000000E+01 0. -1.
          5    1    5    5  503    0  0.40099175432E+02  0.20033978903E+02  0.70497325107E+03  0.70641254158E+03  0.47000000000E+01 0. -1.
         -5    1    5    5    0  503 -0.39013171759E+02 -0.59524567017E+02  0.66376176710E+03  0.66758293501E+03  0.47000000000E+01 0. -1.
<mgrwt>
<rscale>  0 0.27718338E+03</rscale>
<asrwt>0</asrwt>
<pdfrwt beam="1">  1        2 0.29298066E+00 0.27718338E+03</pdfrwt>
<pdfrwt beam="2">  1       -2 0.15517034E-02 0.27718338E+03</pdfrwt>
<totfact> 0.93655902E+03</totfact>
</mgrwt>
</event>
<event>
 9    1  0.2095749E-002  0.2774124E+03  0.7818608E-02  0.1097111E+00
         -2   -1    0    0    0  501 -0.00000000000E+00  0.00000000000E+00  0.18260561766E+02  0.18260561766E+02  0.00000000000E+00 0.  1.
          2   -1    0    0  501    0  0.00000000000E+00 -0.00000000000E+00 -0.10536043204E+04  0.10536043204E+04  0.00000000000E+00 0.  1.
         36    2    1    2    0    0 -0.71054273576E-14  0.71054273576E-14 -0.10353437586E+04  0.10718648821E+04  0.27741237729E+03 0.  0.
         25    2    3    3    0    0  0.40973140521E+01  0.59560884822E+02 -0.48849342223E+03  0.50762488478E+03  0.12447053105E+03 0.  0.
         25    2    3    3    0    0 -0.40973140521E+01 -0.59560884822E+02 -0.54685033637E+03  0.56423999735E+03  0.12552767520E+03 0.  0.
          5    1    4    4  502    0  0.44013974352E+02 -0.18799958454E+02 -0.21454064912E+03  0.21986461402E+03  0.47000000000E+01 0.  1.
         -5    1    4    4    0  502 -0.39916660300E+02  0.78360843276E+02 -0.27395277311E+03  0.28776027075E+03  0.47000000000E+01 0.  1.
          5    1    5    5  503    0 -0.45967997792E+02 -0.37149500701E+02 -0.47036675167E+03  0.47408871881E+03  0.47000000000E+01 0.  1.
         -5    1    5    5    0  503  0.41870683740E+02 -0.22411384122E+02 -0.76483584701E+02  0.90151278548E+02  0.47000000000E+01 0.  1.
<mgrwt>
<rscale>  0 0.27741238E+03</rscale>
<asrwt>0</asrwt>
<pdfrwt beam="1">  1        2 0.16209297E+00 0.27741238E+03</pdfrwt>
<pdfrwt beam="2">  1       -2 0.28093172E-02 0.27741238E+03</pdfrwt>
<totfact> 0.11355989E+04</totfact>
</mgrwt>
</event>
<event>
 9    1  0.2095749E-002  0.2775905E+03  0.7818608E-02  0.1097012E+00
          1   -1    0    0  501    0  0.00000000000E+00  0.00000000000E+00  0.23382360386E+04  0.23382360386E+04  0.00000000000E+00 0. -1.
         -1   -1    0    0    0  501 -0.00000000000E+00 -0.00000000000E+00 -0.82387405987E+01  0.82387405987E+01  0.00000000000E+00 0. -1.
         36    2    1    2    0    0  0.14210854715E-13  0.00000000000E+00  0.23299972980E+04  0.23464747792E+04  0.27759049105E+03 0.  0.
         25    2    3    3    0    0 -0.63150444976E+02  0.91839798360E+01  0.11499438461E+04  0.11580198677E+04  0.12069316769E+03 0.  0.
         25    2    3    3    0    0  0.63150444976E+02 -0.91839798360E+01  0.11800534520E+04  0.11884549115E+04  0.12580382754E+03 0.  0.
          5    1    4    4  502    0  0.65653252509E+01 -0.36061746177E+02  0.66164734953E+03  0.66267854814E+03  0.47000000000E+01 0. -1.
         -5    1    4    4    0  502 -0.69715770227E+02  0.45245726012E+02  0.48829649653E+03  0.49534131956E+03  0.47000000000E+01 0. -1.
          5    1    5    5  503    0  0.66217116919E+02 -0.45922802588E+02  0.43186141385E+03  0.43934039325E+03  0.47000000000E+01 0. -1.
         -5    1    5    5    0  503 -0.30666719427E+01  0.36738822752E+02  0.74819203812E+03  0.74911451827E+03  0.47000000000E+01 0. -1.
<mgrwt>
<rscale>  0 0.27759049E+03</rscale>
<asrwt>0</asrwt>
<pdfrwt beam="1">  1        1 0.35972809E+00 0.27759049E+03</pdfrwt>
<pdfrwt beam="2">  1       -1 0.12675004E-02 0.27759049E+03</pdfrwt>
<totfact> 0.27054114E+03</totfact>
</mgrwt>
</event>
<event>
 9    1  0.2095749E-002  0.2759105E+03  0.7818608E-02  0.1097944E+00
         -1   -1    0    0    0  501 -0.00000000000E+00  0.00000000000E+00  0.24124940749E+02  0.24124940749E+02  0.00000000000E+00 0.  1.
          1   -1    0    0  501    0  0.00000000000E+00 -0.00000000000E+00 -0.78887868406E+03  0.78887868406E+03  0.00000000000E+00 0.  1.
         36    2    1    2    0    0 -0.71054273576E-14 -0.71054273576E-14 -0.76475374331E+03  0.81300362481E+03  0.27591050369E+03 0.  0.
         25    2    3    3    0    0  0.32365264463E+02  0.24238286576E+02 -0.50798336883E+03  0.52443546113E+03  0.12389691280E+03 0.  0.
         25    2    3    3    0    0 -0.32365264463E+02 -0.24238286576E+02 -0.25677037448E+03  0.28856816368E+03  0.12532180576E+03 0.  0.
          5    1    4    4  502    0  0.39960448803E+02  0.71478918743E+02 -0.30515811491E+03  0.31598993399E+03  0.47000000000E+01 0.  1.
         -5    1    4    4    0  502 -0.75951843402E+01 -0.47240632167E+02 -0.20282525393E+03  0.20844552714E+03  0.47000000000E+01 0.  1.
          5    1    5    5  503    0 -0.33851253191E+02  0.41699734490E+02 -0.58467126620E+02  0.79531566653E+02  0.47000000000E+01 0. -1.
         -5    1    5    5    0  503  0.14859887283E+01 -0.65938021066E+02 -0.19830324786E+03  0.20903659702E+03  0.47000000000E+01 0. -1.
<mgrwt>
<rscale>  0 0.27591050E+03</rscale>
<asrwt>0</asrwt>
<pdfrwt beam="1">  1        1 0.12136596E+00 0.27591050E+03</pdfrwt>
<pdfrwt beam="2">  1       -1 0.37115291E-02 0.27591050E+03</pdfrwt>
<totfact> 0.64624728E+03</totfact>
</mgrwt>
</event>
<event>
 9    1  0.2095749E-002  0.2744196E+03  0.7818608E-02  0.1098776E+00
         -1   -1    0    0    0  501 -0.00000000000E+00  0.00000000000E+00  0.51219652239E+03  0.51219652239E+03  0.00000000000E+00 0.  1.
          1   -1    0    0  501    0  0.00000000000E+00 -0.00000000000E+00 -0.36756450151E+02  0.36756450151E+02  0.00000000000E+00 0.  1.
         36    2    1    2    0    0 -0.35527136788E-14  0.00000000000E+00  0.47544007224E+03  0.54895297254E+03  0.27441957614E+03 0.  0.
         25    2    3    3    0    0  0.30531828149E+02 -0.70793264314E+01  0.14659871022E+03  0.19618629826E+03  0.12655264673E+03 0.  0.
         25    2    3    3    0    0 -0.30531828149E+02  0.70793264314E+01  0.32884136202E+03  0.35276667428E+03  0.12379570152E+03 0.  0.
          5    1    4    4  502    0  0.51544293641E+01  0.59011803656E+02  0.67302333937E+02  0.89781152065E+02  0.47000000000E+01 0.  1.
         -5    1    4    4    0  502  0.25377398785E+02 -0.66091130087E+02  0.79296376279E+02  0.10640514619E+03  0.47000000000E+01 0.  1.
          5    1    5    5  503    0 -0.30375618765E+02  0.63779050978E+02  0.18037471699E+03  0.19377196414E+03  0.47000000000E+01 0. -1.
         -5    1    5    5    0  503 -0.15620938466E+00 -0.56699724546E+02  0.14846664503E+03  0.15899471014E+03  0.47000000000E+01 0. -1.
<mgrwt>
<rscale>  0 0.27441958E+03</rscale>
<asrwt>0</asrwt>
<pdfrwt beam="1">  1        1 0.56548388E-02 0.27441958E+03</pdfrwt>
<pdfrwt beam="2">  1       -1 0.78799460E-01 0.27441958E+03</pdfrwt>
<totfact> 0.23566751E+03</totfact>
</mgrwt>
</event>
<event>
 9    1  0.2095749E-002  0.2740243E+03  0.7818608E-02  0.1098998E+00
         -1   -1    0    0    0  501 -0.00000000000E+00  0.00000000000E+00  0.60757842372E+02  0.60757842372E+02  0.00000000000E+00 0.  1.
          1   -1    0    0  501    0  0.00000000000E+00 -0.00000000000E+00 -0.30896968809E+03  0.30896968809E+03  0.00000000000E+00 0.  1.
         36    2    1    2    0    0  0.71054273576E-14 -0.71054273576E-14 -0.24821184572E+03  0.36972753046E+03  0.27402431722E+03 0.  0.
         25    2    3    3    0    0  0.52299828149E+02  0.22406043502E+02 -0.14926239006E+03  0.20034233562E+03  0.12091520808E+03 0.  0.
         25    2    3    3    0    0 -0.52299828149E+02 -0.22406043502E+02 -0.98949455653E+02  0.16938519484E+03  0.12515209406E+03 0.  0.
          5    1    4    4  502    0 -0.93302078621E+01 -0.42627486534E+02 -0.50817627401E+02  0.67146680050E+02  0.47000000000E+01 0.  1.
         -5    1    4    4    0  502  0.61630036011E+02  0.65033530036E+02 -0.98444762662E+02  0.13319565557E+03  0.47000000000E+01 0.  1.
          5    1    5    5  503    0  0.24110467552E+02  0.32222972409E+02 -0.14646364215E+02  0.43084110542E+02  0.47000000000E+01 0.  1.
         -5    1    5    5    0  503 -0.76410295701E+02 -0.54629015911E+02 -0.84303091438E+02  0.12630108430E+03  0.47000000000E+01 0.  1.
<mgrwt>
<rscale>  0 0.27402432E+03</rscale>
<asrwt>0</asrwt>
<pdfrwt beam="1">  1        1 0.47533797E-01 0.27402432E+03</pdfrwt>
<pdfrwt beam="2">  1       -1 0.93473606E-02 0.27402432E+03</pdfrwt>
<totfact> 0.56747979E+03</totfact>
</mgrwt>
</event>
<event>
 9    1  0.2095749E-002  0.2729185E+03  0.7818608E-02  0.1099621E+00
          2   -1    0    0  501    0  0.00000000000E+00  0.00000000000E+00  0.76218082645E+03  0.76218082645E+03  0.00000000000E+00 0. -1.
         -2   -1    0    0    0  501 -0.00000000000E+00 -0.00000000000E+00 -0.24431382873E+02  0.24431382873E+02  0.00000000000E+00 0. -1.
         36    2    1    2    0    0  0.00000000000E+00 -0.71054273576E-14  0.73774944358E+03  0.78661220933E+03  0.27291853429E+03 0.  0.
         25    2    3    3    0    0 -0.46576472931E+02  0.24458546586E+02  0.45253435172E+03  0.47203978906E+03  0.12355822367E+03 0.  0.
         25    2    3    3    0    0  0.46576472931E+02 -0.24458546586E+02  0.28521509186E+03  0.31457242026E+03  0.12182188078E+03 0.  0.
          5    1    4    4  502    0 -0.83203588642E+02  0.36752776767E+02  0.25680708600E+03  0.27248040880E+03  0.47000000000E+01 0.  1.
         -5    1    4    4    0  502  0.36627115710E+02 -0.12294230181E+02  0.19572726572E+03  0.19955938026E+03  0.47000000000E+01 0.  1.
          5    1    5    5  503    0  0.23755005868E+02 -0.54816668100E+02  0.55460431372E+02  0.81652414865E+02  0.47000000000E+01 0. -1.
         -5    1    5    5    0  503  0.22821467063E+02  0.30358121514E+02  0.22975466049E+03  0.23292000540E+03  0.47000000000E+01 0. -1.
<mgrwt>
<rscale>  0 0.27291853E+03</rscale>
<asrwt>0</asrwt>
<pdfrwt beam="1">  1        2 0.11725857E+00 0.27291853E+03</pdfrwt>
<pdfrwt beam="2">  1       -2 0.37586749E-02 0.27291853E+03</pdfrwt>
<totfact> 0.11345931E+04</totfact>
</mgrwt>
</event>
<event>
 9    1  0.2095749E-002  0.2782682E+03  0.7818608E-02  0.1096639E+00
         -2   -1    0    0    0  501 -0.00000000000E+00  0.00000000000E+00  0.12903677703E+03  0.12903677703E+03  0.00000000000E+00 0. -1.
          2   -1    0    0  501    0  0.00000000000E+00 -0.00000000000E+00 -0.15002160304E+03  0.15002160304E+03  0.00000000000E+00 0. -1.
         36    2    1    2    0    0 -0.53290705182E-14 -0.71054273576E-14 -0.20984826011E+02  0.27905838007E+03  0.27826824570E+03 0.  0.
         25    2    3    3    0    0 -0.84297597665E+01  0.22027448925E+02 -0.65106689210E+02  0.14346294506E+03  0.12564420507E+03 0.  0.
         25    2    3    3    0    0  0.84297597665E+01 -0.22027448925E+02  0.44121863199E+02  0.13559543501E+03  0.12602822631E+03 0.  0.
          5    1    4    4  502    0  0.15517467801E+01 -0.32506347398E+02  0.22385762317E+02  0.39777919676E+02  0.47000000000E+01 0.  1.
         -5    1    4    4    0  502 -0.99815065465E+01  0.54533796323E+02 -0.87492451526E+02  0.10368502538E+03  0.47000000000E+01 0.  1.
          5    1    5    5  503    0  0.47157531841E+02  0.34241451260E+02  0.10832973711E+02  0.59462199027E+02  0.47000000000E+01 0.  1.
         -5    1    5    5    0  503 -0.38727772075E+02 -0.56268900185E+02  0.33288889488E+02  0.76133235983E+02  0.47000000000E+01 0.  1.
<mgrwt>
<rscale>  0 0.27826825E+03</rscale>
<asrwt>0</asrwt>
<pdfrwt beam="1">  1        2 0.23080246E-01 0.27826825E+03</pdfrwt>
<pdfrwt beam="2">  1       -2 0.19851812E-01 0.27826825E+03</pdfrwt>
<totfact> 0.49837991E+03</totfact>
</mgrwt>
</event>
<event>
 9    1  0.2095749E-002  0.2729673E+03  0.7818608E-02  0.1099593E+00
          2   -1    0    0  501    0  0.00000000000E+00  0.00000000000E+00  0.86515649327E+03  0.86515649327E+03  0.00000000000E+00 0. -1.
         -2   -1    0    0    0  501 -0.00000000000E+00 -0.00000000000E+00 -0.21531118042E+02  0.21531118042E+02  0.00000000000E+00 0. -1.
         36    2    1    2    0    0  0.35527136788E-14  0.00000000000E+00  0.84362537523E+03  0.88668761131E+03  0.27296729900E+03 0.  0.
         25    2    3    3    0    0  0.27654097877E+02 -0.35728228859E+02  0.52470797911E+03  0.54246591135E+03  0.13003671086E+03 0.  0.
         25    2    3    3    0    0 -0.27654097877E+02  0.35728228859E+02  0.31891739612E+03  0.34422169996E+03  0.12140435622E+03 0.  0.
          5    1    4    4  502    0  0.55389306708E+02  0.10261760355E+02  0.10445926883E+03  0.11877334662E+03  0.47000000000E+01 0. -1.
         -5    1    4    4    0  502 -0.27735208831E+02 -0.45989989214E+02  0.42024871028E+03  0.42369256473E+03  0.47000000000E+01 0. -1.
          5    1    5    5  503    0  0.18774336315E+02  0.32764561519E+02  0.22644526602E+02  0.44281562536E+02  0.47000000000E+01 0.  1.
         -5    1    5    5    0  503 -0.46428434193E+02  0.29636673400E+01  0.29627286952E+03  0.29994013742E+03  0.47000000000E+01 0.  1.
<mgrwt>
<rscale>  0 0.27296730E+03</rscale>
<asrwt>0</asrwt>
<pdfrwt beam="1">  1        2 0.13310097E+00 0.27296730E+03</pdfrwt>
<pdfrwt beam="2">  1       -2 0.33124804E-02 0.27296730E+03</pdfrwt>
<totfact> 0.11654354E+04</totfact>
</mgrwt>
</event>
<event>
 9    1  0.2095749E-002  0.2710783E+03  0.7818608E-02  0.1100664E+00
         -1   -1    0    0    0  501 -0.00000000000E+00  0.00000000000E+00  0.29740844860E+02  0.29740844860E+02  0.00000000000E+00 0.  1.
          1   -1    0    0  501    0  0.00000000000E+00 -0.00000000000E+00 -0.61769788659E+03  0.61769788659E+03  0.00000000000E+00 0.  1.
         36    2    1    2    0    0 -0.71054273576E-14 -0.71054273576E-14 -0.58795704173E+03  0.64743873145E+03  0.27107826925E+03 0.  0.
         25    2    3    3    0    0 -0.38644763279E+02 -0.42064383382E+02 -0.31957162080E+03  0.34584483057E+03  0.11924678583E+03 0.  0.
         25    2    3    3    0    0  0.38644763279E+02  0.42064383382E+02 -0.26838542092E+03  0.30159390087E+03  0.12516116331E+03 0.  0.
          5    1    4    4  502    0  0.16582044213E+02  0.26656972519E+02 -0.16331176844E+03  0.16636821236E+03  0.47000000000E+01 0.  1.
         -5    1    4    4    0  502 -0.55226807491E+02 -0.68721355901E+02 -0.15625985236E+03  0.17947661821E+03  0.47000000000E+01 0.  1.
          5    1    5    5  503    0  0.35315610150E+02  0.85727155473E+02 -0.19577890825E+03  0.21667442955E+03  0.47000000000E+01 0. -1.
         -5    1    5    5    0  503  0.33291531285E+01 -0.43662772091E+02 -0.72606512672E+02  0.84919471322E+02  0.47000000000E+01 0. -1.
<mgrwt>
<rscale>  0 0.27107827E+03</rscale>
<asrwt>0</asrwt>
<pdfrwt beam="1">  1        1 0.95030443E-01 0.27107827E+03</pdfrwt>
<pdfrwt beam="2">  1       -1 0.45755147E-02 0.27107827E+03</pdfrwt>
<totfact> 0.67613320E+03</totfact>
</mgrwt>
</event>
<event>
 9    1  0.2095749E-002  0.2750013E+03  0.7818608E-02  0.1098451E+00
         -2   -1    0    0    0  501 -0.00000000000E+00  0.00000000000E+00  0.18647439135E+02  0.18647439135E+02  0.00000000000E+00 0. -1.
          2   -1    0    0  501    0  0.00000000000E+00 -0.00000000000E+00 -0.10138888945E+04  0.10138888945E+04  0.00000000000E+00 0. -1.
         36    2    1    2    0    0  0.00000000000E+00 -0.71054273576E-14 -0.99524145536E+03  0.10325363336E+04  0.27500131963E+03 0.  0.
         25    2    3    3    0    0 -0.26788517837E+02  0.37239717968E+02 -0.42790066656E+03  0.44977214322E+03  0.13073476618E+03 0.  0.
         25    2    3    3    0    0  0.26788517837E+02 -0.37239717968E+02 -0.56734078880E+03  0.58276419042E+03  0.12503643354E+03 0.  0.
          5    1    4    4  502    0  0.47310325467E+02 -0.79366990814E+01 -0.10785936891E+03  0.11813971199E+03  0.47000000000E+01 0. -1.
         -5    1    4    4    0  502 -0.74098843304E+02  0.45176417050E+02 -0.32004129765E+03  0.33163243122E+03  0.47000000000E+01 0. -1.
          5    1    5    5  503    0  0.39515770591E+02  0.38965134276E+02 -0.22698663600E+03  0.23371949157E+03  0.47000000000E+01 0.  1.
         -5    1    5    5    0  503 -0.12727252754E+02 -0.76204852244E+02 -0.34035415280E+03  0.34904469885E+03  0.47000000000E+01 0.  1.
<mgrwt>
<rscale>  0 0.27500132E+03</rscale>
<asrwt>0</asrwt>
<pdfrwt beam="1">  1        2 0.15598291E+00 0.27500132E+03</pdfrwt>
<pdfrwt beam="2">  1       -2 0.28688368E-02 0.27500132E+03</pdfrwt>
<totfact> 0.11629129E+04</totfact>
</mgrwt>
</event>
<event>
 9    1  0.2095749E-002  0.2753088E+03  0.7818608E-02  0.1098279E+00
          2   -1    0    0  501    0  0.00000000000E+00  0.00000000000E+00  0.38434502256E+03  0.38434502256E+03  0.00000000000E+00 0. -1.
         -2   -1    0    0    0  501 -0.00000000000E+00 -0.00000000000E+00 -0.49301359939E+02  0.49301359939E+02  0.00000000000E+00 0. -1.
         36    2    1    2    0    0  0.71054273576E-14  0.17763568394E-14  0.33504366262E+03  0.43364638250E+03  0.27530878880E+03 0.  0.
         25    2    3    3    0    0 -0.21225711844E+02  0.14045962420E+02  0.94770565572E+02  0.15978153733E+03  0.12609861089E+03 0.  0.
         25    2    3    3    0    0  0.21225711844E+02 -0.14045962420E+02  0.24027309705E+03  0.27386484517E+03  0.12893010645E+03 0.  0.
          5    1    4    4  502    0 -0.48374752519E+02  0.15800279699E+02  0.11480720836E+03  0.12566841533E+03  0.47000000000E+01 0.  1.
         -5    1    4    4    0  502  0.27149040674E+02 -0.17543172786E+01 -0.20036642786E+02  0.34113122003E+02  0.47000000000E+01 0.  1.
          5    1    5    5  503    0  0.67482246927E+02 -0.21830852059E+02  0.19862514005E+03  0.21096083999E+03  0.47000000000E+01 0. -1.
         -5    1    5    5    0  503 -0.46256535083E+02  0.77848896384E+01  0.41647956998E+02  0.62904005172E+02  0.47000000000E+01 0. -1.
<mgrwt>
<rscale>  0 0.27530879E+03</rscale>
<asrwt>0</asrwt>
<pdfrwt beam="1">  1        2 0.59130002E-01 0.27530879E+03</pdfrwt>
<pdfrwt beam="2">  1       -2 0.75848248E-02 0.27530879E+03</pdfrwt>
<totfact> 0.85171087E+03</totfact>
</mgrwt>
</event>
<event>
 9    1  0.2095749E-002  0.2753191E+03  0.7818608E-02  0.1098273E+00
          1   -1    0    0  501    0  0.00000000000E+00  0.00000000000E+00  0.38870969810E+03  0.38870969810E+03  0.00000000000E+00 0. -1.
         -1   -1    0    0    0  501 -0.00000000000E+00 -0.00000000000E+00 -0.48751431901E+02  0.48751431901E+02  0.00000000000E+00 0. -1.
         36    2    1    2    0    0  0.00000000000E+00  0.00000000000E+00  0.33995826620E+03  0.43746113000E+03  0.27531911939E+03 0.  0.
         25    2    3    3    0    0 -0.97396476122E+01 -0.46346310689E+02  0.23826351290E+03  0.27342122278E+03  0.12548634282E+03 0.  0.
         25    2    3    3    0    0  0.97396476122E+01  0.46346310689E+02  0.10169475329E+03  0.16403990722E+03  0.11968469854E+03 0.  0.
          5    1    4    4  502    0 -0.37306379965E+02 -0.63792596284E+02  0.69792734005E+02  0.10175645948E+03  0.47000000000E+01 0. -1.
         -5    1    4    4    0  502  0.27566732353E+02  0.17446285595E+02  0.16847077890E+03  0.17166476329E+03  0.47000000000E+01 0. -1.
          5    1    5    5  503    0  0.24886699610E+01  0.35406597480E+02  0.12873306596E+03  0.13361928340E+03  0.47000000000E+01 0.  1.
         -5    1    5    5    0  503  0.72509776512E+01  0.10939713209E+02 -0.27038312669E+02  0.30420623826E+02  0.47000000000E+01 0.  1.
<mgrwt>
<rscale>  0 0.27531912E+03</rscale>
<asrwt>0</asrwt>
<pdfrwt beam="1">  1        1 0.59801490E-01 0.27531912E+03</pdfrwt>
<pdfrwt beam="2">  1       -1 0.75002205E-02 0.27531912E+03</pdfrwt>
<totfact> 0.59428361E+03</totfact>
</mgrwt>
</event>
<event>
 9    1  0.2095749E-002  0.2748280E+03  0.7818608E-02  0.1098548E+00
          1   -1    0    0  501    0  0.00000000000E+00  0.00000000000E+00  0.13557128552E+03  0.13557128552E+03  0.00000000000E+00 0. -1.
         -1   -1    0    0    0  501 -0.00000000000E+00 -0.00000000000E+00 -0.13928172615E+03  0.13928172615E+03  0.00000000000E+00 0. -1.
         36    2    1    2    0    0 -0.14210854715E-13  0.00000000000E+00 -0.37104406324E+01  0.27485301167E+03  0.27482796556E+03 0.  0.
         25    2    3    3    0    0  0.51203427768E+02  0.17001607898E+02 -0.18907073389E+02  0.14047492629E+03  0.12831555559E+03 0.  0.
         25    2    3    3    0    0 -0.51203427768E+02 -0.17001607898E+02  0.15196632756E+02  0.13437808538E+03  0.12212979365E+03 0.  0.
          5    1    4    4  502    0  0.37855027511E+02  0.12135737976E+02  0.53342528649E+02  0.66691788150E+02  0.47000000000E+01 0. -1.
         -5    1    4    4    0  502  0.13348400258E+02  0.48658699219E+01 -0.72249602037E+02  0.73783138142E+02  0.47000000000E+01 0. -1.
          5    1    5    5  503    0 -0.64123529290E+02  0.37559200459E+02  0.22142556786E+02  0.77684640495E+02  0.47000000000E+01 0. -1.
         -5    1    5    5    0  503  0.12920101522E+02 -0.54560808357E+02 -0.69459240302E+01  0.56693444882E+02  0.47000000000E+01 0. -1.
<mgrwt>
<rscale>  0 0.27482797E+03</rscale>
<asrwt>0</asrwt>
<pdfrwt beam="1">  1        1 0.20857121E-01 0.27482797E+03</pdfrwt>
<pdfrwt beam="2">  1       -1 0.21427958E-01 0.27482797E+03</pdfrwt>
<totfact> 0.43249584E+03</totfact>
</mgrwt>
</event>
<event>
 9    1  0.2095749E-002  0.2830721E+03  0.7818608E-02  0.1094023E+00
         -2   -1    0    0    0  501 -0.00000000000E+00  0.00000000000E+00  0.28542016943E+02  0.28542016943E+02  0.00000000000E+00 0. -1.
          2   -1    0    0  501    0  0.00000000000E+00 -0.00000000000E+00 -0.70185820447E+03  0.70185820447E+03  0.00000000000E+00 0. -1.
         36    2    1    2    0    0  0.35527136788E-14  0.00000000000E+00 -0.67331618753E+03  0.73040022141E+03  0.28307206689E+03 0.  0.
         25    2    3    3    0    0  0.38474799544E+01 -0.73713385357E+01 -0.49451722449E+03  0.51084905162E+03  0.12786840299E+03 0.  0.
         25    2    3    3    0    0 -0.38474799544E+01  0.73713385357E+01 -0.17879896303E+03  0.21955116980E+03  0.12713971545E+03 0.  0.
          5    1    4    4  502    0  0.55319402357E+02  0.31098862501E+02 -0.25426466267E+03  0.26210681832E+03  0.47000000000E+01 0.  1.
         -5    1    4    4    0  502 -0.51471922403E+02 -0.38470201037E+02 -0.24025256182E+03  0.24874223330E+03  0.47000000000E+01 0.  1.
          5    1    5    5  503    0  0.23823854462E+02  0.48465681522E+02 -0.15535418742E+03  0.16454030471E+03  0.47000000000E+01 0. -1.
         -5    1    5    5    0  503 -0.27671334416E+02 -0.41094342986E+02 -0.23444775618E+02  0.55010865087E+02  0.47000000000E+01 0. -1.
<mgrwt>
<rscale>  0 0.28307207E+03</rscale>
<asrwt>0</asrwt>
<pdfrwt beam="1">  1        2 0.10797817E+00 0.28307207E+03</pdfrwt>
<pdfrwt beam="2">  1       -2 0.43910801E-02 0.28307207E+03</pdfrwt>
<totfact> 0.99500362E+03</totfact>
</mgrwt>
</event>
<event>
 9    1  0.2095749E-002  0.2753278E+03  0.7818608E-02  0.1098268E+00
         -1   -1    0    0    0  501 -0.00000000000E+00  0.00000000000E+00  0.47891312027E+03  0.47891312027E+03  0.00000000000E+00 0.  1.
          1   -1    0    0  501    0  0.00000000000E+00 -0.00000000000E+00 -0.39571584875E+02  0.39571584875E+02  0.00000000000E+00 0.  1.
         36    2    1    2    0    0 -0.35527136788E-14  0.00000000000E+00  0.43934153540E+03  0.51848470515E+03  0.27532781325E+03 0.  0.
         25    2    3    3    0    0  0.21427093135E+02 -0.71812093607E+01  0.11333196512E+03  0.16801597913E+03  0.12196124318E+03 0.  0.
         25    2    3    3    0    0 -0.21427093135E+02  0.71812093607E+01  0.32600957027E+03  0.35046872601E+03  0.12663095164E+03 0.  0.
          5    1    4    4  502    0  0.57309591601E+02  0.26779360514E+02  0.96751519535E+02  0.11569127007E+03  0.47000000000E+01 0. -1.
         -5    1    4    4    0  502 -0.35882498466E+02 -0.33960569874E+02  0.16580445587E+02  0.52324709060E+02  0.47000000000E+01 0. -1.
          5    1    5    5  503    0  0.40779228715E+01  0.26753582741E+02  0.31495207962E+03  0.31614757013E+03  0.47000000000E+01 0. -1.
         -5    1    5    5    0  503 -0.25505016007E+02 -0.19572373380E+02  0.11057490653E+02  0.34321155878E+02  0.47000000000E+01 0. -1.
<mgrwt>
<rscale>  0 0.27532781E+03</rscale>
<asrwt>0</asrwt>
<pdfrwt beam="1">  1        1 0.60879365E-02 0.27532781E+03</pdfrwt>
<pdfrwt beam="2">  1       -1 0.73678938E-01 0.27532781E+03</pdfrwt>
<totfact> 0.24425380E+03</totfact>
</mgrwt>
</event>
<event>
 9    1  0.2095749E-002  0.2747599E+03  0.7818608E-02  0.1098586E+00
         -2   -1    0    0    0  501 -0.00000000000E+00  0.00000000000E+00  0.54543143497E+01  0.54543143497E+01  0.00000000000E+00 0.  1.
          2   -1    0    0  501    0  0.00000000000E+00 -0.00000000000E+00 -0.34602423378E+04  0.34602423378E+04  0.00000000000E+00 0.  1.
         36    2    1    2    0    0  0.71054273576E-14  0.00000000000E+00 -0.34547880235E+04  0.34656966522E+04  0.27475989108E+03 0.  0.
         25    2    3    3    0    0 -0.33333731126E+02 -0.28144178269E+02 -0.12573359488E+04  0.12641722102E+04  0.12383237288E+03 0.  0.
         25    2    3    3    0    0  0.33333731126E+02  0.28144178269E+02 -0.21974520747E+04  0.22015244420E+04  0.12653464183E+03 0.  0.
          5    1    4    4  502    0 -0.32423692094E+01 -0.75103878223E+02 -0.71977698206E+03  0.72370719175E+03  0.47000000000E+01 0.  1.
         -5    1    4    4    0  502 -0.30091361917E+02  0.46959699954E+02 -0.53755896670E+03  0.54046501844E+03  0.47000000000E+01 0.  1.
          5    1    5    5  503    0 -0.24211369102E+02  0.52111593613E+02 -0.57847313238E+03  0.58133902628E+03  0.47000000000E+01 0. -1.
         -5    1    5    5    0  503  0.57545100228E+02 -0.23967415344E+02 -0.16189789423E+04  0.16201854157E+04  0.47000000000E+01 0. -1.
<mgrwt>
<rscale>  0 0.27475989E+03</rscale>
<asrwt>0</asrwt>
<pdfrwt beam="1">  1        2 0.53234458E+00 0.27475989E+03</pdfrwt>
<pdfrwt beam="2">  1       -2 0.83912591E-03 0.27475989E+03</pdfrwt>
<totfact> 0.29628204E+03</totfact>
</mgrwt>
</event>
<event>
 9    1  0.2095749E-002  0.2758147E+03  0.7818608E-02  0.1097997E+00
          1   -1    0    0  501    0  0.00000000000E+00  0.00000000000E+00  0.36666330639E+03  0.36666330639E+03  0.00000000000E+00 0. -1.
         -1   -1    0    0    0  501 -0.00000000000E+00 -0.00000000000E+00 -0.51868947067E+02  0.51868947067E+02  0.00000000000E+00 0. -1.
         36    2    1    2    0    0 -0.35527136788E-14  0.00000000000E+00  0.31479435933E+03  0.41853225346E+03  0.27581471774E+03 0.  0.
         25    2    3    3    0    0 -0.36646127973E+01  0.56482297745E+02  0.18545982798E+03  0.22958687267E+03  0.12292723441E+03 0.  0.
         25    2    3    3    0    0  0.36646127973E+01 -0.56482297745E+02  0.12933453134E+03  0.18894538079E+03  0.12557570060E+03 0.  0.
          5    1    4    4  502    0  0.13825955243E+02  0.93202873653E+02  0.12648895610E+03  0.15779568661E+03  0.47000000000E+01 0.  1.
         -5    1    4    4    0  502 -0.17490568040E+02 -0.36720575907E+02  0.58970871880E+02  0.71791186058E+02  0.47000000000E+01 0.  1.
          5    1    5    5  503    0 -0.39607505769E+02  0.33145014650E+01  0.10288811938E+03  0.11039834936E+03  0.47000000000E+01 0. -1.
         -5    1    5    5    0  503  0.43272118566E+02 -0.59796799210E+02  0.26446411965E+02  0.78547031432E+02  0.47000000000E+01 0. -1.
<mgrwt>
<rscale>  0 0.27581472E+03</rscale>
<asrwt>0</asrwt>
<pdfrwt beam="1">  1        1 0.56409738E-01 0.27581472E+03</pdfrwt>
<pdfrwt beam="2">  1       -1 0.79798383E-02 0.27581472E+03</pdfrwt>
<totfact> 0.58251456E+03</totfact>
</mgrwt>
</event>
<event>
 9    1  0.2095749E-002  0.2743501E+03  0.7818608E-02  0.1098815E+00
         -2   -1    0    0    0  501 -0.00000000000E+00  0.00000000000E+00  0.16204469195E+02  0.16204469195E+02  0.00000000000E+00 0. -1.
          2   -1    0    0  501    0  0.00000000000E+00 -0.00000000000E+00 -0.11612227296E+04  0.11612227296E+04  0.00000000000E+00 0. -1.
         36    2    1    2    0    0  0.00000000000E+00  0.00000000000E+00 -0.11450182604E+04  0.11774271988E+04  0.27435012630E+03 0.  0.
         25    2    3    3    0    0  0.48558883839E+02  0.10269733281E+02 -0.54348307443E+03  0.56121267107E+03  0.13085250228E+03 0.  0.
         25    2    3    3    0    0 -0.48558883839E+02 -0.10269733281E+02 -0.60153518598E+03  0.61621452773E+03  0.12414641193E+03 0.  0.
          5    1    4    4  502    0 -0.44391090781E+02 -0.20614517104E+01 -0.14035426502E+03  0.14729639585E+03  0.47000000000E+01 0. -1.
         -5    1    4    4    0  502  0.92949974619E+02  0.12331184991E+02 -0.40312880942E+03  0.41391627522E+03  0.47000000000E+01 0. -1.
          5    1    5    5  503    0 -0.54080981328E+02  0.81162868559E+01 -0.59151334703E+03  0.59405450623E+03  0.47000000000E+01 0. -1.
         -5    1    5    5    0  503  0.55220974891E+01 -0.18386020136E+02 -0.10021838946E+02  0.22160021503E+02  0.47000000000E+01 0. -1.
<mgrwt>
<rscale>  0 0.27435013E+03</rscale>
<asrwt>0</asrwt>
<pdfrwt beam="1">  1        2 0.17864965E+00 0.27435013E+03</pdfrwt>
<pdfrwt beam="2">  1       -2 0.24929953E-02 0.27435013E+03</pdfrwt>
<totfact> 0.11719649E+04</totfact>
</mgrwt>
</event>
<event>
 9    1  0.2095749E-002  0.2751679E+03  0.7818608E-02  0.1098358E+00
          1   -1    0    0  501    0  0.00000000000E+00  0.00000000000E+00  0.44129041155E+03  0.44129041155E+03  0.00000000000E+00 0.  1.
         -1   -1    0    0    0  501 -0.00000000000E+00 -0.00000000000E+00 -0.42895436477E+02  0.42895436477E+02  0.00000000000E+00 0.  1.
         36    2    1    2    0    0  0.71054273576E-14  0.00000000000E+00  0.39839497507E+03  0.48418584802E+03  0.27516791104E+03 0.  0.
         25    2    3    3    0    0 -0.34087086004E+02 -0.49304640778E+02  0.19622385279E+03  0.24066408807E+03  0.12578762201E+03 0.  0.
         25    2    3    3    0    0  0.34087086004E+02  0.49304640778E+02  0.20217112228E+03  0.24352175995E+03  0.12180643600E+03 0.  0.
          5    1    4    4  502    0 -0.54897802093E+02 -0.17293627699E+02  0.21286749748E+02  0.61547168485E+02  0.47000000000E+01 0.  1.
         -5    1    4    4    0  502  0.20810716089E+02 -0.32011013079E+02  0.17493710304E+03  0.17911691959E+03  0.47000000000E+01 0.  1.
          5    1    5    5  503    0  0.78668611110E+02  0.35768670429E+02  0.15185789988E+03  0.17478861494E+03  0.47000000000E+01 0.  1.
         -5    1    5    5    0  503 -0.44581525106E+02  0.13535970349E+02  0.50313222403E+02  0.68733145008E+02  0.47000000000E+01 0.  1.
<mgrwt>
<rscale>  0 0.27516791E+03</rscale>
<asrwt>0</asrwt>
<pdfrwt beam="1">  1        1 0.67890829E-01 0.27516791E+03</pdfrwt>
<pdfrwt beam="2">  1       -1 0.65992982E-02 0.27516791E+03</pdfrwt>
<totfact> 0.61288641E+03</totfact>
</mgrwt>
</event>
<event>
 9    1  0.2095749E-002  0.2751188E+03  0.7818608E-02  0.1098385E+00
          1   -1    0    0  501    0  0.00000000000E+00  0.00000000000E+00  0.12258805367E+04  0.12258805367E+04  0.00000000000E+00 0.  1.
         -1   -1    0    0    0  501 -0.00000000000E+00 -0.00000000000E+00 -0.15435916096E+02  0.15435916096E+02  0.00000000000E+00 0.  1.
         36    2    1    2    0    0 -0.88817841970E-15  0.00000000000E+00  0.12104446207E+04  0.12413164528E+04  0.27511880422E+03 0.  0.
         25    2    3    3    0    0  0.67381013721E+01 -0.53693097778E+02  0.50921173663E+03  0.52721852263E+03  0.12543694480E+03 0.  0.
         25    2    3    3    0    0 -0.67381013721E+01  0.53693097778E+02  0.70123288402E+03  0.71409793022E+03  0.12361207687E+03 0.  0.
          5    1    4    4  502    0 -0.51505201481E+01  0.12061607077E+02  0.31860520153E+00  0.13935628165E+02  0.47000000000E+01 0.  1.
         -5    1    4    4    0  502  0.11888621520E+02 -0.65754704854E+02  0.50889313143E+03  0.51328289446E+03  0.47000000000E+01 0.  1.
          5    1    5    5  503    0 -0.48152444852E+02  0.74112508819E+02  0.45438780698E+03  0.46292730644E+03  0.47000000000E+01 0.  1.
         -5    1    5    5    0  503  0.41414343480E+02 -0.20419411041E+02  0.24684507703E+03  0.25117062378E+03  0.47000000000E+01 0.  1.
<mgrwt>
<rscale>  0 0.27511880E+03</rscale>
<asrwt>0</asrwt>
<pdfrwt beam="1">  1        1 0.18859693E+00 0.27511880E+03</pdfrwt>
<pdfrwt beam="2">  1       -1 0.23747573E-02 0.27511880E+03</pdfrwt>
<totfact> 0.58497250E+03</totfact>
</mgrwt>
</event>
<event>
 9    1  0.2095749E-002  0.2747141E+03  0.7818608E-02  0.1098612E+00
          2   -1    0    0  501    0  0.00000000000E+00  0.00000000000E+00  0.99161945016E+03  0.99161945016E+03  0.00000000000E+00 0.  1.
         -2   -1    0    0    0  501 -0.00000000000E+00 -0.00000000000E+00 -0.19026412458E+02  0.19026412458E+02  0.00000000000E+00 0.  1.
         36    2    1    2    0    0  0.00000000000E+00  0.71054273576E-14  0.97259303770E+03  0.10106458626E+04  0.27471411074E+03 0.  0.
         25    2    3    3    0    0  0.60240603370E+02 -0.49604194639E+02  0.40705825195E+03  0.43226189242E+03  0.12273718563E+03 0.  0.
         25    2    3    3    0    0 -0.60240603370E+02  0.49604194639E+02  0.56553478575E+03  0.57838397020E+03  0.92784247952E+02 0.  0.
          5    1    4    4  502    0 -0.24613106447E+02 -0.54221798318E+02  0.14880765946E+03  0.16034842667E+03  0.47000000000E+01 0.  1.
         -5    1    4    4    0  502  0.84853709817E+02  0.46176036797E+01  0.25825059249E+03  0.27191346575E+03  0.47000000000E+01 0.  1.
          5    1    5    5  503    0 -0.60976837211E+02  0.53043345172E+01  0.17782737110E+03  0.18812489084E+03  0.47000000000E+01 0. -1.
         -5    1    5    5    0  503  0.73623384050E+00  0.44299860122E+02  0.38770741465E+03  0.39025907936E+03  0.47000000000E+01 0. -1.
<mgrwt>
<rscale>  0 0.27471411E+03</rscale>
<asrwt>0</asrwt>
<pdfrwt beam="1">  1        2 0.15255680E+00 0.27471411E+03</pdfrwt>
<pdfrwt beam="2">  1       -2 0.29271412E-02 0.27471411E+03</pdfrwt>
<totfact> 0.11645782E+04</totfact>
</mgrwt>
</event>
<event>
 9    1  0.2095749E-002  0.2753315E+03  0.7818608E-02  0.1098266E+00
          2   -1    0    0  501    0  0.00000000000E+00  0.00000000000E+00  0.51671846929E+03  0.51671846929E+03  0.00000000000E+00 0.  1.
         -2   -1    0    0    0  501 -0.00000000000E+00 -0.00000000000E+00 -0.36677341931E+02  0.36677341931E+02  0.00000000000E+00 0.  1.
         36    2    1    2    0    0 -0.35527136788E-14  0.71054273576E-14  0.48004112736E+03  0.55339581122E+03  0.27533150913E+03 0.  0.
         25    2    3    3    0    0  0.26267002104E+02 -0.46416971867E+02  0.19796668866E+03  0.24057294273E+03  0.12585722179E+03 0.  0.
         25    2    3    3    0    0 -0.26267002104E+02  0.46416971867E+02  0.28207443870E+03  0.31282286849E+03  0.12428864553E+03 0.  0.
          5    1    4    4  502    0  0.67583205691E+01 -0.69489789024E+02  0.19799278259E+03  0.20999461335E+03  0.47000000000E+01 0. -1.
         -5    1    4    4    0  502  0.19508681535E+02  0.23072817157E+02 -0.26093935364E-01  0.30578329380E+02  0.47000000000E+01 0. -1.
          5    1    5    5  503    0 -0.49202555094E+02  0.87799194336E+00  0.35179750748E+02  0.60674270991E+02  0.47000000000E+01 0. -1.
         -5    1    5    5    0  503  0.22935552990E+02  0.45538979924E+02  0.24689468795E+03  0.25214859750E+03  0.47000000000E+01 0. -1.
<mgrwt>
<rscale>  0 0.27533151E+03</rscale>
<asrwt>0</asrwt>
<pdfrwt beam="1">  1        2 0.79495144E-01 0.27533151E+03</pdfrwt>
<pdfrwt beam="2">  1       -2 0.56426683E-02 0.27533151E+03</pdfrwt>
<totfact> 0.97022654E+03</totfact>
</mgrwt>
</event>
<event>
 9    1  0.2095749E-002  0.2744804E+03  0.7818608E-02  0.1098742E+00
         -2   -1    0    0    0  501 -0.00000000000E+00  0.00000000000E+00  0.21162193519E+02  0.21162193519E+02  0.00000000000E+00 0. -1.
          2   -1    0    0  501    0  0.00000000000E+00 -0.00000000000E+00 -0.89002468803E+03  0.89002468803E+03  0.00000000000E+00 0. -1.
         36    2    1    2    0    0  0.00000000000E+00  0.00000000000E+00 -0.86886249451E+03  0.91118688155E+03  0.27448041595E+03 0.  0.
         25    2    3    3    0    0 -0.18304558106E+01  0.65023510057E+02 -0.56254333238E+03  0.57445309017E+03  0.96488054022E+02 0.  0.
         25    2    3    3    0    0  0.18304558106E+01 -0.65023510057E+02 -0.30631916213E+03  0.33673379138E+03  0.12380149329E+03 0.  0.
          5    1    4    4  502    0  0.42299140736E+02  0.54507810671E+02 -0.38394930819E+03  0.39012751760E+03  0.47000000000E+01 0.  1.
         -5    1    4    4    0  502 -0.44129596547E+02  0.10515699386E+02 -0.17859402419E+03  0.18432557257E+03  0.47000000000E+01 0.  1.
          5    1    5    5  503    0  0.59449525435E+02 -0.16107299686E+02 -0.16871323563E+03  0.17966618228E+03  0.47000000000E+01 0. -1.
         -5    1    5    5    0  503 -0.57619069624E+02 -0.48916210372E+02 -0.13760592650E+03  0.15706760911E+03  0.47000000000E+01 0. -1.
<mgrwt>
<rscale>  0 0.27448042E+03</rscale>
<asrwt>0</asrwt>
<pdfrwt beam="1">  1        2 0.13692687E+00 0.27448042E+03</pdfrwt>
<pdfrwt beam="2">  1       -2 0.32557221E-02 0.27448042E+03</pdfrwt>
<totfact> 0.11520993E+04</totfact>
</mgrwt>
</event>
<event>
 9    1  0.2095749E-002  0.2732723E+03  0.7818608E-02  0.1099421E+00
          1   -1    0    0  501    0  0.00000000000E+00  0.00000000000E+00  0.99035165127E+03  0.99035165127E+03  0.00000000000E+00 0. -1.
         -1   -1    0    0    0  501 -0.00000000000E+00 -0.00000000000E+00 -0.18851325403E+02  0.18851325403E+02  0.00000000000E+00 0. -1.
         36    2    1    2    0    0  0.00000000000E+00  0.00000000000E+00  0.97150032586E+03  0.10092029767E+04  0.27327232748E+03 0.  0.
         25    2    3    3    0    0 -0.20639800973E+02  0.47512268012E+02  0.44275570740E+03  0.46285171409E+03  0.12456193562E+03 0.  0.
         25    2    3    3    0    0  0.20639800973E+02 -0.47512268012E+02  0.52874461846E+03  0.54635126257E+03  0.12745749711E+03 0.  0.
          5    1    4    4  502    0  0.37634135622E+02  0.44410656830E+01  0.47328531396E+02  0.60812261202E+02  0.47000000000E+01 0. -1.
         -5    1    4    4    0  502 -0.58273936596E+02  0.43071202329E+02  0.39542717601E+03  0.40203945289E+03  0.47000000000E+01 0. -1.
          5    1    5    5  503    0 -0.16180380979E+02  0.37571149219E+02  0.22506922218E+03  0.22880480929E+03  0.47000000000E+01 0. -1.
         -5    1    5    5    0  503  0.36820181953E+02 -0.85083417231E+02  0.30367539628E+03  0.31754645328E+03  0.47000000000E+01 0. -1.
<mgrwt>
<rscale>  0 0.27327233E+03</rscale>
<asrwt>0</asrwt>
<pdfrwt beam="1">  1        1 0.15236175E+00 0.27327233E+03</pdfrwt>
<pdfrwt beam="2">  1       -1 0.29002047E-02 0.27327233E+03</pdfrwt>
<totfact> 0.64427809E+03</totfact>
</mgrwt>
</event>
<event>
 9    1  0.2095749E-002  0.2751833E+03  0.7818608E-02  0.1098349E+00
         -2   -1    0    0    0  501 -0.00000000000E+00  0.00000000000E+00  0.24755371707E+02  0.24755371707E+02  0.00000000000E+00 0. -1.
          2   -1    0    0  501    0  0.00000000000E+00 -0.00000000000E+00 -0.76474141805E+03  0.76474141805E+03  0.00000000000E+00 0. -1.
         36    2    1    2    0    0  0.00000000000E+00  0.35527136788E-14 -0.73998604635E+03  0.78949678976E+03  0.27518327030E+03 0.  0.
         25    2    3    3    0    0 -0.41796494142E+01 -0.16564458324E+02 -0.18002768988E+03  0.21546395465E+03  0.11714476463E+03 0.  0.
         25    2    3    3    0    0  0.41796494142E+01  0.16564458324E+02 -0.55995835646E+03  0.57403283511E+03  0.12517381539E+03 0.  0.
          5    1    4    4  502    0  0.18247714092E+02  0.33339906249E+02 -0.14306452635E+02  0.40881450626E+02  0.47000000000E+01 0. -1.
         -5    1    4    4    0  502 -0.22427363507E+02 -0.49904364573E+02 -0.16572123725E+03  0.17458250402E+03  0.47000000000E+01 0. -1.
          5    1    5    5  503    0  0.35196135701E+02 -0.26536659563E+02 -0.44627486255E+03  0.44847107511E+03  0.47000000000E+01 0. -1.
         -5    1    5    5    0  503 -0.31016486287E+02  0.43101117887E+02 -0.11368349392E+03  0.12556176000E+03  0.47000000000E+01 0. -1.
<mgrwt>
<rscale>  0 0.27518327E+03</rscale>
<asrwt>0</asrwt>
<pdfrwt beam="1">  1        2 0.11765252E+00 0.27518327E+03</pdfrwt>
<pdfrwt beam="2">  1       -2 0.38085190E-02 0.27518327E+03</pdfrwt>
<totfact> 0.11080570E+04</totfact>
</mgrwt>
</event>
<event>
 9    1  0.2095749E-002  0.2756725E+03  0.7818608E-02  0.1098076E+00
         -2   -1    0    0    0  501 -0.00000000000E+00  0.00000000000E+00  0.25483650030E+03  0.25483650030E+03  0.00000000000E+00 0. -1.
          2   -1    0    0  501    0  0.00000000000E+00 -0.00000000000E+00 -0.74553003534E+02  0.74553003534E+02  0.00000000000E+00 0. -1.
         36    2    1    2    0    0  0.14210854715E-13  0.35527136788E-14  0.18028349677E+03  0.32938950384E+03  0.27567246150E+03 0.  0.
         25    2    3    3    0    0  0.47149158511E+02  0.29788508288E+02  0.98740480248E+02  0.16845154041E+03  0.12456259732E+03 0.  0.
         25    2    3    3    0    0 -0.47149158511E+02 -0.29788508288E+02  0.81543016520E+02  0.16093796343E+03  0.12704867632E+03 0.  0.
          5    1    4    4  502    0  0.25859281872E+02 -0.43722661725E+02  0.69888571285E+02  0.86526735772E+02  0.47000000000E+01 0. -1.
         -5    1    4    4    0  502  0.21289876639E+02  0.73511170012E+02  0.28851908963E+02  0.81924804636E+02  0.47000000000E+01 0. -1.
          5    1    5    5  503    0  0.36480640108E+02  0.18166827499E+02  0.14893000541E+02  0.43643581305E+02  0.47000000000E+01 0. -1.
         -5    1    5    5    0  503 -0.83629798618E+02 -0.47955335786E+02  0.66650015979E+02  0.11729438212E+03  0.47000000000E+01 0. -1.
<mgrwt>
<rscale>  0 0.27567246E+03</rscale>
<asrwt>0</asrwt>
<pdfrwt beam="1">  1        2 0.11469693E-01 0.27567246E+03</pdfrwt>
<pdfrwt beam="2">  1       -2 0.39205615E-01 0.27567246E+03</pdfrwt>
<totfact> 0.33305112E+03</totfact>
</mgrwt>
</event>
<event>
 9    1  0.2095749E-002  0.2739667E+03  0.7818608E-02  0.1099031E+00
          2   -1    0    0  501    0  0.00000000000E+00  0.00000000000E+00  0.12056134228E+03  0.12056134228E+03  0.00000000000E+00 0. -1.
         -2   -1    0    0    0  501 -0.00000000000E+00 -0.00000000000E+00 -0.15564225658E+03  0.15564225658E+03  0.00000000000E+00 0. -1.
         36    2    1    2    0    0  0.00000000000E+00  0.00000000000E+00 -0.35080914301E+02  0.27620359885E+03  0.27396670869E+03 0.  0.
         25    2    3    3    0    0  0.36742559889E+02 -0.23324392027E+02 -0.57834381940E+02  0.14259254756E+03  0.12285672922E+03 0.  0.
         25    2    3    3    0    0 -0.36742559889E+02  0.23324392027E+02  0.22753467639E+02  0.13361105129E+03  0.12425839918E+03 0.  0.
          5    1    4    4  502    0  0.60627831516E+02  0.25450783163E+02 -0.58412215811E+02  0.88076973574E+02  0.47000000000E+01 0. -1.
         -5    1    4    4    0  502 -0.23885271627E+02 -0.48775175189E+02  0.57783387071E+00  0.54515573990E+02  0.47000000000E+01 0. -1.
          5    1    5    5  503    0  0.18218184856E+02 -0.30136424387E+02 -0.24744692255E+02  0.43295451598E+02  0.47000000000E+01 0. -1.
         -5    1    5    5    0  503 -0.54960744745E+02  0.53460816414E+02  0.47498159894E+02  0.90315599693E+02  0.47000000000E+01 0. -1.
<mgrwt>
<rscale>  0 0.27396671E+03</rscale>
<asrwt>0</asrwt>
<pdfrwt beam="1">  1        2 0.18547899E-01 0.27396671E+03</pdfrwt>
<pdfrwt beam="2">  1       -2 0.23944962E-01 0.27396671E+03</pdfrwt>
<totfact> 0.46210266E+03</totfact>
</mgrwt>
</event>
<event>
 9    1  0.2095749E-002  0.2747837E+03  0.7818608E-02  0.1098573E+00
          2   -1    0    0  501    0  0.00000000000E+00  0.00000000000E+00  0.35554037530E+03  0.35554037530E+03  0.00000000000E+00 0.  1.
         -2   -1    0    0    0  501 -0.00000000000E+00 -0.00000000000E+00 -0.53092499111E+02  0.53092499111E+02  0.00000000000E+00 0.  1.
         36    2    1    2    0    0 -0.71054273576E-14  0.00000000000E+00  0.30244787619E+03  0.40863287441E+03  0.27478374814E+03 0.  0.
         25    2    3    3    0    0  0.39039690973E+02  0.44940464114E+02  0.16422388802E+03  0.21250737099E+03  0.12102129789E+03 0.  0.
         25    2    3    3    0    0 -0.39039690973E+02 -0.44940464114E+02  0.13822398817E+03  0.19612550342E+03  0.12576008668E+03 0.  0.
          5    1    4    4  502    0  0.55200058890E+02  0.45617139382E+02  0.17724213979E+03  0.19121934009E+03  0.47000000000E+01 0.  1.
         -5    1    4    4    0  502 -0.16160367918E+02 -0.67667526777E+00 -0.13018251768E+02  0.21288030903E+02  0.47000000000E+01 0.  1.
          5    1    5    5  503    0  0.14030783533E+02 -0.51922761583E+02  0.13127554735E+03  0.14194433906E+03  0.47000000000E+01 0.  1.
         -5    1    5    5    0  503 -0.53070474505E+02  0.69822974682E+01  0.69484408143E+01  0.54181164365E+02  0.47000000000E+01 0.  1.
<mgrwt>
<rscale>  0 0.27478375E+03</rscale>
<asrwt>0</asrwt>
<pdfrwt beam="1">  1        2 0.54698518E-01 0.27478375E+03</pdfrwt>
<pdfrwt beam="2">  1       -2 0.81680770E-02 0.27478375E+03</pdfrwt>
<totfact> 0.82537484E+03</totfact>
</mgrwt>
</event>
<event>
 9    1  0.2095749E-002  0.2747722E+03  0.7818608E-02  0.1098579E+00
         -4   -1    0    0    0  501 -0.00000000000E+00  0.00000000000E+00  0.12274098342E+03  0.12274098342E+03  0.00000000000E+00 0.  1.
          4   -1    0    0  501    0  0.00000000000E+00 -0.00000000000E+00 -0.15377861873E+03  0.15377861873E+03  0.00000000000E+00 0.  1.
         36    2    1    2    0    0  0.71054273576E-14 -0.35527136788E-14 -0.31037635312E+02  0.27651960214E+03  0.27477218848E+03 0.  0.
         25    2    3    3    0    0 -0.22112641308E+02 -0.84192786251E+01 -0.66665282980E+02  0.14456588281E+03  0.12607609353E+03 0.  0.
         25    2    3    3    0    0  0.22112641308E+02  0.84192786251E+01  0.35627647668E+02  0.13195371933E+03  0.12483029123E+03 0.  0.
          5    1    4    4  502    0  0.90090505966E+01  0.90965468040E+01  0.34543533083E+02  0.37138333757E+02  0.47000000000E+01 0.  1.
         -5    1    4    4    0  502 -0.31121691905E+02 -0.17515825429E+02 -0.10120881606E+03  0.10742754906E+03  0.47000000000E+01 0.  1.
          5    1    5    5  503    0  0.45453840366E+02  0.42489433143E+02  0.57616648730E+02  0.84930393522E+02  0.47000000000E+01 0.  1.
         -5    1    5    5    0  503 -0.23341199058E+02 -0.34070154518E+02 -0.21989001062E+02  0.47023325808E+02  0.47000000000E+01 0.  1.
<mgrwt>
<rscale>  0 0.27477219E+03</rscale>
<asrwt>0</asrwt>
<pdfrwt beam="1">  1        4 0.23658249E-01 0.27477219E+03</pdfrwt>
<pdfrwt beam="2">  1       -4 0.18883228E-01 0.27477219E+03</pdfrwt>
<totfact> 0.77885266E+02</totfact>
</mgrwt>
</event>
<event>
 9    1  0.2095749E-002  0.2728952E+03  0.7818608E-02  0.1099634E+00
          2   -1    0    0  501    0  0.00000000000E+00  0.00000000000E+00  0.44918731052E+03  0.44918731052E+03  0.00000000000E+00 0. -1.
         -2   -1    0    0    0  501 -0.00000000000E+00 -0.00000000000E+00 -0.41448075734E+02  0.41448075734E+02  0.00000000000E+00 0. -1.
         36    2    1    2    0    0 -0.71054273576E-14  0.71054273576E-14  0.40773923479E+03  0.49063538626E+03  0.27289521553E+03 0.  0.
         25    2    3    3    0    0 -0.16978462599E+02  0.48500555807E+02  0.19723575197E+03  0.24004984273E+03  0.12681251135E+03 0.  0.
         25    2    3    3    0    0  0.16978462599E+02 -0.48500555807E+02  0.21050348282E+03  0.25058554353E+03  0.12586034419E+03 0.  0.
          5    1    4    4  502    0  0.50178983427E+02  0.32577796346E+01  0.45415730504E+02  0.67920704378E+02  0.47000000000E+01 0.  1.
         -5    1    4    4    0  502 -0.67157446027E+02  0.45242776172E+02  0.15182002146E+03  0.17212913835E+03  0.47000000000E+01 0.  1.
          5    1    5    5  503    0 -0.51225103326E+02 -0.68383219319E+01  0.54592854860E+02  0.75320937722E+02  0.47000000000E+01 0.  1.
         -5    1    5    5    0  503  0.68203565926E+02 -0.41662233875E+02  0.15591062796E+03  0.17526460581E+03  0.47000000000E+01 0.  1.
<mgrwt>
<rscale>  0 0.27289522E+03</rscale>
<asrwt>0</asrwt>
<pdfrwt beam="1">  1        2 0.69105737E-01 0.27289522E+03</pdfrwt>
<pdfrwt beam="2">  1       -2 0.63766273E-02 0.27289522E+03</pdfrwt>
<totfact> 0.93951827E+03</totfact>
</mgrwt>
</event>
<event>
 9    1  0.2095749E-002  0.2748844E+03  0.7818608E-02  0.1098516E+00
          1   -1    0    0  501    0  0.00000000000E+00  0.00000000000E+00  0.50019408153E+03  0.50019408153E+03  0.00000000000E+00 0.  1.
         -1   -1    0    0    0  501 -0.00000000000E+00 -0.00000000000E+00 -0.37766044666E+02  0.37766044666E+02  0.00000000000E+00 0.  1.
         36    2    1    2    0    0  0.71054273576E-14  0.71054273576E-14  0.46242803687E+03  0.53796012620E+03  0.27488435405E+03 0.  0.
         25    2    3    3    0    0  0.26877925253E+02 -0.46723483448E+02  0.21327732467E+03  0.25306030658E+03  0.12508714873E+03 0.  0.
         25    2    3    3    0    0 -0.26877925253E+02  0.46723483448E+02  0.24915071220E+03  0.28489981962E+03  0.12722548117E+03 0.  0.
          5    1    4    4  502    0  0.34518766489E+01 -0.63970005938E+02  0.21415393524E+03  0.22358013125E+03  0.47000000000E+01 0.  1.
         -5    1    4    4    0  502  0.23426048604E+02  0.17246522491E+02 -0.87661056985E+00  0.29480175327E+02  0.47000000000E+01 0.  1.
          5    1    5    5  503    0 -0.76151633329E+02  0.14781745240E+02  0.12026868141E+03  0.14319293621E+03  0.47000000000E+01 0.  1.
         -5    1    5    5    0  503  0.49273708076E+02  0.31941738208E+02  0.12888203078E+03  0.14170688341E+03  0.47000000000E+01 0.  1.
<mgrwt>
<rscale>  0 0.27488435E+03</rscale>
<asrwt>0</asrwt>
<pdfrwt beam="1">  1        1 0.76952931E-01 0.27488435E+03</pdfrwt>
<pdfrwt beam="2">  1       -1 0.58101611E-02 0.27488435E+03</pdfrwt>
<totfact> 0.63012877E+03</totfact>
</mgrwt>
</event>
<event>
 9    1  0.2095749E-002  0.2739810E+03  0.7818608E-02  0.1099023E+00
         -1   -1    0    0    0  501 -0.00000000000E+00  0.00000000000E+00  0.67017813633E+02  0.67017813633E+02  0.00000000000E+00 0.  1.
          1   -1    0    0  501    0  0.00000000000E+00 -0.00000000000E+00 -0.28002105145E+03  0.28002105145E+03  0.00000000000E+00 0.  1.
         36    2    1    2    0    0 -0.71054273576E-14  0.00000000000E+00 -0.21300323781E+03  0.34703886508E+03  0.27398101131E+03 0.  0.
         25    2    3    3    0    0  0.12379153587E+02 -0.32225316354E+02 -0.13769874690E+03  0.18944807067E+03  0.12545083550E+03 0.  0.
         25    2    3    3    0    0 -0.12379153587E+02  0.32225316354E+02 -0.75304490917E+02  0.15759079440E+03  0.13406109678E+03 0.  0.
          5    1    4    4  502    0  0.66898030350E+02 -0.34349125101E+02 -0.79031234166E+02  0.10919356590E+03  0.47000000000E+01 0.  1.
         -5    1    4    4    0  502 -0.54518876762E+02  0.21238087471E+01 -0.58667512729E+02  0.80254504776E+02  0.47000000000E+01 0.  1.
          5    1    5    5  503    0 -0.28267292196E+02 -0.47190612234E+02 -0.17282318204E+02  0.57851207538E+02  0.47000000000E+01 0.  1.
         -5    1    5    5    0  503  0.15888138608E+02  0.79415928588E+02 -0.58022172713E+02  0.99739586866E+02  0.47000000000E+01 0.  1.
<mgrwt>
<rscale>  0 0.27398101E+03</rscale>
<asrwt>0</asrwt>
<pdfrwt beam="1">  1        1 0.43080162E-01 0.27398101E+03</pdfrwt>
<pdfrwt beam="2">  1       -1 0.10310433E-01 0.27398101E+03</pdfrwt>
<totfact> 0.55195180E+03</totfact>
</mgrwt>
</event>
<event>
 8    1  0.2095749E-002  0.2957922E+03  0.7818608E-02  0.1087363E+00
         -2   -1    0    0    0  501 -0.00000000000E+00  0.00000000000E+00  0.11108784084E+02  0.11108784084E+02  0.00000000000E+00 0.  1.
          2   -1    0    0  501    0  0.00000000000E+00 -0.00000000000E+00 -0.19690053229E+04  0.19690053229E+04  0.00000000000E+00 0.  1.
         25    2    1    2    0    0 -0.38901805799E+02  0.73833522567E+02 -0.10150433076E+04  0.10255609604E+04  0.12040609496E+03 0.  0.
         25    2    1    2    0    0  0.38901805799E+02 -0.73833522567E+02 -0.94285323120E+03  0.95455314654E+03  0.12342914742E+03 0.  0.
          5    1    3    3  502    0  0.16042657739E+02  0.82511134831E+02 -0.74949833986E+03  0.75421171146E+03  0.47000000000E+01 0. -1.
         -5    1    3    3    0  502 -0.54944463539E+02 -0.86776122640E+01 -0.26554496772E+03  0.27134924896E+03  0.47000000000E+01 0. -1.
          5    1    4    4  503    0  0.22499761146E+02 -0.24039160055E+02 -0.82274993439E+03  0.82342192405E+03  0.47000000000E+01 0. -1.
         -5    1    4    4    0  503  0.16402044653E+02 -0.49794362512E+02 -0.12010329681E+03  0.13113122249E+03  0.47000000000E+01 0. -1.
<mgrwt>
<rscale>  0 0.29579219E+03</rscale>
<asrwt>0</asrwt>
<pdfrwt beam="1">  1        2 0.30292376E+00 0.29579219E+03</pdfrwt>
<pdfrwt beam="2">  1       -2 0.17090445E-02 0.29579219E+03</pdfrwt>
<totfact> 0.75203998E+03</totfact>
</mgrwt>
</event>
<event>
 9    1  0.2095749E-002  0.2762312E+03  0.7818608E-02  0.1097765E+00
          1   -1    0    0  501    0  0.00000000000E+00  0.00000000000E+00  0.11064315753E+04  0.11064315753E+04  0.00000000000E+00 0. -1.
         -1   -1    0    0    0  501 -0.00000000000E+00 -0.00000000000E+00 -0.17240940753E+02  0.17240940753E+02  0.00000000000E+00 0. -1.
         36    2    1    2    0    0  0.00000000000E+00  0.28421709430E-13  0.10891906345E+04  0.11236725160E+04  0.27623121646E+03 0.  0.
         25    2    3    3    0    0  0.17092328517E+02  0.56848310128E+02  0.55771847359E+03  0.57462469833E+03  0.12497907860E+03 0.  0.
         25    2    3    3    0    0 -0.17092328517E+02 -0.56848310128E+02  0.53147216094E+03  0.54904781770E+03  0.12436627443E+03 0.  0.
          5    1    4    4  502    0  0.63201060678E+02  0.51620844980E+02  0.24085409757E+03  0.25434596915E+03  0.47000000000E+01 0. -1.
         -5    1    4    4    0  502 -0.46108732162E+02  0.52274651476E+01  0.31686437602E+03  0.32027872918E+03  0.47000000000E+01 0. -1.
          5    1    5    5  503    0 -0.34918299834E+02  0.17746248272E+02  0.34667469692E+03  0.34891209849E+03  0.47000000000E+01 0.  1.
         -5    1    5    5    0  503  0.17825971317E+02 -0.74594558399E+02  0.18479746402E+03  0.20013571921E+03  0.47000000000E+01 0.  1.
<mgrwt>
<rscale>  0 0.27623122E+03</rscale>
<asrwt>0</asrwt>
<pdfrwt beam="1">  1        1 0.17022019E+00 0.27623122E+03</pdfrwt>
<pdfrwt beam="2">  1       -1 0.26524533E-02 0.27623122E+03</pdfrwt>
<totfact> 0.60394722E+03</totfact>
</mgrwt>
</event>
<event>
 9    1  0.2095749E-002  0.2727331E+03  0.7818608E-02  0.1099725E+00
         -2   -1    0    0    0  501 -0.00000000000E+00  0.00000000000E+00  0.35674040339E+02  0.35674040339E+02  0.00000000000E+00 0.  1.
          2   -1    0    0  501    0  0.00000000000E+00 -0.00000000000E+00 -0.52127099820E+03  0.52127099820E+03  0.00000000000E+00 0.  1.
         36    2    1    2    0    0  0.35527136788E-14  0.88817841970E-15 -0.48559695786E+03  0.55694503854E+03  0.27273314883E+03 0.  0.
         25    2    3    3    0    0 -0.30168088262E+02  0.47617873054E+00 -0.13553605979E+03  0.18670869904E+03  0.12481896689E+03 0.  0.
         25    2    3    3    0    0  0.30168088262E+02 -0.47617873054E+00 -0.35006089807E+03  0.37023633951E+03  0.11671321449E+03 0.  0.
          5    1    4    4  502    0  0.34083619339E+01  0.44495085773E+02 -0.53853693627E+01  0.45194267249E+02  0.47000000000E+01 0. -1.
         -5    1    4    4    0  502 -0.33576450195E+02 -0.44018907042E+02 -0.13015069043E+03  0.14151443179E+03  0.47000000000E+01 0. -1.
          5    1    5    5  503    0  0.52896978508E+02  0.46519443504E+01 -0.64457903324E+02  0.83645933687E+02  0.47000000000E+01 0. -1.
         -5    1    5    5    0  503 -0.22728890247E+02 -0.51281230810E+01 -0.28560299475E+03  0.28659040582E+03  0.47000000000E+01 0. -1.
<mgrwt>
<rscale>  0 0.27273315E+03</rscale>
<asrwt>0</asrwt>
<pdfrwt beam="1">  1        2 0.80195535E-01 0.27273315E+03</pdfrwt>
<pdfrwt beam="2">  1       -2 0.54883141E-02 0.27273315E+03</pdfrwt>
<totfact> 0.10019045E+04</totfact>
</mgrwt>
</event>
<event>
 9    1  0.2095749E-002  0.2749896E+03  0.7818608E-02  0.1098457E+00
          2   -1    0    0  501    0  0.00000000000E+00  0.00000000000E+00  0.29092529180E+03  0.29092529180E+03  0.00000000000E+00 0. -1.
         -2   -1    0    0    0  501 -0.00000000000E+00 -0.00000000000E+00 -0.64981676743E+02  0.64981676743E+02  0.00000000000E+00 0. -1.
         36    2    1    2    0    0  0.00000000000E+00 -0.35527136788E-14  0.22594361506E+03  0.35590696854E+03  0.27498955084E+03 0.  0.
         25    2    3    3    0    0  0.33939166884E+02 -0.31226340682E+02  0.68977282462E+02  0.15041350503E+03  0.12545678777E+03 0.  0.
         25    2    3    3    0    0 -0.33939166884E+02  0.31226340682E+02  0.15696633260E+03  0.20549346352E+03  0.12434702481E+03 0.  0.
          5    1    4    4  502    0  0.36159255339E+02 -0.40058016406E+02 -0.22288075912E+02  0.58574608431E+02  0.47000000000E+01 0.  1.
         -5    1    4    4    0  502 -0.22200884547E+01  0.88316757234E+01  0.91265358374E+02  0.91838896596E+02  0.47000000000E+01 0.  1.
          5    1    5    5  503    0 -0.58090201533E+02 -0.29545733120E+02  0.61865347193E+02  0.89982404075E+02  0.47000000000E+01 0.  1.
         -5    1    5    5    0  503  0.24151034648E+02  0.60772073802E+02  0.95100985403E+02  0.11551105944E+03  0.47000000000E+01 0.  1.
<mgrwt>
<rscale>  0 0.27498955E+03</rscale>
<asrwt>0</asrwt>
<pdfrwt beam="1">  1        2 0.44757737E-01 0.27498955E+03</pdfrwt>
<pdfrwt beam="2">  1       -2 0.99971812E-02 0.27498955E+03</pdfrwt>
<totfact> 0.74490044E+03</totfact>
</mgrwt>
</event>
<event>
 9    1  0.2095749E-002  0.2751595E+03  0.7818608E-02  0.1098362E+00
         -2   -1    0    0    0  501 -0.00000000000E+00  0.00000000000E+00  0.40538953338E+02  0.40538953338E+02  0.00000000000E+00 0.  1.
          2   -1    0    0  501    0  0.00000000000E+00 -0.00000000000E+00 -0.46691363048E+03  0.46691363048E+03  0.00000000000E+00 0.  1.
         36    2    1    2    0    0  0.00000000000E+00  0.00000000000E+00 -0.42637467714E+03  0.50745258382E+03  0.27515951649E+03 0.  0.
         25    2    3    3    0    0 -0.54519297575E+02  0.11864975754E+02 -0.20899306372E+03  0.24974485006E+03  0.12482490934E+03 0.  0.
         25    2    3    3    0    0  0.54519297575E+02 -0.11864975754E+02 -0.21738161343E+03  0.25770773376E+03  0.12667035457E+03 0.  0.
          5    1    4    4  502    0 -0.79302093881E+02 -0.21727098989E+02 -0.18211924096E+03  0.19987595367E+03  0.47000000000E+01 0. -1.
         -5    1    4    4    0  502  0.24782796305E+02  0.33592074743E+02 -0.26873822751E+02  0.49868896394E+02  0.47000000000E+01 0. -1.
          5    1    5    5  503    0  0.60673335395E+02 -0.35885408773E+02 -0.22117712331E+03  0.23218618837E+03  0.47000000000E+01 0. -1.
         -5    1    5    5    0  503 -0.61540378196E+01  0.24020433019E+02  0.37955098879E+01  0.25521545392E+02  0.47000000000E+01 0. -1.
<mgrwt>
<rscale>  0 0.27515952E+03</rscale>
<asrwt>0</asrwt>
<pdfrwt beam="1">  1        2 0.71832860E-01 0.27515952E+03</pdfrwt>
<pdfrwt beam="2">  1       -2 0.62367626E-02 0.27515952E+03</pdfrwt>
<totfact> 0.93178275E+03</totfact>
</mgrwt>
</event>
<event>
 9    1  0.2095749E-002  0.2751945E+03  0.7818608E-02  0.1098343E+00
         -2   -1    0    0    0  501 -0.00000000000E+00  0.00000000000E+00  0.26052950920E+02  0.26052950920E+02  0.00000000000E+00 0.  1.
          2   -1    0    0  501    0  0.00000000000E+00 -0.00000000000E+00 -0.72671261195E+03  0.72671261195E+03  0.00000000000E+00 0.  1.
         36    2    1    2    0    0  0.35527136788E-14  0.00000000000E+00 -0.70065966103E+03  0.75276556287E+03  0.27519453492E+03 0.  0.
         25    2    3    3    0    0 -0.15955781361E+02 -0.34331267712E+02 -0.22130907388E+03  0.25630025347E+03  0.12360781063E+03 0.  0.
         25    2    3    3    0    0  0.15955781361E+02  0.34331267712E+02 -0.47935058716E+03  0.49646530940E+03  0.12356211041E+03 0.  0.
          5    1    4    4  502    0 -0.92875590334E+01  0.45926941861E+02 -0.10111799496E+03  0.11154587238E+03  0.47000000000E+01 0. -1.
         -5    1    4    4    0  502 -0.66682223274E+01 -0.80258209574E+02 -0.12019107892E+03  0.14475438109E+03  0.47000000000E+01 0. -1.
          5    1    5    5  503    0 -0.35605148477E+02 -0.13007256229E+02 -0.32107405893E+03  0.32333814596E+03  0.47000000000E+01 0.  1.
         -5    1    5    5    0  503  0.51560929837E+02  0.47338523941E+02 -0.15827652823E+03  0.17312716344E+03  0.47000000000E+01 0.  1.
<mgrwt>
<rscale>  0 0.27519453E+03</rscale>
<asrwt>0</asrwt>
<pdfrwt beam="1">  1        2 0.11180193E+00 0.27519453E+03</pdfrwt>
<pdfrwt beam="2">  1       -2 0.40081467E-02 0.27519453E+03</pdfrwt>
<totfact> 0.10931525E+04</totfact>
</mgrwt>
</event>
<event>
 9    1  0.2095749E-002  0.2744778E+03  0.7818608E-02  0.1098744E+00
         -1   -1    0    0    0  501 -0.00000000000E+00  0.00000000000E+00  0.53439154854E+02  0.53439154854E+02  0.00000000000E+00 0.  1.
          1   -1    0    0  501    0  0.00000000000E+00 -0.00000000000E+00 -0.35244791485E+03  0.35244791485E+03  0.00000000000E+00 0.  1.
         36    2    1    2    0    0  0.71054273576E-14 -0.53290705182E-14 -0.29900875999E+03  0.40588706970E+03  0.27447782205E+03 0.  0.
         25    2    3    3    0    0 -0.10445330457E+02 -0.12762445274E+02 -0.73192274273E+02  0.14566537379E+03  0.12485714705E+03 0.  0.
         25    2    3    3    0    0  0.10445330457E+02  0.12762445274E+02 -0.22581648572E+03  0.26022169591E+03  0.12825857033E+03 0.  0.
          5    1    4    4  502    0 -0.64753626128E+02 -0.25197679328E+02 -0.46249922066E+02  0.83600839896E+02  0.47000000000E+01 0.  1.
         -5    1    4    4    0  502  0.54308295671E+02  0.12435234053E+02 -0.26942352207E+02  0.62064533891E+02  0.47000000000E+01 0.  1.
          5    1    5    5  503    0 -0.11171153367E+02  0.68239968509E+02 -0.12981085795E+03  0.14715446582E+03  0.47000000000E+01 0.  1.
         -5    1    5    5    0  503  0.21616483823E+02 -0.55477523235E+02 -0.96005627769E+02  0.11306723009E+03  0.47000000000E+01 0.  1.
<mgrwt>
<rscale>  0 0.27447782E+03</rscale>
<asrwt>0</asrwt>
<pdfrwt beam="1">  1        1 0.54222757E-01 0.27447782E+03</pdfrwt>
<pdfrwt beam="2">  1       -1 0.82214083E-02 0.27447782E+03</pdfrwt>
<totfact> 0.58514933E+03</totfact>
</mgrwt>
</event>
<event>
 9    1  0.2095749E-002  0.2746854E+03  0.7818608E-02  0.1098628E+00
         -1   -1    0    0    0  501 -0.00000000000E+00  0.00000000000E+00  0.65265864493E+02  0.65265864493E+02  0.00000000000E+00 0.  1.
          1   -1    0    0  501    0  0.00000000000E+00 -0.00000000000E+00 -0.28901818793E+03  0.28901818793E+03  0.00000000000E+00 0.  1.
         36    2    1    2    0    0  0.00000000000E+00 -0.35527136788E-14 -0.22375232343E+03  0.35428405242E+03  0.27468543383E+03 0.  0.
         25    2    3    3    0    0 -0.23893157462E+02 -0.25618466121E+02 -0.54429494951E+02  0.14159391154E+03  0.12593282767E+03 0.  0.
         25    2    3    3    0    0  0.23893157462E+02  0.25618466121E+02 -0.16932282848E+03  0.21269014088E+03  0.12385349007E+03 0.  0.
          5    1    4    4  502    0 -0.68201960574E+02 -0.24215194646E+02 -0.17005728898E+01  0.72545606524E+02  0.47000000000E+01 0.  1.
         -5    1    4    4    0  502  0.44308803112E+02 -0.14032714749E+01 -0.52728922061E+02  0.69048305017E+02  0.47000000000E+01 0.  1.
          5    1    5    5  503    0 -0.37584067527E+02  0.35213015962E+02 -0.29411479000E+02  0.59494905008E+02  0.47000000000E+01 0.  1.
         -5    1    5    5    0  503  0.61477224989E+02 -0.95945498410E+01 -0.13991134948E+03  0.15319523587E+03  0.47000000000E+01 0.  1.
<mgrwt>
<rscale>  0 0.27468543E+03</rscale>
<asrwt>0</asrwt>
<pdfrwt beam="1">  1        1 0.44464337E-01 0.27468543E+03</pdfrwt>
<pdfrwt beam="2">  1       -1 0.10040902E-01 0.27468543E+03</pdfrwt>
<totfact> 0.55269707E+03</totfact>
</mgrwt>
</event>
<event>
 9    1  0.2095749E-002  0.2747216E+03  0.7818608E-02  0.1098607E+00
         -2   -1    0    0    0  501 -0.00000000000E+00  0.00000000000E+00  0.11752486187E+03  0.11752486187E+03  0.00000000000E+00 0. -1.
          2   -1    0    0  501    0  0.00000000000E+00 -0.00000000000E+00 -0.16054470763E+03  0.16054470763E+03  0.00000000000E+00 0. -1.
         36    2    1    2    0    0  0.71054273576E-14  0.35527136788E-14 -0.43019845764E+02  0.27806956950E+03  0.27472163794E+03 0.  0.
         25    2    3    3    0    0 -0.18576267429E+02 -0.22939724703E+00 -0.14782422494E+02  0.12611120348E+03  0.12385630906E+03 0.  0.
         25    2    3    3    0    0  0.18576267429E+02  0.22939724703E+00 -0.28237423270E+02  0.15195836602E+03  0.14815148530E+03 0.  0.
          5    1    4    4  502    0 -0.26127972499E+02 -0.56896087857E+02 -0.25486399766E+02  0.67760477665E+02  0.47000000000E+01 0.  1.
         -5    1    4    4    0  502  0.75517050705E+01  0.56666690609E+02  0.10703977272E+02  0.58350725818E+02  0.47000000000E+01 0.  1.
          5    1    5    5  503    0 -0.64252909306E+02 -0.99639766655E+01 -0.18762044391E+02  0.67836726742E+02  0.47000000000E+01 0.  1.
         -5    1    5    5    0  503  0.82829176735E+02  0.10193373913E+02 -0.94753788782E+01  0.84121639280E+02  0.47000000000E+01 0.  1.
<mgrwt>
<rscale>  0 0.27472164E+03</rscale>
<asrwt>0</asrwt>
<pdfrwt beam="1">  1        2 0.24699186E-01 0.27472164E+03</pdfrwt>
<pdfrwt beam="2">  1       -2 0.18080748E-01 0.27472164E+03</pdfrwt>
<totfact> 0.54105233E+03</totfact>
</mgrwt>
</event>
<event>
 9    1  0.2095749E-002  0.2748405E+03  0.7818608E-02  0.1098541E+00
         -1   -1    0    0    0  501 -0.00000000000E+00  0.00000000000E+00  0.17338171259E+03  0.17338171259E+03  0.00000000000E+00 0. -1.
          1   -1    0    0  501    0  0.00000000000E+00 -0.00000000000E+00 -0.10891759397E+03  0.10891759397E+03  0.00000000000E+00 0. -1.
         36    2    1    2    0    0  0.17763568394E-14  0.14210854715E-13  0.64464118617E+02  0.28229930656E+03  0.27484045535E+03 0.  0.
         25    2    3    3    0    0  0.73238389793E+01  0.45165275133E+02 -0.31168289350E+02  0.12187893260E+03  0.10857933163E+03 0.  0.
         25    2    3    3    0    0 -0.73238389793E+01 -0.45165275133E+02  0.95632407967E+02  0.16042037395E+03  0.12039766705E+03 0.  0.
          5    1    4    4  502    0  0.91105229663E+01 -0.99053939713E+01 -0.58487130836E+02  0.60199276838E+02  0.47000000000E+01 0. -1.
         -5    1    4    4    0  502 -0.17866839870E+01  0.55070669104E+02  0.27318841486E+02  0.61679655766E+02  0.47000000000E+01 0. -1.
          5    1    5    5  503    0 -0.17018672932E+02 -0.75879934597E+02  0.23644758057E+02  0.81415995274E+02  0.47000000000E+01 0. -1.
         -5    1    5    5    0  503  0.96948339523E+01  0.30714659464E+02  0.71987649909E+02  0.79004378681E+02  0.47000000000E+01 0. -1.
<mgrwt>
<rscale>  0 0.27484046E+03</rscale>
<asrwt>0</asrwt>
<pdfrwt beam="1">  1        1 0.16756553E-01 0.27484046E+03</pdfrwt>
<pdfrwt beam="2">  1       -1 0.26674110E-01 0.27484046E+03</pdfrwt>
<totfact> 0.39954307E+03</totfact>
</mgrwt>
</event>
<event>
 9    1  0.2095749E-002  0.2764282E+03  0.7818608E-02  0.1097656E+00
         -2   -1    0    0    0  501 -0.00000000000E+00  0.00000000000E+00  0.21362142274E+02  0.21362142274E+02  0.00000000000E+00 0. -1.
          2   -1    0    0  501    0  0.00000000000E+00 -0.00000000000E+00 -0.89425166476E+03  0.89425166476E+03  0.00000000000E+00 0. -1.
         36    2    1    2    0    0  0.00000000000E+00 -0.35527136788E-14 -0.87288952248E+03  0.91561380703E+03  0.27642815552E+03 0.  0.
         25    2    3    3    0    0  0.57164629612E+00  0.16577084166E+02 -0.62768918875E+03  0.64013391720E+03  0.12450938827E+03 0.  0.
         25    2    3    3    0    0 -0.57164629612E+00 -0.16577084166E+02 -0.24520033373E+03  0.27547988983E+03  0.12446220126E+03 0.  0.
          5    1    4    4  502    0 -0.60600095265E+02  0.18158189184E+02 -0.28289583293E+03  0.28992108180E+03  0.47000000000E+01 0. -1.
         -5    1    4    4    0  502  0.61171741561E+02 -0.15811050177E+01 -0.34479335583E+03  0.35021283540E+03  0.47000000000E+01 0. -1.
          5    1    5    5  503    0 -0.39157779105E+02  0.31066225357E+02 -0.50128067007E+02  0.70946142420E+02  0.47000000000E+01 0.  1.
         -5    1    5    5    0  503  0.38586132809E+02 -0.47643309523E+02 -0.19507226672E+03  0.20453374741E+03  0.47000000000E+01 0.  1.
<mgrwt>
<rscale>  0 0.27642816E+03</rscale>
<asrwt>0</asrwt>
<pdfrwt beam="1">  1        2 0.13757715E+00 0.27642816E+03</pdfrwt>
<pdfrwt beam="2">  1       -2 0.32864842E-02 0.27642816E+03</pdfrwt>
<totfact> 0.11291504E+04</totfact>
</mgrwt>
</event>
<event>
 9    1  0.2095749E-002  0.2753124E+03  0.7818608E-02  0.1098277E+00
          2   -1    0    0  501    0  0.00000000000E+00  0.00000000000E+00  0.55654387245E+03  0.55654387245E+03  0.00000000000E+00 0. -1.
         -2   -1    0    0    0  501 -0.00000000000E+00 -0.00000000000E+00 -0.34048045842E+02  0.34048045842E+02  0.00000000000E+00 0. -1.
         36    2    1    2    0    0 -0.35527136788E-14  0.14210854715E-13  0.52249582661E+03  0.59059191830E+03  0.27531241369E+03 0.  0.
         25    2    3    3    0    0  0.18553225942E+02 -0.66365885842E+02  0.28967819822E+03  0.32117878423E+03  0.12038978330E+03 0.  0.
         25    2    3    3    0    0 -0.18553225942E+02  0.66365885842E+02  0.23281762840E+03  0.26941313406E+03  0.11675074183E+03 0.  0.
          5    1    4    4  502    0 -0.50092951127E+02 -0.16384930245E+02  0.12779531757E+03  0.13831667609E+03  0.47000000000E+01 0. -1.
         -5    1    4    4    0  502  0.68646177068E+02 -0.49980955597E+02  0.16188288064E+03  0.18286210814E+03  0.47000000000E+01 0. -1.
          5    1    5    5  503    0  0.93506672463E+01 -0.26944189263E+02  0.10346458335E+03  0.10742641352E+03  0.47000000000E+01 0. -1.
         -5    1    5    5    0  503 -0.27903893188E+02  0.93310075105E+02  0.12935304505E+03  0.16198672055E+03  0.47000000000E+01 0. -1.
<mgrwt>
<rscale>  0 0.27531241E+03</rscale>
<asrwt>0</asrwt>
<pdfrwt beam="1">  1        2 0.85622128E-01 0.27531241E+03</pdfrwt>
<pdfrwt beam="2">  1       -2 0.52381613E-02 0.27531241E+03</pdfrwt>
<totfact> 0.99915268E+03</totfact>
</mgrwt>
</event>
<event>
 9    1  0.2095749E-002  0.2768609E+03  0.7818608E-02  0.1097416E+00
         -2   -1    0    0    0  501 -0.00000000000E+00  0.00000000000E+00  0.87112077389E+02  0.87112077389E+02  0.00000000000E+00 0. -1.
          2   -1    0    0  501    0  0.00000000000E+00 -0.00000000000E+00 -0.21998084656E+03  0.21998084656E+03  0.00000000000E+00 0. -1.
         36    2    1    2    0    0 -0.71054273576E-14  0.71054273576E-14 -0.13286876917E+03  0.30709292395E+03  0.27686089308E+03 0.  0.
         25    2    3    3    0    0  0.41770835191E+02 -0.35798990978E+02 -0.54417478076E+02  0.14676576476E+03  0.12470989279E+03 0.  0.
         25    2    3    3    0    0 -0.41770835191E+02  0.35798990978E+02 -0.78451291095E+02  0.16032715919E+03  0.12854502118E+03 0.  0.
          5    1    4    4  502    0  0.47542725273E+02 -0.42156386271E+01 -0.87904293774E+02  0.10013659271E+03  0.47000000000E+01 0. -1.
         -5    1    4    4    0  502 -0.57718900825E+01 -0.31583352351E+02  0.33486815698E+02  0.46629172054E+02  0.47000000000E+01 0. -1.
          5    1    5    5  503    0 -0.61339143392E+02  0.74197629811E+02 -0.51504142102E+02  0.10928195384E+03  0.47000000000E+01 0.  1.
         -5    1    5    5    0  503  0.19568308201E+02 -0.38398638832E+02 -0.26947148992E+02  0.51045205346E+02  0.47000000000E+01 0.  1.
<mgrwt>
<rscale>  0 0.27686089E+03</rscale>
<asrwt>0</asrwt>
<pdfrwt beam="1">  1        2 0.33843207E-01 0.27686089E+03</pdfrwt>
<pdfrwt beam="2">  1       -2 0.13401858E-01 0.27686089E+03</pdfrwt>
<totfact> 0.62867576E+03</totfact>
</mgrwt>
</event>
<event>
 9    1  0.2095749E-002  0.2730456E+03  0.7818608E-02  0.1099549E+00
         -1   -1    0    0    0  501 -0.00000000000E+00  0.00000000000E+00  0.35690050268E+02  0.35690050268E+02  0.00000000000E+00 0.  1.
          1   -1    0    0  501    0  0.00000000000E+00 -0.00000000000E+00 -0.52223175457E+03  0.52223175457E+03  0.00000000000E+00 0.  1.
         36    2    1    2    0    0  0.35527136788E-14  0.35527136788E-14 -0.48654170430E+03  0.55792180484E+03  0.27304561943E+03 0.  0.
         25    2    3    3    0    0 -0.31849011004E+02  0.20263986486E+02 -0.19513607880E+03  0.23596064309E+03  0.12717840693E+03 0.  0.
         25    2    3    3    0    0  0.31849011004E+02 -0.20263986486E+02 -0.29140562550E+03  0.32196116175E+03  0.13159317022E+03 0.  0.
          5    1    4    4  502    0 -0.60013790993E+02  0.36659660295E+02 -0.48215421653E+02  0.85395565971E+02  0.47000000000E+01 0. -1.
         -5    1    4    4    0  502  0.28164779990E+02 -0.16395673809E+02 -0.14692065715E+03  0.15056507712E+03  0.47000000000E+01 0. -1.
          5    1    5    5  503    0 -0.17998023771E+02  0.28702798935E+02 -0.15944940120E+02  0.37737390501E+02  0.47000000000E+01 0. -1.
         -5    1    5    5    0  503  0.49847034775E+02 -0.48966785421E+02 -0.27546068538E+03  0.28422377125E+03  0.47000000000E+01 0. -1.
<mgrwt>
<rscale>  0 0.27304562E+03</rscale>
<asrwt>0</asrwt>
<pdfrwt beam="1">  1        1 0.80343347E-01 0.27304562E+03</pdfrwt>
<pdfrwt beam="2">  1       -1 0.54907770E-02 0.27304562E+03</pdfrwt>
<totfact> 0.64758302E+03</totfact>
</mgrwt>
</event>
<event>
 9    1  0.2095749E-002  0.2744390E+03  0.7818608E-02  0.1098766E+00
          2   -1    0    0  501    0  0.00000000000E+00  0.00000000000E+00  0.19003779582E+02  0.19003779582E+02  0.00000000000E+00 0. -1.
         -2   -1    0    0    0  501 -0.00000000000E+00 -0.00000000000E+00 -0.99081280642E+03  0.99081280642E+03  0.00000000000E+00 0. -1.
         36    2    1    2    0    0 -0.71054273576E-14 -0.53290705182E-14 -0.97180902684E+03  0.10098165860E+04  0.27443897814E+03 0.  0.
         25    2    3    3    0    0  0.26434822879E+02  0.15573508200E+02 -0.33600286782E+03  0.36060450677E+03  0.12726487772E+03 0.  0.
         25    2    3    3    0    0 -0.26434822879E+02 -0.15573508200E+02 -0.63580615902E+03  0.64921207923E+03  0.12761472469E+03 0.  0.
          5    1    4    4  502    0 -0.31324238421E+02  0.51318725569E+02 -0.12308694917E+03  0.13706679599E+03  0.47000000000E+01 0.  1.
         -5    1    4    4    0  502  0.57759061300E+02 -0.35745217370E+02 -0.21291591865E+03  0.22353771078E+03  0.47000000000E+01 0.  1.
          5    1    5    5  503    0 -0.20716283667E+02  0.11800145080E+02 -0.16766079567E+02  0.29522859904E+02  0.47000000000E+01 0.  1.
         -5    1    5    5    0  503 -0.57185392122E+01 -0.27373653280E+02 -0.61904007945E+03  0.61968921933E+03  0.47000000000E+01 0.  1.
<mgrwt>
<rscale>  0 0.27443898E+03</rscale>
<asrwt>0</asrwt>
<pdfrwt beam="1">  1        2 0.29236586E-02 0.27443898E+03</pdfrwt>
<pdfrwt beam="2">  1       -2 0.15243273E+00 0.27443898E+03</pdfrwt>
<totfact> 0.98718044E+02</totfact>
</mgrwt>
</event>
<event>
 9    1  0.2095749E-002  0.2743708E+03  0.7818608E-02  0.1098804E+00
         -1   -1    0    0    0  501 -0.00000000000E+00  0.00000000000E+00  0.28177202276E+02  0.28177202276E+02  0.00000000000E+00 0. -1.
          1   -1    0    0  501    0  0.00000000000E+00 -0.00000000000E+00 -0.66790979943E+03  0.66790979943E+03  0.00000000000E+00 0. -1.
         36    2    1    2    0    0  0.00000000000E+00  0.00000000000E+00 -0.63973259716E+03  0.69608700171E+03  0.27437076754E+03 0.  0.
         25    2    3    3    0    0  0.40769746490E+02  0.28686817423E+02 -0.25737124550E+03  0.29090193963E+03  0.12609074013E+03 0.  0.
         25    2    3    3    0    0 -0.40769746490E+02 -0.28686817423E+02 -0.38236135166E+03  0.40518506208E+03  0.12445732428E+03 0.  0.
          5    1    4    4  502    0  0.60853549204E+02  0.67708418264E+02 -0.16426016732E+03  0.18785919440E+03  0.47000000000E+01 0.  1.
         -5    1    4    4    0  502 -0.20083802714E+02 -0.39021600841E+02 -0.93111078179E+02  0.10304274522E+03  0.47000000000E+01 0.  1.
          5    1    5    5  503    0  0.42737521355E+02  0.59550949638E+01 -0.13254712374E+03  0.13947325514E+03  0.47000000000E+01 0. -1.
         -5    1    5    5    0  503 -0.83507267845E+02 -0.34641912387E+02 -0.24981422792E+03  0.26571180694E+03  0.47000000000E+01 0. -1.
<mgrwt>
<rscale>  0 0.27437077E+03</rscale>
<asrwt>0</asrwt>
<pdfrwt beam="1">  1        1 0.10275535E+00 0.27437077E+03</pdfrwt>
<pdfrwt beam="2">  1       -1 0.43349543E-02 0.27437077E+03</pdfrwt>
<totfact> 0.65625145E+03</totfact>
</mgrwt>
</event>
<event>
 9    1  0.2095749E-002  0.2757802E+03  0.7818608E-02  0.1098016E+00
         -2   -1    0    0    0  501 -0.00000000000E+00  0.00000000000E+00  0.10820070712E+02  0.10820070712E+02  0.00000000000E+00 0.  1.
          2   -1    0    0  501    0  0.00000000000E+00 -0.00000000000E+00 -0.17572596171E+04  0.17572596171E+04  0.00000000000E+00 0.  1.
         36    2    1    2    0    0 -0.62172489379E-14  0.00000000000E+00 -0.17464395464E+04  0.17680796878E+04  0.27578015387E+03 0.  0.
         25    2    3    3    0    0  0.76505413251E+01  0.55897472578E+02 -0.10074438829E+04  0.10165251164E+04  0.12327642408E+03 0.  0.
         25    2    3    3    0    0 -0.76505413251E+01 -0.55897472578E+02 -0.73899566351E+03  0.75155457149E+03  0.12464599883E+03 0.  0.
          5    1    4    4  502    0  0.74957463127E+01  0.59163307528E+02 -0.19293822395E+03  0.20199933523E+03  0.47000000000E+01 0. -1.
         -5    1    4    4    0  502  0.15479501234E+00 -0.32658349499E+01 -0.81450565896E+03  0.81452578113E+03  0.47000000000E+01 0. -1.
          5    1    5    5  503    0  0.41349267310E+02 -0.54005909637E+02 -0.60429264792E+03  0.60812670926E+03  0.47000000000E+01 0. -1.
         -5    1    5    5    0  503 -0.48999808635E+02 -0.18915629402E+01 -0.13470301558E+03  0.14342786223E+03  0.47000000000E+01 0. -1.
<mgrwt>
<rscale>  0 0.27578015E+03</rscale>
<asrwt>0</asrwt>
<pdfrwt beam="1">  1        2 0.27034757E+00 0.27578015E+03</pdfrwt>
<pdfrwt beam="2">  1       -2 0.16646267E-02 0.27578015E+03</pdfrwt>
<totfact> 0.10094073E+04</totfact>
</mgrwt>
</event>
<event>
 9    1  0.2095749E-002  0.2732014E+03  0.7818608E-02  0.1099461E+00
         -1   -1    0    0    0  501 -0.00000000000E+00  0.00000000000E+00  0.45240055282E+03  0.45240055282E+03  0.00000000000E+00 0. -1.
          1   -1    0    0  501    0  0.00000000000E+00 -0.00000000000E+00 -0.41246084501E+02  0.41246084501E+02  0.00000000000E+00 0. -1.
         36    2    1    2    0    0  0.71054273576E-14 -0.35527136788E-14  0.41115446832E+03  0.49364663732E+03  0.27320140138E+03 0.  0.
         25    2    3    3    0    0  0.48175241956E+02 -0.25800998072E+02  0.19387122428E+03  0.23691358815E+03  0.12472149457E+03 0.  0.
         25    2    3    3    0    0 -0.48175241956E+02  0.25800998072E+02  0.21728324404E+03  0.25673304917E+03  0.12535272217E+03 0.  0.
          5    1    4    4  502    0  0.15194650366E+02  0.10208208157E+02  0.18632468856E+03  0.18728071038E+03  0.47000000000E+01 0.  1.
         -5    1    4    4    0  502  0.32980591589E+02 -0.36009206228E+02  0.75465357236E+01  0.49632877775E+02  0.47000000000E+01 0.  1.
          5    1    5    5  503    0 -0.30492825422E+02 -0.29877765107E+02  0.18480027704E+03  0.18972539536E+03  0.47000000000E+01 0.  1.
         -5    1    5    5    0  503 -0.17682416534E+02  0.55678763178E+02  0.32482966991E+02  0.67007653802E+02  0.47000000000E+01 0.  1.
<mgrwt>
<rscale>  0 0.27320140E+03</rscale>
<asrwt>0</asrwt>
<pdfrwt beam="1">  1        1 0.63455518E-02 0.27320140E+03</pdfrwt>
<pdfrwt beam="2">  1       -1 0.69600082E-01 0.27320140E+03</pdfrwt>
<totfact> 0.25866903E+03</totfact>
</mgrwt>
</event>
<event>
 9    1  0.2095749E-002  0.2744932E+03  0.7818608E-02  0.1098735E+00
          1   -1    0    0  501    0  0.00000000000E+00  0.00000000000E+00  0.96073765835E+02  0.96073765835E+02  0.00000000000E+00 0. -1.
         -1   -1    0    0    0  501 -0.00000000000E+00 -0.00000000000E+00 -0.19606427396E+03  0.19606427396E+03  0.00000000000E+00 0. -1.
         36    2    1    2    0    0 -0.71054273576E-14  0.00000000000E+00 -0.99990508127E+02  0.29213803980E+03  0.27449322866E+03 0.  0.
         25    2    3    3    0    0  0.25834579614E+01 -0.32907734473E+02 -0.98656178138E+02  0.16457215547E+03  0.12752003618E+03 0.  0.
         25    2    3    3    0    0 -0.25834579614E+01  0.32907734473E+02 -0.13343299894E+01  0.12756588433E+03  0.12321396497E+03 0.  0.
          5    1    4    4  502    0 -0.16042824767E+02 -0.25895899308E+02 -0.12640120902E+03  0.13010505551E+03  0.47000000000E+01 0. -1.
         -5    1    4    4    0  502  0.18626282729E+02 -0.70118351648E+01  0.27745030884E+02  0.34467099957E+02  0.47000000000E+01 0. -1.
          5    1    5    5  503    0 -0.44676826278E+02  0.52127294856E+02  0.26063738202E+02  0.73584523674E+02  0.47000000000E+01 0. -1.
         -5    1    5    5    0  503  0.42093368316E+02 -0.19219560383E+02 -0.27398068191E+02  0.53981360655E+02  0.47000000000E+01 0. -1.
<mgrwt>
<rscale>  0 0.27449323E+03</rscale>
<asrwt>0</asrwt>
<pdfrwt beam="1">  1        1 0.14780579E-01 0.27449323E+03</pdfrwt>
<pdfrwt beam="2">  1       -1 0.30163735E-01 0.27449323E+03</pdfrwt>
<totfact> 0.38251544E+03</totfact>
</mgrwt>
</event>
<event>
 9    1  0.2095749E-002  0.2755462E+03  0.7818608E-02  0.1098147E+00
         -2   -1    0    0    0  501 -0.00000000000E+00  0.00000000000E+00  0.55074619412E+02  0.55074619412E+02  0.00000000000E+00 0. -1.
          2   -1    0    0  501    0  0.00000000000E+00 -0.00000000000E+00 -0.34464914831E+03  0.34464914831E+03  0.00000000000E+00 0. -1.
         36    2    1    2    0    0 -0.71054273576E-14 -0.35527136788E-14 -0.28957452890E+03  0.39972376772E+03  0.27554615348E+03 0.  0.
         25    2    3    3    0    0 -0.18074634873E+02 -0.16350935954E+02 -0.69125032601E+02  0.14561681009E+03  0.12582503613E+03 0.  0.
         25    2    3    3    0    0  0.18074634873E+02  0.16350935954E+02 -0.22044949630E+03  0.25410695763E+03  0.12400935434E+03 0.  0.
          5    1    4    4  502    0 -0.21600049669E+02  0.50756055697E+02 -0.10569357684E+02  0.56360807815E+02  0.47000000000E+01 0. -1.
         -5    1    4    4    0  502  0.35254147963E+01 -0.67106991652E+02 -0.58555674917E+02  0.89256002280E+02  0.47000000000E+01 0. -1.
          5    1    5    5  503    0 -0.43726503375E+02  0.19887882650E+02 -0.16127311538E+03  0.16834085279E+03  0.47000000000E+01 0. -1.
         -5    1    5    5    0  503  0.61801138248E+02 -0.35369466957E+01 -0.59176380918E+02  0.85766104839E+02  0.47000000000E+01 0. -1.
<mgrwt>
<rscale>  0 0.27554615E+03</rscale>
<asrwt>0</asrwt>
<pdfrwt beam="1">  1        2 0.53022947E-01 0.27554615E+03</pdfrwt>
<pdfrwt beam="2">  1       -2 0.84730182E-02 0.27554615E+03</pdfrwt>
<totfact> 0.80601849E+03</totfact>
</mgrwt>
</event>
<event>
 9    1  0.2095749E-002  0.2752111E+03  0.7818608E-02  0.1098334E+00
          2   -1    0    0  501    0  0.00000000000E+00  0.00000000000E+00  0.30029225965E+03  0.30029225965E+03  0.00000000000E+00 0.  1.
         -2   -1    0    0    0  501 -0.00000000000E+00 -0.00000000000E+00 -0.63056175429E+02  0.63056175429E+02  0.00000000000E+00 0.  1.
         36    2    1    2    0    0 -0.71054273576E-14 -0.17763568394E-14  0.23723608422E+03  0.36334843508E+03  0.27521105650E+03 0.  0.
         25    2    3    3    0    0 -0.53440927255E+02  0.45106644698E+01  0.14636196881E+03  0.19824509790E+03  0.12248679164E+03 0.  0.
         25    2    3    3    0    0  0.53440927255E+02 -0.45106644698E+01  0.90874115410E+02  0.16510333718E+03  0.12698318116E+03 0.  0.
          5    1    4    4  502    0  0.39314800141E+02  0.81552176854E+01  0.38000411510E+02  0.55482270686E+02  0.47000000000E+01 0. -1.
         -5    1    4    4    0  502 -0.92755727396E+02 -0.36445532155E+01  0.10836155730E+03  0.14276282721E+03  0.47000000000E+01 0. -1.
          5    1    5    5  503    0  0.93061620737E+01 -0.16752778343E+02 -0.29915127036E+02  0.35836644099E+02  0.47000000000E+01 0.  1.
         -5    1    5    5    0  503  0.44134765181E+02  0.12242113873E+02  0.12078924245E+03  0.12926669308E+03  0.47000000000E+01 0.  1.
<mgrwt>
<rscale>  0 0.27521106E+03</rscale>
<asrwt>0</asrwt>
<pdfrwt beam="1">  1        2 0.46198808E-01 0.27521106E+03</pdfrwt>
<pdfrwt beam="2">  1       -2 0.97009502E-02 0.27521106E+03</pdfrwt>
<totfact> 0.75517747E+03</totfact>
</mgrwt>
</event>
<event>
 9    1  0.2095749E-002  0.2814764E+03  0.7818608E-02  0.1094885E+00
         -2   -1    0    0    0  501 -0.00000000000E+00  0.00000000000E+00  0.14190412856E+02  0.14190412856E+02  0.00000000000E+00 0.  1.
          2   -1    0    0  501    0  0.00000000000E+00 -0.00000000000E+00 -0.13958182403E+04  0.13958182403E+04  0.00000000000E+00 0.  1.
         36    2    1    2    0    0  0.00000000000E+00  0.00000000000E+00 -0.13816278274E+04  0.14100086532E+04  0.28147637273E+03 0.  0.
         25    2    3    3    0    0 -0.10925318682E+02 -0.62809483281E+02 -0.62530342160E+03  0.64084788512E+03  0.12496899224E+03 0.  0.
         25    2    3    3    0    0  0.10925318682E+02  0.62809483281E+02 -0.75632440585E+03  0.76916076804E+03  0.12456840060E+03 0.  0.
          5    1    4    4  502    0  0.13654187813E+02 -0.58192863115E+02 -0.60586847354E+03  0.60882800805E+03  0.47000000000E+01 0. -1.
         -5    1    4    4    0  502 -0.24579506495E+02 -0.46166201656E+01 -0.19434948059E+02  0.32019877067E+02  0.47000000000E+01 0. -1.
          5    1    5    5  503    0  0.31015999177E+02  0.57525886004E+02 -0.73846178984E+03  0.74136301825E+03  0.47000000000E+01 0. -1.
         -5    1    5    5    0  503 -0.20090680495E+02  0.52835972769E+01 -0.17862616008E+02  0.27797749794E+02  0.47000000000E+01 0. -1.
<mgrwt>
<rscale>  0 0.28147637E+03</rscale>
<asrwt>0</asrwt>
<pdfrwt beam="1">  1        2 0.21474123E+00 0.28147637E+03</pdfrwt>
<pdfrwt beam="2">  1       -2 0.21831409E-02 0.28147637E+03</pdfrwt>
<totfact> 0.10556524E+04</totfact>
</mgrwt>
</event>
<event>
 9    1  0.2095749E-002  0.2746902E+03  0.7818608E-02  0.1098625E+00
         -1   -1    0    0    0  501 -0.00000000000E+00  0.00000000000E+00  0.30936994863E+03  0.30936994863E+03  0.00000000000E+00 0. -1.
          1   -1    0    0  501    0  0.00000000000E+00 -0.00000000000E+00 -0.60974496831E+02  0.60974496831E+02  0.00000000000E+00 0. -1.
         36    2    1    2    0    0  0.00000000000E+00  0.00000000000E+00  0.24839545180E+03  0.37034444546E+03  0.27469020334E+03 0.  0.
         25    2    3    3    0    0 -0.51898711122E+02 -0.24295366151E+02  0.14379268786E+03  0.19870272537E+03  0.12459010777E+03 0.  0.
         25    2    3    3    0    0  0.51898711122E+02  0.24295366151E+02  0.10460276394E+03  0.17164172009E+03  0.12343176584E+03 0.  0.
          5    1    4    4  502    0 -0.49803128178E+02  0.12021318894E+02  0.15255019878E+03  0.16099228811E+03  0.47000000000E+01 0.  1.
         -5    1    4    4    0  502 -0.20955829440E+01 -0.36316685045E+02 -0.87575109203E+01  0.37710437256E+02  0.47000000000E+01 0.  1.
          5    1    5    5  503    0  0.10150290574E+02  0.19685817486E+02 -0.25937738322E+02  0.34429871886E+02  0.47000000000E+01 0. -1.
         -5    1    5    5    0  503  0.41748420548E+02  0.46095486640E+01  0.13054050226E+03  0.13721184821E+03  0.47000000000E+01 0. -1.
<mgrwt>
<rscale>  0 0.27469020E+03</rscale>
<asrwt>0</asrwt>
<pdfrwt beam="1">  1        1 0.93806919E-02 0.27469020E+03</pdfrwt>
<pdfrwt beam="2">  1       -1 0.47595376E-01 0.27469020E+03</pdfrwt>
<totfact> 0.31373117E+03</totfact>
</mgrwt>
</event>
<event>
 9    1  0.2095749E-002  0.2761408E+03  0.7818608E-02  0.1097816E+00
         -1   -1    0    0    0  501 -0.00000000000E+00  0.00000000000E+00  0.72529215947E+02  0.72529215947E+02  0.00000000000E+00 0. -1.
          1   -1    0    0  501    0  0.00000000000E+00 -0.00000000000E+00 -0.26283801958E+03  0.26283801958E+03  0.00000000000E+00 0. -1.
         36    2    1    2    0    0  0.00000000000E+00  0.71054273576E-14 -0.19030880363E+03  0.33536723553E+03  0.27614080091E+03 0.  0.
         25    2    3    3    0    0 -0.36048424853E+02  0.28065432170E+02 -0.13803988869E+03  0.19228190055E+03  0.12581796768E+03 0.  0.
         25    2    3    3    0    0  0.36048424853E+02 -0.28065432170E+02 -0.52268914944E+02  0.14308533498E+03  0.12511681022E+03 0.  0.
          5    1    4    4  502    0 -0.21003795533E+02  0.73700852959E+02 -0.11623876326E+03  0.13930726915E+03  0.47000000000E+01 0. -1.
         -5    1    4    4    0  502 -0.15044629320E+02 -0.45635420789E+02 -0.21801125432E+02  0.52974631400E+02  0.47000000000E+01 0. -1.
          5    1    5    5  503    0  0.49237632534E+02  0.39528340849E+02 -0.33092164717E+02  0.71442393252E+02  0.47000000000E+01 0.  1.
         -5    1    5    5    0  503 -0.13189207682E+02 -0.67593773019E+02 -0.19176750227E+02  0.71642941728E+02  0.47000000000E+01 0.  1.
<mgrwt>
<rscale>  0 0.27614080E+03</rscale>
<asrwt>0</asrwt>
<pdfrwt beam="1">  1        1 0.40436618E-01 0.27614080E+03</pdfrwt>
<pdfrwt beam="2">  1       -1 0.11158341E-01 0.27614080E+03</pdfrwt>
<totfact> 0.52876780E+03</totfact>
</mgrwt>
</event>
<event>
 9    1  0.2095749E-002  0.2664719E+03  0.7818608E-02  0.1103316E+00
         -1   -1    0    0    0  501 -0.00000000000E+00  0.00000000000E+00  0.28216446007E+03  0.28216446007E+03  0.00000000000E+00 0.  1.
          1   -1    0    0  501    0  0.00000000000E+00 -0.00000000000E+00 -0.62913040806E+02  0.62913040806E+02  0.00000000000E+00 0.  1.
         36    2    1    2    0    0  0.00000000000E+00  0.00000000000E+00  0.21925141926E+03  0.34507750088E+03  0.26647194367E+03 0.  0.
         25    2    3    3    0    0  0.19748227153E+01  0.35483837756E+02  0.16327465541E+03  0.20672581009E+03  0.12171254985E+03 0.  0.
         25    2    3    3    0    0 -0.19748227153E+01 -0.35483837756E+02  0.55976763856E+02  0.13835169079E+03  0.12142812518E+03 0.  0.
          5    1    4    4  502    0  0.52436077546E+02  0.49865145485E+02  0.11041787279E+03  0.13209947613E+03  0.47000000000E+01 0. -1.
         -5    1    4    4    0  502 -0.50461254831E+02 -0.14381307729E+02  0.52856782622E+02  0.74626333960E+02  0.47000000000E+01 0. -1.
          5    1    5    5  503    0  0.23526087238E+02  0.39224764942E+02  0.10632404807E+02  0.47193188041E+02  0.47000000000E+01 0. -1.
         -5    1    5    5    0  503 -0.25500909954E+02 -0.74708602698E+02  0.45344359049E+02  0.91158502747E+02  0.47000000000E+01 0. -1.
<mgrwt>
<rscale>  0 0.26647194E+03</rscale>
<asrwt>0</asrwt>
<pdfrwt beam="1">  1        1 0.96789295E-02 0.26647194E+03</pdfrwt>
<pdfrwt beam="2">  1       -1 0.43409916E-01 0.26647194E+03</pdfrwt>
<totfact> 0.35517231E+03</totfact>
</mgrwt>
</event>
<event>
 9    1  0.2095749E-002  0.2702907E+03  0.7818608E-02  0.1101113E+00
          1   -1    0    0  501    0  0.00000000000E+00  0.00000000000E+00  0.13403928952E+04  0.13403928952E+04  0.00000000000E+00 0. -1.
         -1   -1    0    0    0  501 -0.00000000000E+00 -0.00000000000E+00 -0.13626051581E+02  0.13626051581E+02  0.00000000000E+00 0. -1.
         36    2    1    2    0    0  0.10658141036E-13  0.00000000000E+00  0.13267668437E+04  0.13540189468E+04  0.27029067857E+03 0.  0.
         25    2    3    3    0    0 -0.16796537167E+02  0.20572578184E+02  0.46882457058E+03  0.48659982908E+03  0.12758354535E+03 0.  0.
         25    2    3    3    0    0  0.16796537167E+02 -0.20572578184E+02  0.85794227308E+03  0.86741911775E+03  0.12508248182E+03 0.  0.
          5    1    4    4  502    0  0.18207607481E+02 -0.36286853635E+01  0.42465040961E+03  0.42508204468E+03  0.47000000000E+01 0. -1.
         -5    1    4    4    0  502 -0.35004144648E+02  0.24201263547E+02  0.44174160974E+02  0.61517784400E+02  0.47000000000E+01 0. -1.
          5    1    5    5  503    0  0.61419726715E+02  0.11777698324E+02  0.28532185938E+03  0.29213310399E+03  0.47000000000E+01 0. -1.
         -5    1    5    5    0  503 -0.44623189548E+02 -0.32350276507E+02  0.57262041370E+03  0.57528601376E+03  0.47000000000E+01 0. -1.
<mgrwt>
<rscale>  0 0.27029068E+03</rscale>
<asrwt>0</asrwt>
<pdfrwt beam="1">  1        1 0.20621419E+00 0.27029068E+03</pdfrwt>
<pdfrwt beam="2">  1       -1 0.20963167E-02 0.27029068E+03</pdfrwt>
<totfact> 0.58588472E+03</totfact>
</mgrwt>
</event>
<event>
 9    1  0.2095749E-002  0.2750513E+03  0.7818608E-02  0.1098423E+00
          2   -1    0    0  501    0  0.00000000000E+00  0.00000000000E+00  0.16969377368E+04  0.16969377368E+04  0.00000000000E+00 0.  1.
         -2   -1    0    0    0  501 -0.00000000000E+00 -0.00000000000E+00 -0.11145547476E+02  0.11145547476E+02  0.00000000000E+00 0.  1.
         36    2    1    2    0    0  0.14210854715E-13 -0.14210854715E-13  0.16857921893E+04  0.17080832843E+04  0.27505126875E+03 0.  0.
         25    2    3    3    0    0  0.33137762356E+02 -0.52217916751E+02  0.88648355330E+03  0.89701782292E+03  0.12232359639E+03 0.  0.
         25    2    3    3    0    0 -0.33137762356E+02  0.52217916751E+02  0.79930863602E+03  0.81106546135E+03  0.12291486837E+03 0.  0.
          5    1    4    4  502    0  0.50688766037E+02  0.17970081937E+02  0.21676399878E+03  0.22338530841E+03  0.47000000000E+01 0. -1.
         -5    1    4    4    0  502 -0.17551003681E+02 -0.70187998688E+02  0.66971955453E+03  0.67363251451E+03  0.47000000000E+01 0. -1.
          5    1    5    5  503    0 -0.69911682958E+02  0.22914918005E+01  0.53310167808E+03  0.53769171792E+03  0.47000000000E+01 0.  1.
         -5    1    5    5    0  503  0.36773920602E+02  0.49926424951E+02  0.26620695793E+03  0.27337374343E+03  0.47000000000E+01 0.  1.
<mgrwt>
<rscale>  0 0.27505127E+03</rscale>
<asrwt>0</asrwt>
<pdfrwt beam="1">  1        2 0.26106714E+00 0.27505127E+03</pdfrwt>
<pdfrwt beam="2">  1       -2 0.17147010E-02 0.27505127E+03</pdfrwt>
<totfact> 0.10397144E+04</totfact>
</mgrwt>
</event>
<event>
 9    1  0.2095749E-002  0.2742071E+03  0.7818608E-02  0.1098896E+00
          3   -1    0    0  501    0  0.00000000000E+00  0.00000000000E+00  0.12878830995E+02  0.12878830995E+02  0.00000000000E+00 0. -1.
         -3   -1    0    0    0  501 -0.00000000000E+00 -0.00000000000E+00 -0.14595563720E+04  0.14595563720E+04  0.00000000000E+00 0. -1.
         36    2    1    2    0    0  0.00000000000E+00 -0.71054273576E-14 -0.14466775410E+04  0.14724352030E+04  0.27420707390E+03 0.  0.
         25    2    3    3    0    0 -0.46916737559E+02 -0.28157254459E+02 -0.88657538333E+03  0.89636105713E+03  0.12022155871E+03 0.  0.
         25    2    3    3    0    0  0.46916737559E+02  0.28157254459E+02 -0.56010215771E+03  0.57607414589E+03  0.12309745431E+03 0.  0.
          5    1    4    4  502    0 -0.78083105995E+02 -0.47189210760E+02 -0.52226993478E+03  0.53019974333E+03  0.47000000000E+01 0. -1.
         -5    1    4    4    0  502  0.31166368436E+02  0.19031956302E+02 -0.36430544855E+03  0.36616131380E+03  0.47000000000E+01 0. -1.
          5    1    5    5  503    0  0.34598409543E+02  0.58289004090E+02 -0.51901746215E+03  0.52344615192E+03  0.47000000000E+01 0.  1.
         -5    1    5    5    0  503  0.12318328017E+02 -0.30131749631E+02 -0.41084695558E+02  0.52627993977E+02  0.47000000000E+01 0.  1.
<mgrwt>
<rscale>  0 0.27420707E+03</rscale>
<asrwt>0</asrwt>
<pdfrwt beam="1">  1        3 0.19813585E-02 0.27420707E+03</pdfrwt>
<pdfrwt beam="2">  1       -3 0.22454715E+00 0.27420707E+03</pdfrwt>
<totfact> 0.27916921E+02</totfact>
</mgrwt>
</event>
<event>
 9    1  0.2095749E-002  0.2751580E+03  0.7818608E-02  0.1098363E+00
         -2   -1    0    0    0  501 -0.00000000000E+00  0.00000000000E+00  0.11827568567E+02  0.11827568567E+02  0.00000000000E+00 0.  1.
          2   -1    0    0  501    0  0.00000000000E+00 -0.00000000000E+00 -0.16003276262E+04  0.16003276262E+04  0.00000000000E+00 0.  1.
         36    2    1    2    0    0 -0.71054273576E-14 -0.71054273576E-14 -0.15885000577E+04  0.16121551948E+04  0.27515802536E+03 0.  0.
         25    2    3    3    0    0  0.36387816441E+02  0.31205846345E+02 -0.57733690271E+03  0.59254383618E+03  0.12446855238E+03 0.  0.
         25    2    3    3    0    0 -0.36387816441E+02 -0.31205846345E+02 -0.10111631550E+04  0.10196113586E+04  0.12189552353E+03 0.  0.
          5    1    4    4  502    0 -0.45324140193E+02  0.10989940187E+02 -0.15755691138E+03  0.16438164980E+03  0.47000000000E+01 0. -1.
         -5    1    4    4    0  502  0.81711956634E+02  0.20215906158E+02 -0.41977999133E+03  0.42816218638E+03  0.47000000000E+01 0. -1.
          5    1    5    5  503    0 -0.56608774825E+02 -0.64726786322E+02 -0.81411706429E+03  0.81865914435E+03  0.47000000000E+01 0. -1.
         -5    1    5    5    0  503  0.20220958384E+02  0.33520939977E+02 -0.19704609067E+03  0.20095221428E+03  0.47000000000E+01 0. -1.
<mgrwt>
<rscale>  0 0.27515803E+03</rscale>
<asrwt>0</asrwt>
<pdfrwt beam="1">  1        2 0.24620403E+00 0.27515803E+03</pdfrwt>
<pdfrwt beam="2">  1       -2 0.18196276E-02 0.27515803E+03</pdfrwt>
<totfact> 0.10717610E+04</totfact>
</mgrwt>
</event>
<event>
 9    1  0.2095749E-002  0.2775034E+03  0.7818608E-02  0.1097060E+00
         -4   -1    0    0    0  501 -0.00000000000E+00  0.00000000000E+00  0.16019915450E+03  0.16019915450E+03  0.00000000000E+00 0.  1.
          4   -1    0    0  501    0  0.00000000000E+00 -0.00000000000E+00 -0.12017559507E+03  0.12017559507E+03  0.00000000000E+00 0.  1.
         36    2    1    2    0    0  0.71054273576E-14  0.00000000000E+00  0.40023559429E+02  0.28037474957E+03  0.27750336014E+03 0.  0.
         25    2    3    3    0    0 -0.61539579626E+02 -0.24837932239E+02  0.10283005722E+02  0.13808309759E+03  0.12065305175E+03 0.  0.
         25    2    3    3    0    0  0.61539579626E+02  0.24837932239E+02  0.29740553706E+02  0.14229165198E+03  0.12230441917E+03 0.  0.
          5    1    4    4  502    0 -0.55971729709E+02 -0.46489005468E+01 -0.49219916228E+02  0.74827381060E+02  0.47000000000E+01 0.  1.
         -5    1    4    4    0  502 -0.55678499168E+01 -0.20189031692E+02  0.59502921950E+02  0.63255716532E+02  0.47000000000E+01 0.  1.
          5    1    5    5  503    0  0.75989577238E+02 -0.15109142823E+02  0.52657746105E+02  0.93795683645E+02  0.47000000000E+01 0. -1.
         -5    1    5    5    0  503 -0.14449997612E+02  0.39947075061E+02 -0.22917192399E+02  0.48495968331E+02  0.47000000000E+01 0. -1.
<mgrwt>
<rscale>  0 0.27750336E+03</rscale>
<asrwt>0</asrwt>
<pdfrwt beam="1">  1        4 0.18488553E-01 0.27750336E+03</pdfrwt>
<pdfrwt beam="2">  1       -4 0.24646024E-01 0.27750336E+03</pdfrwt>
<totfact> 0.75097498E+02</totfact>
</mgrwt>
</event>
<event>
 9    1  0.2095749E-002  0.2752813E+03  0.7818608E-02  0.1098294E+00
          2   -1    0    0  501    0  0.00000000000E+00  0.00000000000E+00  0.65015044284E+03  0.65015044284E+03  0.00000000000E+00 0. -1.
         -2   -1    0    0    0  501 -0.00000000000E+00 -0.00000000000E+00 -0.29139326077E+02  0.29139326077E+02  0.00000000000E+00 0. -1.
         36    2    1    2    0    0  0.14210854715E-13  0.00000000000E+00  0.62101111676E+03  0.67928976892E+03  0.27528127981E+03 0.  0.
         25    2    3    3    0    0 -0.50012056625E+02 -0.13077718221E+02  0.29131655244E+03  0.32239950517E+03  0.12807761196E+03 0.  0.
         25    2    3    3    0    0  0.50012056625E+02  0.13077718221E+02  0.32969456432E+03  0.35689026375E+03  0.12649079845E+03 0.  0.
          5    1    4    4  502    0 -0.75356051278E+02 -0.10076104584E+01  0.28277541658E+03  0.29268340569E+03  0.47000000000E+01 0.  1.
         -5    1    4    4    0  502  0.25343994653E+02 -0.12070107763E+02  0.85411358554E+01  0.29716099477E+02  0.47000000000E+01 0.  1.
          5    1    5    5  503    0 -0.13126616694E+02  0.43252971329E+02  0.46030169027E+02  0.64683800563E+02  0.47000000000E+01 0.  1.
         -5    1    5    5    0  503  0.63138673318E+02 -0.30175253108E+02  0.28366439530E+03  0.29220646319E+03  0.47000000000E+01 0.  1.
<mgrwt>
<rscale>  0 0.27528128E+03</rscale>
<asrwt>0</asrwt>
<pdfrwt beam="1">  1        2 0.10002313E+00 0.27528128E+03</pdfrwt>
<pdfrwt beam="2">  1       -2 0.44829737E-02 0.27528128E+03</pdfrwt>
<totfact> 0.10561251E+04</totfact>
</mgrwt>
</event>
<event>
 9    1  0.2095749E-002  0.2751348E+03  0.7818608E-02  0.1098376E+00
         -1   -1    0    0    0  501 -0.00000000000E+00  0.00000000000E+00  0.69450661829E+02  0.69450661829E+02  0.00000000000E+00 0.  1.
          1   -1    0    0  501    0  0.00000000000E+00 -0.00000000000E+00 -0.27249262862E+03  0.27249262862E+03  0.00000000000E+00 0.  1.
         36    2    1    2    0    0  0.00000000000E+00 -0.35527136788E-14 -0.20304196679E+03  0.34194329045E+03  0.27513482805E+03 0.  0.
         25    2    3    3    0    0 -0.69878890665E+02 -0.19056386167E+02 -0.12106867744E+02  0.10191528090E+03  0.70667835819E+02 0.  0.
         25    2    3    3    0    0  0.69878890665E+02  0.19056386167E+02 -0.19093509904E+03  0.24002800955E+03  0.12613892384E+03 0.  0.
          5    1    4    4  502    0 -0.44116019684E+01  0.18242147890E+02 -0.17690129784E+02  0.26215813612E+02  0.47000000000E+01 0.  1.
         -5    1    4    4    0  502 -0.65467288697E+02 -0.37298534057E+02  0.55832620403E+01  0.75699467284E+02  0.47000000000E+01 0.  1.
          5    1    5    5  503    0  0.10240369596E+03  0.27665538448E+02 -0.11325283563E+03  0.15524237096E+03  0.47000000000E+01 0. -1.
         -5    1    5    5    0  503 -0.32524805291E+02 -0.86091522816E+01 -0.77682263411E+02  0.84785638589E+02  0.47000000000E+01 0. -1.
<mgrwt>
<rscale>  0 0.27513483E+03</rscale>
<asrwt>0</asrwt>
<pdfrwt beam="1">  1        1 0.41921944E-01 0.27513483E+03</pdfrwt>
<pdfrwt beam="2">  1       -1 0.10684717E-01 0.27513483E+03</pdfrwt>
<totfact> 0.54052687E+03</totfact>
</mgrwt>
</event>
<event>
 9    1  0.2095749E-002  0.2743635E+03  0.7818608E-02  0.1098808E+00
         -1   -1    0    0    0  501 -0.00000000000E+00  0.00000000000E+00  0.39923895950E+03  0.39923895950E+03  0.00000000000E+00 0. -1.
          1   -1    0    0  501    0  0.00000000000E+00 -0.00000000000E+00 -0.47136756883E+02  0.47136756883E+02  0.00000000000E+00 0. -1.
         36    2    1    2    0    0  0.71054273576E-14  0.88817841970E-15  0.35210220262E+03  0.44637571638E+03  0.27436347987E+03 0.  0.
         25    2    3    3    0    0 -0.51020373421E+02  0.15490664552E+01  0.19862979002E+03  0.24150058648E+03  0.12752749380E+03 0.  0.
         25    2    3    3    0    0  0.51020373421E+02 -0.15490664552E+01  0.15347241259E+03  0.20487512990E+03  0.12575595140E+03 0.  0.
          5    1    4    4  502    0 -0.16985706333E+02  0.33636844219E+01  0.20561230626E+03  0.20639365077E+03  0.47000000000E+01 0.  1.
         -5    1    4    4    0  502 -0.34034667088E+02 -0.18146179666E+01 -0.69825162368E+01  0.35106935713E+02  0.47000000000E+01 0.  1.
          5    1    5    5  503    0 -0.39503059258E+02 -0.10453938402E+02  0.27713720210E+02  0.49597548394E+02  0.47000000000E+01 0.  1.
         -5    1    5    5    0  503  0.90523432678E+02  0.89048719465E+01  0.12575869239E+03  0.15527758151E+03  0.47000000000E+01 0.  1.
<mgrwt>
<rscale>  0 0.27436348E+03</rscale>
<asrwt>0</asrwt>
<pdfrwt beam="1">  1        1 0.72518090E-02 0.27436348E+03</pdfrwt>
<pdfrwt beam="2">  1       -1 0.61421376E-01 0.27436348E+03</pdfrwt>
<totfact> 0.27544221E+03</totfact>
</mgrwt>
</event>
<event>
 9    1  0.2095749E-002  0.2756703E+03  0.7818608E-02  0.1098078E+00
         -1   -1    0    0    0  501 -0.00000000000E+00  0.00000000000E+00  0.68305979116E+01  0.68305979116E+01  0.00000000000E+00 0. -1.
          1   -1    0    0  501    0  0.00000000000E+00 -0.00000000000E+00 -0.27813850401E+04  0.27813850401E+04  0.00000000000E+00 0. -1.
         36    2    1    2    0    0  0.00000000000E+00  0.00000000000E+00 -0.27745544421E+04  0.27882156380E+04  0.27567025843E+03 0.  0.
         25    2    3    3    0    0  0.49274027179E+02  0.10877543822E+02 -0.11847809225E+04  0.11927744850E+04  0.12829219356E+03 0.  0.
         25    2    3    3    0    0 -0.49274027179E+02 -0.10877543822E+02 -0.15897735196E+04  0.15954411530E+04  0.12452460900E+03 0.  0.
          5    1    4    4  502    0  0.93684721611E+00  0.60137355023E+02 -0.35261859390E+03  0.35774200469E+03  0.47000000000E+01 0.  1.
         -5    1    4    4    0  502  0.48337179963E+02 -0.49259811201E+02 -0.83216232862E+03  0.83503248029E+03  0.47000000000E+01 0.  1.
          5    1    5    5  503    0 -0.88169920851E+01 -0.33063255622E+02 -0.13870455729E+04  0.13874755600E+04  0.47000000000E+01 0. -1.
         -5    1    5    5    0  503 -0.40457035094E+02  0.22185711800E+02 -0.20272794674E+03  0.20796559303E+03  0.47000000000E+01 0. -1.
<mgrwt>
<rscale>  0 0.27567026E+03</rscale>
<asrwt>0</asrwt>
<pdfrwt beam="1">  1        1 0.42790485E+00 0.27567026E+03</pdfrwt>
<pdfrwt beam="2">  1       -1 0.10508626E-02 0.27567026E+03</pdfrwt>
<totfact> 0.17941283E+03</totfact>
</mgrwt>
</event>
<event>
 9    1  0.2095749E-002  0.2754949E+03  0.7818608E-02  0.1098175E+00
          2   -1    0    0  501    0  0.00000000000E+00  0.00000000000E+00  0.96499123855E+02  0.96499123855E+02  0.00000000000E+00 0.  1.
         -2   -1    0    0    0  501 -0.00000000000E+00 -0.00000000000E+00 -0.19662722893E+03  0.19662722893E+03  0.00000000000E+00 0.  1.
         36    2    1    2    0    0 -0.71054273576E-14 -0.71054273576E-14 -0.10012810507E+03  0.29312635278E+03  0.27549486614E+03 0.  0.
         25    2    3    3    0    0 -0.42468094681E+02 -0.12193102053E+02 -0.34268045567E+02  0.13746923027E+03  0.12558375501E+03 0.  0.
         25    2    3    3    0    0  0.42468094681E+02  0.12193102053E+02 -0.65860059507E+02  0.15565712251E+03  0.13393797649E+03 0.  0.
          5    1    4    4  502    0  0.32121047242E+01  0.89036932699E+01 -0.73023237743E+02  0.73783986211E+02  0.47000000000E+01 0.  1.
         -5    1    4    4    0  502 -0.45680199405E+02 -0.21096795323E+02  0.38755192177E+02  0.63685244063E+02  0.47000000000E+01 0.  1.
          5    1    5    5  503    0 -0.91166847069E+01 -0.50732624963E+02 -0.51279866660E+02  0.72860331459E+02  0.47000000000E+01 0.  1.
         -5    1    5    5    0  503  0.51584779388E+02  0.62925727016E+02 -0.14580192847E+02  0.82796791052E+02  0.47000000000E+01 0.  1.
<mgrwt>
<rscale>  0 0.27549487E+03</rscale>
<asrwt>0</asrwt>
<pdfrwt beam="1">  1        2 0.14846019E-01 0.27549487E+03</pdfrwt>
<pdfrwt beam="2">  1       -2 0.30250343E-01 0.27549487E+03</pdfrwt>
<totfact> 0.39523595E+03</totfact>
</mgrwt>
</event>
<event>
 9    1  0.2095749E-002  0.2756365E+03  0.7818608E-02  0.1098096E+00
         -4   -1    0    0    0  501 -0.00000000000E+00  0.00000000000E+00  0.12760383740E+02  0.12760383740E+02  0.00000000000E+00 0. -1.
          4   -1    0    0  501    0  0.00000000000E+00 -0.00000000000E+00 -0.14885025492E+04  0.14885025492E+04  0.00000000000E+00 0. -1.
         36    2    1    2    0    0  0.00000000000E+00  0.71054273576E-14 -0.14757421654E+04  0.15012629329E+04  0.27563645423E+03 0.  0.
         25    2    3    3    0    0 -0.41596461454E+02  0.24168337588E+02 -0.55986368746E+03  0.57552777714E+03  0.12438046303E+03 0.  0.
         25    2    3    3    0    0  0.41596461454E+02 -0.24168337588E+02 -0.91587847799E+03  0.92573515578E+03  0.12584839316E+03 0.  0.
          5    1    4    4  502    0  0.14976639571E+02 -0.42054348961E+02 -0.15465995400E+03  0.16104241481E+03  0.47000000000E+01 0. -1.
         -5    1    4    4    0  502 -0.56573101025E+02  0.66222686549E+02 -0.40520373346E+03  0.41448536233E+03  0.47000000000E+01 0. -1.
          5    1    5    5  503    0  0.47620912236E+02  0.43790014559E+02 -0.51447141459E+03  0.51854435016E+03  0.47000000000E+01 0.  1.
         -5    1    5    5    0  503 -0.60244507818E+01 -0.67958352147E+02 -0.40140706340E+03  0.40719080562E+03  0.47000000000E+01 0.  1.
<mgrwt>
<rscale>  0 0.27563645E+03</rscale>
<asrwt>0</asrwt>
<pdfrwt beam="1">  1        4 0.22900043E+00 0.27563645E+03</pdfrwt>
<pdfrwt beam="2">  1       -4 0.19631356E-02 0.27563645E+03</pdfrwt>
<totfact> 0.18660137E+02</totfact>
</mgrwt>
</event>
<event>
 9    1  0.2095749E-002  0.2746798E+03  0.7818608E-02  0.1098631E+00
         -2   -1    0    0    0  501 -0.00000000000E+00  0.00000000000E+00  0.69099421773E+01  0.69099421773E+01  0.00000000000E+00 0.  1.
          2   -1    0    0  501    0  0.00000000000E+00 -0.00000000000E+00 -0.27297255592E+04  0.27297255592E+04  0.00000000000E+00 0.  1.
         36    2    1    2    0    0 -0.35527136788E-14  0.00000000000E+00 -0.27228156170E+04  0.27366355013E+04  0.27467978283E+03 0.  0.
         25    2    3    3    0    0 -0.16869912485E+02  0.22336449666E+02 -0.98961280645E+03  0.99865912878E+03  0.13116035178E+03 0.  0.
         25    2    3    3    0    0  0.16869912485E+02 -0.22336449666E+02 -0.17332028105E+04  0.17379763726E+04  0.12564385457E+03 0.  0.
          5    1    4    4  502    0  0.37890590599E+02  0.56850681838E+02 -0.56001983357E+03  0.56419145764E+03  0.47000000000E+01 0. -1.
         -5    1    4    4    0  502 -0.54760503084E+02 -0.34514232172E+02 -0.42959297288E+03  0.43446767114E+03  0.47000000000E+01 0. -1.
          5    1    5    5  503    0 -0.18850755870E+02 -0.65582956380E+02 -0.73064317280E+03  0.73383786433E+03  0.47000000000E+01 0.  1.
         -5    1    5    5    0  503  0.35720668355E+02  0.43246506714E+02 -0.10025596377E+04  0.10041385082E+04  0.47000000000E+01 0.  1.
<mgrwt>
<rscale>  0 0.27467978E+03</rscale>
<asrwt>0</asrwt>
<pdfrwt beam="1">  1        2 0.41995740E+00 0.27467978E+03</pdfrwt>
<pdfrwt beam="2">  1       -2 0.10630690E-02 0.27467978E+03</pdfrwt>
<totfact> 0.58272941E+03</totfact>
</mgrwt>
</event>
<event>
 9    1  0.2095749E-002  0.2751154E+03  0.7818608E-02  0.1098387E+00
         -2   -1    0    0    0  501 -0.00000000000E+00  0.00000000000E+00  0.12719688660E+03  0.12719688660E+03  0.00000000000E+00 0. -1.
          2   -1    0    0  501    0  0.00000000000E+00 -0.00000000000E+00 -0.14876243580E+03  0.14876243580E+03  0.00000000000E+00 0. -1.
         36    2    1    2    0    0  0.00000000000E+00  0.00000000000E+00 -0.21565549195E+02  0.27595932240E+03  0.27511538436E+03 0.  0.
         25    2    3    3    0    0  0.37347430885E+02 -0.14351732107E+02  0.32546053644E+02  0.13365850083E+03  0.12330671688E+03 0.  0.
         25    2    3    3    0    0 -0.37347430885E+02  0.14351732107E+02 -0.54111602839E+02  0.14230082158E+03  0.12538203799E+03 0.  0.
          5    1    4    4  502    0  0.25913815747E+02  0.45875552273E+02 -0.16061227820E+02  0.55282412954E+02  0.47000000000E+01 0. -1.
         -5    1    4    4    0  502  0.11433615138E+02 -0.60227284380E+02  0.48607281464E+02  0.78376087873E+02  0.47000000000E+01 0. -1.
          5    1    5    5  503    0 -0.75103734816E+01  0.52753663318E+02  0.16905795687E+02  0.56100362130E+02  0.47000000000E+01 0. -1.
         -5    1    5    5    0  503 -0.29837057404E+02 -0.38401931211E+02 -0.71017398527E+02  0.86200459446E+02  0.47000000000E+01 0. -1.
<mgrwt>
<rscale>  0 0.27511538E+03</rscale>
<asrwt>0</asrwt>
<pdfrwt beam="1">  1        2 0.22886529E-01 0.27511538E+03</pdfrwt>
<pdfrwt beam="2">  1       -2 0.19568752E-01 0.27511538E+03</pdfrwt>
<totfact> 0.51542628E+03</totfact>
</mgrwt>
</event>
<event>
 9    1  0.2095749E-002  0.2747006E+03  0.7818608E-02  0.1098619E+00
         -2   -1    0    0    0  501 -0.00000000000E+00  0.00000000000E+00  0.12833117236E+02  0.12833117236E+02  0.00000000000E+00 0. -1.
          2   -1    0    0  501    0  0.00000000000E+00 -0.00000000000E+00 -0.14700333686E+04  0.14700333686E+04  0.00000000000E+00 0. -1.
         36    2    1    2    0    0 -0.35527136788E-14  0.00000000000E+00 -0.14572002514E+04  0.14828664858E+04  0.27470064113E+03 0.  0.
         25    2    3    3    0    0  0.12252231577E+02  0.36222964474E+02 -0.41847640456E+03  0.43949019749E+03  0.12871251757E+03 0.  0.
         25    2    3    3    0    0 -0.12252231577E+02 -0.36222964474E+02 -0.10387238468E+04  0.10433762883E+04  0.90689739428E+02 0.  0.
          5    1    4    4  502    0  0.89907484208E+01 -0.38438732761E+02 -0.27293920336E+03  0.27581926775E+03  0.47000000000E+01 0. -1.
         -5    1    4    4    0  502  0.32614831557E+01  0.74661697235E+02 -0.14553720121E+03  0.16367092974E+03  0.47000000000E+01 0. -1.
          5    1    5    5  503    0  0.31259460682E+02 -0.90931765746E+01 -0.69888738218E+03  0.69966099127E+03  0.47000000000E+01 0.  1.
         -5    1    5    5    0  503 -0.43511692259E+02 -0.27129787899E+02 -0.33983646462E+03  0.34371529707E+03  0.47000000000E+01 0.  1.
<mgrwt>
<rscale>  0 0.27470064E+03</rscale>
<asrwt>0</asrwt>
<pdfrwt beam="1">  1        2 0.22615905E+00 0.27470064E+03</pdfrwt>
<pdfrwt beam="2">  1       -2 0.19743251E-02 0.27470064E+03</pdfrwt>
<totfact> 0.11155786E+04</totfact>
</mgrwt>
</event>
<event>
 9    1  0.2095749E-002  0.2753860E+03  0.7818608E-02  0.1098236E+00
         -1   -1    0    0    0  501 -0.00000000000E+00  0.00000000000E+00  0.46037810978E+03  0.46037810978E+03  0.00000000000E+00 0. -1.
          1   -1    0    0  501    0  0.00000000000E+00 -0.00000000000E+00 -0.41182162894E+02  0.41182162894E+02  0.00000000000E+00 0. -1.
         36    2    1    2    0    0 -0.35527136788E-14 -0.35527136788E-14  0.41919594688E+03  0.50156027267E+03  0.27538602949E+03 0.  0.
         25    2    3    3    0    0 -0.11528341167E+02  0.27183752911E+02  0.11961116304E+03  0.17522581999E+03  0.12460095743E+03 0.  0.
         25    2    3    3    0    0  0.11528341167E+02 -0.27183752911E+02  0.29958478384E+03  0.32633445268E+03  0.12598124157E+03 0.  0.
          5    1    4    4  502    0 -0.45528354523E+02  0.17539422117E+01  0.12409067533E+03  0.13227430999E+03  0.47000000000E+01 0. -1.
         -5    1    4    4    0  502  0.34000013356E+02  0.25429810699E+02 -0.44795122929E+01  0.42951509994E+02  0.47000000000E+01 0. -1.
          5    1    5    5  503    0 -0.30797276855E+02 -0.57719927058E+02  0.23033824359E+03  0.23949500768E+03  0.47000000000E+01 0.  1.
         -5    1    5    5    0  503  0.42325618022E+02  0.30536174147E+02  0.69246540248E+02  0.86839445006E+02  0.47000000000E+01 0.  1.
<mgrwt>
<rscale>  0 0.27538603E+03</rscale>
<asrwt>0</asrwt>
<pdfrwt beam="1">  1        1 0.63357177E-02 0.27538603E+03</pdfrwt>
<pdfrwt beam="2">  1       -1 0.70827398E-01 0.27538603E+03</pdfrwt>
<totfact> 0.25036224E+03</totfact>
</mgrwt>
</event>
<event>
 9    1  0.2095749E-002  0.2751177E+03  0.7818608E-02  0.1098386E+00
          2   -1    0    0  501    0  0.00000000000E+00  0.00000000000E+00  0.28965723337E+02  0.28965723337E+02  0.00000000000E+00 0.  1.
         -2   -1    0    0    0  501 -0.00000000000E+00 -0.00000000000E+00 -0.65327013853E+03  0.65327013853E+03  0.00000000000E+00 0.  1.
         36    2    1    2    0    0  0.00000000000E+00 -0.35527136788E-14 -0.62430441519E+03  0.68223586187E+03  0.27511773550E+03 0.  0.
         25    2    3    3    0    0  0.41593539359E+02 -0.21062424299E+02 -0.24030539929E+03  0.27442512685E+03  0.12405167103E+03 0.  0.
         25    2    3    3    0    0 -0.41593539359E+02  0.21062424299E+02 -0.38399901590E+03  0.40781073502E+03  0.12915379649E+03 0.  0.
          5    1    4    4  502    0 -0.33345388598E+02  0.23748689216E+02 -0.11033010818E+03  0.11777409712E+03  0.47000000000E+01 0. -1.
         -5    1    4    4    0  502  0.74938927956E+02 -0.44811113515E+02 -0.12997529111E+03  0.15665102973E+03  0.47000000000E+01 0. -1.
          5    1    5    5  503    0 -0.22631957045E+02 -0.52131748034E+02 -0.21812229053E+03  0.22545364992E+03  0.47000000000E+01 0. -1.
         -5    1    5    5    0  503 -0.18961582314E+02  0.73194172333E+02 -0.16587672537E+03  0.18235708510E+03  0.47000000000E+01 0. -1.
<mgrwt>
<rscale>  0 0.27511774E+03</rscale>
<asrwt>0</asrwt>
<pdfrwt beam="1">  1        2 0.44562648E-02 0.27511774E+03</pdfrwt>
<pdfrwt beam="2">  1       -2 0.10050310E+00 0.27511774E+03</pdfrwt>
<totfact> 0.15526191E+03</totfact>
</mgrwt>
</event>
<event>
 9    1  0.2095749E-002  0.2750771E+03  0.7818608E-02  0.1098408E+00
         -1   -1    0    0    0  501 -0.00000000000E+00  0.00000000000E+00  0.15932783357E+02  0.15932783357E+02  0.00000000000E+00 0.  1.
          1   -1    0    0  501    0  0.00000000000E+00 -0.00000000000E+00 -0.11872914050E+04  0.11872914050E+04  0.00000000000E+00 0.  1.
         36    2    1    2    0    0 -0.17763568394E-14  0.00000000000E+00 -0.11713586217E+04  0.12032241884E+04  0.27507712910E+03 0.  0.
         25    2    3    3    0    0 -0.15431583910E+02 -0.27546692158E+02 -0.61943006929E+03  0.63394241730E+03  0.13111988289E+03 0.  0.
         25    2    3    3    0    0  0.15431583910E+02  0.27546692158E+02 -0.55192855239E+03  0.56928177109E+03  0.13586630898E+03 0.  0.
          5    1    4    4  502    0 -0.29955585978E+02 -0.45843433965E+02 -0.10118394522E+03  0.11514876612E+03  0.47000000000E+01 0. -1.
         -5    1    4    4    0  502  0.14524002068E+02  0.18296741807E+02 -0.51824612407E+03  0.51879365119E+03  0.47000000000E+01 0. -1.
          5    1    5    5  503    0 -0.23463573717E+02  0.60008926174E+02 -0.13957870625E+03  0.15380479755E+03  0.47000000000E+01 0.  1.
         -5    1    5    5    0  503  0.38895157628E+02 -0.32462234016E+02 -0.41234984614E+03  0.41547697354E+03  0.47000000000E+01 0.  1.
<mgrwt>
<rscale>  0 0.27507713E+03</rscale>
<asrwt>0</asrwt>
<pdfrwt beam="1">  1        1 0.18266014E+00 0.27507713E+03</pdfrwt>
<pdfrwt beam="2">  1       -1 0.24511985E-02 0.27507713E+03</pdfrwt>
<totfact> 0.59414649E+03</totfact>
</mgrwt>
</event>
<event>
 9    1  0.2095749E-002  0.2749622E+03  0.7818608E-02  0.1098473E+00
          1   -1    0    0  501    0  0.00000000000E+00  0.00000000000E+00  0.33292521194E+02  0.33292521194E+02  0.00000000000E+00 0.  1.
         -1   -1    0    0    0  501 -0.00000000000E+00 -0.00000000000E+00 -0.56772654529E+03  0.56772654529E+03  0.00000000000E+00 0.  1.
         36    2    1    2    0    0 -0.71054273576E-14  0.00000000000E+00 -0.53443402410E+03  0.60101906649E+03  0.27496216497E+03 0.  0.
         25    2    3    3    0    0  0.35006912489E+02  0.87139873164E+01 -0.17063789535E+03  0.21481200363E+03  0.12540130812E+03 0.  0.
         25    2    3    3    0    0 -0.35006912489E+02 -0.87139873164E+01 -0.36379612875E+03  0.38620706286E+03  0.12452652171E+03 0.  0.
          5    1    4    4  502    0 -0.40134329876E+02  0.62595076724E+01 -0.11236878060E+03  0.11957750091E+03  0.47000000000E+01 0.  1.
         -5    1    4    4    0  502  0.75141242365E+02  0.24544796441E+01 -0.58269114751E+02  0.95234502720E+02  0.47000000000E+01 0.  1.
          5    1    5    5  503    0 -0.81520240850E+02 -0.75550601025E+01 -0.20941758479E+03  0.22490096358E+03  0.47000000000E+01 0. -1.
         -5    1    5    5    0  503  0.46513328361E+02 -0.11589272139E+01 -0.15437854396E+03  0.16130609928E+03  0.47000000000E+01 0. -1.
<mgrwt>
<rscale>  0 0.27496216E+03</rscale>
<asrwt>0</asrwt>
<pdfrwt beam="1">  1        1 0.51219269E-02 0.27496216E+03</pdfrwt>
<pdfrwt beam="2">  1       -1 0.87342536E-01 0.27496216E+03</pdfrwt>
<totfact> 0.21779092E+03</totfact>
</mgrwt>
</event>
<event>
 9    1  0.2095749E-002  0.2750632E+03  0.7818608E-02  0.1098416E+00
         -2   -1    0    0    0  501 -0.00000000000E+00  0.00000000000E+00  0.11407041680E+03  0.11407041680E+03  0.00000000000E+00 0.  1.
          2   -1    0    0  501    0  0.00000000000E+00 -0.00000000000E+00 -0.16581808932E+03  0.16581808932E+03  0.00000000000E+00 0.  1.
         36    2    1    2    0    0  0.00000000000E+00 -0.71054273576E-14 -0.51747672517E+02  0.27988850612E+03  0.27506318229E+03 0.  0.
         25    2    3    3    0    0 -0.22575597531E+02  0.10101122603E+02  0.12331993419E+02  0.13085934115E+03  0.12790777467E+03 0.  0.
         25    2    3    3    0    0  0.22575597531E+02 -0.10101122603E+02 -0.64079665936E+02  0.14902916498E+03  0.13225656182E+03 0.  0.
          5    1    4    4  502    0 -0.13238174863E+02  0.40366970030E+02 -0.46944550934E+02  0.63487183002E+02  0.47000000000E+01 0. -1.
         -5    1    4    4    0  502 -0.93374226688E+01 -0.30265847428E+02  0.59276544354E+02  0.67372158145E+02  0.47000000000E+01 0. -1.
          5    1    5    5  503    0  0.27046902027E+02 -0.68614501766E+02 -0.23584173618E+02  0.77574403041E+02  0.47000000000E+01 0.  1.
         -5    1    5    5    0  503 -0.44713044956E+01  0.58513379163E+02 -0.40495492318E+02  0.71454761934E+02  0.47000000000E+01 0.  1.
<mgrwt>
<rscale>  0 0.27506318E+03</rscale>
<asrwt>0</asrwt>
<pdfrwt beam="1">  1        2 0.25510475E-01 0.27506318E+03</pdfrwt>
<pdfrwt beam="2">  1       -2 0.17549295E-01 0.27506318E+03</pdfrwt>
<totfact> 0.54879589E+03</totfact>
</mgrwt>
</event>
<event>
 9    1  0.2095749E-002  0.2744454E+03  0.7818608E-02  0.1098762E+00
          2   -1    0    0  501    0  0.00000000000E+00  0.00000000000E+00  0.58186939645E+03  0.58186939645E+03  0.00000000000E+00 0. -1.
         -2   -1    0    0    0  501 -0.00000000000E+00 -0.00000000000E+00 -0.32361338901E+02  0.32361338901E+02  0.00000000000E+00 0. -1.
         36    2    1    2    0    0  0.00000000000E+00  0.71054273576E-14  0.54950805755E+03  0.61423073535E+03  0.27444542434E+03 0.  0.
         25    2    3    3    0    0 -0.55198707191E+02 -0.44146820739E+01  0.31071146190E+03  0.33946846666E+03  0.12502336025E+03 0.  0.
         25    2    3    3    0    0  0.55198707191E+02  0.44146820739E+01  0.23879659565E+03  0.27476226869E+03  0.12411326887E+03 0.  0.
          5    1    4    4  502    0  0.20366946914E+02 -0.43213804984E+02  0.15191232090E+03  0.15931631652E+03  0.47000000000E+01 0.  1.
         -5    1    4    4    0  502 -0.75565654106E+02  0.38799122910E+02  0.15879914100E+03  0.18015215014E+03  0.47000000000E+01 0.  1.
          5    1    5    5  503    0  0.30683543442E+01  0.57248558733E+02  0.72155604197E+02  0.92278564642E+02  0.47000000000E+01 0.  1.
         -5    1    5    5    0  503  0.52130352847E+02 -0.52833876659E+02  0.16664099146E+03  0.18248370405E+03  0.47000000000E+01 0.  1.
<mgrwt>
<rscale>  0 0.27444542E+03</rscale>
<asrwt>0</asrwt>
<pdfrwt beam="1">  1        2 0.89518361E-01 0.27444542E+03</pdfrwt>
<pdfrwt beam="2">  1       -2 0.49786680E-02 0.27444542E+03</pdfrwt>
<totfact> 0.10255995E+04</totfact>
</mgrwt>
</event>
<event>
 9    1  0.2095749E-002  0.2747092E+03  0.7818608E-02  0.1098614E+00
         -2   -1    0    0    0  501 -0.00000000000E+00  0.00000000000E+00  0.14491065150E+02  0.14491065150E+02  0.00000000000E+00 0.  1.
          2   -1    0    0  501    0  0.00000000000E+00 -0.00000000000E+00 -0.13019250286E+04  0.13019250286E+04  0.00000000000E+00 0.  1.
         36    2    1    2    0    0  0.00000000000E+00  0.00000000000E+00 -0.12874339635E+04  0.13164160938E+04  0.27470915828E+03 0.  0.
         25    2    3    3    0    0 -0.16184326871E+02 -0.47404966130E+02 -0.50547873553E+03  0.52274548903E+03  0.12347036477E+03 0.  0.
         25    2    3    3    0    0  0.16184326871E+02  0.47404966130E+02 -0.78195522794E+03  0.79367060474E+03  0.12629286235E+03 0.  0.
          5    1    4    4  502    0  0.23630124443E+02 -0.68710106200E+02 -0.18084471666E+03  0.19495220701E+03  0.47000000000E+01 0. -1.
         -5    1    4    4    0  502 -0.39814451314E+02  0.21305140070E+02 -0.32463401887E+03  0.32779328202E+03  0.47000000000E+01 0. -1.
          5    1    5    5  503    0  0.43446252114E+02  0.56000390592E+02 -0.22464304139E+03  0.23560604112E+03  0.47000000000E+01 0.  1.
         -5    1    5    5    0  503 -0.27261925243E+02 -0.85954244617E+01 -0.55731218655E+03  0.55806456362E+03  0.47000000000E+01 0.  1.
<mgrwt>
<rscale>  0 0.27470916E+03</rscale>
<asrwt>0</asrwt>
<pdfrwt beam="1">  1        2 0.20029622E+00 0.27470916E+03</pdfrwt>
<pdfrwt beam="2">  1       -2 0.22293939E-02 0.27470916E+03</pdfrwt>
<totfact> 0.11517091E+04</totfact>
</mgrwt>
</event>
<event>
 9    1  0.2095749E-002  0.2751264E+03  0.7818608E-02  0.1098381E+00
         -2   -1    0    0    0  501 -0.00000000000E+00  0.00000000000E+00  0.44874410552E+02  0.44874410552E+02  0.00000000000E+00 0. -1.
          2   -1    0    0  501    0  0.00000000000E+00 -0.00000000000E+00 -0.42170205271E+03  0.42170205271E+03  0.00000000000E+00 0. -1.
         36    2    1    2    0    0  0.00000000000E+00  0.00000000000E+00 -0.37682764216E+03  0.46657646326E+03  0.27512637855E+03 0.  0.
         25    2    3    3    0    0 -0.42848663249E+02  0.17212961025E+02 -0.12518356600E+03  0.18197330770E+03  0.12373789051E+03 0.  0.
         25    2    3    3    0    0  0.42848663249E+02 -0.17212961025E+02 -0.25164407615E+03  0.28460315556E+03  0.12466724158E+03 0.  0.
          5    1    4    4  502    0 -0.78260321804E+02  0.40081353538E+02 -0.70684734220E+02  0.11291419097E+03  0.47000000000E+01 0. -1.
         -5    1    4    4    0  502  0.35411658555E+02 -0.22868392513E+02 -0.54498831784E+02  0.69059116731E+02  0.47000000000E+01 0. -1.
          5    1    5    5  503    0 -0.98242915033E+01 -0.22291831878E+02  0.25280383277E+01  0.24938393088E+02  0.47000000000E+01 0. -1.
         -5    1    5    5    0  503  0.52672954753E+02  0.50788708530E+01 -0.25417211448E+03  0.25966476248E+03  0.47000000000E+01 0. -1.
<mgrwt>
<rscale>  0 0.27512638E+03</rscale>
<asrwt>0</asrwt>
<pdfrwt beam="1">  1        2 0.64877238E-01 0.27512638E+03</pdfrwt>
<pdfrwt beam="2">  1       -2 0.69037556E-02 0.27512638E+03</pdfrwt>
<totfact> 0.89098790E+03</totfact>
</mgrwt>
</event>
<event>
 9    1  0.2095749E-002  0.2738611E+03  0.7818608E-02  0.1099090E+00
         -2   -1    0    0    0  501 -0.00000000000E+00  0.00000000000E+00  0.27550208304E+02  0.27550208304E+02  0.00000000000E+00 0.  1.
          2   -1    0    0  501    0  0.00000000000E+00 -0.00000000000E+00 -0.68057486371E+03  0.68057486371E+03  0.00000000000E+00 0.  1.
         36    2    1    2    0    0 -0.71054273576E-14  0.00000000000E+00 -0.65302465541E+03  0.70812507202E+03  0.27386112730E+03 0.  0.
         25    2    3    3    0    0 -0.61390350313E+01  0.48421988255E+02 -0.47365815544E+03  0.48570328920E+03  0.95777138337E+02 0.  0.
         25    2    3    3    0    0  0.61390350313E+01 -0.48421988255E+02 -0.17936649997E+03  0.22242178282E+03  0.12213407167E+03 0.  0.
          5    1    4    4  502    0 -0.44015681399E+02  0.44899833125E+02 -0.36678121931E+03  0.37216115872E+03  0.47000000000E+01 0.  1.
         -5    1    4    4    0  502  0.37876646368E+02  0.35221551299E+01 -0.10687693613E+03  0.11354213048E+03  0.47000000000E+01 0.  1.
          5    1    5    5  503    0  0.43233936389E+02 -0.59912227278E+02 -0.16482791490E+03  0.18069028686E+03  0.47000000000E+01 0. -1.
         -5    1    5    5    0  503 -0.37094901358E+02  0.11490239023E+02 -0.14538585071E+02  0.41731495964E+02  0.47000000000E+01 0. -1.
<mgrwt>
<rscale>  0 0.27386113E+03</rscale>
<asrwt>0</asrwt>
<pdfrwt beam="1">  1        2 0.10470381E+00 0.27386113E+03</pdfrwt>
<pdfrwt beam="2">  1       -2 0.42384941E-02 0.27386113E+03</pdfrwt>
<totfact> 0.10881246E+04</totfact>
</mgrwt>
</event>
<event>
 9    1  0.2095749E-002  0.2750335E+03  0.7818608E-02  0.1098433E+00
          1   -1    0    0  501    0  0.00000000000E+00  0.00000000000E+00  0.84975758702E+03  0.84975758702E+03  0.00000000000E+00 0.  1.
         -1   -1    0    0    0  501 -0.00000000000E+00 -0.00000000000E+00 -0.22254416424E+02  0.22254416424E+02  0.00000000000E+00 0.  1.
         36    2    1    2    0    0  0.00000000000E+00 -0.14210854715E-13  0.82750317060E+03  0.87201200345E+03  0.27503351942E+03 0.  0.
         25    2    3    3    0    0  0.33081964428E+02 -0.41797292268E+02  0.49122519629E+03  0.50944588467E+03  0.12406242756E+03 0.  0.
         25    2    3    3    0    0 -0.33081964428E+02  0.41797292268E+02  0.33627797431E+03  0.36256611877E+03  0.12461895708E+03 0.  0.
          5    1    4    4  502    0  0.33108920643E+02  0.40224422782E+02  0.21421989260E+03  0.22051407483E+03  0.47000000000E+01 0. -1.
         -5    1    4    4    0  502 -0.26956215075E-01 -0.82021715050E+02  0.27700530369E+03  0.28893180984E+03  0.47000000000E+01 0. -1.
          5    1    5    5  503    0 -0.42675613638E+02  0.44370828331E+02  0.34376737269E+03  0.34926791283E+03  0.47000000000E+01 0. -1.
         -5    1    5    5    0  503  0.95936492104E+01 -0.25735360629E+01 -0.74893983834E+01  0.13298205939E+02  0.47000000000E+01 0. -1.
<mgrwt>
<rscale>  0 0.27503352E+03</rscale>
<asrwt>0</asrwt>
<pdfrwt beam="1">  1        1 0.13073191E+00 0.27503352E+03</pdfrwt>
<pdfrwt beam="2">  1       -1 0.34237570E-02 0.27503352E+03</pdfrwt>
<totfact> 0.64874745E+03</totfact>
</mgrwt>
</event>
<event>
 9    1  0.2095749E-002  0.2750497E+03  0.7818608E-02  0.1098424E+00
          2   -1    0    0  501    0  0.00000000000E+00  0.00000000000E+00  0.80456428379E+03  0.80456428379E+03  0.00000000000E+00 0.  1.
         -2   -1    0    0    0  501 -0.00000000000E+00 -0.00000000000E+00 -0.23507234108E+02  0.23507234108E+02  0.00000000000E+00 0.  1.
         36    2    1    2    0    0 -0.35527136788E-14 -0.71054273576E-14  0.78105704968E+03  0.82807151789E+03  0.27504967532E+03 0.  0.
         25    2    3    3    0    0 -0.19052296595E+02 -0.43579152394E+02  0.46478151207E+03  0.48485079665E+03  0.12960057299E+03 0.  0.
         25    2    3    3    0    0  0.19052296595E+02  0.43579152394E+02  0.31627553760E+03  0.34322072124E+03  0.12453158344E+03 0.  0.
          5    1    4    4  502    0 -0.74439135792E+02 -0.31708503323E+02  0.26141034729E+03  0.27368608622E+03  0.47000000000E+01 0. -1.
         -5    1    4    4    0  502  0.55386839197E+02 -0.11870649071E+02  0.20337116478E+03  0.21116471043E+03  0.47000000000E+01 0. -1.
          5    1    5    5  503    0  0.10669701768E+02 -0.26272746205E+02  0.23003891150E+03  0.23182771735E+03  0.47000000000E+01 0. -1.
         -5    1    5    5    0  503  0.83825948265E+01  0.69851898598E+02  0.86236626106E+02  0.11139300389E+03  0.47000000000E+01 0. -1.
<mgrwt>
<rscale>  0 0.27504968E+03</rscale>
<asrwt>0</asrwt>
<pdfrwt beam="1">  1        2 0.12377910E+00 0.27504968E+03</pdfrwt>
<pdfrwt beam="2">  1       -2 0.36164982E-02 0.27504968E+03</pdfrwt>
<totfact> 0.11230477E+04</totfact>
</mgrwt>
</event>
<event>
 9    1  0.2095749E-002  0.2725976E+03  0.7818608E-02  0.1099802E+00
          2   -1    0    0  501    0  0.00000000000E+00  0.00000000000E+00  0.52244718894E+03  0.52244718894E+03  0.00000000000E+00 0. -1.
         -2   -1    0    0    0  501 -0.00000000000E+00 -0.00000000000E+00 -0.35558361026E+02  0.35558361026E+02  0.00000000000E+00 0. -1.
         36    2    1    2    0    0  0.14210854715E-13 -0.35527136788E-14  0.48688882791E+03  0.55800554996E+03  0.27259762113E+03 0.  0.
         25    2    3    3    0    0  0.44059249291E+02  0.58533060605E+01  0.17390152299E+03  0.21913164917E+03  0.12570386361E+03 0.  0.
         25    2    3    3    0    0 -0.44059249291E+02 -0.58533060605E+01  0.31298730492E+03  0.33887390080E+03  0.12206141471E+03 0.  0.
          5    1    4    4  502    0  0.48736226304E+00 -0.49832958278E+02  0.12024045574E+03  0.13024368871E+03  0.47000000000E+01 0.  1.
         -5    1    4    4    0  502  0.43571887028E+02  0.55686264338E+02  0.53661067253E+02  0.88887960455E+02  0.47000000000E+01 0.  1.
          5    1    5    5  503    0  0.21496395847E+02  0.19785029641E+02  0.16034699960E+02  0.33656262940E+02  0.47000000000E+01 0. -1.
         -5    1    5    5    0  503 -0.65555645138E+02 -0.25638335701E+02  0.29695260496E+03  0.30521763786E+03  0.47000000000E+01 0. -1.
<mgrwt>
<rscale>  0 0.27259762E+03</rscale>
<asrwt>0</asrwt>
<pdfrwt beam="1">  1        2 0.80376485E-01 0.27259762E+03</pdfrwt>
<pdfrwt beam="2">  1       -2 0.54705175E-02 0.27259762E+03</pdfrwt>
<totfact> 0.10043098E+04</totfact>
</mgrwt>
</event>
<event>
 9    1  0.2095749E-002  0.2750012E+03  0.7818608E-02  0.1098451E+00
          2   -1    0    0  501    0  0.00000000000E+00  0.00000000000E+00  0.20444720817E+03  0.20444720817E+03  0.00000000000E+00 0.  1.
         -2   -1    0    0    0  501 -0.00000000000E+00 -0.00000000000E+00 -0.92475786613E+02  0.92475786613E+02  0.00000000000E+00 0.  1.
         36    2    1    2    0    0  0.71054273576E-14  0.71054273576E-14  0.11197142155E+03  0.29692299478E+03  0.27500121015E+03 0.  0.
         25    2    3    3    0    0  0.35033414856E+02  0.34157138286E+02  0.75458233595E+02  0.15390062841E+03  0.12488958385E+03 0.  0.
         25    2    3    3    0    0 -0.35033414856E+02 -0.34157138286E+02  0.36513187958E+02  0.14302236637E+03  0.12933728826E+03 0.  0.
          5    1    4    4  502    0 -0.22956802577E+02  0.29180642533E+02  0.86702698586E+02  0.94435018003E+02  0.47000000000E+01 0.  1.
         -5    1    4    4    0  502  0.57990217433E+02  0.49764957536E+01 -0.11244464991E+02  0.59465610405E+02  0.47000000000E+01 0.  1.
          5    1    5    5  503    0 -0.40584743579E+01 -0.44438627315E+02 -0.39744335610E+02  0.59941346539E+02  0.47000000000E+01 0. -1.
         -5    1    5    5    0  503 -0.30974940498E+02  0.10281489029E+02  0.76257523569E+02  0.83081019832E+02  0.47000000000E+01 0. -1.
<mgrwt>
<rscale>  0 0.27500121E+03</rscale>
<asrwt>0</asrwt>
<pdfrwt beam="1">  1        2 0.31453417E-01 0.27500121E+03</pdfrwt>
<pdfrwt beam="2">  1       -2 0.14227044E-01 0.27500121E+03</pdfrwt>
<totfact> 0.61731643E+03</totfact>
</mgrwt>
</event>
<event>
 9    1  0.2095749E-002  0.2744716E+03  0.7818608E-02  0.1098747E+00
         -2   -1    0    0    0  501 -0.00000000000E+00  0.00000000000E+00  0.29932291069E+03  0.29932291069E+03  0.00000000000E+00 0. -1.
          2   -1    0    0  501    0  0.00000000000E+00 -0.00000000000E+00 -0.62920877339E+02  0.62920877339E+02  0.00000000000E+00 0. -1.
         36    2    1    2    0    0 -0.71054273576E-14  0.00000000000E+00  0.23640203335E+03  0.36224378803E+03  0.27447156609E+03 0.  0.
         25    2    3    3    0    0 -0.36106628354E+02 -0.27359504136E+02  0.15190290984E+03  0.20374852487E+03  0.12801068819E+03 0.  0.
         25    2    3    3    0    0  0.36106628354E+02  0.27359504136E+02  0.84499123511E+02  0.15849526316E+03  0.12620782659E+03 0.  0.
          5    1    4    4  502    0 -0.16198828861E+02 -0.49826458101E+02  0.16309537622E+03  0.17136881201E+03  0.47000000000E+01 0.  1.
         -5    1    4    4    0  502 -0.19907799493E+02  0.22466953965E+02 -0.11192466385E+02  0.32379712860E+02  0.47000000000E+01 0.  1.
          5    1    5    5  503    0 -0.25758972186E+01  0.19442644525E+02  0.10962120697E+03  0.11146098281E+03  0.47000000000E+01 0. -1.
         -5    1    5    5    0  503  0.38682525573E+02  0.79168596106E+01 -0.25122083455E+02  0.47034280348E+02  0.47000000000E+01 0. -1.
<mgrwt>
<rscale>  0 0.27447157E+03</rscale>
<asrwt>0</asrwt>
<pdfrwt beam="1">  1        2 0.96801351E-02 0.27447157E+03</pdfrwt>
<pdfrwt beam="2">  1       -2 0.46049678E-01 0.27447157E+03</pdfrwt>
<totfact> 0.30090613E+03</totfact>
</mgrwt>
</event>
<event>
 9    1  0.2095749E-002  0.2755936E+03  0.7818608E-02  0.1098120E+00
         -3   -1    0    0    0  501 -0.00000000000E+00  0.00000000000E+00  0.48636039620E+02  0.48636039620E+02  0.00000000000E+00 0.  1.
          1   -1    0    0  501    0  0.00000000000E+00 -0.00000000000E+00 -0.39040933636E+03  0.39040933636E+03  0.00000000000E+00 0.  1.
         36    2    1    2    0    0 -0.17763568394E-14 -0.14210854715E-13 -0.34177329674E+03  0.43904537598E+03  0.27559364253E+03 0.  0.
         25    2    3    3    0    0  0.11943419576E+02  0.60305825480E+02 -0.14595040520E+03  0.20149898144E+03  0.12458282742E+03 0.  0.
         25    2    3    3    0    0 -0.11943419576E+02 -0.60305825480E+02 -0.19582289154E+03  0.23754639453E+03  0.11959200160E+03 0.  0.
          5    1    4    4  502    0  0.21243632895E+02  0.32430877715E+02  0.11932949497E+02  0.40835512139E+02  0.47000000000E+01 0. -1.
         -5    1    4    4    0  502 -0.93002133191E+01  0.27874947765E+02 -0.15788335469E+03  0.16066346931E+03  0.47000000000E+01 0. -1.
          5    1    5    5  503    0 -0.24134671725E+02  0.23578214385E+02 -0.11643155428E+03  0.12131286578E+03  0.47000000000E+01 0.  1.
         -5    1    5    5    0  503  0.12191252150E+02 -0.83884039866E+02 -0.79391337265E+02  0.11623352875E+03  0.47000000000E+01 0.  1.
<mgrwt>
<rscale>  0 0.27559364E+03</rscale>
<asrwt>0</asrwt>
<pdfrwt beam="1">  1        1 0.60062975E-01 0.27559364E+03</pdfrwt>
<pdfrwt beam="2">  1       -3 0.74824676E-02 0.27559364E+03</pdfrwt>
<totfact> 0.41527703E+03</totfact>
</mgrwt>
</event>
<event>
 9    1  0.2095749E-002  0.2744727E+03  0.7818608E-02  0.1098747E+00
          1   -1    0    0  501    0  0.00000000000E+00  0.00000000000E+00  0.90972407624E+03  0.90972407624E+03  0.00000000000E+00 0.  1.
         -1   -1    0    0    0  501 -0.00000000000E+00 -0.00000000000E+00 -0.20702776241E+02  0.20702776241E+02  0.00000000000E+00 0.  1.
         36    2    1    2    0    0  0.35527136788E-14  0.61062266354E-15  0.88902130000E+03  0.93042685248E+03  0.27447268711E+03 0.  0.
         25    2    3    3    0    0  0.83410778437E+01  0.54798107942E-01  0.62971334972E+03  0.64294872266E+03  0.12951671928E+03 0.  0.
         25    2    3    3    0    0 -0.83410778437E+01 -0.54798107942E-01  0.25930795028E+03  0.28747812982E+03  0.12382845176E+03 0.  0.
          5    1    4    4  502    0 -0.60438869829E+02 -0.27731357345E+00  0.31346192275E+03  0.31927010650E+03  0.47000000000E+01 0.  1.
         -5    1    4    4    0  502  0.68779947673E+02  0.33211168140E+00  0.31625142697E+03  0.32367861616E+03  0.47000000000E+01 0.  1.
          5    1    5    5  503    0 -0.34333069194E+02 -0.29933524025E+02  0.30035409958E+02  0.54763047323E+02  0.47000000000E+01 0.  1.
         -5    1    5    5    0  503  0.25991991350E+02  0.29878725917E+02  0.22927254032E+03  0.23271508249E+03  0.47000000000E+01 0.  1.
<mgrwt>
<rscale>  0 0.27447269E+03</rscale>
<asrwt>0</asrwt>
<pdfrwt beam="1">  1        1 0.13995752E+00 0.27447269E+03</pdfrwt>
<pdfrwt beam="2">  1       -1 0.31850432E-02 0.27447269E+03</pdfrwt>
<totfact> 0.64687962E+03</totfact>
</mgrwt>
</event>
<event>
 9    1  0.2095749E-002  0.2760377E+03  0.7818608E-02  0.1097873E+00
         -2   -1    0    0    0  501 -0.00000000000E+00  0.00000000000E+00  0.10111630145E+02  0.10111630145E+02  0.00000000000E+00 0. -1.
          2   -1    0    0  501    0  0.00000000000E+00 -0.00000000000E+00 -0.18838902506E+04  0.18838902506E+04  0.00000000000E+00 0. -1.
         36    2    1    2    0    0  0.00000000000E+00  0.71054273576E-14 -0.18737786204E+04  0.18940018807E+04  0.27603768907E+03 0.  0.
         25    2    3    3    0    0  0.16027078068E+02  0.40560752213E+01 -0.13421702621E+04  0.13478864642E+04  0.12289665926E+03 0.  0.
         25    2    3    3    0    0 -0.16027078068E+02 -0.40560752213E+01 -0.53160835829E+03  0.54611541651E+03  0.12394064130E+03 0.  0.
          5    1    4    4  502    0 -0.26823817255E+01 -0.57654865402E+02 -0.53275060688E+03  0.53588858712E+03  0.47000000000E+01 0. -1.
         -5    1    4    4    0  502  0.18709459794E+02  0.61710940623E+02 -0.80941965525E+03  0.81199787708E+03  0.47000000000E+01 0. -1.
          5    1    5    5  503    0 -0.52185000368E+02 -0.40690866989E+02 -0.38473023026E+03  0.39040806984E+03  0.47000000000E+01 0. -1.
         -5    1    5    5    0  503  0.36157922300E+02  0.36634791767E+02 -0.14687812803E+03  0.15570734667E+03  0.47000000000E+01 0. -1.
<mgrwt>
<rscale>  0 0.27603769E+03</rscale>
<asrwt>0</asrwt>
<pdfrwt beam="1">  1        2 0.28982906E+00 0.27603769E+03</pdfrwt>
<pdfrwt beam="2">  1       -2 0.15556365E-02 0.27603769E+03</pdfrwt>
<totfact> 0.95644603E+03</totfact>
</mgrwt>
</event>
<event>
 9    1  0.2095749E-002  0.2775507E+03  0.7818608E-02  0.1097034E+00
         -1   -1    0    0    0  501 -0.00000000000E+00  0.00000000000E+00  0.30243783258E+02  0.30243783258E+02  0.00000000000E+00 0.  1.
          1   -1    0    0  501    0  0.00000000000E+00 -0.00000000000E+00 -0.63677858512E+03  0.63677858512E+03  0.00000000000E+00 0.  1.
         36    2    1    2    0    0  0.14210854715E-13  0.35527136788E-14 -0.60653480186E+03  0.66702236838E+03  0.27755066933E+03 0.  0.
         25    2    3    3    0    0 -0.54499142712E+02 -0.21091170664E+02 -0.36412606343E+03  0.38856527479E+03  0.12239358096E+03 0.  0.
         25    2    3    3    0    0  0.54499142712E+02  0.21091170664E+02 -0.24240873843E+03  0.27845709359E+03  0.12394096364E+03 0.  0.
          5    1    4    4  502    0  0.69779536315E+01 -0.25537440181E+02 -0.93849538219E+01  0.28478413687E+02  0.47000000000E+01 0. -1.
         -5    1    4    4    0  502 -0.61477096343E+02  0.44462695173E+01 -0.35474110961E+03  0.36008686110E+03  0.47000000000E+01 0. -1.
          5    1    5    5  503    0  0.67730965860E+02  0.30700707209E+02 -0.61123920752E+02  0.96375519960E+02  0.47000000000E+01 0.  1.
         -5    1    5    5    0  503 -0.13231823148E+02 -0.96095365452E+01 -0.18128481768E+03  0.18208157363E+03  0.47000000000E+01 0.  1.
<mgrwt>
<rscale>  0 0.27755067E+03</rscale>
<asrwt>0</asrwt>
<pdfrwt beam="1">  1        1 0.97965943E-01 0.27755067E+03</pdfrwt>
<pdfrwt beam="2">  1       -1 0.46528894E-02 0.27755067E+03</pdfrwt>
<totfact> 0.63220583E+03</totfact>
</mgrwt>
</event>
<event>
 9    1  0.2095749E-002  0.2743314E+03  0.7818608E-02  0.1098826E+00
          2   -1    0    0  501    0  0.00000000000E+00  0.00000000000E+00  0.27518246105E+03  0.27518246105E+03  0.00000000000E+00 0.  1.
         -2   -1    0    0    0  501 -0.00000000000E+00 -0.00000000000E+00 -0.68370725631E+02  0.68370725631E+02  0.00000000000E+00 0.  1.
         36    2    1    2    0    0 -0.17763568394E-14  0.35527136788E-14  0.20681173542E+03  0.34355318669E+03  0.27433136564E+03 0.  0.
         25    2    3    3    0    0  0.94600064887E+00  0.15210732035E+02  0.32719574223E+02  0.12749228298E+03  0.12227612357E+03 0.  0.
         25    2    3    3    0    0 -0.94600064887E+00 -0.15210732035E+02  0.17409216120E+03  0.21606090370E+03  0.12705106151E+03 0.  0.
          5    1    4    4  502    0  0.10804692957E+02  0.15512140953E+02 -0.44985959139E+02  0.49022386993E+02  0.47000000000E+01 0.  1.
         -5    1    4    4    0  502 -0.98586923077E+01 -0.30140891778E+00  0.77705533362E+02  0.78469895989E+02  0.47000000000E+01 0.  1.
          5    1    5    5  503    0 -0.32067099526E+02  0.26084820196E+02  0.15540614849E+03  0.16087845631E+03  0.47000000000E+01 0.  1.
         -5    1    5    5    0  503  0.31121098877E+02 -0.41295552231E+02  0.18686012713E+02  0.55182447395E+02  0.47000000000E+01 0.  1.
<mgrwt>
<rscale>  0 0.27433137E+03</rscale>
<asrwt>0</asrwt>
<pdfrwt beam="1">  1        2 0.42335763E-01 0.27433137E+03</pdfrwt>
<pdfrwt beam="2">  1       -2 0.10518573E-01 0.27433137E+03</pdfrwt>
<totfact> 0.72925771E+03</totfact>
</mgrwt>
</event>
<event>
 9    1  0.2095749E-002  0.2754546E+03  0.7818608E-02  0.1098198E+00
         -2   -1    0    0    0  501 -0.00000000000E+00  0.00000000000E+00  0.16365640782E+02  0.16365640782E+02  0.00000000000E+00 0.  1.
          2   -1    0    0  501    0  0.00000000000E+00 -0.00000000000E+00 -0.11590626983E+04  0.11590626983E+04  0.00000000000E+00 0.  1.
         36    2    1    2    0    0  0.00000000000E+00  0.35527136788E-14 -0.11426970575E+04  0.11754283391E+04  0.27545456079E+03 0.  0.
         25    2    3    3    0    0  0.41325634798E+02  0.30822906342E+02 -0.40123662480E+03  0.42339247731E+03  0.12494999447E+03 0.  0.
         25    2    3    3    0    0 -0.41325634798E+02 -0.30822906342E+02 -0.74146043271E+03  0.75203586177E+03  0.11461459093E+03 0.  0.
          5    1    4    4  502    0 -0.31374604327E+02  0.10986768351E+02 -0.31540293078E+02  0.46064682382E+02  0.47000000000E+01 0. -1.
         -5    1    4    4    0  502  0.72700239124E+02  0.19836137990E+02 -0.36969633172E+03  0.37732779493E+03  0.47000000000E+01 0. -1.
          5    1    5    5  503    0  0.77009248038E+01 -0.35738168576E+02 -0.73310300418E+02  0.82054927234E+02  0.47000000000E+01 0.  1.
         -5    1    5    5    0  503 -0.49026559601E+02  0.49152622344E+01 -0.66815013229E+03  0.66998093453E+03  0.47000000000E+01 0.  1.
<mgrwt>
<rscale>  0 0.27545456E+03</rscale>
<asrwt>0</asrwt>
<pdfrwt beam="1">  1        2 0.17831729E+00 0.27545456E+03</pdfrwt>
<pdfrwt beam="2">  1       -2 0.25177916E-02 0.27545456E+03</pdfrwt>
<totfact> 0.11583654E+04</totfact>
</mgrwt>
</event>
<event>
 9    1  0.2095749E-002  0.2754060E+03  0.7818608E-02  0.1098225E+00
          2   -1    0    0  501    0  0.00000000000E+00  0.00000000000E+00  0.96977192699E+03  0.96977192699E+03  0.00000000000E+00 0. -1.
         -2   -1    0    0    0  501 -0.00000000000E+00 -0.00000000000E+00 -0.19553172099E+02  0.19553172099E+02  0.00000000000E+00 0. -1.
         36    2    1    2    0    0  0.71054273576E-14  0.00000000000E+00  0.95021875489E+03  0.98932509909E+03  0.27540600854E+03 0.  0.
         25    2    3    3    0    0  0.40248593672E+02  0.31798344025E+02  0.39471448118E+03  0.41742240579E+03  0.12574123919E+03 0.  0.
         25    2    3    3    0    0 -0.40248593672E+02 -0.31798344025E+02  0.55550427372E+03  0.57190269330E+03  0.12592302613E+03 0.  0.
          5    1    4    4  502    0  0.38420298401E+02  0.68030084096E+02  0.35458892592E+03  0.36312478304E+03  0.47000000000E+01 0. -1.
         -5    1    4    4    0  502  0.18282952706E+01 -0.36231740071E+02  0.40125555254E+02  0.54297622753E+02  0.47000000000E+01 0. -1.
          5    1    5    5  503    0 -0.44412143587E+01  0.90161545476E+01  0.47235303555E+03  0.47248332841E+03  0.47000000000E+01 0. -1.
         -5    1    5    5    0  503 -0.35807379313E+02 -0.40814498572E+02  0.83151238167E+02  0.99419364893E+02  0.47000000000E+01 0. -1.
<mgrwt>
<rscale>  0 0.27540601E+03</rscale>
<asrwt>0</asrwt>
<pdfrwt beam="1">  1        2 0.14919564E+00 0.27540601E+03</pdfrwt>
<pdfrwt beam="2">  1       -2 0.30081811E-02 0.27540601E+03</pdfrwt>
<totfact> 0.11536288E+04</totfact>
</mgrwt>
</event>
<event>
 9    1  0.2095749E-002  0.2759218E+03  0.7818608E-02  0.1097937E+00
         -2   -1    0    0    0  501 -0.00000000000E+00  0.00000000000E+00  0.30146109953E+02  0.30146109953E+02  0.00000000000E+00 0. -1.
          2   -1    0    0  501    0  0.00000000000E+00 -0.00000000000E+00 -0.63136534663E+03  0.63136534663E+03  0.00000000000E+00 0. -1.
         36    2    1    2    0    0  0.00000000000E+00  0.00000000000E+00 -0.60121923668E+03  0.66151145659E+03  0.27592179443E+03 0.  0.
         25    2    3    3    0    0  0.27951145934E+02  0.24005680126E+02 -0.30391759563E+03  0.32952930995E+03  0.12192670727E+03 0.  0.
         25    2    3    3    0    0 -0.27951145934E+02 -0.24005680126E+02 -0.29730164104E+03  0.33198214663E+03  0.14306061889E+03 0.  0.
          5    1    4    4  502    0  0.25146611657E+02  0.48330900699E+02 -0.49092615263E+02  0.73487433712E+02  0.47000000000E+01 0. -1.
         -5    1    4    4    0  502  0.28045342778E+01 -0.24325220573E+02 -0.25482498037E+03  0.25604187624E+03  0.47000000000E+01 0. -1.
          5    1    5    5  503    0  0.36872058679E+01 -0.81261823073E+02 -0.14895303074E+03  0.16978272805E+03  0.47000000000E+01 0. -1.
         -5    1    5    5    0  503 -0.31638351802E+02  0.57256142947E+02 -0.14834861030E+03  0.16219941858E+03  0.47000000000E+01 0. -1.
<mgrwt>
<rscale>  0 0.27592179E+03</rscale>
<asrwt>0</asrwt>
<pdfrwt beam="1">  1        2 0.97133123E-01 0.27592179E+03</pdfrwt>
<pdfrwt beam="2">  1       -2 0.46378634E-02 0.27592179E+03</pdfrwt>
<totfact> 0.10386780E+04</totfact>
</mgrwt>
</event>
<event>
 9    1  0.2095749E-002  0.2711304E+03  0.7818608E-02  0.1100634E+00
          3   -1    0    0  501    0  0.00000000000E+00  0.00000000000E+00  0.20927745785E+02  0.20927745785E+02  0.00000000000E+00 0.  1.
         -3   -1    0    0    0  501 -0.00000000000E+00 -0.00000000000E+00 -0.87816087662E+03  0.87816087662E+03  0.00000000000E+00 0.  1.
         36    2    1    2    0    0  0.71054273576E-14 -0.35527136788E-14 -0.85723313083E+03  0.89908862240E+03  0.27113043049E+03 0.  0.
         25    2    3    3    0    0  0.51012093899E+02  0.15744146914E+02 -0.39314404512E+03  0.41567702042E+03  0.12399610158E+03 0.  0.
         25    2    3    3    0    0 -0.51012093899E+02 -0.15744146914E+02 -0.46408908571E+03  0.48341160198E+03  0.12433014746E+03 0.  0.
          5    1    4    4  502    0  0.89005250247E+02  0.25192285140E+02 -0.31203209598E+03  0.32548840951E+03  0.47000000000E+01 0.  1.
         -5    1    4    4    0  502 -0.37993156348E+02 -0.94481382258E+01 -0.81111949141E+02  0.90188610914E+02  0.47000000000E+01 0.  1.
          5    1    5    5  503    0 -0.57070415008E+02  0.45715950146E+02 -0.24235878134E+03  0.25319330414E+03  0.47000000000E+01 0. -1.
         -5    1    5    5    0  503  0.60583211098E+01 -0.61460097060E+02 -0.22173030437E+03  0.23021829784E+03  0.47000000000E+01 0. -1.
<mgrwt>
<rscale>  0 0.27113043E+03</rscale>
<asrwt>0</asrwt>
<pdfrwt beam="1">  1        3 0.32196534E-02 0.27113043E+03</pdfrwt>
<pdfrwt beam="2">  1       -3 0.13510167E+00 0.27113043E+03</pdfrwt>
<totfact> 0.51286838E+02</totfact>
</mgrwt>
</event>
<event>
 9    1  0.2095749E-002  0.2767490E+03  0.7818608E-02  0.1097478E+00
         -4   -1    0    0    0  501 -0.00000000000E+00  0.00000000000E+00  0.33409349417E+03  0.33409349417E+03  0.00000000000E+00 0. -1.
          4   -1    0    0  501    0  0.00000000000E+00 -0.00000000000E+00 -0.57311816813E+02  0.57311816813E+02  0.00000000000E+00 0. -1.
         36    2    1    2    0    0  0.00000000000E+00  0.35527136788E-14  0.27678167735E+03  0.39140531098E+03  0.27674902086E+03 0.  0.
         25    2    3    3    0    0  0.28832415867E+02  0.50024985708E+01  0.20224188414E+03  0.24340894341E+03  0.13224901071E+03 0.  0.
         25    2    3    3    0    0 -0.28832415867E+02 -0.50024985708E+01  0.74539793215E+02  0.14799636757E+03  0.12446047905E+03 0.  0.
          5    1    4    4  502    0  0.67798173651E+02  0.27980184759E+02  0.62581018532E+02  0.96529565264E+02  0.47000000000E+01 0.  1.
         -5    1    4    4    0  502 -0.38965757784E+02 -0.22977686188E+02  0.13966086561E+03  0.14687937815E+03  0.47000000000E+01 0.  1.
          5    1    5    5  503    0  0.26717117936E+02  0.42550591960E+02  0.49163875597E+02  0.70452352201E+02  0.47000000000E+01 0.  1.
         -5    1    5    5    0  503 -0.55549533802E+02 -0.47553090531E+02  0.25375917617E+02  0.77544015369E+02  0.47000000000E+01 0.  1.
<mgrwt>
<rscale>  0 0.27674902E+03</rscale>
<asrwt>0</asrwt>
<pdfrwt beam="1">  1        4 0.88172028E-02 0.27674902E+03</pdfrwt>
<pdfrwt beam="2">  1       -4 0.51398998E-01 0.27674902E+03</pdfrwt>
<totfact> 0.64512825E+02</totfact>
</mgrwt>
</event>
<event>
 9    1  0.2095749E-002  0.2754881E+03  0.7818608E-02  0.1098179E+00
         -2   -1    0    0    0  501 -0.00000000000E+00  0.00000000000E+00  0.39895407843E+03  0.39895407843E+03  0.00000000000E+00 0. -1.
          2   -1    0    0  501    0  0.00000000000E+00 -0.00000000000E+00 -0.47557924971E+02  0.47557924971E+02  0.00000000000E+00 0. -1.
         36    2    1    2    0    0 -0.71054273576E-14 -0.71054273576E-14  0.35139615346E+03  0.44651200340E+03  0.27548813498E+03 0.  0.
         25    2    3    3    0    0  0.17912901515E+02  0.48352795375E+02  0.14644265693E+03  0.19853263568E+03  0.12373718438E+03 0.  0.
         25    2    3    3    0    0 -0.17912901515E+02 -0.48352795375E+02  0.20495349653E+03  0.24797936773E+03  0.12972650545E+03 0.  0.
          5    1    4    4  502    0  0.78679083299E+01 -0.67530860963E+01 -0.19912719876E+02  0.22937187408E+02  0.47000000000E+01 0.  1.
         -5    1    4    4    0  502  0.10044993186E+02  0.55105881472E+02  0.16635537681E+03  0.17559544827E+03  0.47000000000E+01 0.  1.
          5    1    5    5  503    0  0.52780890866E+02 -0.36643796045E+02  0.70175725457E+02  0.95264435507E+02  0.47000000000E+01 0.  1.
         -5    1    5    5    0  503 -0.70693792382E+02 -0.11708999331E+02  0.13477777107E+03  0.15271493222E+03  0.47000000000E+01 0.  1.
<mgrwt>
<rscale>  0 0.27548813E+03</rscale>
<asrwt>0</asrwt>
<pdfrwt beam="1">  1        2 0.73166041E-02 0.27548813E+03</pdfrwt>
<pdfrwt beam="2">  1       -2 0.61377548E-01 0.27548813E+03</pdfrwt>
<totfact> 0.23993104E+03</totfact>
</mgrwt>
</event>
<event>
 9    1  0.2095749E-002  0.2750107E+03  0.7818608E-02  0.1098446E+00
         -2   -1    0    0    0  501 -0.00000000000E+00  0.00000000000E+00  0.12398628581E+02  0.12398628581E+02  0.00000000000E+00 0. -1.
          2   -1    0    0  501    0  0.00000000000E+00 -0.00000000000E+00 -0.15249847021E+04  0.15249847021E+04  0.00000000000E+00 0. -1.
         36    2    1    2    0    0 -0.35527136788E-14  0.00000000000E+00 -0.15125860735E+04  0.15373833306E+04  0.27501068280E+03 0.  0.
         25    2    3    3    0    0 -0.12076394526E+02 -0.99161933291E+01 -0.10744217910E+04  0.10817759720E+04  0.12495158439E+03 0.  0.
         25    2    3    3    0    0  0.12076394526E+02  0.99161933291E+01 -0.43816428250E+03  0.45560735865E+03  0.12387879805E+03 0.  0.
          5    1    4    4  502    0  0.84190091517E+01  0.50688583856E+02 -0.27602031685E+03  0.28080156261E+03  0.47000000000E+01 0.  1.
         -5    1    4    4    0  502 -0.20495403678E+02 -0.60604777185E+02 -0.79840147413E+03  0.80097440938E+03  0.47000000000E+01 0.  1.
          5    1    5    5  503    0 -0.20930592968E+02  0.32075151741E+02 -0.39444829213E+03  0.39633123804E+03  0.47000000000E+01 0.  1.
         -5    1    5    5    0  503  0.33006987494E+02 -0.22158958412E+02 -0.43715990371E+02  0.59276120618E+02  0.47000000000E+01 0.  1.
<mgrwt>
<rscale>  0 0.27501068E+03</rscale>
<asrwt>0</asrwt>
<pdfrwt beam="1">  1        2 0.23461305E+00 0.27501068E+03</pdfrwt>
<pdfrwt beam="2">  1       -2 0.19074812E-02 0.27501068E+03</pdfrwt>
<totfact> 0.10966730E+04</totfact>
</mgrwt>
</event>
<event>
 9    1  0.2095749E-002  0.2758475E+03  0.7818608E-02  0.1097979E+00
          2   -1    0    0  501    0  0.00000000000E+00  0.00000000000E+00  0.30467892617E+04  0.30467892617E+04  0.00000000000E+00 0. -1.
         -2   -1    0    0    0  501 -0.00000000000E+00 -0.00000000000E+00 -0.62436107455E+01  0.62436107455E+01  0.00000000000E+00 0. -1.
         36    2    1    2    0    0 -0.35527136788E-14  0.71054273576E-14  0.30405456509E+04  0.30530328724E+04  0.27584753886E+03 0.  0.
         25    2    3    3    0    0 -0.11170253392E+02  0.27753639589E+02  0.21021791224E+04  0.21060815162E+04  0.12460839193E+03 0.  0.
         25    2    3    3    0    0  0.11170253392E+02 -0.27753639589E+02  0.93836652853E+03  0.94695135617E+03  0.12365310359E+03 0.  0.
          5    1    4    4  502    0 -0.26381018158E+02 -0.31774737734E+02  0.15354030225E+04  0.15359655346E+04  0.47000000000E+01 0. -1.
         -5    1    4    4    0  502  0.15210764766E+02  0.59528377323E+02  0.56677609995E+03  0.57011598166E+03  0.47000000000E+01 0. -1.
          5    1    5    5  503    0  0.49064774095E+02 -0.47945243738E+02  0.77244515990E+03  0.77549965410E+03  0.47000000000E+01 0. -1.
         -5    1    5    5    0  503 -0.37894520703E+02  0.20191604149E+02  0.16592136862E+03  0.17145170207E+03  0.47000000000E+01 0. -1.
<mgrwt>
<rscale>  0 0.27584754E+03</rscale>
<asrwt>0</asrwt>
<pdfrwt beam="1">  1        2 0.46873562E+00 0.27584754E+03</pdfrwt>
<pdfrwt beam="2">  1       -2 0.96055793E-03 0.27584754E+03</pdfrwt>
<totfact> 0.44169521E+03</totfact>
</mgrwt>
</event>
<event>
 9    1  0.2095749E-002  0.2745410E+03  0.7818608E-02  0.1098708E+00
          1   -1    0    0  501    0  0.00000000000E+00  0.00000000000E+00  0.42732990119E+03  0.42732990119E+03  0.00000000000E+00 0.  1.
         -1   -1    0    0    0  501 -0.00000000000E+00 -0.00000000000E+00 -0.44095186075E+02  0.44095186075E+02  0.00000000000E+00 0.  1.
         36    2    1    2    0    0  0.71054273576E-14  0.00000000000E+00  0.38323471511E+03  0.47142508726E+03  0.27454100975E+03 0.  0.
         25    2    3    3    0    0 -0.17324884109E+02 -0.21279663343E+02  0.27550373206E+03  0.30461685070E+03  0.12702812157E+03 0.  0.
         25    2    3    3    0    0  0.17324884109E+02  0.21279663343E+02  0.10773098306E+03  0.16680823657E+03  0.12436256428E+03 0.  0.
          5    1    4    4  502    0 -0.31358262407E+02 -0.24636248135E+02  0.13779320693E+02  0.42452856466E+02  0.47000000000E+01 0. -1.
         -5    1    4    4    0  502  0.14033378298E+02  0.33565847921E+01  0.26172441136E+03  0.26216399423E+03  0.47000000000E+01 0. -1.
          5    1    5    5  503    0  0.64808851807E+02  0.39140864106E+02  0.71931616422E+02  0.10453918862E+03  0.47000000000E+01 0.  1.
         -5    1    5    5    0  503 -0.47483967698E+02 -0.17861200763E+02  0.35799366635E+02  0.62269047949E+02  0.47000000000E+01 0.  1.
<mgrwt>
<rscale>  0 0.27454101E+03</rscale>
<asrwt>0</asrwt>
<pdfrwt beam="1">  1        1 0.65743059E-01 0.27454101E+03</pdfrwt>
<pdfrwt beam="2">  1       -1 0.67838751E-02 0.27454101E+03</pdfrwt>
<totfact> 0.61277181E+03</totfact>
</mgrwt>
</event>
<event>
 9    1  0.2095749E-002  0.2757993E+03  0.7818608E-02  0.1098006E+00
         -2   -1    0    0    0  501 -0.00000000000E+00  0.00000000000E+00  0.12217002947E+02  0.12217002947E+02  0.00000000000E+00 0.  1.
          2   -1    0    0  501    0  0.00000000000E+00 -0.00000000000E+00 -0.15565451740E+04  0.15565451740E+04  0.00000000000E+00 0.  1.
         36    2    1    2    0    0  0.71054273576E-14  0.00000000000E+00 -0.15443281710E+04  0.15687621769E+04  0.27579932543E+03 0.  0.
         25    2    3    3    0    0 -0.52885065055E+02 -0.30995524223E+01 -0.45887360331E+03  0.47691381727E+03  0.11863965593E+03 0.  0.
         25    2    3    3    0    0  0.52885065055E+02  0.30995524223E+01 -0.10854545677E+04  0.10918483596E+04  0.10542667860E+03 0.  0.
          5    1    4    4  502    0  0.25150488811E+01  0.49602259734E+02 -0.23680031261E+03  0.24199832167E+03  0.47000000000E+01 0.  1.
         -5    1    4    4    0  502 -0.55400113936E+02 -0.52701812157E+02 -0.22207329071E+03  0.23491549560E+03  0.47000000000E+01 0.  1.
          5    1    5    5  503    0 -0.13271939049E+02  0.89178531289E+01 -0.73130657075E+03  0.73149645446E+03  0.47000000000E+01 0. -1.
         -5    1    5    5    0  503  0.66157004104E+02 -0.58183007066E+01 -0.35414799695E+03  0.36035190516E+03  0.47000000000E+01 0. -1.
<mgrwt>
<rscale>  0 0.27579933E+03</rscale>
<asrwt>0</asrwt>
<pdfrwt beam="1">  1        2 0.23946849E+00 0.27579933E+03</pdfrwt>
<pdfrwt beam="2">  1       -2 0.18795389E-02 0.27579933E+03</pdfrwt>
<totfact> 0.10782051E+04</totfact>
</mgrwt>
</event>
<event>
 9    1  0.2095749E-002  0.2742941E+03  0.7818608E-02  0.1098847E+00
         -2   -1    0    0    0  501 -0.00000000000E+00  0.00000000000E+00  0.30616981839E+02  0.30616981839E+02  0.00000000000E+00 0. -1.
          2   -1    0    0  501    0  0.00000000000E+00 -0.00000000000E+00 -0.61434228573E+03  0.61434228573E+03  0.00000000000E+00 0. -1.
         36    2    1    2    0    0  0.00000000000E+00 -0.10658141036E-13 -0.58372530389E+03  0.64495926757E+03  0.27429405101E+03 0.  0.
         25    2    3    3    0    0  0.25456518888E+02 -0.27373919402E+02 -0.17349830355E+03  0.21452463064E+03  0.12050638987E+03 0.  0.
         25    2    3    3    0    0 -0.25456518888E+02  0.27373919402E+02 -0.41022700034E+03  0.43043463693E+03  0.12486159956E+03 0.  0.
          5    1    4    4  502    0  0.30136766882E+02  0.43138783864E+02 -0.95716202603E+02  0.10932913990E+03  0.47000000000E+01 0. -1.
         -5    1    4    4    0  502 -0.46802479945E+01 -0.70512703266E+02 -0.77782100951E+02  0.10519549074E+03  0.47000000000E+01 0. -1.
          5    1    5    5  503    0 -0.74573885852E+02  0.16024413874E+02 -0.19760354907E+03  0.21186622878E+03  0.47000000000E+01 0.  1.
         -5    1    5    5    0  503  0.49117366964E+02  0.11349505528E+02 -0.21262345127E+03  0.21856840815E+03  0.47000000000E+01 0.  1.
<mgrwt>
<rscale>  0 0.27429405E+03</rscale>
<asrwt>0</asrwt>
<pdfrwt beam="1">  1        2 0.94514195E-01 0.27429405E+03</pdfrwt>
<pdfrwt beam="2">  1       -2 0.47103051E-02 0.27429405E+03</pdfrwt>
<totfact> 0.10473926E+04</totfact>
</mgrwt>
</event>
<event>
 9    1  0.2095749E-002  0.2767204E+03  0.7818608E-02  0.1097494E+00
          2   -1    0    0  501    0  0.00000000000E+00  0.00000000000E+00  0.96677762615E+03  0.96677762615E+03  0.00000000000E+00 0. -1.
         -2   -1    0    0    0  501 -0.00000000000E+00 -0.00000000000E+00 -0.19801401207E+02  0.19801401207E+02  0.00000000000E+00 0. -1.
         36    2    1    2    0    0 -0.71054273576E-14  0.00000000000E+00  0.94697622494E+03  0.98657902736E+03  0.27672044849E+03 0.  0.
         25    2    3    3    0    0  0.15612129360E+02 -0.55570071301E+02  0.47012133843E+03  0.49051777871E+03  0.12752194704E+03 0.  0.
         25    2    3    3    0    0 -0.15612129360E+02  0.55570071301E+02  0.47685488651E+03  0.49606124865E+03  0.12391290574E+03 0.  0.
          5    1    4    4  502    0 -0.32681820848E+02 -0.76996663540E+02  0.23497646889E+03  0.24946466392E+03  0.47000000000E+01 0. -1.
         -5    1    4    4    0  502  0.48293950208E+02  0.21426592239E+02  0.23514486954E+03  0.24105311479E+03  0.47000000000E+01 0. -1.
          5    1    5    5  503    0  0.53669137766E+02  0.15783363371E+02  0.21834778908E+03  0.22544919140E+03  0.47000000000E+01 0.  1.
         -5    1    5    5    0  503 -0.69281267126E+02  0.39786707931E+02  0.25850709743E+03  0.27061205724E+03  0.47000000000E+01 0.  1.
<mgrwt>
<rscale>  0 0.27672045E+03</rscale>
<asrwt>0</asrwt>
<pdfrwt beam="1">  1        2 0.14873498E+00 0.27672045E+03</pdfrwt>
<pdfrwt beam="2">  1       -2 0.30463702E-02 0.27672045E+03</pdfrwt>
<totfact> 0.11372021E+04</totfact>
</mgrwt>
</event>
<event>
 9    1  0.2095749E-002  0.2752911E+03  0.7818608E-02  0.1098289E+00
          2   -1    0    0  501    0  0.00000000000E+00  0.00000000000E+00  0.19955793266E+04  0.19955793266E+04  0.00000000000E+00 0.  1.
         -2   -1    0    0    0  501 -0.00000000000E+00 -0.00000000000E+00 -0.94941363010E+01  0.94941363010E+01  0.00000000000E+00 0.  1.
         36    2    1    2    0    0  0.35527136788E-14  0.00000000000E+00  0.19860851903E+04  0.20050734629E+04  0.27529113408E+03 0.  0.
         25    2    3    3    0    0  0.12720438977E+02  0.17332896084E+02  0.13874614969E+04  0.13932016963E+04  0.12449627358E+03 0.  0.
         25    2    3    3    0    0 -0.12720438977E+02 -0.17332896084E+02  0.59862369339E+03  0.61187176666E+03  0.12479781128E+03 0.  0.
          5    1    4    4  502    0  0.37053501995E+02 -0.45372247426E+02  0.61284988583E+03  0.61566116932E+03  0.47000000000E+01 0. -1.
         -5    1    4    4    0  502 -0.24333063018E+02  0.62705143509E+02  0.77461161110E+03  0.77754052694E+03  0.47000000000E+01 0. -1.
          5    1    5    5  503    0  0.34572314399E+02  0.26119012810E+02  0.99706945316E+02  0.10881641741E+03  0.47000000000E+01 0. -1.
         -5    1    5    5    0  503 -0.47292753376E+02 -0.43451908893E+02  0.49891674807E+03  0.50305534926E+03  0.47000000000E+01 0. -1.
<mgrwt>
<rscale>  0 0.27529113E+03</rscale>
<asrwt>0</asrwt>
<pdfrwt beam="1">  1        2 0.30701187E+00 0.27529113E+03</pdfrwt>
<pdfrwt beam="2">  1       -2 0.14606379E-02 0.27529113E+03</pdfrwt>
<totfact> 0.91623465E+03</totfact>
</mgrwt>
</event>
<event>
 9    1  0.2095749E-002  0.2748512E+03  0.7818608E-02  0.1098535E+00
         -1   -1    0    0    0  501 -0.00000000000E+00  0.00000000000E+00  0.13570249288E+03  0.13570249288E+03  0.00000000000E+00 0.  1.
          1   -1    0    0  501    0  0.00000000000E+00 -0.00000000000E+00 -0.13917061929E+03  0.13917061929E+03  0.00000000000E+00 0.  1.
         36    2    1    2    0    0 -0.14210854715E-13  0.00000000000E+00 -0.34681264067E+01  0.27487311217E+03  0.27485123230E+03 0.  0.
         25    2    3    3    0    0 -0.45428479376E+02  0.38611614852E+02  0.48571113644E+02  0.14757695937E+03  0.12595714476E+03 0.  0.
         25    2    3    3    0    0  0.45428479376E+02 -0.38611614852E+02 -0.52039240050E+02  0.12729615281E+03  0.99707695160E+02 0.  0.
          5    1    4    4  502    0 -0.75403735450E+02  0.60942021238E+02  0.51331756561E+02  0.10980297129E+03  0.47000000000E+01 0. -1.
         -5    1    4    4    0  502  0.29975256073E+02 -0.22330406385E+02 -0.27606429178E+01  0.37773988078E+02  0.47000000000E+01 0. -1.
          5    1    5    5  503    0  0.23638743525E+02 -0.40442303487E+02  0.20528229447E+02  0.51360182155E+02  0.47000000000E+01 0.  1.
         -5    1    5    5    0  503  0.21789735851E+02  0.18306886351E+01 -0.72567469497E+02  0.75935970650E+02  0.47000000000E+01 0.  1.
<mgrwt>
<rscale>  0 0.27485123E+03</rscale>
<asrwt>0</asrwt>
<pdfrwt beam="1">  1        1 0.21410864E-01 0.27485123E+03</pdfrwt>
<pdfrwt beam="2">  1       -1 0.20877307E-01 0.27485123E+03</pdfrwt>
<totfact> 0.43636201E+03</totfact>
</mgrwt>
</event>
<event>
 9    1  0.2095749E-002  0.2747678E+03  0.7818608E-02  0.1098581E+00
          1   -1    0    0  501    0  0.00000000000E+00  0.00000000000E+00  0.31770774273E+03  0.31770774273E+03  0.00000000000E+00 0.  1.
         -1   -1    0    0    0  501 -0.00000000000E+00 -0.00000000000E+00 -0.59407878028E+02  0.59407878028E+02  0.00000000000E+00 0.  1.
         36    2    1    2    0    0  0.00000000000E+00  0.00000000000E+00  0.25829986470E+03  0.37711562075E+03  0.27476784986E+03 0.  0.
         25    2    3    3    0    0 -0.17139283793E+02  0.20696170216E+01  0.20745209090E+03  0.24319031337E+03  0.12572637009E+03 0.  0.
         25    2    3    3    0    0  0.17139283793E+02 -0.20696170216E+01  0.50847773801E+02  0.13392530739E+03  0.12268844075E+03 0.  0.
          5    1    4    4  502    0 -0.60123822855E+02  0.35229123105E+02  0.14019518869E+03  0.15662932714E+03  0.47000000000E+01 0. -1.
         -5    1    4    4    0  502  0.42984539062E+02 -0.33159506083E+02  0.67256902204E+02  0.86560986224E+02  0.47000000000E+01 0. -1.
          5    1    5    5  503    0 -0.17792233604E+02  0.50959065339E+02  0.29732982353E+01  0.54261592487E+02  0.47000000000E+01 0. -1.
         -5    1    5    5    0  503  0.34931517398E+02 -0.53028682361E+02  0.47874475566E+02  0.79663714898E+02  0.47000000000E+01 0. -1.
<mgrwt>
<rscale>  0 0.27476785E+03</rscale>
<asrwt>0</asrwt>
<pdfrwt beam="1">  1        1 0.48878113E-01 0.27476785E+03</pdfrwt>
<pdfrwt beam="2">  1       -1 0.91396737E-02 0.27476785E+03</pdfrwt>
<totfact> 0.56721350E+03</totfact>
</mgrwt>
</event>
<event>
 9    1  0.2095749E-002  0.2755535E+03  0.7818608E-02  0.1098143E+00
         -1   -1    0    0    0  501 -0.00000000000E+00  0.00000000000E+00  0.49464793859E+02  0.49464793859E+02  0.00000000000E+00 0. -1.
          1   -1    0    0  501    0  0.00000000000E+00 -0.00000000000E+00 -0.38375657031E+03  0.38375657031E+03  0.00000000000E+00 0. -1.
         36    2    1    2    0    0 -0.35527136788E-14  0.17763568394E-14 -0.33429177645E+03  0.43322136416E+03  0.27555354937E+03 0.  0.
         25    2    3    3    0    0 -0.91379074042E+01  0.94692479965E+01 -0.27646166720E+03  0.29767575256E+03  0.10957477913E+03 0.  0.
         25    2    3    3    0    0  0.91379074042E+01 -0.94692479965E+01 -0.57830109250E+02  0.13554561161E+03  0.12188159533E+03 0.  0.
          5    1    4    4  502    0 -0.33280324534E+02  0.12968293797E+02 -0.26946983360E+03  0.27186731666E+03  0.47000000000E+01 0.  1.
         -5    1    4    4    0  502  0.24142417130E+02 -0.34990458001E+01 -0.69918335926E+01  0.25808435896E+02  0.47000000000E+01 0.  1.
          5    1    5    5  503    0 -0.32699216988E+02 -0.42962329118E+02 -0.61070873461E+02  0.81650120025E+02  0.47000000000E+01 0. -1.
         -5    1    5    5    0  503  0.41837124392E+02  0.33493081122E+02  0.32407642110E+01  0.53895491584E+02  0.47000000000E+01 0. -1.
<mgrwt>
<rscale>  0 0.27555355E+03</rscale>
<asrwt>0</asrwt>
<pdfrwt beam="1">  1        1 0.59039471E-01 0.27555355E+03</pdfrwt>
<pdfrwt beam="2">  1       -1 0.76099685E-02 0.27555355E+03</pdfrwt>
<totfact> 0.59089801E+03</totfact>
</mgrwt>
</event>
<event>
 9    1  0.2095749E-002  0.2734596E+03  0.7818608E-02  0.1099316E+00
          3   -1    0    0  501    0  0.00000000000E+00  0.00000000000E+00  0.21040100929E+03  0.21040100929E+03  0.00000000000E+00 0. -1.
         -3   -1    0    0    0  501 -0.00000000000E+00 -0.00000000000E+00 -0.88854306948E+02  0.88854306948E+02  0.00000000000E+00 0. -1.
         36    2    1    2    0    0  0.00000000000E+00  0.35527136788E-14  0.12154670234E+03  0.29925531624E+03  0.27345958284E+03 0.  0.
         25    2    3    3    0    0  0.37207026657E+02  0.30750712676E+02  0.22954901607E+02  0.13370730979E+03  0.12255916131E+03 0.  0.
         25    2    3    3    0    0 -0.37207026657E+02 -0.30750712676E+02  0.98591800735E+02  0.16554800645E+03  0.12391864309E+03 0.  0.
          5    1    4    4  502    0  0.32155896776E+02 -0.41031349116E+02  0.31500821608E+02  0.61089811505E+02  0.47000000000E+01 0. -1.
         -5    1    4    4    0  502  0.50511298803E+01  0.71782061792E+02 -0.85459200009E+01  0.72617498283E+02  0.47000000000E+01 0. -1.
          5    1    5    5  503    0 -0.38303559065E+02  0.18610642219E+02  0.10698605094E+03  0.11524592720E+03  0.47000000000E+01 0.  1.
         -5    1    5    5    0  503  0.10965324078E+01 -0.49361354895E+02 -0.83942502030E+01  0.50302079250E+02  0.47000000000E+01 0.  1.
<mgrwt>
<rscale>  0 0.27345958E+03</rscale>
<asrwt>0</asrwt>
<pdfrwt beam="1">  1        3 0.32369386E-01 0.27345958E+03</pdfrwt>
<pdfrwt beam="2">  1       -3 0.13669893E-01 0.27345958E+03</pdfrwt>
<totfact> 0.10303628E+03</totfact>
</mgrwt>
</event>
<event>
 9    1  0.2095749E-002  0.2768780E+03  0.7818608E-02  0.1097406E+00
         -1   -1    0    0    0  501 -0.00000000000E+00  0.00000000000E+00  0.27480544024E+02  0.27480544024E+02  0.00000000000E+00 0.  1.
          1   -1    0    0  501    0  0.00000000000E+00 -0.00000000000E+00 -0.69741548920E+03  0.69741548920E+03  0.00000000000E+00 0.  1.
         36    2    1    2    0    0 -0.71054273576E-14  0.35527136788E-14 -0.66993494518E+03  0.72489603323E+03  0.27687800240E+03 0.  0.
         25    2    3    3    0    0  0.41729606787E+02 -0.31539457501E+02 -0.34075904125E+03  0.36934249945E+03  0.13251815062E+03 0.  0.
         25    2    3    3    0    0 -0.41729606787E+02  0.31539457501E+02 -0.32917590393E+03  0.35555353378E+03  0.12379597002E+03 0.  0.
          5    1    4    4  502    0 -0.12232504195E+02 -0.49204267485E+02 -0.44405680016E+02  0.67562182583E+02  0.47000000000E+01 0. -1.
         -5    1    4    4    0  502  0.53962110982E+02  0.17664809984E+02 -0.29635336123E+03  0.30178031687E+03  0.47000000000E+01 0. -1.
          5    1    5    5  503    0  0.25329021631E+02 -0.31999211614E+02 -0.12004351554E+03  0.12687806944E+03  0.47000000000E+01 0. -1.
         -5    1    5    5    0  503 -0.67058628418E+02  0.63538669115E+02 -0.20913238838E+03  0.22867546434E+03  0.47000000000E+01 0. -1.
<mgrwt>
<rscale>  0 0.27687800E+03</rscale>
<asrwt>0</asrwt>
<pdfrwt beam="1">  1        1 0.10729469E+00 0.27687800E+03</pdfrwt>
<pdfrwt beam="2">  1       -1 0.42277760E-02 0.27687800E+03</pdfrwt>
<totfact> 0.64006014E+03</totfact>
</mgrwt>
</event>
<event>
 9    1  0.2095749E-002  0.2755028E+03  0.7818608E-02  0.1098171E+00
         -2   -1    0    0    0  501 -0.00000000000E+00  0.00000000000E+00  0.66649633736E+01  0.66649633736E+01  0.00000000000E+00 0.  1.
          2   -1    0    0  501    0  0.00000000000E+00 -0.00000000000E+00 -0.28470438856E+04  0.28470438856E+04  0.00000000000E+00 0.  1.
         36    2    1    2    0    0  0.35527136788E-14  0.00000000000E+00 -0.28403789222E+04  0.28537088490E+04  0.27550276384E+03 0.  0.
         25    2    3    3    0    0 -0.91974927001E+01 -0.36458446210E+02 -0.93241295304E+03  0.94109886778E+03  0.12189894078E+03 0.  0.
         25    2    3    3    0    0  0.91974927001E+01  0.36458446210E+02 -0.19079659692E+04  0.19126099812E+04  0.12778493036E+03 0.  0.
          5    1    4    4  502    0  0.34716334273E+01  0.17831838682E+02 -0.75146628640E+03  0.75170053632E+03  0.47000000000E+01 0. -1.
         -5    1    4    4    0  502 -0.12669126127E+02 -0.54290284892E+02 -0.18094666665E+03  0.18939833147E+03  0.47000000000E+01 0. -1.
          5    1    5    5  503    0 -0.18656226029E+02  0.78962092250E+02 -0.12769242877E+04  0.12795080279E+04  0.47000000000E+01 0. -1.
         -5    1    5    5    0  503  0.27853718729E+02 -0.42503646040E+02 -0.63104168146E+03  0.63310195334E+03  0.47000000000E+01 0. -1.
<mgrwt>
<rscale>  0 0.27550276E+03</rscale>
<asrwt>0</asrwt>
<pdfrwt beam="1">  1        2 0.43800651E+00 0.27550276E+03</pdfrwt>
<pdfrwt beam="2">  1       -2 0.10253795E-02 0.27550276E+03</pdfrwt>
<totfact> 0.52628967E+03</totfact>
</mgrwt>
</event>
<event>
 9    1  0.2095749E-002  0.2725296E+03  0.7818608E-02  0.1099841E+00
          2   -1    0    0  501    0  0.00000000000E+00  0.00000000000E+00  0.21104311054E+03  0.21104311054E+03  0.00000000000E+00 0.  1.
         -2   -1    0    0    0  501 -0.00000000000E+00 -0.00000000000E+00 -0.87982481237E+02  0.87982481237E+02  0.00000000000E+00 0.  1.
         36    2    1    2    0    0  0.00000000000E+00  0.71054273576E-14  0.12306062931E+03  0.29902559178E+03  0.27252960583E+03 0.  0.
         25    2    3    3    0    0  0.49140761856E+02  0.18646464585E+02  0.60209871090E+02  0.14869669521E+03  0.12539128148E+03 0.  0.
         25    2    3    3    0    0 -0.49140761856E+02 -0.18646464585E+02  0.62850758218E+02  0.15032889657E+03  0.12603989138E+03 0.  0.
          5    1    4    4  502    0  0.10133514627E+02 -0.34306300822E+02 -0.22804849939E+02  0.42682099005E+02  0.47000000000E+01 0.  1.
         -5    1    4    4    0  502  0.39007247229E+02  0.52952765407E+02  0.83014721028E+02  0.10601459620E+03  0.47000000000E+01 0.  1.
          5    1    5    5  503    0 -0.12170451630E+02  0.39006076711E+02  0.70123361721E+02  0.81295570435E+02  0.47000000000E+01 0. -1.
         -5    1    5    5    0  503 -0.36970310227E+02 -0.57652541296E+02 -0.72726035036E+01  0.69033326139E+02  0.47000000000E+01 0. -1.
<mgrwt>
<rscale>  0 0.27252961E+03</rscale>
<asrwt>0</asrwt>
<pdfrwt beam="1">  1        2 0.32468171E-01 0.27252961E+03</pdfrwt>
<pdfrwt beam="2">  1       -2 0.13535766E-01 0.27252961E+03</pdfrwt>
<totfact> 0.64676345E+03</totfact>
</mgrwt>
</event>
<event>
 9    1  0.2095749E-002  0.2755295E+03  0.7818608E-02  0.1098156E+00
          1   -1    0    0  501    0  0.00000000000E+00  0.00000000000E+00  0.34895326653E+02  0.34895326653E+02  0.00000000000E+00 0. -1.
         -1   -1    0    0    0  501 -0.00000000000E+00 -0.00000000000E+00 -0.54388745359E+03  0.54388745359E+03  0.00000000000E+00 0. -1.
         36    2    1    2    0    0  0.00000000000E+00  0.00000000000E+00 -0.50899212694E+03  0.57878278025E+03  0.27552952913E+03 0.  0.
         25    2    3    3    0    0  0.50942009976E+02  0.16550870033E+02 -0.24487991174E+03  0.28256448222E+03  0.13041278986E+03 0.  0.
         25    2    3    3    0    0 -0.50942009976E+02 -0.16550870033E+02 -0.26411221520E+03  0.29621829803E+03  0.12296746801E+03 0.  0.
          5    1    4    4  502    0 -0.86684446491E+01 -0.48368354479E+02 -0.59993444518E+02  0.77691331774E+02  0.47000000000E+01 0.  1.
         -5    1    4    4    0  502  0.59610454625E+02  0.64919224512E+02 -0.18488646722E+03  0.20487315044E+03  0.47000000000E+01 0.  1.
          5    1    5    5  503    0 -0.86976053022E+02 -0.33698257724E+02 -0.17192367947E+03  0.19565338724E+03  0.47000000000E+01 0. -1.
         -5    1    5    5    0  503  0.36034043046E+02  0.17147387691E+02 -0.92188535730E+02  0.10056491079E+03  0.47000000000E+01 0. -1.
<mgrwt>
<rscale>  0 0.27552953E+03</rscale>
<asrwt>0</asrwt>
<pdfrwt beam="1">  1        1 0.53685115E-02 0.27552953E+03</pdfrwt>
<pdfrwt beam="2">  1       -1 0.83674997E-01 0.27552953E+03</pdfrwt>
<totfact> 0.22346594E+03</totfact>
</mgrwt>
</event>
<event>
 9    1  0.2095749E-002  0.2743924E+03  0.7818608E-02  0.1098792E+00
          2   -1    0    0  501    0  0.00000000000E+00  0.00000000000E+00  0.90542695702E+02  0.90542695702E+02  0.00000000000E+00 0. -1.
         -2   -1    0    0    0  501 -0.00000000000E+00 -0.00000000000E+00 -0.20788870806E+03  0.20788870806E+03  0.00000000000E+00 0. -1.
         36    2    1    2    0    0  0.14210854715E-13  0.14210854715E-13 -0.11734601236E+03  0.29843140376E+03  0.27439244912E+03 0.  0.
         25    2    3    3    0    0  0.17048879529E+02  0.36804672471E+02 -0.91743573893E+02  0.16341609228E+03  0.12900654114E+03 0.  0.
         25    2    3    3    0    0 -0.17048879529E+02 -0.36804672471E+02 -0.25602438466E+02  0.13501531149E+03  0.12620777025E+03 0.  0.
          5    1    4    4  502    0  0.69077634136E+02  0.18860774130E+02 -0.23266528237E+02  0.75437853063E+02  0.47000000000E+01 0.  1.
         -5    1    4    4    0  502 -0.52028754607E+02  0.17943898341E+02 -0.68477045656E+02  0.87978239215E+02  0.47000000000E+01 0.  1.
          5    1    5    5  503    0 -0.21927699619E+02 -0.81802754927E+02 -0.28333830081E+02  0.89428243029E+02  0.47000000000E+01 0. -1.
         -5    1    5    5    0  503  0.48788200899E+01  0.44998082457E+02  0.27313916156E+01  0.45587068456E+02  0.47000000000E+01 0. -1.
<mgrwt>
<rscale>  0 0.27439245E+03</rscale>
<asrwt>0</asrwt>
<pdfrwt beam="1">  1        2 0.13929646E-01 0.27439245E+03</pdfrwt>
<pdfrwt beam="2">  1       -2 0.31982878E-01 0.27439245E+03</pdfrwt>
<totfact> 0.38510130E+03</totfact>
</mgrwt>
</event>
<event>
 9    1  0.2095749E-002  0.2754247E+03  0.7818608E-02  0.1098214E+00
         -1   -1    0    0    0  501 -0.00000000000E+00  0.00000000000E+00  0.75047520248E+02  0.75047520248E+02  0.00000000000E+00 0. -1.
          1   -1    0    0  501    0  0.00000000000E+00 -0.00000000000E+00 -0.25270247217E+03  0.25270247217E+03  0.00000000000E+00 0. -1.
         36    2    1    2    0    0  0.00000000000E+00  0.00000000000E+00 -0.17765495192E+03  0.32774999241E+03  0.27542471855E+03 0.  0.
         25    2    3    3    0    0 -0.16038424259E+02  0.38726580885E+02 -0.57169072046E+02  0.14397462394E+03  0.12531324919E+03 0.  0.
         25    2    3    3    0    0  0.16038424259E+02 -0.38726580885E+02 -0.12048587987E+03  0.18377536847E+03  0.13228590132E+03 0.  0.
          5    1    4    4  502    0 -0.13477252694E+02  0.84152449601E+02 -0.45699400086E+02  0.96818367484E+02  0.47000000000E+01 0. -1.
         -5    1    4    4    0  502 -0.25611715654E+01 -0.45425868716E+02 -0.11469671960E+02  0.47156256460E+02  0.47000000000E+01 0. -1.
          5    1    5    5  503    0  0.34671771152E+02 -0.82199441954E+02 -0.92595769318E+02  0.12866602686E+03  0.47000000000E+01 0.  1.
         -5    1    5    5    0  503 -0.18633346893E+02  0.43472861069E+02 -0.27890110553E+02  0.55109341610E+02  0.47000000000E+01 0.  1.
<mgrwt>
<rscale>  0 0.27542472E+03</rscale>
<asrwt>0</asrwt>
<pdfrwt beam="1">  1        1 0.38877304E-01 0.27542472E+03</pdfrwt>
<pdfrwt beam="2">  1       -1 0.11545772E-01 0.27542472E+03</pdfrwt>
<totfact> 0.52672122E+03</totfact>
</mgrwt>
</event>
<event>
 9    1  0.2095749E-002  0.2711918E+03  0.7818608E-02  0.1100599E+00
         -3   -1    0    0    0  501 -0.00000000000E+00  0.00000000000E+00  0.77628552882E+01  0.77628552882E+01  0.00000000000E+00 0.  1.
          3   -1    0    0  501    0  0.00000000000E+00 -0.00000000000E+00 -0.23684907207E+04  0.23684907207E+04  0.00000000000E+00 0.  1.
         36    2    1    2    0    0 -0.35527136788E-14  0.71054273576E-14 -0.23607278654E+04  0.23762535760E+04  0.27119181932E+03 0.  0.
         25    2    3    3    0    0  0.31855468768E+02 -0.28385388352E+02 -0.88112823388E+03  0.89057256775E+03  0.12211483418E+03 0.  0.
         25    2    3    3    0    0 -0.31855468768E+02  0.28385388352E+02 -0.14795996316E+04  0.14856810083E+04  0.12732826649E+03 0.  0.
          5    1    4    4  502    0  0.64251024053E+02  0.63713249701E+01 -0.70887258946E+03  0.71182246801E+03  0.47000000000E+01 0.  1.
         -5    1    4    4    0  502 -0.32395555285E+02 -0.34756713322E+02 -0.17225564442E+03  0.17875009974E+03  0.47000000000E+01 0.  1.
          5    1    5    5  503    0 -0.88596891654E+01 -0.50431013443E+02 -0.64084655847E+03  0.64290604501E+03  0.47000000000E+01 0.  1.
         -5    1    5    5    0  503 -0.22995779603E+02  0.78816401795E+02 -0.83875307308E+03  0.84277496325E+03  0.47000000000E+01 0.  1.
<mgrwt>
<rscale>  0 0.27119182E+03</rscale>
<asrwt>0</asrwt>
<pdfrwt beam="1">  1        3 0.36438355E+00 0.27119182E+03</pdfrwt>
<pdfrwt beam="2">  1       -3 0.11942842E-02 0.27119182E+03</pdfrwt>
<totfact> 0.10859111E+02</totfact>
</mgrwt>
</event>
<event>
 9    1  0.2095749E-002  0.2692038E+03  0.7818608E-02  0.1101736E+00
          1   -1    0    0  501    0  0.00000000000E+00  0.00000000000E+00  0.22639387507E+03  0.22639387507E+03  0.00000000000E+00 0.  1.
         -1   -1    0    0    0  501 -0.00000000000E+00 -0.00000000000E+00 -0.80027196747E+02  0.80027196747E+02  0.00000000000E+00 0.  1.
         36    2    1    2    0    0  0.71054273576E-14 -0.14210854715E-13  0.14636667832E+03  0.30642107182E+03  0.26920376805E+03 0.  0.
         25    2    3    3    0    0  0.48763175320E+01  0.60127925758E+02  0.61663903911E+02  0.14352748787E+03  0.11471075277E+03 0.  0.
         25    2    3    3    0    0 -0.48763175320E+01 -0.60127925758E+02  0.84702774411E+02  0.16289358394E+03  0.12538187177E+03 0.  0.
          5    1    4    4  502    0  0.36943676974E+02  0.76202088537E+02  0.65478268053E+02  0.10714983506E+03  0.47000000000E+01 0. -1.
         -5    1    4    4    0  502 -0.32067359442E+02 -0.16074162779E+02 -0.38143641420E+01  0.36377652816E+02  0.47000000000E+01 0. -1.
          5    1    5    5  503    0  0.39756151131E+02  0.20214429981E+02  0.14455941559E+02  0.47119411908E+02  0.47000000000E+01 0. -1.
         -5    1    5    5    0  503 -0.44632468663E+02 -0.80342355739E+02  0.70246832852E+02  0.11577417204E+03  0.47000000000E+01 0. -1.
<mgrwt>
<rscale>  0 0.26920377E+03</rscale>
<asrwt>0</asrwt>
<pdfrwt beam="1">  1        1 0.34829827E-01 0.26920377E+03</pdfrwt>
<pdfrwt beam="2">  1       -1 0.12311877E-01 0.26920377E+03</pdfrwt>
<totfact> 0.54656854E+03</totfact>
</mgrwt>
</event>
<event>
 9    1  0.2095749E-002  0.2741516E+03  0.7818608E-02  0.1098927E+00
          2   -1    0    0  501    0  0.00000000000E+00  0.00000000000E+00  0.45365371408E+03  0.45365371408E+03  0.00000000000E+00 0.  1.
         -2   -1    0    0    0  501 -0.00000000000E+00 -0.00000000000E+00 -0.41418768035E+02  0.41418768035E+02  0.00000000000E+00 0.  1.
         36    2    1    2    0    0  0.35527136788E-14  0.00000000000E+00  0.41223494605E+03  0.49507248212E+03  0.27415162193E+03 0.  0.
         25    2    3    3    0    0  0.26086910622E+02  0.81123595070E+02  0.16534199438E+03  0.20938430837E+03  0.96136615830E+02 0.  0.
         25    2    3    3    0    0 -0.26086910622E+02 -0.81123595070E+02  0.24689295167E+03  0.28568817375E+03  0.11575853512E+03 0.  0.
          5    1    4    4  502    0  0.44939063823E+02  0.24821094433E+02  0.25769605316E+02  0.57634787622E+02  0.47000000000E+01 0. -1.
         -5    1    4    4    0  502 -0.18852153201E+02  0.56302500637E+02  0.13957238906E+03  0.15174952075E+03  0.47000000000E+01 0. -1.
          5    1    5    5  503    0 -0.15416216073E+02 -0.55162867174E+02  0.26185646675E+02  0.63153620044E+02  0.47000000000E+01 0.  1.
         -5    1    5    5    0  503 -0.10670694548E+02 -0.25960727896E+02  0.22070730499E+03  0.22253455370E+03  0.47000000000E+01 0.  1.
<mgrwt>
<rscale>  0 0.27415162E+03</rscale>
<asrwt>0</asrwt>
<pdfrwt beam="1">  1        2 0.69792876E-01 0.27415162E+03</pdfrwt>
<pdfrwt beam="2">  1       -2 0.63721185E-02 0.27415162E+03</pdfrwt>
<totfact> 0.93051508E+03</totfact>
</mgrwt>
</event>
<event>
 9    1  0.2095749E-002  0.2755947E+03  0.7818608E-02  0.1098120E+00
          2   -1    0    0  501    0  0.00000000000E+00  0.00000000000E+00  0.31529160775E+03  0.31529160775E+03  0.00000000000E+00 0.  1.
         -2   -1    0    0    0  501 -0.00000000000E+00 -0.00000000000E+00 -0.60223977108E+02  0.60223977108E+02  0.00000000000E+00 0.  1.
         36    2    1    2    0    0  0.53290705182E-14 -0.35527136788E-14  0.25506763064E+03  0.37551558486E+03  0.27559473556E+03 0.  0.
         25    2    3    3    0    0 -0.15433284506E+02 -0.28411846579E+02  0.19324076017E+03  0.23376018598E+03  0.12750064259E+03 0.  0.
         25    2    3    3    0    0  0.15433284506E+02  0.28411846579E+02  0.61826870470E+02  0.14175539888E+03  0.12339615838E+03 0.  0.
          5    1    4    4  502    0 -0.53821429754E+02 -0.23652261027E+02  0.18467443325E+03  0.19386312710E+03  0.47000000000E+01 0.  1.
         -5    1    4    4    0  502  0.38388145248E+02 -0.47595855519E+01  0.85663269194E+01  0.39897058878E+02  0.47000000000E+01 0.  1.
          5    1    5    5  503    0  0.13224021913E+02  0.76048015764E+02  0.50981649728E+02  0.92625018576E+02  0.47000000000E+01 0. -1.
         -5    1    5    5    0  503  0.22092625927E+01 -0.47636169185E+02  0.10845220742E+02  0.49130380304E+02  0.47000000000E+01 0. -1.
<mgrwt>
<rscale>  0 0.27559474E+03</rscale>
<asrwt>0</asrwt>
<pdfrwt beam="1">  1        2 0.48506400E-01 0.27559474E+03</pdfrwt>
<pdfrwt beam="2">  1       -2 0.92652274E-02 0.27559474E+03</pdfrwt>
<totfact> 0.77070858E+03</totfact>
</mgrwt>
</event>
<event>
 9    1  0.2095749E-002  0.2753840E+03  0.7818608E-02  0.1098237E+00
         -2   -1    0    0    0  501 -0.00000000000E+00  0.00000000000E+00  0.28025899165E+03  0.28025899165E+03  0.00000000000E+00 0.  1.
          2   -1    0    0  501    0  0.00000000000E+00 -0.00000000000E+00 -0.67648457282E+02  0.67648457282E+02  0.00000000000E+00 0.  1.
         36    2    1    2    0    0 -0.14210854715E-13  0.35527136788E-14  0.21261053436E+03  0.34790744893E+03  0.27538401133E+03 0.  0.
         25    2    3    3    0    0 -0.53845120735E+02  0.54585434386E+01  0.13812956551E+03  0.19213500032E+03  0.12209417987E+03 0.  0.
         25    2    3    3    0    0  0.53845120735E+02 -0.54585434386E+01  0.74480968859E+02  0.15577244861E+03  0.12565249022E+03 0.  0.
          5    1    4    4  502    0  0.28495997532E+01  0.56203878329E+02  0.48228213441E+02  0.74263360614E+02  0.47000000000E+01 0.  1.
         -5    1    4    4    0  502 -0.56694720488E+02 -0.50745334890E+02  0.89901352065E+02  0.11787163971E+03  0.47000000000E+01 0.  1.
          5    1    5    5  503    0  0.91023393880E+02 -0.25051591348E+02  0.51661275662E+02  0.10772101868E+03  0.47000000000E+01 0. -1.
         -5    1    5    5    0  503 -0.37178273145E+02  0.19593047909E+02  0.22819693197E+02  0.48051429927E+02  0.47000000000E+01 0. -1.
<mgrwt>
<rscale>  0 0.27538401E+03</rscale>
<asrwt>0</asrwt>
<pdfrwt beam="1">  1        2 0.10407455E-01 0.27538401E+03</pdfrwt>
<pdfrwt beam="2">  1       -2 0.43116767E-01 0.27538401E+03</pdfrwt>
<totfact> 0.31270221E+03</totfact>
</mgrwt>
</event>
<event>
 9    1  0.2095749E-002  0.2754453E+03  0.7818608E-02  0.1098203E+00
         -1   -1    0    0    0  501 -0.00000000000E+00  0.00000000000E+00  0.13279932252E+02  0.13279932252E+02  0.00000000000E+00 0. -1.
          1   -1    0    0  501    0  0.00000000000E+00 -0.00000000000E+00 -0.14282854668E+04  0.14282854668E+04  0.00000000000E+00 0. -1.
         36    2    1    2    0    0  0.00000000000E+00 -0.13322676296E-14 -0.14150055346E+04  0.14415653991E+04  0.27544534294E+03 0.  0.
         25    2    3    3    0    0  0.27754898132E+02  0.13135189012E+01 -0.42134471981E+03  0.44015734978E+03  0.12423791669E+03 0.  0.
         25    2    3    3    0    0 -0.27754898132E+02 -0.13135189012E+01 -0.99366081475E+03  0.10014080493E+04  0.12117840863E+03 0.  0.
          5    1    4    4  502    0  0.39288149223E+02  0.52359288270E+02 -0.31220356305E+03  0.31902697146E+03  0.47000000000E+01 0.  1.
         -5    1    4    4    0  502 -0.11533251091E+02 -0.51045769369E+02 -0.10914115677E+03  0.12113037832E+03  0.47000000000E+01 0.  1.
          5    1    5    5  503    0  0.30293346245E+02  0.28113925584E+01 -0.75792437578E+03  0.75854929976E+03  0.47000000000E+01 0. -1.
         -5    1    5    5    0  503 -0.58048244377E+02 -0.41249114596E+01 -0.23573643896E+03  0.24285874953E+03  0.47000000000E+01 0. -1.
<mgrwt>
<rscale>  0 0.27544534E+03</rscale>
<asrwt>0</asrwt>
<pdfrwt beam="1">  1        1 0.21973622E+00 0.27544534E+03</pdfrwt>
<pdfrwt beam="2">  1       -1 0.20430666E-02 0.27544534E+03</pdfrwt>
<totfact> 0.53097950E+03</totfact>
</mgrwt>
</event>
<event>
 9    1  0.2095749E-002  0.2750723E+03  0.7818608E-02  0.1098411E+00
          2   -1    0    0  501    0  0.00000000000E+00  0.00000000000E+00  0.16953167344E+04  0.16953167344E+04  0.00000000000E+00 0.  1.
         -2   -1    0    0    0  501 -0.00000000000E+00 -0.00000000000E+00 -0.11157907890E+02  0.11157907890E+02  0.00000000000E+00 0.  1.
         36    2    1    2    0    0 -0.35527136788E-14  0.00000000000E+00  0.16841588265E+04  0.17064746423E+04  0.27507226663E+03 0.  0.
         25    2    3    3    0    0 -0.10380530343E+02  0.33987697330E+02  0.11343411456E+04  0.11419229455E+04  0.12647236814E+03 0.  0.
         25    2    3    3    0    0  0.10380530343E+02 -0.33987697330E+02  0.54981768090E+03  0.56455169677E+03  0.12311058896E+03 0.  0.
          5    1    4    4  502    0  0.11035931106E+01 -0.47757569856E+02  0.47450164132E+03  0.47692337016E+03  0.47000000000E+01 0. -1.
         -5    1    4    4    0  502 -0.11484123454E+02  0.81745267186E+02  0.65983950427E+03  0.66499957533E+03  0.47000000000E+01 0. -1.
          5    1    5    5  503    0  0.53229865836E+02 -0.12019934303E+02  0.11869668370E+03  0.13072448186E+03  0.47000000000E+01 0.  1.
         -5    1    5    5    0  503 -0.42849335493E+02 -0.21967763027E+02  0.43112099720E+03  0.43382721491E+03  0.47000000000E+01 0.  1.
<mgrwt>
<rscale>  0 0.27507227E+03</rscale>
<asrwt>0</asrwt>
<pdfrwt beam="1">  1        2 0.26081776E+00 0.27507227E+03</pdfrwt>
<pdfrwt beam="2">  1       -2 0.17166026E-02 0.27507227E+03</pdfrwt>
<totfact> 0.10400700E+04</totfact>
</mgrwt>
</event>
<event>
 9    1  0.2095749E-002  0.2800043E+03  0.7818608E-02  0.1095687E+00
          2   -1    0    0  501    0  0.00000000000E+00  0.00000000000E+00  0.14625581487E+04  0.14625581487E+04  0.00000000000E+00 0. -1.
         -2   -1    0    0    0  501 -0.00000000000E+00 -0.00000000000E+00 -0.13401590287E+02  0.13401590287E+02  0.00000000000E+00 0. -1.
         36    2    1    2    0    0  0.00000000000E+00 -0.14210854715E-13  0.14491565584E+04  0.14759597389E+04  0.28000432196E+03 0.  0.
         25    2    3    3    0    0 -0.10222283047E+02  0.60495671618E+02  0.79912487101E+03  0.81098199937E+03  0.12380235244E+03 0.  0.
         25    2    3    3    0    0  0.10222283047E+02 -0.60495671618E+02  0.65003168735E+03  0.66497773957E+03  0.12605545688E+03 0.  0.
          5    1    4    4  502    0 -0.66171473520E+01  0.72589210220E+02  0.79270626598E+03  0.79606425256E+03  0.47000000000E+01 0. -1.
         -5    1    4    4    0  502 -0.36051356948E+01 -0.12093538602E+02  0.64186050365E+01  0.14917746811E+02  0.47000000000E+01 0. -1.
          5    1    5    5  503    0 -0.52559323566E+02 -0.41622407524E+02  0.22267728665E+03  0.23259873451E+03  0.47000000000E+01 0.  1.
         -5    1    5    5    0  503  0.62781606613E+02 -0.18873264094E+02  0.42735440070E+03  0.43237900507E+03  0.47000000000E+01 0.  1.
<mgrwt>
<rscale>  0 0.28000432E+03</rscale>
<asrwt>0</asrwt>
<pdfrwt beam="1">  1        2 0.22500882E+00 0.28000432E+03</pdfrwt>
<pdfrwt beam="2">  1       -2 0.20617843E-02 0.28000432E+03</pdfrwt>
<totfact> 0.10567844E+04</totfact>
</mgrwt>
</event>
<event>
 9    1  0.2095749E-002  0.2748443E+03  0.7818608E-02  0.1098539E+00
          1   -1    0    0  501    0  0.00000000000E+00  0.00000000000E+00  0.80612764766E+02  0.80612764766E+02  0.00000000000E+00 0. -1.
         -1   -1    0    0    0  501 -0.00000000000E+00 -0.00000000000E+00 -0.23426629480E+03  0.23426629480E+03  0.00000000000E+00 0. -1.
         36    2    1    2    0    0  0.71054273576E-14 -0.35527136788E-14 -0.15365353003E+03  0.31487905956E+03  0.27484434660E+03 0.  0.
         25    2    3    3    0    0  0.48588224142E+01 -0.74353714806E+01 -0.15038277907E+03  0.19001440164E+03  0.11580846120E+03 0.  0.
         25    2    3    3    0    0 -0.48588224142E+01  0.74353714806E+01 -0.32707509651E+01  0.12486465793E+03  0.12450538977E+03 0.  0.
          5    1    4    4  502    0  0.19631550668E+02 -0.50626496223E+02 -0.12765988812E+03  0.13880769769E+03  0.47000000000E+01 0.  1.
         -5    1    4    4    0  502 -0.14772728254E+02  0.43191124742E+02 -0.22722890942E+02  0.51206703949E+02  0.47000000000E+01 0.  1.
          5    1    5    5  503    0  0.59679567795E+02  0.24014622635E+01 -0.20999014231E+01  0.59949290398E+02  0.47000000000E+01 0. -1.
         -5    1    5    5    0  503 -0.64538390209E+02  0.50339092171E+01 -0.11708495421E+01  0.64915367529E+02  0.47000000000E+01 0. -1.
<mgrwt>
<rscale>  0 0.27484435E+03</rscale>
<asrwt>0</asrwt>
<pdfrwt beam="1">  1        1 0.12401964E-01 0.27484435E+03</pdfrwt>
<pdfrwt beam="2">  1       -1 0.36040968E-01 0.27484435E+03</pdfrwt>
<totfact> 0.35485837E+03</totfact>
</mgrwt>
</event>
<event>
 9    1  0.2095749E-002  0.2751645E+03  0.7818608E-02  0.1098360E+00
          2   -1    0    0  501    0  0.00000000000E+00  0.00000000000E+00  0.59148624125E+03  0.59148624125E+03  0.00000000000E+00 0. -1.
         -2   -1    0    0    0  501 -0.00000000000E+00 -0.00000000000E+00 -0.32002215798E+02  0.32002215798E+02  0.00000000000E+00 0. -1.
         36    2    1    2    0    0  0.00000000000E+00 -0.17763568394E-14  0.55948402545E+03  0.62348845705E+03  0.27516446234E+03 0.  0.
         25    2    3    3    0    0  0.45105732794E+02  0.90780975859E+01  0.21742052979E+03  0.25608066304E+03  0.12723474455E+03 0.  0.
         25    2    3    3    0    0 -0.45105732794E+02 -0.90780975859E+01  0.34206349566E+03  0.36740779401E+03  0.12595282072E+03 0.  0.
          5    1    4    4  502    0  0.14353683039E+02 -0.34711726626E+02  0.19369420474E+03  0.19735872703E+03  0.47000000000E+01 0. -1.
         -5    1    4    4    0  502  0.30752049755E+02  0.43789824212E+02  0.23726325046E+02  0.58721936010E+02  0.47000000000E+01 0. -1.
          5    1    5    5  503    0  0.38629166959E+02 -0.23974244394E+02  0.16006102002E+03  0.16645899515E+03  0.47000000000E+01 0. -1.
         -5    1    5    5    0  503 -0.83734899752E+02  0.14896146808E+02  0.18200247564E+03  0.20094879886E+03  0.47000000000E+01 0. -1.
<mgrwt>
<rscale>  0 0.27516446E+03</rscale>
<asrwt>0</asrwt>
<pdfrwt beam="1">  1        2 0.90997875E-01 0.27516446E+03</pdfrwt>
<pdfrwt beam="2">  1       -2 0.49234183E-02 0.27516446E+03</pdfrwt>
<totfact> 0.10236664E+04</totfact>
</mgrwt>
</event>
<event>
 9    1  0.2095749E-002  0.2762658E+03  0.7818608E-02  0.1097746E+00
          2   -1    0    0  501    0  0.00000000000E+00  0.00000000000E+00  0.13775524945E+04  0.13775524945E+04  0.00000000000E+00 0.  1.
         -2   -1    0    0    0  501 -0.00000000000E+00 -0.00000000000E+00 -0.13851154118E+02  0.13851154118E+02  0.00000000000E+00 0.  1.
         36    2    1    2    0    0  0.00000000000E+00  0.00000000000E+00  0.13637013403E+04  0.13914036486E+04  0.27626575544E+03 0.  0.
         25    2    3    3    0    0  0.17715158882E+02  0.56087171591E+02  0.71083855701E+03  0.72456184167E+03  0.12743159185E+03 0.  0.
         25    2    3    3    0    0 -0.17715158882E+02 -0.56087171591E+02  0.65286278333E+03  0.66684180690E+03  0.12242787228E+03 0.  0.
          5    1    4    4  502    0  0.36526452195E+02  0.61700623485E+02  0.69551935655E+03  0.69922129114E+03  0.47000000000E+01 0.  1.
         -5    1    4    4    0  502 -0.18811293313E+02 -0.56134518941E+01  0.15319200453E+02  0.25340550522E+02  0.47000000000E+01 0.  1.
          5    1    5    5  503    0 -0.61317133370E+02  0.90649064472E+00  0.23954567283E+03  0.24731524810E+03  0.47000000000E+01 0.  1.
         -5    1    5    5    0  503  0.43601974488E+02 -0.56993662235E+02  0.41331711049E+03  0.41952655880E+03  0.47000000000E+01 0.  1.
<mgrwt>
<rscale>  0 0.27626576E+03</rscale>
<asrwt>0</asrwt>
<pdfrwt beam="1">  1        2 0.21193105E+00 0.27626576E+03</pdfrwt>
<pdfrwt beam="2">  1       -2 0.21309479E-02 0.27626576E+03</pdfrwt>
<totfact> 0.11188834E+04</totfact>
</mgrwt>
</event>
<event>
 9    1  0.2095749E-002  0.2716340E+03  0.7818608E-02  0.1100348E+00
         -1   -1    0    0    0  501 -0.00000000000E+00  0.00000000000E+00  0.11664897566E+04  0.11664897566E+04  0.00000000000E+00 0.  1.
          1   -1    0    0  501    0  0.00000000000E+00 -0.00000000000E+00 -0.15813476704E+02  0.15813476704E+02  0.00000000000E+00 0.  1.
         36    2    1    2    0    0  0.00000000000E+00 -0.35527136788E-14  0.11506762799E+04  0.11823032333E+04  0.27163400812E+03 0.  0.
         25    2    3    3    0    0  0.35342013999E+02 -0.15964406779E+02  0.48960124917E+03  0.50676356501E+03  0.12488397573E+03 0.  0.
         25    2    3    3    0    0 -0.35342013999E+02  0.15964406779E+02  0.66107503074E+03  0.67553966831E+03  0.13352800063E+03 0.  0.
          5    1    4    4  502    0  0.19681882505E+02  0.49748922097E+02  0.31396177135E+03  0.31852223724E+03  0.47000000000E+01 0. -1.
         -5    1    4    4    0  502  0.15660131494E+02 -0.65713328876E+02  0.17563947782E+03  0.18824132777E+03  0.47000000000E+01 0. -1.
          5    1    5    5  503    0 -0.83203477047E+02  0.27573258863E+02  0.47240443627E+03  0.48049052499E+03  0.47000000000E+01 0. -1.
         -5    1    5    5    0  503  0.47861463049E+02 -0.11608852084E+02  0.18867059447E+03  0.19504914332E+03  0.47000000000E+01 0. -1.
<mgrwt>
<rscale>  0 0.27163401E+03</rscale>
<asrwt>0</asrwt>
<pdfrwt beam="1">  1        1 0.24328435E-02 0.27163401E+03</pdfrwt>
<pdfrwt beam="2">  1       -1 0.17945989E+00 0.27163401E+03</pdfrwt>
<totfact> 0.10568919E+03</totfact>
</mgrwt>
</event>
<event>
 9    1  0.2095749E-002  0.2749948E+03  0.7818608E-02  0.1098455E+00
         -2   -1    0    0    0  501 -0.00000000000E+00  0.00000000000E+00  0.35259325594E+03  0.35259325594E+03  0.00000000000E+00 0. -1.
          2   -1    0    0  501    0  0.00000000000E+00 -0.00000000000E+00 -0.53618530967E+02  0.53618530967E+02  0.00000000000E+00 0. -1.
         36    2    1    2    0    0 -0.14210854715E-13  0.88817841970E-15  0.29897472497E+03  0.40621178691E+03  0.27499478113E+03 0.  0.
         25    2    3    3    0    0 -0.39612829139E+02 -0.30624960113E+01  0.22280890158E+03  0.25531570510E+03  0.11816830174E+03 0.  0.
         25    2    3    3    0    0  0.39612829139E+02  0.30624960113E+01  0.76165823398E+02  0.15089608181E+03  0.12405579284E+03 0.  0.
          5    1    4    4  502    0 -0.72964833887E+02 -0.81270058143E+01  0.20298879902E+03  0.21590844758E+03  0.47000000000E+01 0.  1.
         -5    1    4    4    0  502  0.33352004748E+02  0.50645098030E+01  0.19820102554E+02  0.39407257523E+02  0.47000000000E+01 0.  1.
          5    1    5    5  503    0  0.63073957014E+02 -0.41677109919E+02  0.27471696453E+02  0.80573504644E+02  0.47000000000E+01 0. -1.
         -5    1    5    5    0  503 -0.23461127875E+02  0.44739605930E+02  0.48694126946E+02  0.70322577164E+02  0.47000000000E+01 0. -1.
<mgrwt>
<rscale>  0 0.27499478E+03</rscale>
<asrwt>0</asrwt>
<pdfrwt beam="1">  1        2 0.82490050E-02 0.27499478E+03</pdfrwt>
<pdfrwt beam="2">  1       -2 0.54245115E-01 0.27499478E+03</pdfrwt>
<totfact> 0.26538916E+03</totfact>
</mgrwt>
</event>
<event>
 9    1  0.2095749E-002  0.2749635E+03  0.7818608E-02  0.1098472E+00
         -1   -1    0    0    0  501 -0.00000000000E+00  0.00000000000E+00  0.61571420391E+01  0.61571420391E+01  0.00000000000E+00 0. -1.
          1   -1    0    0  501    0  0.00000000000E+00 -0.00000000000E+00 -0.30698067635E+04  0.30698067635E+04  0.00000000000E+00 0. -1.
         36    2    1    2    0    0  0.00000000000E+00  0.00000000000E+00 -0.30636496214E+04  0.30759639055E+04  0.27496353413E+03 0.  0.
         25    2    3    3    0    0  0.33168797094E+02  0.34586739698E+02 -0.11162176963E+04  0.11240914369E+04  0.12386767674E+03 0.  0.
         25    2    3    3    0    0 -0.33168797094E+02 -0.34586739698E+02 -0.19474319251E+04  0.19518724686E+04  0.12255047526E+03 0.  0.
          5    1    4    4  502    0  0.73256285873E+02  0.34065895719E+02 -0.49571950164E+03  0.50228167692E+03  0.47000000000E+01 0.  1.
         -5    1    4    4    0  502 -0.40087488779E+02  0.52084397946E+00 -0.62049819467E+03  0.62180976000E+03  0.47000000000E+01 0.  1.
          5    1    5    5  503    0 -0.49995992809E+02  0.20958932069E+02 -0.44529772511E+03  0.44861010925E+03  0.47000000000E+01 0.  1.
         -5    1    5    5    0  503  0.16827195715E+02 -0.55545671768E+02 -0.15021342000E+04  0.15032623593E+04  0.47000000000E+01 0.  1.
<mgrwt>
<rscale>  0 0.27496353E+03</rscale>
<asrwt>0</asrwt>
<pdfrwt beam="1">  1        1 0.47227756E+00 0.27496353E+03</pdfrwt>
<pdfrwt beam="2">  1       -1 0.94725343E-03 0.27496353E+03</pdfrwt>
<totfact> 0.13151037E+03</totfact>
</mgrwt>
</event>
<event>
 9    1  0.2095749E-002  0.2748119E+03  0.7818608E-02  0.1098557E+00
         -2   -1    0    0    0  501 -0.00000000000E+00  0.00000000000E+00  0.70123137566E+01  0.70123137566E+01  0.00000000000E+00 0. -1.
          2   -1    0    0  501    0  0.00000000000E+00 -0.00000000000E+00 -0.26924633765E+04  0.26924633765E+04  0.00000000000E+00 0. -1.
         36    2    1    2    0    0 -0.71054273576E-14  0.17763568394E-14 -0.26854510628E+04  0.26994756903E+04  0.27481192095E+03 0.  0.
         25    2    3    3    0    0  0.59758432694E+02 -0.12358098551E+02 -0.13470169617E+04  0.13541797678E+04  0.12499742208E+03 0.  0.
         25    2    3    3    0    0 -0.59758432694E+02  0.12358098551E+02 -0.13384341011E+04  0.13452959225E+04  0.12120842904E+03 0.  0.
          5    1    4    4  502    0 -0.12420538169E+02  0.33040836014E+02 -0.77555389624E+03  0.77637098258E+03  0.47000000000E+01 0.  1.
         -5    1    4    4    0  502  0.72178970863E+02 -0.45398934565E+02 -0.57146306547E+03  0.57780878523E+03  0.47000000000E+01 0.  1.
          5    1    5    5  503    0 -0.61338976978E+02 -0.20748947856E+01 -0.27719346301E+03  0.28394556031E+03  0.47000000000E+01 0.  1.
         -5    1    5    5    0  503  0.15805442839E+01  0.14432993337E+02 -0.10612406381E+04  0.10613503622E+04  0.47000000000E+01 0.  1.
<mgrwt>
<rscale>  0 0.27481192E+03</rscale>
<asrwt>0</asrwt>
<pdfrwt beam="1">  1        2 0.41422557E+00 0.27481192E+03</pdfrwt>
<pdfrwt beam="2">  1       -2 0.10788164E-02 0.27481192E+03</pdfrwt>
<totfact> 0.59868472E+03</totfact>
</mgrwt>
</event>
<event>
 9    1  0.2095749E-002  0.2757167E+03  0.7818608E-02  0.1098052E+00
         -1   -1    0    0    0  501 -0.00000000000E+00  0.00000000000E+00  0.12238261885E+03  0.12238261885E+03  0.00000000000E+00 0.  1.
          1   -1    0    0  501    0  0.00000000000E+00 -0.00000000000E+00 -0.15529099749E+03  0.15529099749E+03  0.00000000000E+00 0.  1.
         36    2    1    2    0    0  0.71054273576E-14  0.00000000000E+00 -0.32908378632E+02  0.27767361634E+03  0.27571665860E+03 0.  0.
         25    2    3    3    0    0 -0.35255368667E+02 -0.29777409146E+02 -0.50400341095E+02  0.14117712412E+03  0.12353603068E+03 0.  0.
         25    2    3    3    0    0  0.35255368667E+02  0.29777409146E+02  0.17491962462E+02  0.13649649222E+03  0.12726228240E+03 0.  0.
          5    1    4    4  502    0 -0.57020963078E+02  0.23975526632E+02  0.31328644288E+01  0.62113774214E+02  0.47000000000E+01 0. -1.
         -5    1    4    4    0  502  0.21765594410E+02 -0.53752935778E+02 -0.53533205524E+02  0.79063349906E+02  0.47000000000E+01 0. -1.
          5    1    5    5  503    0  0.80497096384E+02  0.34699926844E+02  0.77431542926E+00  0.87786997976E+02  0.47000000000E+01 0.  1.
         -5    1    5    5    0  503 -0.45241727717E+02 -0.49225176985E+01  0.16717647033E+02  0.48709494245E+02  0.47000000000E+01 0.  1.
<mgrwt>
<rscale>  0 0.27571666E+03</rscale>
<asrwt>0</asrwt>
<pdfrwt beam="1">  1        1 0.23890923E-01 0.27571666E+03</pdfrwt>
<pdfrwt beam="2">  1       -1 0.18828095E-01 0.27571666E+03</pdfrwt>
<totfact> 0.44861543E+03</totfact>
</mgrwt>
</event>
<event>
 9    1  0.2095749E-002  0.2643798E+03  0.7818608E-02  0.1104540E+00
          1   -1    0    0  501    0  0.00000000000E+00  0.00000000000E+00  0.30604157512E+03  0.30604157512E+03  0.00000000000E+00 0. -1.
         -1   -1    0    0    0  501 -0.00000000000E+00 -0.00000000000E+00 -0.57097385754E+02  0.57097385754E+02  0.00000000000E+00 0. -1.
         36    2    1    2    0    0  0.00000000000E+00  0.00000000000E+00  0.24894418937E+03  0.36313896088E+03  0.26437983184E+03 0.  0.
         25    2    3    3    0    0  0.21118170747E+01  0.51900312188E+01  0.68613441859E+02  0.14370556071E+03  0.12614312339E+03 0.  0.
         25    2    3    3    0    0 -0.21118170747E+01 -0.51900312188E+01  0.18033074751E+03  0.21943340017E+03  0.12490173104E+03 0.  0.
          5    1    4    4  502    0  0.52435009638E+02  0.35508962727E+02  0.53055037052E+02  0.82748073248E+02  0.47000000000E+01 0.  1.
         -5    1    4    4    0  502 -0.50323192563E+02 -0.30318931508E+02  0.15558404807E+02  0.60957487462E+02  0.47000000000E+01 0.  1.
          5    1    5    5  503    0 -0.49189608945E+02 -0.39108657301E+02  0.66714210040E+02  0.91771349153E+02  0.47000000000E+01 0. -1.
         -5    1    5    5    0  503  0.47077791870E+02  0.33918626082E+02  0.11361653747E+03  0.12766205101E+03  0.47000000000E+01 0. -1.
<mgrwt>
<rscale>  0 0.26437983E+03</rscale>
<asrwt>0</asrwt>
<pdfrwt beam="1">  1        1 0.47083318E-01 0.26437983E+03</pdfrwt>
<pdfrwt beam="2">  1       -1 0.87842134E-02 0.26437983E+03</pdfrwt>
<totfact> 0.63107897E+03</totfact>
</mgrwt>
</event>
<event>
 9    1  0.2095749E-002  0.2725806E+03  0.7818608E-02  0.1099812E+00
          1   -1    0    0  501    0  0.00000000000E+00  0.00000000000E+00  0.14819936003E+04  0.14819936003E+04  0.00000000000E+00 0. -1.
         -1   -1    0    0    0  501 -0.00000000000E+00 -0.00000000000E+00 -0.12533819415E+02  0.12533819415E+02  0.00000000000E+00 0. -1.
         36    2    1    2    0    0  0.00000000000E+00 -0.17763568394E-14  0.14694597809E+04  0.14945274197E+04  0.27258055807E+03 0.  0.
         25    2    3    3    0    0  0.52308192909E+02 -0.84662877873E+01  0.61120986417E+03  0.62569434849E+03  0.12291498932E+03 0.  0.
         25    2    3    3    0    0 -0.52308192909E+02  0.84662877873E+01  0.85824991671E+03  0.86883307122E+03  0.12437910209E+03 0.  0.
          5    1    4    4  502    0  0.68879429283E+02 -0.20475342385E+02  0.59453654445E+03  0.59888179811E+03  0.47000000000E+01 0. -1.
         -5    1    4    4    0  502 -0.16571236375E+02  0.12009054598E+02  0.16673319724E+02  0.26812550381E+02  0.47000000000E+01 0. -1.
          5    1    5    5  503    0 -0.87104538998E+02 -0.16441336847E+01  0.73841389829E+03  0.74355032048E+03  0.47000000000E+01 0. -1.
         -5    1    5    5    0  503  0.34796346089E+02  0.10110421472E+02  0.11983601842E+03  0.12528275075E+03  0.47000000000E+01 0. -1.
<mgrwt>
<rscale>  0 0.27258056E+03</rscale>
<asrwt>0</asrwt>
<pdfrwt beam="1">  1        1 0.22799888E+00 0.27258056E+03</pdfrwt>
<pdfrwt beam="2">  1       -1 0.19282811E-02 0.27258056E+03</pdfrwt>
<totfact> 0.53204571E+03</totfact>
</mgrwt>
</event>
<event>
 9    1  0.2095749E-002  0.2751230E+03  0.7818608E-02  0.1098383E+00
          1   -1    0    0  501    0  0.00000000000E+00  0.00000000000E+00  0.15962603203E+03  0.15962603203E+03  0.00000000000E+00 0.  1.
         -1   -1    0    0    0  501 -0.00000000000E+00 -0.00000000000E+00 -0.11854688890E+03  0.11854688890E+03  0.00000000000E+00 0.  1.
         36    2    1    2    0    0  0.35527136788E-14 -0.71054273576E-14  0.41079143129E+02  0.27817292094E+03  0.27512302329E+03 0.  0.
         25    2    3    3    0    0  0.15588939563E+02  0.54615361621E+02  0.22878621151E+02  0.13969464216E+03  0.12555998160E+03 0.  0.
         25    2    3    3    0    0 -0.15588939563E+02 -0.54615361621E+02  0.18200521978E+02  0.13847827878E+03  0.12497648552E+03 0.  0.
          5    1    4    4  502    0  0.36911115440E+02  0.34563424557E+02 -0.43582226695E+02  0.66922053494E+02  0.47000000000E+01 0.  1.
         -5    1    4    4    0  502 -0.21322175878E+02  0.20051937065E+02  0.66460847846E+02  0.72772588662E+02  0.47000000000E+01 0.  1.
          5    1    5    5  503    0  0.23023131749E+02 -0.68139693157E+02 -0.27331585662E+02  0.77085588497E+02  0.47000000000E+01 0.  1.
         -5    1    5    5    0  503 -0.38612071312E+02  0.13524331536E+02  0.45532107640E+02  0.61392690287E+02  0.47000000000E+01 0.  1.
<mgrwt>
<rscale>  0 0.27512302E+03</rscale>
<asrwt>0</asrwt>
<pdfrwt beam="1">  1        1 0.24557851E-01 0.27512302E+03</pdfrwt>
<pdfrwt beam="2">  1       -1 0.18237983E-01 0.27512302E+03</pdfrwt>
<totfact> 0.45595747E+03</totfact>
</mgrwt>
</event>
<event>
 9    1  0.2095749E-002  0.2737159E+03  0.7818608E-02  0.1099172E+00
          2   -1    0    0  501    0  0.00000000000E+00  0.00000000000E+00  0.18587532614E+04  0.18587532614E+04  0.00000000000E+00 0.  1.
         -2   -1    0    0    0  501 -0.00000000000E+00 -0.00000000000E+00 -0.10076699634E+02  0.10076699634E+02  0.00000000000E+00 0.  1.
         36    2    1    2    0    0  0.71054273576E-14 -0.71054273576E-14  0.18486765617E+04  0.18688299610E+04  0.27371589876E+03 0.  0.
         25    2    3    3    0    0  0.23380163753E+02 -0.43321402381E+02  0.10075740911E+04  0.10173712239E+04  0.13196697400E+03 0.  0.
         25    2    3    3    0    0 -0.23380163753E+02  0.43321402381E+02  0.84110247066E+03  0.85145873711E+03  0.12290337221E+03 0.  0.
          5    1    4    4  502    0  0.22098405555E+02  0.70996931697E+01  0.87693739004E+03  0.87725710098E+03  0.47000000000E+01 0. -1.
         -5    1    4    4    0  502  0.12817581978E+01 -0.50421095550E+02  0.13063670103E+03  0.14011412290E+03  0.47000000000E+01 0. -1.
          5    1    5    5  503    0  0.39300296249E+02  0.43374674544E+02  0.24000298046E+03  0.24708176037E+03  0.47000000000E+01 0.  1.
         -5    1    5    5    0  503 -0.62680460002E+02 -0.53272162905E-01  0.60109949020E+03  0.60437697675E+03  0.47000000000E+01 0.  1.
<mgrwt>
<rscale>  0 0.27371590E+03</rscale>
<asrwt>0</asrwt>
<pdfrwt beam="1">  1        2 0.28596177E+00 0.27371590E+03</pdfrwt>
<pdfrwt beam="2">  1       -2 0.15502630E-02 0.27371590E+03</pdfrwt>
<totfact> 0.99084687E+03</totfact>
</mgrwt>
</event>
<event>
 9    1  0.2095749E-002  0.2749216E+03  0.7818608E-02  0.1098495E+00
         -2   -1    0    0    0  501 -0.00000000000E+00  0.00000000000E+00  0.31036601530E+03  0.31036601530E+03  0.00000000000E+00 0.  1.
          2   -1    0    0  501    0  0.00000000000E+00 -0.00000000000E+00 -0.60881242995E+02  0.60881242995E+02  0.00000000000E+00 0.  1.
         36    2    1    2    0    0  0.00000000000E+00  0.71054273576E-14  0.24948477230E+03  0.37124725829E+03  0.27492158005E+03 0.  0.
         25    2    3    3    0    0  0.10575873511E+02  0.40920759399E+02  0.18622875023E+03  0.22777434485E+03  0.12415171006E+03 0.  0.
         25    2    3    3    0    0 -0.10575873511E+02 -0.40920759399E+02  0.63256022073E+02  0.14347291344E+03  0.12164207707E+03 0.  0.
          5    1    4    4  502    0 -0.18509922256E+01  0.32474679329E+02  0.20249055609E+03  0.20514030875E+03  0.47000000000E+01 0. -1.
         -5    1    4    4    0  502  0.12426865737E+02  0.84460800695E+01 -0.16261805855E+02  0.22634036102E+02  0.47000000000E+01 0. -1.
          5    1    5    5  503    0 -0.37557819790E+02 -0.74124941274E+02  0.27932642317E+02  0.87791908814E+02  0.47000000000E+01 0.  1.
         -5    1    5    5    0  503  0.26981946279E+02  0.33204181876E+02  0.35323379756E+02  0.55681004629E+02  0.47000000000E+01 0.  1.
<mgrwt>
<rscale>  0 0.27492158E+03</rscale>
<asrwt>0</asrwt>
<pdfrwt beam="1">  1        2 0.93663452E-02 0.27492158E+03</pdfrwt>
<pdfrwt beam="2">  1       -2 0.47748617E-01 0.27492158E+03</pdfrwt>
<totfact> 0.29196894E+03</totfact>
</mgrwt>
</event>
<event>
 9    1  0.2095749E-002  0.2793520E+03  0.7818608E-02  0.1096043E+00
          2   -1    0    0  501    0  0.00000000000E+00  0.00000000000E+00  0.39495691765E+03  0.39495691765E+03  0.00000000000E+00 0. -1.
         -2   -1    0    0    0  501 -0.00000000000E+00 -0.00000000000E+00 -0.49396219776E+02  0.49396219776E+02  0.00000000000E+00 0. -1.
         36    2    1    2    0    0  0.00000000000E+00  0.00000000000E+00  0.34556069787E+03  0.44435313743E+03  0.27935195511E+03 0.  0.
         25    2    3    3    0    0 -0.26517273059E+02 -0.64295288844E+01  0.13323934494E+03  0.18601863923E+03  0.12690826012E+03 0.  0.
         25    2    3    3    0    0  0.26517273059E+02  0.64295288844E+01  0.21232135293E+03  0.25833449820E+03  0.14460930619E+03 0.  0.
          5    1    4    4  502    0 -0.26458306019E+02 -0.63302314865E+02  0.49704032260E+02  0.84851669680E+02  0.47000000000E+01 0. -1.
         -5    1    4    4    0  502 -0.58967039522E-01  0.56872785981E+02  0.83535312683E+02  0.10116696955E+03  0.47000000000E+01 0. -1.
          5    1    5    5  503    0 -0.14714745136E+02  0.69753942673E+02  0.10190209348E+03  0.12445184972E+03  0.47000000000E+01 0.  1.
         -5    1    5    5    0  503  0.41232018195E+02 -0.63324413789E+02  0.11041925945E+03  0.13388264848E+03  0.47000000000E+01 0.  1.
<mgrwt>
<rscale>  0 0.27935196E+03</rscale>
<asrwt>0</asrwt>
<pdfrwt beam="1">  1        2 0.60762601E-01 0.27935196E+03</pdfrwt>
<pdfrwt beam="2">  1       -2 0.75994187E-02 0.27935196E+03</pdfrwt>
<totfact> 0.82489899E+03</totfact>
</mgrwt>
</event>
<event>
 9    1  0.2095749E-002  0.2750313E+03  0.7818608E-02  0.1098434E+00
         -2   -1    0    0    0  501 -0.00000000000E+00  0.00000000000E+00  0.41584094278E+02  0.41584094278E+02  0.00000000000E+00 0.  1.
          2   -1    0    0  501    0  0.00000000000E+00 -0.00000000000E+00 -0.45475461401E+03  0.45475461401E+03  0.00000000000E+00 0.  1.
         36    2    1    2    0    0 -0.71054273576E-14 -0.71054273576E-14 -0.41317051974E+03  0.49633870829E+03  0.27503133452E+03 0.  0.
         25    2    3    3    0    0 -0.30650501060E+02 -0.39039049148E+02 -0.14749533051E+03  0.19971807084E+03  0.12517561554E+03 0.  0.
         25    2    3    3    0    0  0.30650501060E+02  0.39039049148E+02 -0.26567518923E+03  0.29662063745E+03  0.12221700298E+03 0.  0.
          5    1    4    4  502    0  0.42686158328E+02 -0.21886852502E+02 -0.21333547296E+02  0.52710081251E+02  0.47000000000E+01 0. -1.
         -5    1    4    4    0  502 -0.73336659388E+02 -0.17152196646E+02 -0.12616178321E+03  0.14700798959E+03  0.47000000000E+01 0. -1.
          5    1    5    5  503    0  0.64801352244E+02  0.33450621569E+02 -0.82779001578E+02  0.11042016319E+03  0.47000000000E+01 0.  1.
         -5    1    5    5    0  503 -0.34150851184E+02  0.55884275793E+01 -0.18289618765E+03  0.18620047426E+03  0.47000000000E+01 0.  1.
<mgrwt>
<rscale>  0 0.27503133E+03</rscale>
<asrwt>0</asrwt>
<pdfrwt beam="1">  1        2 0.69962248E-01 0.27503133E+03</pdfrwt>
<pdfrwt beam="2">  1       -2 0.63975530E-02 0.27503133E+03</pdfrwt>
<totfact> 0.92247094E+03</totfact>
</mgrwt>
</event>
<event>
 9    1  0.2095749E-002  0.2754742E+03  0.7818608E-02  0.1098187E+00
          2   -1    0    0  501    0  0.00000000000E+00  0.00000000000E+00  0.22539272815E+04  0.22539272815E+04  0.00000000000E+00 0.  1.
         -2   -1    0    0    0  501 -0.00000000000E+00 -0.00000000000E+00 -0.84170882345E+01  0.84170882345E+01  0.00000000000E+00 0.  1.
         36    2    1    2    0    0 -0.35527136788E-14  0.00000000000E+00  0.22455101932E+04  0.22623443697E+04  0.27547417158E+03 0.  0.
         25    2    3    3    0    0 -0.15012595264E+02 -0.38472909987E+02  0.13359423165E+04  0.13423440580E+04  0.12425841673E+03 0.  0.
         25    2    3    3    0    0  0.15012595264E+02  0.38472909987E+02  0.90956787673E+03  0.92000031174E+03  0.13183819016E+03 0.  0.
          5    1    4    4  502    0  0.85928883147E+01 -0.80213807379E+02  0.94366044799E+03  0.94711415559E+03  0.47000000000E+01 0.  1.
         -5    1    4    4    0  502 -0.23605483579E+02  0.41740897392E+02  0.39228186850E+03  0.39522990237E+03  0.47000000000E+01 0.  1.
          5    1    5    5  503    0  0.48798653877E+02  0.51724147909E+00  0.13285092746E+03  0.14160873944E+03  0.47000000000E+01 0.  1.
         -5    1    5    5    0  503 -0.33786058613E+02  0.37955668508E+02  0.77671694928E+03  0.77839157230E+03  0.47000000000E+01 0.  1.
<mgrwt>
<rscale>  0 0.27547417E+03</rscale>
<asrwt>0</asrwt>
<pdfrwt beam="1">  1        2 0.34675756E+00 0.27547417E+03</pdfrwt>
<pdfrwt beam="2">  1       -2 0.12949384E-02 0.27547417E+03</pdfrwt>
<totfact> 0.79720237E+03</totfact>
</mgrwt>
</event>
<event>
 9    1  0.2095749E-002  0.2746867E+03  0.7818608E-02  0.1098627E+00
          2   -1    0    0  501    0  0.00000000000E+00  0.00000000000E+00  0.73430531641E+03  0.73430531641E+03  0.00000000000E+00 0.  1.
         -2   -1    0    0    0  501 -0.00000000000E+00 -0.00000000000E+00 -0.25688484766E+02  0.25688484766E+02  0.00000000000E+00 0.  1.
         36    2    1    2    0    0  0.00000000000E+00  0.00000000000E+00  0.70861683165E+03  0.75999380118E+03  0.27468666465E+03 0.  0.
         25    2    3    3    0    0 -0.32027754908E+02  0.53216983431E+02  0.42017125079E+03  0.44077339963E+03  0.11781122788E+03 0.  0.
         25    2    3    3    0    0  0.32027754908E+02 -0.53216983431E+02  0.28844558085E+03  0.31922040155E+03  0.12183179898E+03 0.  0.
          5    1    4    4  502    0 -0.62907444028E+02  0.45043529295E+02  0.15158842103E+03  0.17025688073E+03  0.47000000000E+01 0.  1.
         -5    1    4    4    0  502  0.30879689120E+02  0.81734541356E+01  0.26858282976E+03  0.27051651889E+03  0.47000000000E+01 0.  1.
          5    1    5    5  503    0  0.14684871289E+02  0.36998233452E+02  0.53050379877E+02  0.66490206259E+02  0.47000000000E+01 0. -1.
         -5    1    5    5    0  503  0.17342883619E+02 -0.90215216883E+02  0.23539520098E+03  0.25273019529E+03  0.47000000000E+01 0. -1.
<mgrwt>
<rscale>  0 0.27468666E+03</rscale>
<asrwt>0</asrwt>
<pdfrwt beam="1">  1        2 0.11297003E+00 0.27468666E+03</pdfrwt>
<pdfrwt beam="2">  1       -2 0.39520751E-02 0.27468666E+03</pdfrwt>
<totfact> 0.11022935E+04</totfact>
</mgrwt>
</event>
<event>
 9    1  0.2095749E-002  0.2744820E+03  0.7818608E-02  0.1098741E+00
          4   -1    0    0  501    0  0.00000000000E+00  0.00000000000E+00  0.26890233235E+02  0.26890233235E+02  0.00000000000E+00 0. -1.
         -4   -1    0    0    0  501 -0.00000000000E+00 -0.00000000000E+00 -0.70044373465E+03  0.70044373465E+03  0.00000000000E+00 0. -1.
         36    2    1    2    0    0  0.35527136788E-14  0.35527136788E-14 -0.67355350142E+03  0.72733396789E+03  0.27448202413E+03 0.  0.
         25    2    3    3    0    0  0.21832516369E+02  0.31195516146E+02 -0.22462317028E+03  0.26025887033E+03  0.12581451411E+03 0.  0.
         25    2    3    3    0    0 -0.21832516369E+02 -0.31195516146E+02 -0.44893033114E+03  0.46707509756E+03  0.12317014875E+03 0.  0.
          5    1    4    4  502    0  0.48206371565E+02 -0.29832935509E+02 -0.14882242789E+03  0.15932376892E+03  0.47000000000E+01 0.  1.
         -5    1    4    4    0  502 -0.26373855196E+02  0.61028451655E+02 -0.75800742386E+02  0.10093510140E+03  0.47000000000E+01 0.  1.
          5    1    5    5  503    0 -0.48706172240E+02  0.30659774907E+02 -0.15333605556E+03  0.16384855491E+03  0.47000000000E+01 0.  1.
         -5    1    5    5    0  503  0.26873655871E+02 -0.61855291053E+02 -0.29559427558E+03  0.30322654265E+03  0.47000000000E+01 0.  1.
<mgrwt>
<rscale>  0 0.27448202E+03</rscale>
<asrwt>0</asrwt>
<pdfrwt beam="1">  1        4 0.41369592E-02 0.27448202E+03</pdfrwt>
<pdfrwt beam="2">  1       -4 0.10776057E+00 0.27448202E+03</pdfrwt>
<totfact> 0.43416923E+02</totfact>
</mgrwt>
</event>
<event>
 9    1  0.2095749E-002  0.2766035E+03  0.7818608E-02  0.1097559E+00
         -1   -1    0    0    0  501 -0.00000000000E+00  0.00000000000E+00  0.17520806984E+02  0.17520806984E+02  0.00000000000E+00 0. -1.
          1   -1    0    0  501    0  0.00000000000E+00 -0.00000000000E+00 -0.10916946409E+04  0.10916946409E+04  0.00000000000E+00 0. -1.
         36    2    1    2    0    0  0.00000000000E+00  0.00000000000E+00 -0.10741738339E+04  0.11092154479E+04  0.27660347857E+03 0.  0.
         25    2    3    3    0    0 -0.28567632092E+02 -0.41590996800E+02 -0.71709938172E+03  0.72872432807E+03  0.11942236997E+03 0.  0.
         25    2    3    3    0    0  0.28567632092E+02  0.41590996800E+02 -0.35707445223E+03  0.38049111984E+03  0.12134828893E+03 0.  0.
          5    1    4    4  502    0 -0.54096526498E+02 -0.42991845739E+02 -0.67945837332E+03  0.68297913881E+03  0.47000000000E+01 0. -1.
         -5    1    4    4    0  502  0.25528894405E+02  0.14008489384E+01 -0.37641008399E+02  0.45745189261E+02  0.47000000000E+01 0. -1.
          5    1    5    5  503    0  0.26505486070E+02  0.60596299983E+02 -0.35448783033E+03  0.36063577778E+03  0.47000000000E+01 0. -1.
         -5    1    5    5    0  503  0.20621460225E+01 -0.19005303183E+02 -0.25866218930E+01  0.19855342055E+02  0.47000000000E+01 0. -1.
<mgrwt>
<rscale>  0 0.27660348E+03</rscale>
<asrwt>0</asrwt>
<pdfrwt beam="1">  1        1 0.16795303E+00 0.27660348E+03</pdfrwt>
<pdfrwt beam="2">  1       -1 0.26955087E-02 0.27660348E+03</pdfrwt>
<totfact> 0.60443106E+03</totfact>
</mgrwt>
</event>
<event>
 9    1  0.2095749E-002  0.2745991E+03  0.7818608E-02  0.1098676E+00
          2   -1    0    0  501    0  0.00000000000E+00  0.00000000000E+00  0.15577673210E+04  0.15577673210E+04  0.00000000000E+00 0. -1.
         -2   -1    0    0    0  501 -0.00000000000E+00 -0.00000000000E+00 -0.12101399052E+02  0.12101399052E+02  0.00000000000E+00 0. -1.
         36    2    1    2    0    0 -0.35527136788E-14  0.00000000000E+00  0.15456659219E+04  0.15698687200E+04  0.27459908216E+03 0.  0.
         25    2    3    3    0    0 -0.76231398520E+01 -0.21746751132E+02  0.10797347286E+04  0.10869795330E+04  0.12315188840E+03 0.  0.
         25    2    3    3    0    0  0.76231398520E+01  0.21746751132E+02  0.46593119334E+03  0.48288918702E+03  0.12473594739E+03 0.  0.
          5    1    4    4  502    0 -0.19570205193E+02  0.32061338034E+02  0.12410423112E+03  0.12974926786E+03  0.47000000000E+01 0. -1.
         -5    1    4    4    0  502  0.11947065341E+02 -0.53808089166E+02  0.95563049747E+03  0.95723026516E+03  0.47000000000E+01 0. -1.
          5    1    5    5  503    0 -0.20950579224E+02 -0.41750242929E+02  0.10144434611E+03  0.11178128158E+03  0.47000000000E+01 0.  1.
         -5    1    5    5    0  503  0.28573719076E+02  0.63496994061E+02  0.36448684723E+03  0.37110790544E+03  0.47000000000E+01 0.  1.
<mgrwt>
<rscale>  0 0.27459908E+03</rscale>
<asrwt>0</asrwt>
<pdfrwt beam="1">  1        2 0.23965635E+00 0.27459908E+03</pdfrwt>
<pdfrwt beam="2">  1       -2 0.18617549E-02 0.27459908E+03</pdfrwt>
<totfact> 0.10916413E+04</totfact>
</mgrwt>
</event>
<event>
 9    1  0.2095749E-002  0.2748220E+03  0.7818608E-02  0.1098551E+00
         -2   -1    0    0    0  501 -0.00000000000E+00  0.00000000000E+00  0.14353702486E+02  0.14353702486E+02  0.00000000000E+00 0.  1.
          2   -1    0    0  501    0  0.00000000000E+00 -0.00000000000E+00 -0.13154647564E+04  0.13154647564E+04  0.00000000000E+00 0.  1.
         36    2    1    2    0    0  0.00000000000E+00 -0.71054273576E-14 -0.13011110539E+04  0.13298184588E+04  0.27482204965E+03 0.  0.
         25    2    3    3    0    0 -0.14337723546E+02 -0.58535808108E+02 -0.66953241855E+03  0.68335732624E+03  0.12276630115E+03 0.  0.
         25    2    3    3    0    0  0.14337723546E+02  0.58535808108E+02 -0.63157863532E+03  0.64646113260E+03  0.12405003916E+03 0.  0.
          5    1    4    4  502    0 -0.43898682326E+02  0.19529635525E+02 -0.16399893475E+03  0.17095684125E+03  0.47000000000E+01 0. -1.
         -5    1    4    4    0  502  0.29560958780E+02 -0.78065443632E+02 -0.50553348380E+03  0.51240048499E+03  0.47000000000E+01 0. -1.
          5    1    5    5  503    0  0.35004060397E+02  0.29563903954E+02 -0.58887897224E+03  0.59067744380E+03  0.47000000000E+01 0.  1.
         -5    1    5    5    0  503 -0.20666336851E+02  0.28971904154E+02 -0.42699663082E+02  0.55783688803E+02  0.47000000000E+01 0.  1.
<mgrwt>
<rscale>  0 0.27482205E+03</rscale>
<asrwt>0</asrwt>
<pdfrwt beam="1">  1        2 0.20237924E+00 0.27482205E+03</pdfrwt>
<pdfrwt beam="2">  1       -2 0.22082614E-02 0.27482205E+03</pdfrwt>
<totfact> 0.11480613E+04</totfact>
</mgrwt>
</event>
<event>
 9    1  0.2095749E-002  0.2756741E+03  0.7818608E-02  0.1098075E+00
         -1   -1    0    0    0  501 -0.00000000000E+00  0.00000000000E+00  0.22011465960E+02  0.22011465960E+02  0.00000000000E+00 0.  1.
          1   -1    0    0  501    0  0.00000000000E+00 -0.00000000000E+00 -0.86314325612E+03  0.86314325612E+03  0.00000000000E+00 0.  1.
         36    2    1    2    0    0  0.00000000000E+00  0.00000000000E+00 -0.84113179016E+03  0.88515472208E+03  0.27567407133E+03 0.  0.
         25    2    3    3    0    0 -0.29528256980E+02  0.56342739861E+02 -0.48115012085E+03  0.50103702925E+03  0.12444373665E+03 0.  0.
         25    2    3    3    0    0  0.29528256980E+02 -0.56342739861E+02 -0.35998166931E+03  0.38411769283E+03  0.11795413265E+03 0.  0.
          5    1    4    4  502    0 -0.38913553000E+02 -0.31794367235E+02 -0.15396675685E+03  0.16202777111E+03  0.47000000000E+01 0.  1.
         -5    1    4    4    0  502  0.93852960196E+01  0.88137107095E+02 -0.32718336400E+03  0.33900925814E+03  0.47000000000E+01 0.  1.
          5    1    5    5  503    0  0.43999181613E+02 -0.87651246563E+02 -0.24366538179E+03  0.26270435339E+03  0.47000000000E+01 0.  1.
         -5    1    5    5    0  503 -0.14470924632E+02  0.31308506703E+02 -0.11631628751E+03  0.12141333943E+03  0.47000000000E+01 0.  1.
<mgrwt>
<rscale>  0 0.27567407E+03</rscale>
<asrwt>0</asrwt>
<pdfrwt beam="1">  1        1 0.13279126E+00 0.27567407E+03</pdfrwt>
<pdfrwt beam="2">  1       -1 0.33863796E-02 0.27567407E+03</pdfrwt>
<totfact> 0.64324180E+03</totfact>
</mgrwt>
</event>
<event>
 9    1  0.2095749E-002  0.2743536E+03  0.7818608E-02  0.1098813E+00
          2   -1    0    0  501    0  0.00000000000E+00  0.00000000000E+00  0.76121072848E+03  0.76121072848E+03  0.00000000000E+00 0. -1.
         -2   -1    0    0    0  501 -0.00000000000E+00 -0.00000000000E+00 -0.24720458514E+02  0.24720458514E+02  0.00000000000E+00 0. -1.
         36    2    1    2    0    0  0.00000000000E+00 -0.71054273576E-14  0.73649026997E+03  0.78593118699E+03  0.27435362752E+03 0.  0.
         25    2    3    3    0    0 -0.34547337809E+02 -0.54122745243E+02  0.42251946937E+03  0.44255493437E+03  0.11493205748E+03 0.  0.
         25    2    3    3    0    0  0.34547337809E+02  0.54122745243E+02  0.31397080060E+03  0.34337625262E+03  0.12331584301E+03 0.  0.
          5    1    4    4  502    0  0.50984506050E+01  0.18256847718E+02  0.10202340092E+02  0.22033711229E+02  0.47000000000E+01 0.  1.
         -5    1    4    4    0  502 -0.39645788414E+02 -0.72379592962E+02  0.41231712928E+03  0.42052122314E+03  0.47000000000E+01 0.  1.
          5    1    5    5  503    0 -0.15653955157E+02  0.73478693877E+02  0.24172581034E+03  0.25317508201E+03  0.47000000000E+01 0.  1.
         -5    1    5    5    0  503  0.50201292965E+02 -0.19355948634E+02  0.72244990254E+02  0.90201170612E+02  0.47000000000E+01 0.  1.
<mgrwt>
<rscale>  0 0.27435363E+03</rscale>
<asrwt>0</asrwt>
<pdfrwt beam="1">  1        2 0.11710932E+00 0.27435363E+03</pdfrwt>
<pdfrwt beam="2">  1       -2 0.38031480E-02 0.27435363E+03</pdfrwt>
<totfact> 0.11167277E+04</totfact>
</mgrwt>
</event>
<event>
 9    1  0.2095749E-002  0.2751226E+03  0.7818608E-02  0.1098383E+00
          1   -1    0    0  501    0  0.00000000000E+00  0.00000000000E+00  0.17586372194E+03  0.17586372194E+03  0.00000000000E+00 0.  1.
         -1   -1    0    0    0  501 -0.00000000000E+00 -0.00000000000E+00 -0.10760103179E+03  0.10760103179E+03  0.00000000000E+00 0.  1.
         36    2    1    2    0    0  0.35527136788E-14  0.00000000000E+00  0.68262690151E+02  0.28346475373E+03  0.27512264855E+03 0.  0.
         25    2    3    3    0    0 -0.28818475493E+02  0.12157667806E+02 -0.23590148892E+02  0.12804479552E+03  0.12190431132E+03 0.  0.
         25    2    3    3    0    0  0.28818475493E+02 -0.12157667806E+02  0.91852839043E+02  0.15541995822E+03  0.12140883805E+03 0.  0.
          5    1    4    4  502    0  0.11615499793E+02 -0.41663241304E+02 -0.39445255946E+02  0.58726175834E+02  0.47000000000E+01 0. -1.
         -5    1    4    4    0  502 -0.40433975286E+02  0.53820909111E+02  0.15855107054E+02  0.69318619682E+02  0.47000000000E+01 0. -1.
          5    1    5    5  503    0  0.17529396737E+02  0.50138600827E+02  0.14319684931E+02  0.55211433774E+02  0.47000000000E+01 0.  1.
         -5    1    5    5    0  503  0.11289078756E+02 -0.62296268633E+02  0.77533154111E+02  0.10020852444E+03  0.47000000000E+01 0.  1.
<mgrwt>
<rscale>  0 0.27512265E+03</rscale>
<asrwt>0</asrwt>
<pdfrwt beam="1">  1        1 0.27055957E-01 0.27512265E+03</pdfrwt>
<pdfrwt beam="2">  1       -1 0.16554005E-01 0.27512265E+03</pdfrwt>
<totfact> 0.47096846E+03</totfact>
</mgrwt>
</event>
<event>
 9    1  0.2095749E-002  0.2751297E+03  0.7818608E-02  0.1098379E+00
          3   -1    0    0  501    0  0.00000000000E+00  0.00000000000E+00  0.42015654695E+02  0.42015654695E+02  0.00000000000E+00 0. -1.
         -3   -1    0    0    0  501 -0.00000000000E+00 -0.00000000000E+00 -0.45040564452E+03  0.45040564452E+03  0.00000000000E+00 0. -1.
         36    2    1    2    0    0  0.14210854715E-13  0.00000000000E+00 -0.40838998982E+03  0.49242129921E+03  0.27512970056E+03 0.  0.
         25    2    3    3    0    0  0.69233866252E+02 -0.29892039767E+02 -0.12284794054E+03  0.17769875175E+03  0.10391519428E+03 0.  0.
         25    2    3    3    0    0 -0.69233866252E+02  0.29892039767E+02 -0.28554204928E+03  0.31472254746E+03  0.10876193126E+03 0.  0.
          5    1    4    4  502    0  0.79600643223E+02  0.14448646902E+02 -0.64728372263E+02  0.10371537000E+03  0.47000000000E+01 0.  1.
         -5    1    4    4    0  502 -0.10366776972E+02 -0.44340686668E+02 -0.58119568276E+02  0.73983381753E+02  0.47000000000E+01 0.  1.
          5    1    5    5  503    0 -0.23238336087E+02 -0.46788625600E+01 -0.79186678559E+00  0.24179104036E+02  0.47000000000E+01 0. -1.
         -5    1    5    5    0  503 -0.45995530164E+02  0.34570902327E+02 -0.28475018250E+03  0.29054344342E+03  0.47000000000E+01 0. -1.
<mgrwt>
<rscale>  0 0.27512970E+03</rscale>
<asrwt>0</asrwt>
<pdfrwt beam="1">  1        3 0.64639468E-02 0.27512970E+03</pdfrwt>
<pdfrwt beam="2">  1       -3 0.69293177E-01 0.27512970E+03</pdfrwt>
<totfact> 0.77983150E+02</totfact>
</mgrwt>
</event>
<event>
 9    1  0.2095749E-002  0.2750424E+03  0.7818608E-02  0.1098428E+00
          2   -1    0    0  501    0  0.00000000000E+00  0.00000000000E+00  0.12493906042E+03  0.12493906042E+03  0.00000000000E+00 0. -1.
         -2   -1    0    0    0  501 -0.00000000000E+00 -0.00000000000E+00 -0.15137046821E+03  0.15137046821E+03  0.00000000000E+00 0. -1.
         36    2    1    2    0    0  0.00000000000E+00  0.35527136788E-14 -0.26431407788E+02  0.27630952863E+03  0.27504242636E+03 0.  0.
         25    2    3    3    0    0 -0.52256820705E+02 -0.18453203158E+02  0.12556354216E+02  0.13758026839E+03  0.12529713565E+03 0.  0.
         25    2    3    3    0    0  0.52256820705E+02  0.18453203158E+02 -0.38987762004E+02  0.13872926025E+03  0.12105563203E+03 0.  0.
          5    1    4    4  502    0  0.36931361506E+02  0.11479465282E+01 -0.17737961735E+02  0.41254921287E+02  0.47000000000E+01 0. -1.
         -5    1    4    4    0  502 -0.89188182210E+02 -0.19601149686E+02  0.30294315951E+02  0.96325347100E+02  0.47000000000E+01 0. -1.
          5    1    5    5  503    0  0.48928788014E+02  0.66143054398E+02 -0.11011551003E+02  0.83140087786E+02  0.47000000000E+01 0. -1.
         -5    1    5    5    0  503  0.33280326904E+01 -0.47689851240E+02 -0.27976211001E+02  0.55589172461E+02  0.47000000000E+01 0. -1.
<mgrwt>
<rscale>  0 0.27504243E+03</rscale>
<asrwt>0</asrwt>
<pdfrwt beam="1">  1        2 0.19221394E-01 0.27504243E+03</pdfrwt>
<pdfrwt beam="2">  1       -2 0.23287764E-01 0.27504243E+03</pdfrwt>
<totfact> 0.46567877E+03</totfact>
</mgrwt>
</event>
<event>
 9    1  0.2095749E-002  0.2738505E+03  0.7818608E-02  0.1099096E+00
         -2   -1    0    0    0  501 -0.00000000000E+00  0.00000000000E+00  0.16800130236E+03  0.16800130236E+03  0.00000000000E+00 0. -1.
          2   -1    0    0  501    0  0.00000000000E+00 -0.00000000000E+00 -0.11159751859E+03  0.11159751859E+03  0.00000000000E+00 0. -1.
         36    2    1    2    0    0  0.00000000000E+00 -0.17763568394E-14  0.56403783764E+02  0.27959882095E+03  0.27385053196E+03 0.  0.
         25    2    3    3    0    0  0.57457151762E+02  0.61474647362E+01  0.58341107931E+01  0.13031749887E+03  0.11665975335E+03 0.  0.
         25    2    3    3    0    0 -0.57457151762E+02 -0.61474647362E+01  0.50569672971E+02  0.14928132208E+03  0.12801759913E+03 0.  0.
          5    1    4    4  502    0  0.16520696271E+02 -0.13919985745E+02  0.57291013406E+02  0.61408872530E+02  0.47000000000E+01 0. -1.
         -5    1    4    4    0  502  0.40936455491E+02  0.20067450482E+02 -0.51456902612E+02  0.68908626336E+02  0.47000000000E+01 0. -1.
          5    1    5    5  503    0 -0.10028880422E+02  0.26104291487E+02 -0.35692233071E+02  0.45585501841E+02  0.47000000000E+01 0. -1.
         -5    1    5    5    0  503 -0.47428271340E+02 -0.32251756223E+02  0.86261906042E+02  0.10369582024E+03  0.47000000000E+01 0. -1.
<mgrwt>
<rscale>  0 0.27385053E+03</rscale>
<asrwt>0</asrwt>
<pdfrwt beam="1">  1        2 0.17168849E-01 0.27385053E+03</pdfrwt>
<pdfrwt beam="2">  1       -2 0.25846354E-01 0.27385053E+03</pdfrwt>
<totfact> 0.44175812E+03</totfact>
</mgrwt>
</event>
<event>
 9    1  0.2095749E-002  0.2745528E+03  0.7818608E-02  0.1098702E+00
         -2   -1    0    0    0  501 -0.00000000000E+00  0.00000000000E+00  0.52859187920E+02  0.52859187920E+02  0.00000000000E+00 0.  1.
          2   -1    0    0  501    0  0.00000000000E+00 -0.00000000000E+00 -0.35650974468E+03  0.35650974468E+03  0.00000000000E+00 0.  1.
         36    2    1    2    0    0 -0.35527136788E-14  0.00000000000E+00 -0.30365055676E+03  0.40936893260E+03  0.27455284074E+03 0.  0.
         25    2    3    3    0    0 -0.11394999053E+02  0.12671364325E+02 -0.62457010918E+02  0.14091995296E+03  0.12516846828E+03 0.  0.
         25    2    3    3    0    0  0.11394999053E+02 -0.12671364325E+02 -0.24119354584E+03  0.26844897964E+03  0.11661954654E+03 0.  0.
          5    1    4    4  502    0 -0.33058150266E+02  0.56205818734E+02 -0.64748602410E+02  0.92013079899E+02  0.47000000000E+01 0. -1.
         -5    1    4    4    0  502  0.21663151213E+02 -0.43534454409E+02  0.22915914915E+01  0.48906873062E+02  0.47000000000E+01 0. -1.
          5    1    5    5  503    0  0.17443781448E+01 -0.64469827463E+02 -0.12316810822E+03  0.13911101462E+03  0.47000000000E+01 0. -1.
         -5    1    5    5    0  503  0.96506209082E+01  0.51798463138E+02 -0.11802543762E+03  0.12933796501E+03  0.47000000000E+01 0. -1.
<mgrwt>
<rscale>  0 0.27455284E+03</rscale>
<asrwt>0</asrwt>
<pdfrwt beam="1">  1        2 0.54847655E-01 0.27455284E+03</pdfrwt>
<pdfrwt beam="2">  1       -2 0.81321825E-02 0.27455284E+03</pdfrwt>
<totfact> 0.82861287E+03</totfact>
</mgrwt>
</event>
<event>
 9    1  0.2095749E-002  0.2741729E+03  0.7818608E-02  0.1098915E+00
          2   -1    0    0  501    0  0.00000000000E+00  0.00000000000E+00  0.55525280001E+03  0.55525280001E+03  0.00000000000E+00 0. -1.
         -2   -1    0    0    0  501 -0.00000000000E+00 -0.00000000000E+00 -0.33845285829E+02  0.33845285829E+02  0.00000000000E+00 0. -1.
         36    2    1    2    0    0 -0.35527136788E-14 -0.35527136788E-14  0.52140751418E+03  0.58909808584E+03  0.27417286316E+03 0.  0.
         25    2    3    3    0    0  0.10307959711E+02 -0.10368431715E+02  0.35660183200E+03  0.38105577463E+03  0.13350984379E+03 0.  0.
         25    2    3    3    0    0 -0.10307959711E+02  0.10368431715E+02  0.16480568218E+03  0.20804231121E+03  0.12612268615E+03 0.  0.
          5    1    4    4  502    0 -0.55535736310E+02 -0.15443962084E+02  0.95116862375E+02  0.11131954671E+03  0.47000000000E+01 0. -1.
         -5    1    4    4    0  502  0.65843696021E+02  0.50755303689E+01  0.26148496962E+03  0.26973622792E+03  0.47000000000E+01 0. -1.
          5    1    5    5  503    0 -0.33172310239E+02  0.56488416563E+02  0.13023073169E+03  0.14585430007E+03  0.47000000000E+01 0.  1.
         -5    1    5    5    0  503  0.22864350528E+02 -0.46119984848E+02  0.34574950495E+02  0.62188011137E+02  0.47000000000E+01 0.  1.
<mgrwt>
<rscale>  0 0.27417286E+03</rscale>
<asrwt>0</asrwt>
<pdfrwt beam="1">  1        2 0.85423501E-01 0.27417286E+03</pdfrwt>
<pdfrwt beam="2">  1       -2 0.52069674E-02 0.27417286E+03</pdfrwt>
<totfact> 0.10107977E+04</totfact>
</mgrwt>
</event>
<event>
 9    1  0.2095749E-002  0.2754571E+03  0.7818608E-02  0.1098196E+00
          1   -1    0    0  501    0  0.00000000000E+00  0.00000000000E+00  0.48204447238E+03  0.48204447238E+03  0.00000000000E+00 0. -1.
         -1   -1    0    0    0  501 -0.00000000000E+00 -0.00000000000E+00 -0.39351460907E+02  0.39351460907E+02  0.00000000000E+00 0. -1.
         36    2    1    2    0    0  0.71054273576E-14 -0.21316282073E-13  0.44269301147E+03  0.52139593329E+03  0.27545710527E+03 0.  0.
         25    2    3    3    0    0  0.45670248368E+02 -0.45677661154E+02  0.26325237485E+03  0.29855383545E+03  0.12514135802E+03 0.  0.
         25    2    3    3    0    0 -0.45670248368E+02  0.45677661154E+02  0.17944063662E+03  0.22284209783E+03  0.11527115068E+03 0.  0.
          5    1    4    4  502    0  0.33871079784E+02  0.38034120309E+02  0.63071924286E+02  0.81203460435E+02  0.47000000000E+01 0. -1.
         -5    1    4    4    0  502  0.11799168584E+02 -0.83711781463E+02  0.20018045056E+03  0.21735037502E+03  0.47000000000E+01 0. -1.
          5    1    5    5  503    0 -0.59062929557E+02  0.49113155766E+02  0.18988540947E+03  0.20488799489E+03  0.47000000000E+01 0. -1.
         -5    1    5    5    0  503  0.13392681190E+02 -0.34354946126E+01 -0.10444772849E+02  0.17954102945E+02  0.47000000000E+01 0. -1.
<mgrwt>
<rscale>  0 0.27545711E+03</rscale>
<asrwt>0</asrwt>
<pdfrwt beam="1">  1        1 0.74160684E-01 0.27545711E+03</pdfrwt>
<pdfrwt beam="2">  1       -1 0.60540712E-02 0.27545711E+03</pdfrwt>
<totfact> 0.62199062E+03</totfact>
</mgrwt>
</event>
<event>
 9    1  0.2095749E-002  0.2751813E+03  0.7818608E-02  0.1098350E+00
         -1   -1    0    0    0  501 -0.00000000000E+00  0.00000000000E+00  0.19903093065E+02  0.19903093065E+02  0.00000000000E+00 0.  1.
          1   -1    0    0  501    0  0.00000000000E+00 -0.00000000000E+00 -0.95116791643E+03  0.95116791643E+03  0.00000000000E+00 0.  1.
         36    2    1    2    0    0  0.00000000000E+00  0.00000000000E+00 -0.93126482337E+03  0.97107100950E+03  0.27518127525E+03 0.  0.
         25    2    3    3    0    0 -0.15065628273E+02 -0.45927657438E+02 -0.31081101949E+03  0.33586280410E+03  0.11774553270E+03 0.  0.
         25    2    3    3    0    0  0.15065628273E+02  0.45927657438E+02 -0.62045380388E+03  0.63520820540E+03  0.12724078977E+03 0.  0.
          5    1    4    4  502    0  0.47491626864E+02 -0.42274754902E+02 -0.17392445674E+03  0.18524150771E+03  0.47000000000E+01 0.  1.
         -5    1    4    4    0  502 -0.62557255137E+02 -0.36529025363E+01 -0.13688656274E+03  0.15062129639E+03  0.47000000000E+01 0.  1.
          5    1    5    5  503    0 -0.22285142298E+02  0.55378049590E+02 -0.12895108066E+03  0.14217533945E+03  0.47000000000E+01 0. -1.
         -5    1    5    5    0  503  0.37350770571E+02 -0.94503921518E+01 -0.49150272322E+03  0.49303286595E+03  0.47000000000E+01 0. -1.
<mgrwt>
<rscale>  0 0.27518128E+03</rscale>
<asrwt>0</asrwt>
<pdfrwt beam="1">  1        1 0.14633353E+00 0.27518128E+03</pdfrwt>
<pdfrwt beam="2">  1       -1 0.30620143E-02 0.27518128E+03</pdfrwt>
<totfact> 0.63689579E+03</totfact>
</mgrwt>
</event>
<event>
 9    1  0.2095749E-002  0.2750865E+03  0.7818608E-02  0.1098403E+00
         -2   -1    0    0    0  501 -0.00000000000E+00  0.00000000000E+00  0.54791144054E+02  0.54791144054E+02  0.00000000000E+00 0. -1.
          2   -1    0    0  501    0  0.00000000000E+00 -0.00000000000E+00 -0.34527750862E+03  0.34527750862E+03  0.00000000000E+00 0. -1.
         36    2    1    2    0    0  0.00000000000E+00  0.00000000000E+00 -0.29048636456E+03  0.40006865267E+03  0.27508652976E+03 0.  0.
         25    2    3    3    0    0  0.55276480603E+01  0.17802113747E+02 -0.24526249783E+03  0.27111182982E+03  0.11401956534E+03 0.  0.
         25    2    3    3    0    0 -0.55276480603E+01 -0.17802113747E+02 -0.45223866736E+02  0.12895682285E+03  0.11931971292E+03 0.  0.
          5    1    4    4  502    0 -0.28201367825E+02 -0.38508961965E+02 -0.12728874492E+03  0.13602489434E+03  0.47000000000E+01 0.  1.
         -5    1    4    4    0  502  0.33729015885E+02  0.56311075712E+02 -0.11797375291E+03  0.13508693548E+03  0.47000000000E+01 0.  1.
          5    1    5    5  503    0  0.26224706495E+02 -0.61218211862E+02 -0.25801540551E+02  0.71576631585E+02  0.47000000000E+01 0.  1.
         -5    1    5    5    0  503 -0.31752354555E+02  0.43416098115E+02 -0.19422326185E+02  0.57380191266E+02  0.47000000000E+01 0.  1.
<mgrwt>
<rscale>  0 0.27508653E+03</rscale>
<asrwt>0</asrwt>
<pdfrwt beam="1">  1        2 0.53119615E-01 0.27508653E+03</pdfrwt>
<pdfrwt beam="2">  1       -2 0.84294070E-02 0.27508653E+03</pdfrwt>
<totfact> 0.81092126E+03</totfact>
</mgrwt>
</event>
<event>
 9    1  0.2095749E-002  0.2755862E+03  0.7818608E-02  0.1098124E+00
          2   -1    0    0  501    0  0.00000000000E+00  0.00000000000E+00  0.50995664325E+02  0.50995664325E+02  0.00000000000E+00 0.  1.
         -2   -1    0    0    0  501 -0.00000000000E+00 -0.00000000000E+00 -0.37232452903E+03  0.37232452903E+03  0.00000000000E+00 0.  1.
         36    2    1    2    0    0  0.00000000000E+00 -0.35527136788E-14 -0.32132886470E+03  0.42332019335E+03  0.27558618762E+03 0.  0.
         25    2    3    3    0    0 -0.55576285192E+02  0.88315981921E+01 -0.13799716997E+03  0.19501696760E+03  0.12578425232E+03 0.  0.
         25    2    3    3    0    0  0.55576285192E+02 -0.88315981921E+01 -0.18333169474E+03  0.22830322575E+03  0.12387546969E+03 0.  0.
          5    1    4    4  502    0  0.18632380638E+02 -0.18101271733E+02 -0.10677847184E+03  0.10999342569E+03  0.47000000000E+01 0. -1.
         -5    1    4    4    0  502 -0.74208665830E+02  0.26932869925E+02 -0.31218698129E+02  0.85023541914E+02  0.47000000000E+01 0. -1.
          5    1    5    5  503    0 -0.27479647914E+02 -0.31652790743E+02 -0.99254293341E+02  0.10784495796E+03  0.47000000000E+01 0. -1.
         -5    1    5    5    0  503  0.83055933106E+02  0.22821192551E+02 -0.84077401396E+02  0.12045826779E+03  0.47000000000E+01 0. -1.
<mgrwt>
<rscale>  0 0.27558619E+03</rscale>
<asrwt>0</asrwt>
<pdfrwt beam="1">  1        2 0.78454868E-02 0.27558619E+03</pdfrwt>
<pdfrwt beam="2">  1       -2 0.57280697E-01 0.27558619E+03</pdfrwt>
<totfact> 0.25312616E+03</totfact>
</mgrwt>
</event>
<event>
 9    1  0.2095749E-002  0.2725760E+03  0.7818608E-02  0.1099814E+00
          2   -1    0    0  501    0  0.00000000000E+00  0.00000000000E+00  0.59902739088E+03  0.59902739088E+03  0.00000000000E+00 0. -1.
         -2   -1    0    0    0  501 -0.00000000000E+00 -0.00000000000E+00 -0.31007630001E+02  0.31007630001E+02  0.00000000000E+00 0. -1.
         36    2    1    2    0    0  0.00000000000E+00  0.17763568394E-14  0.56801976088E+03  0.63003502088E+03  0.27257600552E+03 0.  0.
         25    2    3    3    0    0 -0.54193849980E+02  0.13660373662E+02  0.25894935728E+03  0.29161892599E+03  0.12191492598E+03 0.  0.
         25    2    3    3    0    0  0.54193849980E+02 -0.13660373662E+02  0.30907040360E+03  0.33841609490E+03  0.12600539558E+03 0.  0.
          5    1    4    4  502    0 -0.20704371399E+02 -0.50041776234E+02  0.65239438852E+02  0.84918341631E+02  0.47000000000E+01 0. -1.
         -5    1    4    4    0  502 -0.33489478581E+02  0.63702149895E+02  0.19370991843E+03  0.20670058436E+03  0.47000000000E+01 0. -1.
          5    1    5    5  503    0  0.91439064823E+02 -0.25357595385E+02  0.25011187698E+03  0.26754840912E+03  0.47000000000E+01 0. -1.
         -5    1    5    5    0  503 -0.37245214843E+02  0.11697221723E+02  0.58958526628E+02  0.70867685773E+02  0.47000000000E+01 0. -1.
<mgrwt>
<rscale>  0 0.27257601E+03</rscale>
<asrwt>0</asrwt>
<pdfrwt beam="1">  1        2 0.92158051E-01 0.27257601E+03</pdfrwt>
<pdfrwt beam="2">  1       -2 0.47704051E-02 0.27257601E+03</pdfrwt>
<totfact> 0.10578594E+04</totfact>
</mgrwt>
</event>
<event>
 9    1  0.2095749E-002  0.2749812E+03  0.7818608E-02  0.1098462E+00
          1   -1    0    0  501    0  0.00000000000E+00  0.00000000000E+00  0.13711339430E+04  0.13711339430E+04  0.00000000000E+00 0.  1.
         -1   -1    0    0    0  501 -0.00000000000E+00 -0.00000000000E+00 -0.13786884593E+02  0.13786884593E+02  0.00000000000E+00 0.  1.
         36    2    1    2    0    0 -0.71054273576E-14 -0.35527136788E-14  0.13573470584E+04  0.13849208276E+04  0.27498120251E+03 0.  0.
         25    2    3    3    0    0  0.61825142090E+02 -0.94765666544E+01  0.72732984336E+03  0.73984959165E+03  0.12023545118E+03 0.  0.
         25    2    3    3    0    0 -0.61825142090E+02  0.94765666544E+01  0.63001721504E+03  0.64507123593E+03  0.12362465235E+03 0.  0.
          5    1    4    4  502    0  0.92565191421E+02 -0.27151607617E+02  0.59422310645E+03  0.60202052681E+03  0.47000000000E+01 0.  1.
         -5    1    4    4    0  502 -0.30740049331E+02  0.17675040962E+02  0.13310673691E+03  0.13782906485E+03  0.47000000000E+01 0.  1.
          5    1    5    5  503    0 -0.52556641820E+02  0.62737536497E+02  0.43436217868E+03  0.44203030592E+03  0.47000000000E+01 0. -1.
         -5    1    5    5    0  503 -0.92685002700E+01 -0.53260969843E+02  0.19565503636E+03  0.20304093001E+03  0.47000000000E+01 0. -1.
<mgrwt>
<rscale>  0 0.27498120E+03</rscale>
<asrwt>0</asrwt>
<pdfrwt beam="1">  1        1 0.21094358E+00 0.27498120E+03</pdfrwt>
<pdfrwt beam="2">  1       -1 0.21210602E-02 0.27498120E+03</pdfrwt>
<totfact> 0.54910260E+03</totfact>
</mgrwt>
</event>
<event>
 9    1  0.2095749E-002  0.2752303E+03  0.7818608E-02  0.1098323E+00
          1   -1    0    0  501    0  0.00000000000E+00  0.00000000000E+00  0.97799892071E+02  0.97799892071E+02  0.00000000000E+00 0. -1.
         -1   -1    0    0    0  501 -0.00000000000E+00 -0.00000000000E+00 -0.19363957345E+03  0.19363957345E+03  0.00000000000E+00 0. -1.
         36    2    1    2    0    0  0.00000000000E+00  0.35527136788E-14 -0.95839681381E+02  0.29143946552E+03  0.27523029909E+03 0.  0.
         25    2    3    3    0    0  0.52387453584E+02 -0.97678728084E+01 -0.69786056960E+02  0.15344163863E+03  0.12583475707E+03 0.  0.
         25    2    3    3    0    0 -0.52387453584E+02  0.97678728084E+01 -0.26053624421E+02  0.13799782689E+03  0.12459836375E+03 0.  0.
          5    1    4    4  502    0 -0.36804292335E+01  0.56293763799E+01 -0.91001126460E+02  0.91370293065E+02  0.47000000000E+01 0. -1.
         -5    1    4    4    0  502  0.56067882817E+02 -0.15397249188E+02  0.21215069500E+02  0.62071345564E+02  0.47000000000E+01 0. -1.
          5    1    5    5  503    0 -0.22060232725E+02 -0.40276328416E+02 -0.55609439367E+02  0.72272652125E+02  0.47000000000E+01 0. -1.
         -5    1    5    5    0  503 -0.30327220859E+02  0.50044201224E+02  0.29555814946E+02  0.65725174768E+02  0.47000000000E+01 0. -1.
<mgrwt>
<rscale>  0 0.27523030E+03</rscale>
<asrwt>0</asrwt>
<pdfrwt beam="1">  1        1 0.15046137E-01 0.27523030E+03</pdfrwt>
<pdfrwt beam="2">  1       -1 0.29790704E-01 0.27523030E+03</pdfrwt>
<totfact> 0.38170226E+03</totfact>
</mgrwt>
</event>
<event>
 9    1  0.2095749E-002  0.2749334E+03  0.7818608E-02  0.1098489E+00
         -2   -1    0    0    0  501 -0.00000000000E+00  0.00000000000E+00  0.10657065965E+02  0.10657065965E+02  0.00000000000E+00 0.  1.
          2   -1    0    0  501    0  0.00000000000E+00 -0.00000000000E+00 -0.17731979945E+04  0.17731979945E+04  0.00000000000E+00 0.  1.
         36    2    1    2    0    0  0.17763568394E-14 -0.71054273576E-14 -0.17625409286E+04  0.17838550605E+04  0.27493335918E+03 0.  0.
         25    2    3    3    0    0 -0.76334915396E+01 -0.46852354605E+02 -0.80397885800E+03  0.81566832047E+03  0.12914871889E+03 0.  0.
         25    2    3    3    0    0  0.76334915396E+01  0.46852354605E+02 -0.95856207056E+03  0.96818674002E+03  0.12763583783E+03 0.  0.
          5    1    4    4  502    0 -0.34924645394E+02 -0.33057343021E+02 -0.10052290810E+03  0.11153234435E+03  0.47000000000E+01 0.  1.
         -5    1    4    4    0  502  0.27291153854E+02 -0.13795011583E+02 -0.70345594990E+03  0.70413597612E+03  0.47000000000E+01 0.  1.
          5    1    5    5  503    0  0.68757784663E+01  0.90737200240E+02 -0.59087282234E+03  0.59785725555E+03  0.47000000000E+01 0. -1.
         -5    1    5    5    0  503  0.75771307325E+00 -0.43884845636E+02 -0.36768924823E+03  0.37032948447E+03  0.47000000000E+01 0. -1.
<mgrwt>
<rscale>  0 0.27493336E+03</rscale>
<asrwt>0</asrwt>
<pdfrwt beam="1">  1        2 0.27279964E+00 0.27493336E+03</pdfrwt>
<pdfrwt beam="2">  1       -2 0.16395489E-02 0.27493336E+03</pdfrwt>
<totfact> 0.10123548E+04</totfact>
</mgrwt>
</event>
<event>
 9    1  0.2095749E-002  0.2748834E+03  0.7818608E-02  0.1098517E+00
         -2   -1    0    0    0  501 -0.00000000000E+00  0.00000000000E+00  0.98464693917E+02  0.98464693917E+02  0.00000000000E+00 0.  1.
          2   -1    0    0  501    0  0.00000000000E+00 -0.00000000000E+00 -0.19184768580E+03  0.19184768580E+03  0.00000000000E+00 0.  1.
         36    2    1    2    0    0  0.00000000000E+00  0.00000000000E+00 -0.93382991881E+02  0.29031237972E+03  0.27488342010E+03 0.  0.
         25    2    3    3    0    0  0.64799058345E+02  0.25977206695E+02 -0.32587362147E+02  0.14232791438E+03  0.11967274464E+03 0.  0.
         25    2    3    3    0    0 -0.64799058345E+02 -0.25977206695E+02 -0.60795629734E+02  0.14798446534E+03  0.11545371434E+03 0.  0.
          5    1    4    4  502    0  0.97949141231E+01  0.32839837162E+02 -0.68063805857E+02  0.76348981101E+02  0.47000000000E+01 0.  1.
         -5    1    4    4    0  502  0.55004144222E+02 -0.68626304666E+01  0.35476443709E+02  0.65978933280E+02  0.47000000000E+01 0.  1.
          5    1    5    5  503    0 -0.89127552197E+02  0.41634929383E+01 -0.62321595833E+02  0.10893634169E+03  0.47000000000E+01 0. -1.
         -5    1    5    5    0  503  0.24328493852E+02 -0.30140699633E+02  0.15259660997E+01  0.39048123643E+02  0.47000000000E+01 0. -1.
<mgrwt>
<rscale>  0 0.27488342E+03</rscale>
<asrwt>0</asrwt>
<pdfrwt beam="1">  1        2 0.29515029E-01 0.27488342E+03</pdfrwt>
<pdfrwt beam="2">  1       -2 0.15148414E-01 0.27488342E+03</pdfrwt>
<totfact> 0.59684556E+03</totfact>
</mgrwt>
</event>
<event>
 9    1  0.2095749E-002  0.2751694E+03  0.7818608E-02  0.1098357E+00
         -1   -1    0    0    0  501 -0.00000000000E+00  0.00000000000E+00  0.61754988341E+01  0.61754988341E+01  0.00000000000E+00 0. -1.
          1   -1    0    0  501    0  0.00000000000E+00 -0.00000000000E+00 -0.30652657262E+04  0.30652657262E+04  0.00000000000E+00 0. -1.
         36    2    1    2    0    0  0.00000000000E+00  0.71054273576E-14 -0.30590902274E+04  0.30714412251E+04  0.27516936543E+03 0.  0.
         25    2    3    3    0    0 -0.41056843743E+02 -0.51206370874E+02 -0.14477294066E+04  0.14547955608E+04  0.12728681077E+03 0.  0.
         25    2    3    3    0    0  0.41056843743E+02  0.51206370874E+02 -0.16113608208E+04  0.16166456642E+04  0.11292365609E+03 0.  0.
          5    1    4    4  502    0 -0.22176858717E+02 -0.84292135937E+02 -0.61291221765E+03  0.61909648181E+03  0.47000000000E+01 0. -1.
         -5    1    4    4    0  502 -0.18879985027E+02  0.33085765063E+02 -0.83481718896E+03  0.83569907902E+03  0.47000000000E+01 0. -1.
          5    1    5    5  503    0  0.61306227846E+02  0.19759470183E+02 -0.44360768240E+03  0.44828423586E+03  0.47000000000E+01 0. -1.
         -5    1    5    5    0  503 -0.20249384102E+02  0.31446900691E+02 -0.11677531384E+04  0.11683614284E+04  0.47000000000E+01 0. -1.
<mgrwt>
<rscale>  0 0.27516937E+03</rscale>
<asrwt>0</asrwt>
<pdfrwt beam="1">  1        1 0.47157967E+00 0.27516937E+03</pdfrwt>
<pdfrwt beam="2">  1       -1 0.95007609E-03 0.27516937E+03</pdfrwt>
<totfact> 0.13191200E+03</totfact>
</mgrwt>
</event>
<event>
 9    1  0.2095749E-002  0.2760632E+03  0.7818608E-02  0.1097859E+00
         -2   -1    0    0    0  501 -0.00000000000E+00  0.00000000000E+00  0.75251505600E+02  0.75251505600E+02  0.00000000000E+00 0. -1.
          2   -1    0    0  501    0  0.00000000000E+00 -0.00000000000E+00 -0.25318725968E+03  0.25318725968E+03  0.00000000000E+00 0. -1.
         36    2    1    2    0    0 -0.88817841970E-15 -0.14210854715E-13 -0.17793575408E+03  0.32843876528E+03  0.27606319921E+03 0.  0.
         25    2    3    3    0    0  0.47423723554E+01 -0.40444741514E+02 -0.12067374904E+03  0.18344656224E+03  0.13203113375E+03 0.  0.
         25    2    3    3    0    0 -0.47423723554E+01  0.40444741514E+02 -0.57262005040E+02  0.14499220303E+03  0.12682876057E+03 0.  0.
          5    1    4    4  502    0  0.68514463036E+00  0.41770789709E+02 -0.82488872092E+02  0.92583866387E+02  0.47000000000E+01 0.  1.
         -5    1    4    4    0  502  0.40572277251E+01 -0.82215531223E+02 -0.38184876946E+02  0.90862695857E+02  0.47000000000E+01 0.  1.
          5    1    5    5  503    0 -0.20772608455E+02  0.62223934500E+02 -0.83993235714E+02  0.10667836206E+03  0.47000000000E+01 0.  1.
         -5    1    5    5    0  503  0.16030236099E+02 -0.21779192986E+02  0.26731230675E+02  0.38313840970E+02  0.47000000000E+01 0.  1.
<mgrwt>
<rscale>  0 0.27606320E+03</rscale>
<asrwt>0</asrwt>
<pdfrwt beam="1">  1        2 0.38951887E-01 0.27606320E+03</pdfrwt>
<pdfrwt beam="2">  1       -2 0.11577155E-01 0.27606320E+03</pdfrwt>
<totfact> 0.68425966E+03</totfact>
</mgrwt>
</event>
<event>
 9    1  0.2095749E-002  0.2754114E+03  0.7818608E-02  0.1098222E+00
          2   -1    0    0  501    0  0.00000000000E+00  0.00000000000E+00  0.34119100322E+04  0.34119100322E+04  0.00000000000E+00 0. -1.
         -2   -1    0    0    0  501 -0.00000000000E+00 -0.00000000000E+00 -0.55578424683E+01  0.55578424683E+01  0.00000000000E+00 0. -1.
         36    2    1    2    0    0 -0.71054273576E-14  0.00000000000E+00  0.34063521898E+04  0.34174678747E+04  0.27541139029E+03 0.  0.
         25    2    3    3    0    0  0.11908230336E+02  0.38957212704E+02  0.13265020887E+04  0.13335136110E+04  0.13035063907E+03 0.  0.
         25    2    3    3    0    0 -0.11908230336E+02 -0.38957212704E+02  0.20798501011E+04  0.20839542637E+04  0.12421537668E+03 0.  0.
          5    1    4    4  502    0  0.66379251001E+02  0.14600713097E+02  0.93317106008E+03  0.93565469227E+03  0.47000000000E+01 0.  1.
         -5    1    4    4    0  502 -0.54471020665E+02  0.24356499607E+02  0.39333102860E+03  0.39785891874E+03  0.47000000000E+01 0.  1.
          5    1    5    5  503    0  0.50758174880E+02  0.15292961108E+01  0.57824716375E+03  0.58049169111E+03  0.47000000000E+01 0. -1.
         -5    1    5    5    0  503 -0.62666405216E+02 -0.40486508814E+02  0.15016029373E+04  0.15034625726E+04  0.47000000000E+01 0. -1.
<mgrwt>
<rscale>  0 0.27541139E+03</rscale>
<asrwt>0</asrwt>
<pdfrwt beam="1">  1        2 0.52490756E+00 0.27541139E+03</pdfrwt>
<pdfrwt beam="2">  1       -2 0.85505541E-03 0.27541139E+03</pdfrwt>
<totfact> 0.30998988E+03</totfact>
</mgrwt>
</event>
<event>
 9    1  0.2095749E-002  0.2753313E+03  0.7818608E-02  0.1098267E+00
          1   -1    0    0  501    0  0.00000000000E+00  0.00000000000E+00  0.15123139190E+03  0.15123139190E+03  0.00000000000E+00 0. -1.
         -1   -1    0    0    0  501 -0.00000000000E+00 -0.00000000000E+00 -0.12531679600E+03  0.12531679600E+03  0.00000000000E+00 0. -1.
         36    2    1    2    0    0  0.00000000000E+00  0.00000000000E+00  0.25914595902E+02  0.27654818790E+03  0.27533131669E+03 0.  0.
         25    2    3    3    0    0 -0.34351662722E+02  0.58930226420E+01  0.66144274452E+02  0.14116558272E+03  0.11974093809E+03 0.  0.
         25    2    3    3    0    0  0.34351662722E+02 -0.58930226420E+01 -0.40229678550E+02  0.13538260518E+03  0.12447995141E+03 0.  0.
          5    1    4    4  502    0 -0.27761076166E+02  0.45764735903E+02  0.81550706393E+02  0.97661128989E+02  0.47000000000E+01 0.  1.
         -5    1    4    4    0  502 -0.65905865561E+01 -0.39871713261E+02 -0.15406431941E+02  0.43504453734E+02  0.47000000000E+01 0.  1.
          5    1    5    5  503    0  0.35797879084E+02  0.49919957839E+02  0.71294360355E+01  0.62019425955E+02  0.47000000000E+01 0. -1.
         -5    1    5    5    0  503 -0.14462163616E+01 -0.55812980481E+02 -0.47359114586E+02  0.73363179227E+02  0.47000000000E+01 0. -1.
<mgrwt>
<rscale>  0 0.27533132E+03</rscale>
<asrwt>0</asrwt>
<pdfrwt beam="1">  1        1 0.23266368E-01 0.27533132E+03</pdfrwt>
<pdfrwt beam="2">  1       -1 0.19279507E-01 0.27533132E+03</pdfrwt>
<totfact> 0.44656850E+03</totfact>
</mgrwt>
</event>
<event>
 9    1  0.2095749E-002  0.2750984E+03  0.7818608E-02  0.1098397E+00
         -2   -1    0    0    0  501 -0.00000000000E+00  0.00000000000E+00  0.30862729571E+02  0.30862729571E+02  0.00000000000E+00 0.  1.
          2   -1    0    0  501    0  0.00000000000E+00 -0.00000000000E+00 -0.61302994823E+03  0.61302994823E+03  0.00000000000E+00 0.  1.
         36    2    1    2    0    0  0.35527136788E-14  0.35527136788E-14 -0.58216721866E+03  0.64389267781E+03  0.27509836431E+03 0.  0.
         25    2    3    3    0    0 -0.23068127951E+02  0.15852001942E+02 -0.41704547222E+03  0.43585580632E+03  0.12353110342E+03 0.  0.
         25    2    3    3    0    0  0.23068127951E+02 -0.15852001942E+02 -0.16512174645E+03  0.20803687149E+03  0.12341282047E+03 0.  0.
          5    1    4    4  502    0  0.29130841742E+02  0.52148008171E+02 -0.24943869149E+03  0.25653415271E+03  0.47000000000E+01 0.  1.
         -5    1    4    4    0  502 -0.52198969693E+02 -0.36296006229E+02 -0.16760678073E+03  0.17932165361E+03  0.47000000000E+01 0.  1.
          5    1    5    5  503    0  0.88669205981E+01 -0.42972259827E+02 -0.43878651493E+01  0.44346147027E+02  0.47000000000E+01 0.  1.
         -5    1    5    5    0  503  0.14201207353E+02  0.27120257885E+02 -0.16073388130E+03  0.16369072446E+03  0.47000000000E+01 0.  1.
<mgrwt>
<rscale>  0 0.27509836E+03</rscale>
<asrwt>0</asrwt>
<pdfrwt beam="1">  1        2 0.94312293E-01 0.27509836E+03</pdfrwt>
<pdfrwt beam="2">  1       -2 0.47481126E-02 0.27509836E+03</pdfrwt>
<totfact> 0.10374814E+04</totfact>
</mgrwt>
</event>
<event>
 9    1  0.2095749E-002  0.2758496E+03  0.7818608E-02  0.1097978E+00
         -2   -1    0    0    0  501 -0.00000000000E+00  0.00000000000E+00  0.38754683950E+02  0.38754683950E+02  0.00000000000E+00 0. -1.
          2   -1    0    0  501    0  0.00000000000E+00 -0.00000000000E+00 -0.49086322152E+03  0.49086322152E+03  0.00000000000E+00 0. -1.
         36    2    1    2    0    0  0.00000000000E+00  0.00000000000E+00 -0.45210853757E+03  0.52961790547E+03  0.27584958954E+03 0.  0.
         25    2    3    3    0    0  0.42188192858E+02 -0.33714597505E+02 -0.18191957458E+03  0.22735679575E+03  0.12521926073E+03 0.  0.
         25    2    3    3    0    0 -0.42188192858E+02  0.33714597505E+02 -0.27018896299E+03  0.30226110972E+03  0.12427061208E+03 0.  0.
          5    1    4    4  502    0  0.24986023673E+02 -0.16816027634E+01  0.13287794301E+02  0.28736468890E+02  0.47000000000E+01 0.  1.
         -5    1    4    4    0  502  0.17202169184E+02 -0.32032994741E+02 -0.19520736888E+03  0.19862032686E+03  0.47000000000E+01 0.  1.
          5    1    5    5  503    0 -0.23936754721E+01 -0.21910334959E+02  0.98291276656E+00  0.22557672260E+02  0.47000000000E+01 0. -1.
         -5    1    5    5    0  503 -0.39794517386E+02  0.55624932464E+02 -0.27117187575E+03  0.27970343746E+03  0.47000000000E+01 0. -1.
<mgrwt>
<rscale>  0 0.27584959E+03</rscale>
<asrwt>0</asrwt>
<pdfrwt beam="1">  1        2 0.75517420E-01 0.27584959E+03</pdfrwt>
<pdfrwt beam="2">  1       -2 0.59622589E-02 0.27584959E+03</pdfrwt>
<totfact> 0.94458523E+03</totfact>
</mgrwt>
</event>
<event>
 9    1  0.2095749E-002  0.2746763E+03  0.7818608E-02  0.1098633E+00
          1   -1    0    0  501    0  0.00000000000E+00  0.00000000000E+00  0.25375094559E+03  0.25375094559E+03  0.00000000000E+00 0. -1.
         -1   -1    0    0    0  501 -0.00000000000E+00 -0.00000000000E+00 -0.74331799534E+02  0.74331799534E+02  0.00000000000E+00 0. -1.
         36    2    1    2    0    0 -0.14210854715E-13  0.00000000000E+00  0.17941914605E+03  0.32808274512E+03  0.27467627796E+03 0.  0.
         25    2    3    3    0    0 -0.34257372673E+02  0.29744042638E+02  0.13032690997E+03  0.18651499535E+03  0.12547694758E+03 0.  0.
         25    2    3    3    0    0  0.34257372673E+02 -0.29744042638E+02  0.49092236084E+02  0.14156774977E+03  0.12479224525E+03 0.  0.
          5    1    4    4  502    0 -0.56335620899E+02 -0.85261129841E+01  0.97289518892E+01  0.57992579608E+02  0.47000000000E+01 0.  1.
         -5    1    4    4    0  502  0.22078248226E+02  0.38270155622E+02  0.12059795808E+03  0.12852241574E+03  0.47000000000E+01 0.  1.
          5    1    5    5  503    0 -0.84116218392E+01  0.36119940232E+02  0.50628839854E+02  0.62934687489E+02  0.47000000000E+01 0.  1.
         -5    1    5    5    0  503  0.42668994512E+02 -0.65863982870E+02 -0.15366037700E+01  0.78633062279E+02  0.47000000000E+01 0.  1.
<mgrwt>
<rscale>  0 0.27467628E+03</rscale>
<asrwt>0</asrwt>
<pdfrwt beam="1">  1        1 0.39038607E-01 0.27467628E+03</pdfrwt>
<pdfrwt beam="2">  1       -1 0.11435662E-01 0.27467628E+03</pdfrwt>
<totfact> 0.53182449E+03</totfact>
</mgrwt>
</event>
<event>
 9    1  0.2095749E-002  0.2798792E+03  0.7818608E-02  0.1095755E+00
          2   -1    0    0  501    0  0.00000000000E+00  0.00000000000E+00  0.36094068195E+03  0.36094068195E+03  0.00000000000E+00 0. -1.
         -2   -1    0    0    0  501 -0.00000000000E+00 -0.00000000000E+00 -0.54255701040E+02  0.54255701040E+02  0.00000000000E+00 0. -1.
         36    2    1    2    0    0  0.71054273576E-14  0.00000000000E+00  0.30668498091E+03  0.41519638299E+03  0.27987918631E+03 0.  0.
         25    2    3    3    0    0 -0.14134370732E+02  0.42347409859E+02  0.89628919166E+02  0.15927745895E+03  0.12386638858E+03 0.  0.
         25    2    3    3    0    0  0.14134370732E+02 -0.42347409859E+02  0.21705606174E+03  0.25591892404E+03  0.12801592941E+03 0.  0.
          5    1    4    4  502    0 -0.37401380359E+02  0.71266848026E+02  0.24665698592E+02  0.84310815245E+02  0.47000000000E+01 0.  1.
         -5    1    4    4    0  502  0.23267009627E+02 -0.28919438167E+02  0.64963220574E+02  0.74966643704E+02  0.47000000000E+01 0.  1.
          5    1    5    5  503    0 -0.49686648206E+02 -0.40158631109E+02  0.66615539475E+02  0.92418606146E+02  0.47000000000E+01 0.  1.
         -5    1    5    5    0  503  0.63821018937E+02 -0.21887787503E+01  0.15044052227E+03  0.16350031789E+03  0.47000000000E+01 0.  1.
<mgrwt>
<rscale>  0 0.27987919E+03</rscale>
<asrwt>0</asrwt>
<pdfrwt beam="1">  1        2 0.55529334E-01 0.27987919E+03</pdfrwt>
<pdfrwt beam="2">  1       -2 0.83470312E-02 0.27987919E+03</pdfrwt>
<totfact> 0.78548535E+03</totfact>
</mgrwt>
</event>
<event>
 9    1  0.2095749E-002  0.2750696E+03  0.7818608E-02  0.1098413E+00
          2   -1    0    0  501    0  0.00000000000E+00  0.00000000000E+00  0.20367163466E+04  0.20367163466E+04  0.00000000000E+00 0.  1.
         -2   -1    0    0    0  501 -0.00000000000E+00 -0.00000000000E+00 -0.92874101816E+01  0.92874101816E+01  0.00000000000E+00 0.  1.
         36    2    1    2    0    0  0.00000000000E+00  0.00000000000E+00  0.20274289365E+04  0.20460037568E+04  0.27506959217E+03 0.  0.
         25    2    3    3    0    0  0.54470839047E+01 -0.24649542066E+02  0.13659014074E+04  0.13723649703E+04  0.13062039006E+03 0.  0.
         25    2    3    3    0    0 -0.54470839047E+01  0.24649542066E+02  0.66152752908E+03  0.67363878655E+03  0.12463254939E+03 0.  0.
          5    1    4    4  502    0 -0.20474778260E+02 -0.70454222615E+01  0.12890192489E+04  0.12892096682E+04  0.47000000000E+01 0.  1.
         -5    1    4    4    0  502  0.25921862165E+02 -0.17604119804E+02  0.76882158503E+02  0.83155302105E+02  0.47000000000E+01 0.  1.
          5    1    5    5  503    0 -0.61105221823E+01  0.46212574709E+02  0.88070982132E+02  0.99757347781E+02  0.47000000000E+01 0. -1.
         -5    1    5    5    0  503  0.66343827756E+00 -0.21563032643E+02  0.57345654694E+03  0.57388143877E+03  0.47000000000E+01 0. -1.
<mgrwt>
<rscale>  0 0.27506959E+03</rscale>
<asrwt>0</asrwt>
<pdfrwt beam="1">  1        2 0.31334062E+00 0.27506959E+03</pdfrwt>
<pdfrwt beam="2">  1       -2 0.14288340E-02 0.27506959E+03</pdfrwt>
<totfact> 0.90016801E+03</totfact>
</mgrwt>
</event>
<event>
 9    1  0.2095749E-002  0.2752612E+03  0.7818608E-02  0.1098306E+00
         -2   -1    0    0    0  501 -0.00000000000E+00  0.00000000000E+00  0.16891812729E+02  0.16891812729E+02  0.00000000000E+00 0. -1.
          2   -1    0    0  501    0  0.00000000000E+00 -0.00000000000E+00 -0.11213821515E+04  0.11213821515E+04  0.00000000000E+00 0. -1.
         36    2    1    2    0    0  0.00000000000E+00  0.00000000000E+00 -0.11044903387E+04  0.11382739642E+04  0.27526116544E+03 0.  0.
         25    2    3    3    0    0 -0.22929302992E+02 -0.50295273062E+02 -0.55706977526E+03  0.57371991520E+03  0.12558837192E+03 0.  0.
         25    2    3    3    0    0  0.22929302992E+02  0.50295273062E+02 -0.54742056349E+03  0.56455404900E+03  0.12647779841E+03 0.  0.
          5    1    4    4  502    0  0.23562592783E+02 -0.53361078305E+02 -0.47988399183E+03  0.48343907173E+03  0.47000000000E+01 0.  1.
         -5    1    4    4    0  502 -0.46491895775E+02  0.30658052430E+01 -0.77185783422E+02  0.90280843467E+02  0.47000000000E+01 0.  1.
          5    1    5    5  503    0  0.39309347085E+02  0.26720249744E+01 -0.47246871812E+03  0.47413199015E+03  0.47000000000E+01 0. -1.
         -5    1    5    5    0  503 -0.16380044093E+02  0.47623248087E+02 -0.74951845369E+02  0.90422058852E+02  0.47000000000E+01 0. -1.
<mgrwt>
<rscale>  0 0.27526117E+03</rscale>
<asrwt>0</asrwt>
<pdfrwt beam="1">  1        2 0.17252038E+00 0.27526117E+03</pdfrwt>
<pdfrwt beam="2">  1       -2 0.25987397E-02 0.27526117E+03</pdfrwt>
<totfact> 0.11622645E+04</totfact>
</mgrwt>
</event>
<event>
 9    1  0.2095749E-002  0.2747691E+03  0.7818608E-02  0.1098581E+00
         -2   -1    0    0    0  501 -0.00000000000E+00  0.00000000000E+00  0.57109621510E+02  0.57109621510E+02  0.00000000000E+00 0. -1.
          2   -1    0    0  501    0  0.00000000000E+00 -0.00000000000E+00 -0.33049620190E+03  0.33049620190E+03  0.00000000000E+00 0. -1.
         36    2    1    2    0    0  0.00000000000E+00  0.00000000000E+00 -0.27338658039E+03  0.38760582341E+03  0.27476908852E+03 0.  0.
         25    2    3    3    0    0 -0.14076537479E+02  0.31826071012E+02 -0.19465389014E+03  0.23433071370E+03  0.12573662446E+03 0.  0.
         25    2    3    3    0    0  0.14076537479E+02 -0.31826071012E+02 -0.78732690250E+02  0.15327510972E+03  0.12682024697E+03 0.  0.
          5    1    4    4  502    0  0.45191754208E+02 -0.20796093868E+02 -0.90334278969E+02  0.10323344480E+03  0.47000000000E+01 0.  1.
         -5    1    4    4    0  502 -0.59268291687E+02  0.52622164880E+02 -0.10431961117E+03  0.13109726890E+03  0.47000000000E+01 0.  1.
          5    1    5    5  503    0 -0.48103276938E+02 -0.65605343566E+01 -0.70161732603E+02  0.85450129227E+02  0.47000000000E+01 0. -1.
         -5    1    5    5    0  503  0.62179814417E+02 -0.25265536656E+02 -0.85709576472E+01  0.67824980489E+02  0.47000000000E+01 0. -1.
<mgrwt>
<rscale>  0 0.27476909E+03</rscale>
<asrwt>0</asrwt>
<pdfrwt beam="1">  1        2 0.50845569E-01 0.27476909E+03</pdfrwt>
<pdfrwt beam="2">  1       -2 0.87860957E-02 0.27476909E+03</pdfrwt>
<totfact> 0.79648001E+03</totfact>
</mgrwt>
</event>
<event>
 9    1  0.2095749E-002  0.2762309E+03  0.7818608E-02  0.1097766E+00
         -2   -1    0    0    0  501 -0.00000000000E+00  0.00000000000E+00  0.15635135058E+02  0.15635135058E+02  0.00000000000E+00 0.  1.
          2   -1    0    0  501    0  0.00000000000E+00 -0.00000000000E+00 -0.12200652041E+04  0.12200652041E+04  0.00000000000E+00 0.  1.
         36    2    1    2    0    0  0.35527136788E-14  0.71054273576E-14 -0.12044300691E+04  0.12357003392E+04  0.27623094864E+03 0.  0.
         25    2    3    3    0    0  0.18523523001E+02  0.33800303626E+02 -0.78518776955E+03  0.79651029411E+03  0.12815316517E+03 0.  0.
         25    2    3    3    0    0 -0.18523523001E+02 -0.33800303626E+02 -0.41924229951E+03  0.43919004507E+03  0.12505282307E+03 0.  0.
          5    1    4    4  502    0  0.11700737970E+01  0.55099703567E+02 -0.74796988014E+03  0.75001225190E+03  0.47000000000E+01 0.  1.
         -5    1    4    4    0  502  0.17353449204E+02 -0.21299399941E+02 -0.37217889416E+02  0.46498042214E+02  0.47000000000E+01 0.  1.
          5    1    5    5  503    0 -0.37640868336E+02 -0.75508009252E+02 -0.28361168621E+03  0.29593237907E+03  0.47000000000E+01 0.  1.
         -5    1    5    5    0  503  0.19117345335E+02  0.41707705626E+02 -0.13563061331E+03  0.14325766600E+03  0.47000000000E+01 0.  1.
<mgrwt>
<rscale>  0 0.27623095E+03</rscale>
<asrwt>0</asrwt>
<pdfrwt beam="1">  1        2 0.18770241E+00 0.27623095E+03</pdfrwt>
<pdfrwt beam="2">  1       -2 0.24054045E-02 0.27623095E+03</pdfrwt>
<totfact> 0.11440252E+04</totfact>
</mgrwt>
</event>
<event>
 9    1  0.2095749E-002  0.2754698E+03  0.7818608E-02  0.1098189E+00
         -1   -1    0    0    0  501 -0.00000000000E+00  0.00000000000E+00  0.26284033584E+02  0.26284033584E+02  0.00000000000E+00 0.  1.
          1   -1    0    0  501    0  0.00000000000E+00 -0.00000000000E+00 -0.72176544799E+03  0.72176544799E+03  0.00000000000E+00 0.  1.
         36    2    1    2    0    0 -0.35527136788E-14  0.71054273576E-14 -0.69548141441E+03  0.74804948158E+03  0.27546983338E+03 0.  0.
         25    2    3    3    0    0  0.26564833138E+02 -0.38947715759E+02 -0.45323935123E+03  0.47272819880E+03  0.12579119805E+03 0.  0.
         25    2    3    3    0    0 -0.26564833138E+02  0.38947715759E+02 -0.24224206317E+03  0.27532128278E+03  0.12205726795E+03 0.  0.
          5    1    4    4  502    0  0.76972454593E+01 -0.22165658810E+01  0.63583742792E+01  0.11255206593E+02  0.47000000000E+01 0.  1.
         -5    1    4    4    0  502  0.18867587679E+02 -0.36731149878E+02 -0.45959772551E+03  0.46147299220E+03  0.47000000000E+01 0.  1.
          5    1    5    5  503    0  0.15408968982E+01 -0.28852939458E+02 -0.87997825859E+01  0.30567836891E+02  0.47000000000E+01 0. -1.
         -5    1    5    5    0  503 -0.28105730036E+02  0.67800655217E+02 -0.23344228059E+03  0.24475344589E+03  0.47000000000E+01 0. -1.
<mgrwt>
<rscale>  0 0.27546983E+03</rscale>
<asrwt>0</asrwt>
<pdfrwt beam="1">  1        1 0.11104083E+00 0.27546983E+03</pdfrwt>
<pdfrwt beam="2">  1       -1 0.40436977E-02 0.27546983E+03</pdfrwt>
<totfact> 0.65025132E+03</totfact>
</mgrwt>
</event>
<event>
 9    1  0.2095749E-002  0.2746661E+03  0.7818608E-02  0.1098638E+00
         -1   -1    0    0    0  501 -0.00000000000E+00  0.00000000000E+00  0.93124366278E+03  0.93124366278E+03  0.00000000000E+00 0. -1.
          1   -1    0    0  501    0  0.00000000000E+00 -0.00000000000E+00 -0.20252878573E+02  0.20252878573E+02  0.00000000000E+00 0. -1.
         36    2    1    2    0    0  0.00000000000E+00 -0.71054273576E-14  0.91099078421E+03  0.95149654135E+03  0.27466608690E+03 0.  0.
         25    2    3    3    0    0  0.62238320974E+01 -0.55036397944E+02  0.38112750425E+03  0.40540651680E+03  0.12660382373E+03 0.  0.
         25    2    3    3    0    0 -0.62238320974E+01  0.55036397944E+02  0.52986327996E+03  0.54609002455E+03  0.11996448760E+03 0.  0.
          5    1    4    4  502    0 -0.38678505443E+02 -0.74599991803E+02  0.18573031009E+03  0.20390935154E+03  0.47000000000E+01 0. -1.
         -5    1    4    4    0  502  0.44902337540E+02  0.19563593859E+02  0.19539719416E+03  0.20149716526E+03  0.47000000000E+01 0. -1.
          5    1    5    5  503    0  0.35888389646E+02  0.76052690262E+02  0.36374792215E+03  0.37337197147E+03  0.47000000000E+01 0. -1.
         -5    1    5    5    0  503 -0.42112221743E+02 -0.21016292318E+02  0.16611535781E+03  0.17271805309E+03  0.47000000000E+01 0. -1.
<mgrwt>
<rscale>  0 0.27466609E+03</rscale>
<asrwt>0</asrwt>
<pdfrwt beam="1">  1        1 0.31158282E-02 0.27466609E+03</pdfrwt>
<pdfrwt beam="2">  1       -1 0.14326822E+00 0.27466609E+03</pdfrwt>
<totfact> 0.13761731E+03</totfact>
</mgrwt>
</event>
<event>
 9    1  0.2095749E-002  0.2760148E+03  0.7818608E-02  0.1097886E+00
         -2   -1    0    0    0  501 -0.00000000000E+00  0.00000000000E+00  0.20218013549E+03  0.20218013549E+03  0.00000000000E+00 0. -1.
          2   -1    0    0  501    0  0.00000000000E+00 -0.00000000000E+00 -0.94203347516E+02  0.94203347516E+02  0.00000000000E+00 0. -1.
         36    2    1    2    0    0  0.00000000000E+00  0.00000000000E+00  0.10797678797E+03  0.29638348300E+03  0.27601482253E+03 0.  0.
         25    2    3    3    0    0  0.15441474501E+01 -0.15129905137E+02 -0.49402480237E+01  0.11362482713E+03  0.11249398592E+03 0.  0.
         25    2    3    3    0    0 -0.15441474501E+01  0.15129905137E+02  0.11291703599E+03  0.18275865588E+03  0.14289566424E+03 0.  0.
          5    1    4    4  502    0  0.40595913475E+02 -0.46176581565E+02 -0.12585553813E+02  0.62934815807E+02  0.47000000000E+01 0. -1.
         -5    1    4    4    0  502 -0.39051766025E+02  0.31046676428E+02  0.76453057894E+01  0.50690011319E+02  0.47000000000E+01 0. -1.
          5    1    5    5  503    0  0.50936231270E+02  0.41526921705E+02  0.13604403587E+02  0.67276702351E+02  0.47000000000E+01 0.  1.
         -5    1    5    5    0  503 -0.52480378720E+02 -0.26397016568E+02  0.99312632408E+02  0.11548195353E+03  0.47000000000E+01 0.  1.
<mgrwt>
<rscale>  0 0.27601482E+03</rscale>
<asrwt>0</asrwt>
<pdfrwt beam="1">  1        2 0.14492823E-01 0.27601482E+03</pdfrwt>
<pdfrwt beam="2">  1       -2 0.31104636E-01 0.27601482E+03</pdfrwt>
<totfact> 0.38660264E+03</totfact>
</mgrwt>
</event>
<event>
 9    1  0.2095749E-002  0.2758642E+03  0.7818608E-02  0.1097969E+00
         -2   -1    0    0    0  501 -0.00000000000E+00  0.00000000000E+00  0.87250902060E+02  0.87250902060E+02  0.00000000000E+00 0.  1.
          2   -1    0    0  501    0  0.00000000000E+00 -0.00000000000E+00 -0.21805237113E+03  0.21805237113E+03  0.00000000000E+00 0.  1.
         36    2    1    2    0    0  0.35527136788E-14 -0.71054273576E-14 -0.13080146907E+03  0.30530327319E+03  0.27586421354E+03 0.  0.
         25    2    3    3    0    0  0.10395873974E+02 -0.36185569898E+02 -0.28561175476E+02  0.14005334203E+03  0.13183978233E+03 0.  0.
         25    2    3    3    0    0 -0.10395873974E+02  0.36185569898E+02 -0.10224029360E+03  0.16524993116E+03  0.12424569389E+03 0.  0.
          5    1    4    4  502    0 -0.11041361428E+02 -0.83740760837E+02 -0.20696863892E+02  0.87091198537E+02  0.47000000000E+01 0.  1.
         -5    1    4    4    0  502  0.21437235401E+02  0.47555190938E+02 -0.78643115843E+01  0.52962143494E+02  0.47000000000E+01 0.  1.
          5    1    5    5  503    0  0.44398316880E+02 -0.18474626719E+02 -0.59718132398E+02  0.76817105590E+02  0.47000000000E+01 0.  1.
         -5    1    5    5    0  503 -0.54794190853E+02  0.54660196617E+02 -0.42522161198E+02  0.88432825571E+02  0.47000000000E+01 0.  1.
<mgrwt>
<rscale>  0 0.27586421E+03</rscale>
<asrwt>0</asrwt>
<pdfrwt beam="1">  1        2 0.33546518E-01 0.27586421E+03</pdfrwt>
<pdfrwt beam="2">  1       -2 0.13423216E-01 0.27586421E+03</pdfrwt>
<totfact> 0.63299818E+03</totfact>
</mgrwt>
</event>
<event>
 9    1  0.2095749E-002  0.2747827E+03  0.7818608E-02  0.1098573E+00
          1   -1    0    0  501    0  0.00000000000E+00  0.00000000000E+00  0.66128717997E+02  0.66128717997E+02  0.00000000000E+00 0. -1.
         -1   -1    0    0    0  501 -0.00000000000E+00 -0.00000000000E+00 -0.28544912549E+03  0.28544912549E+03  0.00000000000E+00 0. -1.
         36    2    1    2    0    0  0.14210854715E-13  0.00000000000E+00 -0.21932040749E+03  0.35157784349E+03  0.27478271214E+03 0.  0.
         25    2    3    3    0    0  0.55000162797E+02  0.16999038332E+01 -0.11659845019E+03  0.17831588408E+03  0.12318055182E+03 0.  0.
         25    2    3    3    0    0 -0.55000162797E+02 -0.16999038332E+01 -0.10272195730E+03  0.17326195941E+03  0.12821855749E+03 0.  0.
          5    1    4    4  502    0 -0.87717866278E+01  0.42161149229E+02 -0.51768116697E+01  0.43627928257E+02  0.47000000000E+01 0. -1.
         -5    1    4    4    0  502  0.63771949425E+02 -0.40461245396E+02 -0.11142163852E+03  0.13468795582E+03  0.47000000000E+01 0. -1.
          5    1    5    5  503    0 -0.90443186615E+02  0.24344323307E+02 -0.57504090686E+02  0.11000648403E+03  0.47000000000E+01 0.  1.
         -5    1    5    5    0  503  0.35443023818E+02 -0.26044227140E+02 -0.45217866618E+02  0.63255475385E+02  0.47000000000E+01 0.  1.
<mgrwt>
<rscale>  0 0.27478271E+03</rscale>
<asrwt>0</asrwt>
<pdfrwt beam="1">  1        1 0.10173649E-01 0.27478271E+03</pdfrwt>
<pdfrwt beam="2">  1       -1 0.43915249E-01 0.27478271E+03</pdfrwt>
<totfact> 0.32558309E+03</totfact>
</mgrwt>
</event>
<event>
 9    1  0.2095749E-002  0.2742741E+03  0.7818608E-02  0.1098858E+00
         -1   -1    0    0    0  501 -0.00000000000E+00  0.00000000000E+00  0.14000094662E+02  0.14000094662E+02  0.00000000000E+00 0. -1.
          1   -1    0    0  501    0  0.00000000000E+00 -0.00000000000E+00 -0.13433173884E+04  0.13433173884E+04  0.00000000000E+00 0. -1.
         36    2    1    2    0    0  0.35527136788E-14  0.14210854715E-13 -0.13293172937E+04  0.13573174830E+04  0.27427410084E+03 0.  0.
         25    2    3    3    0    0  0.24213872845E+02  0.64740889230E+02 -0.35275360012E+03  0.37038420716E+03  0.89284176305E+02 0.  0.
         25    2    3    3    0    0 -0.24213872845E+02 -0.64740889230E+02 -0.97656369358E+03  0.98693327587E+03  0.12483168274E+03 0.  0.
          5    1    4    4  502    0  0.43351020991E+01 -0.22456684873E+02 -0.74458476046E+02  0.78033649542E+02  0.47000000000E+01 0. -1.
         -5    1    4    4    0  502  0.19878770746E+02  0.87197574103E+02 -0.27829512408E+03  0.29235055762E+03  0.47000000000E+01 0. -1.
          5    1    5    5  503    0 -0.36408395589E+02 -0.63117453445E+02 -0.25496189857E+03  0.26521131937E+03  0.47000000000E+01 0.  1.
         -5    1    5    5    0  503  0.12194522744E+02 -0.16234357849E+01 -0.72160179501E+03  0.72172195650E+03  0.47000000000E+01 0.  1.
<mgrwt>
<rscale>  0 0.27427410E+03</rscale>
<asrwt>0</asrwt>
<pdfrwt beam="1">  1        1 0.20666420E+00 0.27427410E+03</pdfrwt>
<pdfrwt beam="2">  1       -1 0.21538608E-02 0.27427410E+03</pdfrwt>
<totfact> 0.56065706E+03</totfact>
</mgrwt>
</event>
<event>
 9    1  0.2095749E-002  0.2748567E+03  0.7818608E-02  0.1098532E+00
         -2   -1    0    0    0  501 -0.00000000000E+00  0.00000000000E+00  0.11472700687E+02  0.11472700687E+02  0.00000000000E+00 0.  1.
          2   -1    0    0  501    0  0.00000000000E+00 -0.00000000000E+00 -0.16462166388E+04  0.16462166388E+04  0.00000000000E+00 0.  1.
         36    2    1    2    0    0  0.71054273576E-14  0.00000000000E+00 -0.16347439381E+04  0.16576893395E+04  0.27485669549E+03 0.  0.
         25    2    3    3    0    0 -0.47881864988E+02 -0.29710212367E+02 -0.75332733765E+03  0.76571196320E+03  0.12504944311E+03 0.  0.
         25    2    3    3    0    0  0.47881864988E+02  0.29710212367E+02 -0.88141660050E+03  0.89197737632E+03  0.12471185399E+03 0.  0.
          5    1    4    4  502    0  0.27031848715E+02 -0.24292364445E+01 -0.48424091778E+03  0.48502368858E+03  0.47000000000E+01 0. -1.
         -5    1    4    4    0  502 -0.74913713703E+02 -0.27280975922E+02 -0.26908641987E+03  0.28068827461E+03  0.47000000000E+01 0. -1.
          5    1    5    5  503    0  0.65563182166E+02  0.57714218905E+02 -0.40256787445E+03  0.41196170387E+03  0.47000000000E+01 0. -1.
         -5    1    5    5    0  503 -0.17681317177E+02 -0.28004006538E+02 -0.47884872605E+03  0.48001567245E+03  0.47000000000E+01 0. -1.
<mgrwt>
<rscale>  0 0.27485670E+03</rscale>
<asrwt>0</asrwt>
<pdfrwt beam="1">  1        2 0.25326417E+00 0.27485670E+03</pdfrwt>
<pdfrwt beam="2">  1       -2 0.17650304E-02 0.27485670E+03</pdfrwt>
<totfact> 0.10598152E+04</totfact>
</mgrwt>
</event>
<event>
 9    1  0.2095749E-002  0.2751116E+03  0.7818608E-02  0.1098389E+00
         -2   -1    0    0    0  501 -0.00000000000E+00  0.00000000000E+00  0.19066287576E+02  0.19066287576E+02  0.00000000000E+00 0. -1.
          2   -1    0    0  501    0  0.00000000000E+00 -0.00000000000E+00 -0.99241095029E+03  0.99241095029E+03  0.00000000000E+00 0. -1.
         36    2    1    2    0    0 -0.71054273576E-14  0.00000000000E+00 -0.97334466271E+03  0.10114772379E+04  0.27511155971E+03 0.  0.
         25    2    3    3    0    0  0.36448853727E+02  0.39812770153E+01 -0.29734345730E+03  0.32456208362E+03  0.12483206727E+03 0.  0.
         25    2    3    3    0    0 -0.36448853727E+02 -0.39812770153E+01 -0.67600120541E+03  0.68691515424E+03  0.11632037614E+03 0.  0.
          5    1    4    4  502    0  0.44709563026E+02 -0.52505822209E+02 -0.20009450621E+03  0.21169720784E+03  0.47000000000E+01 0. -1.
         -5    1    4    4    0  502 -0.82607092993E+01  0.56487099224E+02 -0.97248951096E+02  0.11286487579E+03  0.47000000000E+01 0. -1.
          5    1    5    5  503    0 -0.18352797395E+02  0.15891514258E+02 -0.24387613469E+02  0.34730549785E+02  0.47000000000E+01 0.  1.
         -5    1    5    5    0  503 -0.18096056332E+02 -0.19872791274E+02 -0.65161359194E+03  0.65218460446E+03  0.47000000000E+01 0.  1.
<mgrwt>
<rscale>  0 0.27511156E+03</rscale>
<asrwt>0</asrwt>
<pdfrwt beam="1">  1        2 0.15267860E+00 0.27511156E+03</pdfrwt>
<pdfrwt beam="2">  1       -2 0.29332752E-02 0.27511156E+03</pdfrwt>
<totfact> 0.11597107E+04</totfact>
</mgrwt>
</event>
<event>
 9    1  0.2095749E-002  0.2735504E+03  0.7818608E-02  0.1099265E+00
         -1   -1    0    0    0  501 -0.00000000000E+00  0.00000000000E+00  0.39283229033E+03  0.39283229033E+03  0.00000000000E+00 0.  1.
          1   -1    0    0  501    0  0.00000000000E+00 -0.00000000000E+00 -0.47622005730E+02  0.47622005730E+02  0.00000000000E+00 0.  1.
         36    2    1    2    0    0  0.35527136788E-14 -0.71054273576E-14  0.34521028460E+03  0.44045429606E+03  0.27355044566E+03 0.  0.
         25    2    3    3    0    0  0.16819209501E+02 -0.33549532419E+02  0.12000436673E+03  0.18095528089E+03  0.13013573189E+03 0.  0.
         25    2    3    3    0    0 -0.16819209501E+02  0.33549532419E+02  0.22520591786E+03  0.25949901517E+03  0.12334332774E+03 0.  0.
          5    1    4    4  502    0 -0.47254955460E+02  0.17848935631E+02  0.62874849314E+02  0.80789553749E+02  0.47000000000E+01 0.  1.
         -5    1    4    4    0  502  0.64074164961E+02 -0.51398468050E+02  0.57129517418E+02  0.10016572714E+03  0.47000000000E+01 0.  1.
          5    1    5    5  503    0 -0.21584580034E+02 -0.44567793861E+02  0.73820081278E+02  0.89015036621E+02  0.47000000000E+01 0. -1.
         -5    1    5    5    0  503  0.47653705326E+01  0.78117326279E+02  0.15138583659E+03  0.17048397854E+03  0.47000000000E+01 0. -1.
<mgrwt>
<rscale>  0 0.27355045E+03</rscale>
<asrwt>0</asrwt>
<pdfrwt beam="1">  1        1 0.73264627E-02 0.27355045E+03</pdfrwt>
<pdfrwt beam="2">  1       -1 0.60435735E-01 0.27355045E+03</pdfrwt>
<totfact> 0.28021563E+03</totfact>
</mgrwt>
</event>
<event>
 9    1  0.2095749E-002  0.2747481E+03  0.7818608E-02  0.1098592E+00
          1   -1    0    0  501    0  0.00000000000E+00  0.00000000000E+00  0.15939169521E+04  0.15939169521E+04  0.00000000000E+00 0.  1.
         -1   -1    0    0    0  501 -0.00000000000E+00 -0.00000000000E+00 -0.11839781939E+02  0.11839781939E+02  0.00000000000E+00 0.  1.
         36    2    1    2    0    0 -0.71054273576E-14 -0.71054273576E-14  0.15820771702E+04  0.16057567341E+04  0.27474809657E+03 0.  0.
         25    2    3    3    0    0 -0.16180844306E+02 -0.47108962530E+02  0.60141858607E+03  0.61608507839E+03  0.12399771804E+03 0.  0.
         25    2    3    3    0    0  0.16180844306E+02  0.47108962530E+02  0.98065858414E+03  0.98967165569E+03  0.12360280482E+03 0.  0.
          5    1    4    4  502    0 -0.14444810875E+02  0.41718777756E+02  0.21875174237E+03  0.22321183609E+03  0.47000000000E+01 0. -1.
         -5    1    4    4    0  502 -0.17360334309E+01 -0.88827740286E+02  0.38266684370E+03  0.39287324231E+03  0.47000000000E+01 0. -1.
          5    1    5    5  503    0 -0.23193574581E+02  0.58098029214E+02  0.24638172677E+03  0.25424273478E+03  0.47000000000E+01 0.  1.
         -5    1    5    5    0  503  0.39374418886E+02 -0.10989066684E+02  0.73427685737E+03  0.73542892091E+03  0.47000000000E+01 0.  1.
<mgrwt>
<rscale>  0 0.27474810E+03</rscale>
<asrwt>0</asrwt>
<pdfrwt beam="1">  1        1 0.24521782E+00 0.27474810E+03</pdfrwt>
<pdfrwt beam="2">  1       -1 0.18215062E-02 0.27474810E+03</pdfrwt>
<totfact> 0.48775128E+03</totfact>
</mgrwt>
</event>
<event>
 9    1  0.2095749E-002  0.2779120E+03  0.7818608E-02  0.1096835E+00
         -2   -1    0    0    0  501 -0.00000000000E+00  0.00000000000E+00  0.10554159199E+02  0.10554159199E+02  0.00000000000E+00 0. -1.
          2   -1    0    0  501    0  0.00000000000E+00 -0.00000000000E+00 -0.18294935594E+04  0.18294935594E+04  0.00000000000E+00 0. -1.
         36    2    1    2    0    0  0.71054273576E-14  0.14210854715E-13 -0.18189394002E+04  0.18400477186E+04  0.27791197368E+03 0.  0.
         25    2    3    3    0    0  0.25943278415E+02 -0.54668392698E+02 -0.96852474451E+03  0.97880314177E+03  0.12788167482E+03 0.  0.
         25    2    3    3    0    0 -0.25943278415E+02  0.54668392698E+02 -0.85041465566E+03  0.86124457680E+03  0.12196494434E+03 0.  0.
          5    1    4    4  502    0  0.41547622008E+02  0.32361264522E+02 -0.34836546062E+03  0.35235499215E+03  0.47000000000E+01 0.  1.
         -5    1    4    4    0  502 -0.15604343593E+02 -0.87029657220E+02 -0.62015928389E+03  0.62644814963E+03  0.47000000000E+01 0.  1.
          5    1    5    5  503    0 -0.23593376719E+02  0.85324059326E+02 -0.39760490820E+03  0.40736788723E+03  0.47000000000E+01 0. -1.
         -5    1    5    5    0  503 -0.23499016963E+01 -0.30655666628E+02 -0.45280974746E+03  0.45387668957E+03  0.47000000000E+01 0. -1.
<mgrwt>
<rscale>  0 0.27791197E+03</rscale>
<asrwt>0</asrwt>
<pdfrwt beam="1">  1        2 0.28146023E+00 0.27791197E+03</pdfrwt>
<pdfrwt beam="2">  1       -2 0.16237186E-02 0.27791197E+03</pdfrwt>
<totfact> 0.95941591E+03</totfact>
</mgrwt>
</event>
<event>
 9    1  0.2095749E-002  0.2748947E+03  0.7818608E-02  0.1098510E+00
         -2   -1    0    0    0  501 -0.00000000000E+00  0.00000000000E+00  0.20126403783E+03  0.20126403783E+03  0.00000000000E+00 0. -1.
          2   -1    0    0  501    0  0.00000000000E+00 -0.00000000000E+00 -0.93865592371E+02  0.93865592371E+02  0.00000000000E+00 0. -1.
         36    2    1    2    0    0  0.71054273576E-14  0.00000000000E+00  0.10739844546E+03  0.29512963021E+03  0.27489465716E+03 0.  0.
         25    2    3    3    0    0 -0.27393862472E+00 -0.47563778265E+02  0.91562711373E+02  0.16087425007E+03  0.12342773665E+03 0.  0.
         25    2    3    3    0    0  0.27393862472E+00  0.47563778265E+02  0.15835734090E+02  0.13425538014E+03  0.12454456462E+03 0.  0.
          5    1    4    4  502    0  0.49664168996E+02 -0.30275877744E+02  0.90654181554E+02  0.10781200809E+03  0.47000000000E+01 0. -1.
         -5    1    4    4    0  502 -0.49938107621E+02 -0.17287900521E+02  0.90852981881E+00  0.53062241977E+02  0.47000000000E+01 0. -1.
          5    1    5    5  503    0  0.58859498753E+02  0.46329827772E+01  0.16447005847E+02  0.61469497510E+02  0.47000000000E+01 0. -1.
         -5    1    5    5    0  503 -0.58585560128E+02  0.42930795488E+02 -0.61127175757E+00  0.72785882627E+02  0.47000000000E+01 0. -1.
<mgrwt>
<rscale>  0 0.27489466E+03</rscale>
<asrwt>0</asrwt>
<pdfrwt beam="1">  1        2 0.14440860E-01 0.27489466E+03</pdfrwt>
<pdfrwt beam="2">  1       -2 0.30963698E-01 0.27489466E+03</pdfrwt>
<totfact> 0.39144213E+03</totfact>
</mgrwt>
</event>
<event>
 9    1  0.2095749E-002  0.2757688E+03  0.7818608E-02  0.1098023E+00
          2   -1    0    0  501    0  0.00000000000E+00  0.00000000000E+00  0.14491512356E+03  0.14491512356E+03  0.00000000000E+00 0. -1.
         -2   -1    0    0    0  501 -0.00000000000E+00 -0.00000000000E+00 -0.13119475927E+03  0.13119475927E+03  0.00000000000E+00 0. -1.
         36    2    1    2    0    0  0.71054273576E-14  0.00000000000E+00  0.13720364291E+02  0.27610988284E+03  0.27576877815E+03 0.  0.
         25    2    3    3    0    0  0.43619588279E+02  0.14310231957E+02 -0.32570522086E+02  0.13524370619E+03  0.12297385875E+03 0.  0.
         25    2    3    3    0    0 -0.43619588279E+02 -0.14310231957E+02  0.46290886377E+02  0.14086617664E+03  0.12487186369E+03 0.  0.
          5    1    4    4  502    0  0.26067883701E+02  0.60834372535E+02 -0.49199633911E+02  0.82601751915E+02  0.47000000000E+01 0.  1.
         -5    1    4    4    0  502  0.17551704577E+02 -0.46524140579E+02  0.16629111826E+02  0.52641954278E+02  0.47000000000E+01 0.  1.
          5    1    5    5  503    0 -0.17129816239E+02  0.87161645607E+01  0.85659112557E+02  0.87914593175E+02  0.47000000000E+01 0.  1.
         -5    1    5    5    0  503 -0.26489772039E+02 -0.23026396517E+02 -0.39368226180E+02  0.52951583469E+02  0.47000000000E+01 0.  1.
<mgrwt>
<rscale>  0 0.27576878E+03</rscale>
<asrwt>0</asrwt>
<pdfrwt beam="1">  1        2 0.22294634E-01 0.27576878E+03</pdfrwt>
<pdfrwt beam="2">  1       -2 0.20183809E-01 0.27576878E+03</pdfrwt>
<totfact> 0.50359782E+03</totfact>
</mgrwt>
</event>
<event>
 9    1  0.2095749E-002  0.2744690E+03  0.7818608E-02  0.1098749E+00
         -1   -1    0    0    0  501 -0.00000000000E+00  0.00000000000E+00  0.29998591560E+02  0.29998591560E+02  0.00000000000E+00 0.  1.
          1   -1    0    0  501    0  0.00000000000E+00 -0.00000000000E+00 -0.62780623689E+03  0.62780623689E+03  0.00000000000E+00 0.  1.
         36    2    1    2    0    0  0.00000000000E+00  0.00000000000E+00 -0.59780764533E+03  0.65780482846E+03  0.27446896276E+03 0.  0.
         25    2    3    3    0    0 -0.29810363546E+01  0.36075454920E+02 -0.20543427746E+03  0.24382231717E+03  0.12623690019E+03 0.  0.
         25    2    3    3    0    0  0.29810363546E+01 -0.36075454920E+02 -0.39237336787E+03  0.41398251128E+03  0.12694224990E+03 0.  0.
          5    1    4    4  502    0  0.56944848399E+02 -0.44985361416E+01 -0.72786867427E+02  0.92644323391E+02  0.47000000000E+01 0. -1.
         -5    1    4    4    0  502 -0.59925884754E+02  0.40573991062E+02 -0.13264741004E+03  0.15117799378E+03  0.47000000000E+01 0. -1.
          5    1    5    5  503    0 -0.35567166575E+02  0.27245855485E+02 -0.70614239999E+02  0.83760497073E+02  0.47000000000E+01 0.  1.
         -5    1    5    5    0  503  0.38548202929E+02 -0.63321310406E+02 -0.32175912787E+03  0.33022201421E+03  0.47000000000E+01 0.  1.
<mgrwt>
<rscale>  0 0.27446896E+03</rscale>
<asrwt>0</asrwt>
<pdfrwt beam="1">  1        1 0.96585567E-01 0.27446896E+03</pdfrwt>
<pdfrwt beam="2">  1       -1 0.46151683E-02 0.27446896E+03</pdfrwt>
<totfact> 0.65267715E+03</totfact>
</mgrwt>
</event>
<event>
 9    1  0.2095749E-002  0.2744203E+03  0.7818608E-02  0.1098776E+00
         -3   -1    0    0    0  501 -0.00000000000E+00  0.00000000000E+00  0.10981262792E+03  0.10981262792E+03  0.00000000000E+00 0. -1.
          3   -1    0    0  501    0  0.00000000000E+00 -0.00000000000E+00 -0.17144320132E+03  0.17144320132E+03  0.00000000000E+00 0. -1.
         36    2    1    2    0    0  0.00000000000E+00  0.00000000000E+00 -0.61630573398E+02  0.28125582924E+03  0.27442032342E+03 0.  0.
         25    2    3    3    0    0  0.47527298829E+02 -0.37361677125E+02 -0.39046659911E+02  0.14328324070E+03  0.12389796756E+03 0.  0.
         25    2    3    3    0    0 -0.47527298829E+02  0.37361677125E+02 -0.22583913487E+02  0.13797258853E+03  0.12194942799E+03 0.  0.
          5    1    4    4  502    0 -0.95672546361E+01  0.39573749076E+02 -0.40783241953E+01  0.41186608327E+02  0.47000000000E+01 0.  1.
         -5    1    4    4    0  502  0.57094553465E+02 -0.76935426201E+02 -0.34968335716E+02  0.10209663238E+03  0.47000000000E+01 0.  1.
          5    1    5    5  503    0 -0.86249407167E+02  0.11698564411E+02 -0.26532149028E+02  0.91114551955E+02  0.47000000000E+01 0.  1.
         -5    1    5    5    0  503  0.38722108337E+02  0.25663112714E+02  0.39482355404E+01  0.46858036580E+02  0.47000000000E+01 0.  1.
<mgrwt>
<rscale>  0 0.27442032E+03</rscale>
<asrwt>0</asrwt>
<pdfrwt beam="1">  1        3 0.26375877E-01 0.27442032E+03</pdfrwt>
<pdfrwt beam="2">  1       -3 0.16894250E-01 0.27442032E+03</pdfrwt>
<totfact> 0.10461850E+03</totfact>
</mgrwt>
</event>
<event>
 9    1  0.2095749E-002  0.2749872E+03  0.7818608E-02  0.1098459E+00
         -2   -1    0    0    0  501 -0.00000000000E+00  0.00000000000E+00  0.44693831342E+02  0.44693831342E+02  0.00000000000E+00 0. -1.
          2   -1    0    0  501    0  0.00000000000E+00 -0.00000000000E+00 -0.42297750302E+03  0.42297750302E+03  0.00000000000E+00 0. -1.
         36    2    1    2    0    0  0.00000000000E+00  0.00000000000E+00 -0.37828367168E+03  0.46767133436E+03  0.27498716466E+03 0.  0.
         25    2    3    3    0    0  0.22487045402E+02 -0.40671828967E+02 -0.15462911297E+03  0.20476329120E+03  0.12592846367E+03 0.  0.
         25    2    3    3    0    0 -0.22487045402E+02  0.40671828967E+02 -0.22365455871E+03  0.26290804316E+03  0.13015149883E+03 0.  0.
          5    1    4    4  502    0  0.69625491871E+01 -0.21603832757E+02 -0.17247127353E+03  0.17402193216E+03  0.47000000000E+01 0. -1.
         -5    1    4    4    0  502  0.15524496215E+02 -0.19067996210E+02  0.17842160556E+02  0.30741359038E+02  0.47000000000E+01 0. -1.
          5    1    5    5  503    0 -0.49907639489E+02  0.84705999708E+01 -0.19637215353E+02  0.54499851101E+02  0.47000000000E+01 0.  1.
         -5    1    5    5    0  503  0.27420594087E+02  0.32201228996E+02 -0.20401734335E+03  0.20840819206E+03  0.47000000000E+01 0.  1.
<mgrwt>
<rscale>  0 0.27498716E+03</rscale>
<asrwt>0</asrwt>
<pdfrwt beam="1">  1        2 0.65073464E-01 0.27498716E+03</pdfrwt>
<pdfrwt beam="2">  1       -2 0.68759739E-02 0.27498716E+03</pdfrwt>
<totfact> 0.89359191E+03</totfact>
</mgrwt>
</event>
<event>
 9    1  0.2095749E-002  0.2753981E+03  0.7818608E-02  0.1098229E+00
         -1   -1    0    0    0  501 -0.00000000000E+00  0.00000000000E+00  0.33173839062E+02  0.33173839062E+02  0.00000000000E+00 0.  1.
          1   -1    0    0  501    0  0.00000000000E+00 -0.00000000000E+00 -0.57156561252E+03  0.57156561252E+03  0.00000000000E+00 0.  1.
         36    2    1    2    0    0 -0.71054273576E-14 -0.10658141036E-13 -0.53839177346E+03  0.60473945158E+03  0.27539808019E+03 0.  0.
         25    2    3    3    0    0 -0.45034922172E+02  0.30331163357E+02 -0.30937955660E+03  0.33797382704E+03  0.12474964543E+03 0.  0.
         25    2    3    3    0    0  0.45034922172E+02 -0.30331163357E+02 -0.22901221686E+03  0.26676562455E+03  0.12557539283E+03 0.  0.
          5    1    4    4  502    0 -0.28835286706E+02  0.38864462168E+02 -0.31462223478E+03  0.31835697071E+03  0.47000000000E+01 0. -1.
         -5    1    4    4    0  502 -0.16199635466E+02 -0.85332988111E+01  0.52426781809E+01  0.19616856331E+02  0.47000000000E+01 0. -1.
          5    1    5    5  503    0  0.34276089156E+02  0.45802564544E+02 -0.12285892528E+03  0.13560652908E+03  0.47000000000E+01 0. -1.
         -5    1    5    5    0  503  0.10758833016E+02 -0.76133727901E+02 -0.10615329158E+03  0.13115909547E+03  0.47000000000E+01 0. -1.
<mgrwt>
<rscale>  0 0.27539808E+03</rscale>
<asrwt>0</asrwt>
<pdfrwt beam="1">  1        1 0.87933157E-01 0.27539808E+03</pdfrwt>
<pdfrwt beam="2">  1       -1 0.51036683E-02 0.27539808E+03</pdfrwt>
<totfact> 0.63964365E+03</totfact>
</mgrwt>
</event>
<event>
 8    1  0.2095749E-002  0.3149316E+03  0.7818608E-02  0.1078006E+00
         -1   -1    0    0    0  501 -0.00000000000E+00  0.00000000000E+00  0.15691175022E+03  0.15691175022E+03  0.00000000000E+00 0. -1.
          1   -1    0    0  501    0  0.00000000000E+00 -0.00000000000E+00 -0.15802183465E+03  0.15802183465E+03  0.00000000000E+00 0. -1.
         25    2    1    2    0    0  0.59703462689E+02  0.71717603986E+02  0.35922066055E+01  0.16027997633E+03  0.13026453349E+03 0.  0.
         25    2    1    2    0    0 -0.59703462689E+02 -0.71717603986E+02 -0.47022910323E+01  0.15465360855E+03  0.12323842306E+03 0.  0.
          5    1    3    3  502    0  0.73949774155E+02  0.82311350714E+02  0.41409352349E+02  0.11823938437E+03  0.47000000000E+01 0.  1.
         -5    1    3    3    0  502 -0.14246311465E+02 -0.10593746728E+02 -0.37817145743E+02  0.42040591959E+02  0.47000000000E+01 0.  1.
          5    1    4    4  503    0  0.10541691731E+02  0.98755650727E+01 -0.38761523446E+02  0.41631715673E+02  0.47000000000E+01 0. -1.
         -5    1    4    4    0  503 -0.70245154420E+02 -0.81593169059E+02  0.34059232413E+02  0.11302189288E+03  0.47000000000E+01 0. -1.
<mgrwt>
<rscale>  0 0.31493163E+03</rscale>
<asrwt>0</asrwt>
<pdfrwt beam="1">  1        1 0.24311051E-01 0.31493163E+03</pdfrwt>
<pdfrwt beam="2">  1       -1 0.24140269E-01 0.31493163E+03</pdfrwt>
<totfact> 0.29288158E+03</totfact>
</mgrwt>
</event>
<event>
 9    1  0.2095749E-002  0.2775771E+03  0.7818608E-02  0.1097020E+00
         -2   -1    0    0    0  501 -0.00000000000E+00  0.00000000000E+00  0.38377981160E+02  0.38377981160E+02  0.00000000000E+00 0. -1.
          2   -1    0    0  501    0  0.00000000000E+00 -0.00000000000E+00 -0.50190921097E+03  0.50190921097E+03  0.00000000000E+00 0. -1.
         36    2    1    2    0    0  0.71054273576E-14  0.00000000000E+00 -0.46353122981E+03  0.54028719213E+03  0.27757710455E+03 0.  0.
         25    2    3    3    0    0 -0.29671754897E+02 -0.44104368206E+02 -0.17655405124E+03  0.22184141930E+03  0.12335588343E+03 0.  0.
         25    2    3    3    0    0  0.29671754897E+02  0.44104368206E+02 -0.28697717858E+03  0.31844577283E+03  0.12738210579E+03 0.  0.
          5    1    4    4  502    0 -0.61983132616E+02 -0.66316068052E+02 -0.96441834384E+02  0.13252489212E+03  0.47000000000E+01 0.  1.
         -5    1    4    4    0  502  0.32311377719E+02  0.22211699846E+02 -0.80112216852E+02  0.89316527189E+02  0.47000000000E+01 0.  1.
          5    1    5    5  503    0  0.56612265632E+02  0.51915299801E+02 -0.27825004781E+03  0.28869590590E+03  0.47000000000E+01 0.  1.
         -5    1    5    5    0  503 -0.26940510734E+02 -0.78109315954E+01 -0.87271307613E+01  0.29749866930E+02  0.47000000000E+01 0.  1.
<mgrwt>
<rscale>  0 0.27757710E+03</rscale>
<asrwt>0</asrwt>
<pdfrwt beam="1">  1        2 0.77216803E-01 0.27757710E+03</pdfrwt>
<pdfrwt beam="2">  1       -2 0.59043047E-02 0.27757710E+03</pdfrwt>
<totfact> 0.93550757E+03</totfact>
</mgrwt>
</event>
<event>
 8    1  0.2095749E-002  0.3007947E+03  0.7818608E-02  0.1084844E+00
          2   -1    0    0  501    0  0.00000000000E+00  0.00000000000E+00  0.41820285218E+03  0.41820285218E+03  0.00000000000E+00 0. -1.
         -2   -1    0    0    0  501 -0.00000000000E+00 -0.00000000000E+00 -0.54087064444E+02  0.54087064444E+02  0.00000000000E+00 0. -1.
         25    2    1    2    0    0  0.69422724148E+02  0.31873468954E+01  0.10440085940E+03  0.17541597537E+03  0.12264400173E+03 0.  0.
         25    2    1    2    0    0 -0.69422724148E+02 -0.31873468954E+01  0.25971492834E+03  0.29687394126E+03  0.12590718483E+03 0.  0.
          5    1    3    3  502    0  0.85565460250E+02 -0.18265546749E+01  0.18429706235E+02  0.87672848486E+02  0.47000000000E+01 0.  1.
         -5    1    3    3    0  502 -0.16142736102E+02  0.50139015702E+01  0.85971153168E+02  0.87743126881E+02  0.47000000000E+01 0.  1.
          5    1    4    4  503    0 -0.10303208163E+03  0.15607912862E+02  0.20180870525E+03  0.22717407490E+03  0.47000000000E+01 0. -1.
         -5    1    4    4    0  503  0.33609357481E+02 -0.18795259758E+02  0.57906223084E+02  0.69699866367E+02  0.47000000000E+01 0. -1.
<mgrwt>
<rscale>  0 0.30079471E+03</rscale>
<asrwt>0</asrwt>
<pdfrwt beam="1">  1        2 0.64338898E-01 0.30079471E+03</pdfrwt>
<pdfrwt beam="2">  1       -2 0.83210871E-02 0.30079471E+03</pdfrwt>
<totfact> 0.67415429E+03</totfact>
</mgrwt>
</event>
<event>
 8    1  0.2095749E-002  0.2974850E+03  0.7818608E-02  0.1086505E+00
          2   -1    0    0  501    0  0.00000000000E+00  0.00000000000E+00  0.61257127996E+02  0.61257127996E+02  0.00000000000E+00 0.  1.
         -2   -1    0    0    0  501 -0.00000000000E+00 -0.00000000000E+00 -0.36117163606E+03  0.36117163606E+03  0.00000000000E+00 0.  1.
         25    2    1    2    0    0 -0.19001467273E+00 -0.54478775518E+02 -0.63020005599E+02  0.14830320302E+03  0.12269615248E+03 0.  0.
         25    2    1    2    0    0  0.19001467273E+00  0.54478775518E+02 -0.23689450246E+03  0.27412556104E+03  0.12671955188E+03 0.  0.
          5    1    3    3  502    0 -0.41544496198E+02 -0.66231471486E+02 -0.86054716929E+01  0.78795286169E+02  0.47000000000E+01 0. -1.
         -5    1    3    3    0  502  0.41354481525E+02  0.11752695968E+02 -0.54414533906E+02  0.69507916851E+02  0.47000000000E+01 0. -1.
          5    1    4    4  503    0  0.27163341453E+02  0.82621637296E+02 -0.10453779055E+03  0.13606771006E+03  0.47000000000E+01 0.  1.
         -5    1    4    4    0  503 -0.26973326780E+02 -0.28142861778E+02 -0.13235671191E+03  0.13805785097E+03  0.47000000000E+01 0.  1.
<mgrwt>
<rscale>  0 0.29748504E+03</rscale>
<asrwt>0</asrwt>
<pdfrwt beam="1">  1        2 0.94241736E-02 0.29748504E+03</pdfrwt>
<pdfrwt beam="2">  1       -2 0.55564867E-01 0.29748504E+03</pdfrwt>
<totfact> 0.21408955E+03</totfact>
</mgrwt>
</event>
<event>
 9    1  0.2095749E-002  0.2746236E+03  0.7818608E-02  0.1098662E+00
          1   -1    0    0  501    0  0.00000000000E+00  0.00000000000E+00  0.15630599118E+04  0.15630599118E+04  0.00000000000E+00 0.  1.
         -1   -1    0    0    0  501 -0.00000000000E+00 -0.00000000000E+00 -0.12062576614E+02  0.12062576614E+02  0.00000000000E+00 0.  1.
         36    2    1    2    0    0 -0.35527136788E-14  0.00000000000E+00  0.15509973352E+04  0.15751224884E+04  0.27462359650E+03 0.  0.
         25    2    3    3    0    0 -0.22688967245E+02 -0.12713888147E+01  0.11024034009E+04  0.11098650403E+04  0.12645451222E+03 0.  0.
         25    2    3    3    0    0  0.22688967245E+02  0.12713888147E+01  0.44859393427E+03  0.46525744812E+03  0.12129125896E+03 0.  0.
          5    1    4    4  502    0  0.28111158177E+02 -0.40914010757E+02  0.24452243586E+03  0.24955461352E+03  0.47000000000E+01 0.  1.
         -5    1    4    4    0  502 -0.50800125422E+02  0.39642621943E+02  0.85788096506E+03  0.86031042678E+03  0.47000000000E+01 0.  1.
          5    1    5    5  503    0 -0.61228144808E+00 -0.35139909828E+02  0.39338843643E+03  0.39498321492E+03  0.47000000000E+01 0. -1.
         -5    1    5    5    0  503  0.23301248693E+02  0.36411298643E+02  0.55205497836E+02  0.70274233193E+02  0.47000000000E+01 0. -1.
<mgrwt>
<rscale>  0 0.27462360E+03</rscale>
<asrwt>0</asrwt>
<pdfrwt beam="1">  1        1 0.24047059E+00 0.27462360E+03</pdfrwt>
<pdfrwt beam="2">  1       -1 0.18557823E-02 0.27462360E+03</pdfrwt>
<totfact> 0.49736583E+03</totfact>
</mgrwt>
</event>
<event>
 9    1  0.2095749E-002  0.2753415E+03  0.7818608E-02  0.1098261E+00
          2   -1    0    0  501    0  0.00000000000E+00  0.00000000000E+00  0.32374121282E+03  0.32374121282E+03  0.00000000000E+00 0. -1.
         -2   -1    0    0    0  501 -0.00000000000E+00 -0.00000000000E+00 -0.58544418158E+02  0.58544418158E+02  0.00000000000E+00 0. -1.
         36    2    1    2    0    0  0.00000000000E+00  0.00000000000E+00  0.26519679466E+03  0.38228563097E+03  0.27534154019E+03 0.  0.
         25    2    3    3    0    0  0.71821607341E+01  0.36406013927E+02  0.18865692889E+03  0.22976856292E+03  0.12579814946E+03 0.  0.
         25    2    3    3    0    0 -0.71821607341E+01 -0.36406013927E+02  0.76539865771E+02  0.15251706805E+03  0.12659432733E+03 0.  0.
          5    1    4    4  502    0  0.35552347373E+02 -0.33027245144E+02  0.11329064150E+03  0.12333542791E+03  0.47000000000E+01 0. -1.
         -5    1    4    4    0  502 -0.28370186639E+02  0.69433259071E+02  0.75366287387E+02  0.10643313502E+03  0.47000000000E+01 0. -1.
          5    1    5    5  503    0  0.21245331471E+02 -0.82579628832E+01 -0.30374967554E+02  0.38265999454E+02  0.47000000000E+01 0.  1.
         -5    1    5    5    0  503 -0.28427492205E+02 -0.28148051044E+02  0.10691483333E+03  0.11425106860E+03  0.47000000000E+01 0.  1.
<mgrwt>
<rscale>  0 0.27534154E+03</rscale>
<asrwt>0</asrwt>
<pdfrwt beam="1">  1        2 0.49806339E-01 0.27534154E+03</pdfrwt>
<pdfrwt beam="2">  1       -2 0.90068338E-02 0.27534154E+03</pdfrwt>
<totfact> 0.78324731E+03</totfact>
</mgrwt>
</event>
<event>
 9    1  0.2095749E-002  0.2755189E+03  0.7818608E-02  0.1098162E+00
          2   -1    0    0  501    0  0.00000000000E+00  0.00000000000E+00  0.75950249191E+03  0.75950249191E+03  0.00000000000E+00 0. -1.
         -2   -1    0    0    0  501 -0.00000000000E+00 -0.00000000000E+00 -0.24986966832E+02  0.24986966832E+02  0.00000000000E+00 0. -1.
         36    2    1    2    0    0 -0.53290705182E-14  0.71054273576E-14  0.73451552508E+03  0.78448945875E+03  0.27551888192E+03 0.  0.
         25    2    3    3    0    0 -0.46082056674E+01  0.33842752209E+02  0.44419288389E+03  0.46667608056E+03  0.13897006379E+03 0.  0.
         25    2    3    3    0    0  0.46082056674E+01 -0.33842752209E+02  0.29032264119E+03  0.31781337818E+03  0.12470581353E+03 0.  0.
          5    1    4    4  502    0  0.60611801536E+02  0.28958694817E+02  0.31113539589E+03  0.31833900337E+03  0.47000000000E+01 0.  1.
         -5    1    4    4    0  502 -0.65220007204E+02  0.48840573921E+01  0.13305748801E+03  0.14833707719E+03  0.47000000000E+01 0.  1.
          5    1    5    5  503    0 -0.64725734195E+01 -0.67895833258E+02  0.83766612798E+02  0.10812341929E+03  0.47000000000E+01 0. -1.
         -5    1    5    5    0  503  0.11080779087E+02  0.34053081049E+02  0.20655602839E+03  0.20968995889E+03  0.47000000000E+01 0. -1.
<mgrwt>
<rscale>  0 0.27551888E+03</rscale>
<asrwt>0</asrwt>
<pdfrwt beam="1">  1        2 0.11684652E+00 0.27551888E+03</pdfrwt>
<pdfrwt beam="2">  1       -2 0.38441493E-02 0.27551888E+03</pdfrwt>
<totfact> 0.11021452E+04</totfact>
</mgrwt>
</event>
<event>
 9    1  0.2095749E-002  0.2759017E+03  0.7818608E-02  0.1097949E+00
         -2   -1    0    0    0  501 -0.00000000000E+00  0.00000000000E+00  0.28102923574E+02  0.28102923574E+02  0.00000000000E+00 0. -1.
          2   -1    0    0  501    0  0.00000000000E+00 -0.00000000000E+00 -0.67716907570E+03  0.67716907570E+03  0.00000000000E+00 0. -1.
         36    2    1    2    0    0  0.88817841970E-15  0.00000000000E+00 -0.64906615212E+03  0.70527199927E+03  0.27590165480E+03 0.  0.
         25    2    3    3    0    0  0.60688753014E+01  0.58714135566E+02 -0.34278241090E+03  0.37028904933E+03  0.12700400730E+03 0.  0.
         25    2    3    3    0    0 -0.60688753014E+01 -0.58714135566E+02 -0.30628374122E+03  0.33498294994E+03  0.12214608324E+03 0.  0.
          5    1    4    4  502    0 -0.30308994052E+02  0.83986520885E+02 -0.17273151556E+03  0.19450099557E+03  0.47000000000E+01 0. -1.
         -5    1    4    4    0  502  0.36377869354E+02 -0.25272385318E+02 -0.17005089534E+03  0.17578805376E+03  0.47000000000E+01 0. -1.
          5    1    5    5  503    0 -0.23021596785E+01 -0.53922925680E+01 -0.27023101598E+03  0.27033547447E+03  0.47000000000E+01 0. -1.
         -5    1    5    5    0  503 -0.37667156228E+01 -0.53321842998E+02 -0.36052725242E+02  0.64647475470E+02  0.47000000000E+01 0. -1.
<mgrwt>
<rscale>  0 0.27590165E+03</rscale>
<asrwt>0</asrwt>
<pdfrwt beam="1">  1        2 0.10417986E+00 0.27590165E+03</pdfrwt>
<pdfrwt beam="2">  1       -2 0.43235266E-02 0.27590165E+03</pdfrwt>
<totfact> 0.10626749E+04</totfact>
</mgrwt>
</event>
<event>
 9    1  0.2095749E-002  0.2748936E+03  0.7818608E-02  0.1098511E+00
          2   -1    0    0  501    0  0.00000000000E+00  0.00000000000E+00  0.67983183128E+03  0.67983183128E+03  0.00000000000E+00 0. -1.
         -2   -1    0    0    0  501 -0.00000000000E+00 -0.00000000000E+00 -0.27788675014E+02  0.27788675014E+02  0.00000000000E+00 0. -1.
         36    2    1    2    0    0  0.71054273576E-14 -0.14210854715E-13  0.65204315626E+03  0.70762050629E+03  0.27489362178E+03 0.  0.
         25    2    3    3    0    0  0.40649490632E+02 -0.39415085766E+02  0.29558024932E+03  0.32649258982E+03  0.12658513872E+03 0.  0.
         25    2    3    3    0    0 -0.40649490632E+02  0.39415085766E+02  0.35646290694E+03  0.38112791647E+03  0.12242040114E+03 0.  0.
          5    1    4    4  502    0  0.54590893251E+02 -0.73421866935E+02  0.14577089442E+03  0.17216904434E+03  0.47000000000E+01 0.  1.
         -5    1    4    4    0  502 -0.13941402619E+02  0.34006781169E+02  0.14980935490E+03  0.15432354548E+03  0.47000000000E+01 0.  1.
          5    1    5    5  503    0 -0.34129720144E+02  0.83000510289E+02  0.21994337178E+03  0.23759440081E+03  0.47000000000E+01 0. -1.
         -5    1    5    5    0  503 -0.65197704877E+01 -0.43585424523E+02  0.13651953516E+03  0.14353351566E+03  0.47000000000E+01 0. -1.
<mgrwt>
<rscale>  0 0.27489362E+03</rscale>
<asrwt>0</asrwt>
<pdfrwt beam="1">  1        2 0.10458950E+00 0.27489362E+03</pdfrwt>
<pdfrwt beam="2">  1       -2 0.42751813E-02 0.27489362E+03</pdfrwt>
<totfact> 0.10756323E+04</totfact>
</mgrwt>
</event>
<event>
 9    1  0.2095749E-002  0.2752410E+03  0.7818608E-02  0.1098317E+00
          1   -1    0    0  501    0  0.00000000000E+00  0.00000000000E+00  0.14277756808E+04  0.14277756808E+04  0.00000000000E+00 0. -1.
         -1   -1    0    0    0  501 -0.00000000000E+00 -0.00000000000E+00 -0.13264965609E+02  0.13264965609E+02  0.00000000000E+00 0. -1.
         36    2    1    2    0    0 -0.35527136788E-14 -0.35527136788E-14  0.14145107152E+04  0.14410406464E+04  0.27524095120E+03 0.  0.
         25    2    3    3    0    0 -0.19831095706E+02 -0.73551739913E+01  0.42347585225E+03  0.44211637364E+03  0.12525062660E+03 0.  0.
         25    2    3    3    0    0  0.19831095706E+02  0.73551739913E+01  0.99103486295E+03  0.99892427277E+03  0.12349992799E+03 0.  0.
          5    1    4    4  502    0  0.27487083172E+02 -0.44952989997E+02  0.10123328706E+03  0.11422162431E+03  0.47000000000E+01 0. -1.
         -5    1    4    4    0  502 -0.47318178878E+02  0.37597816006E+02  0.32224256519E+03  0.32789474933E+03  0.47000000000E+01 0. -1.
          5    1    5    5  503    0  0.43736637253E+02  0.13150936497E+01  0.94860871405E+03  0.94962898296E+03  0.47000000000E+01 0. -1.
         -5    1    5    5    0  503 -0.23905541547E+02  0.60400803416E+01  0.42426148897E+02  0.49295289810E+02  0.47000000000E+01 0. -1.
<mgrwt>
<rscale>  0 0.27524095E+03</rscale>
<asrwt>0</asrwt>
<pdfrwt beam="1">  1        1 0.21965768E+00 0.27524095E+03</pdfrwt>
<pdfrwt beam="2">  1       -1 0.20407651E-02 0.27524095E+03</pdfrwt>
<totfact> 0.53227032E+03</totfact>
</mgrwt>
</event>
<event>
 9    1  0.2095749E-002  0.2744169E+03  0.7818608E-02  0.1098778E+00
          1   -1    0    0  501    0  0.00000000000E+00  0.00000000000E+00  0.26149545280E+02  0.26149545280E+02  0.00000000000E+00 0. -1.
         -1   -1    0    0    0  501 -0.00000000000E+00 -0.00000000000E+00 -0.71994233165E+03  0.71994233165E+03  0.00000000000E+00 0. -1.
         36    2    1    2    0    0 -0.88817841970E-15  0.00000000000E+00 -0.69379278637E+03  0.74609187693E+03  0.27441694263E+03 0.  0.
         25    2    3    3    0    0 -0.45396732119E+01  0.85085131158E+01 -0.53698760755E+03  0.55216187439E+03  0.12819532534E+03 0.  0.
         25    2    3    3    0    0  0.45396732119E+01 -0.85085131158E+01 -0.15680517882E+03  0.19393000254E+03  0.11370126803E+03 0.  0.
          5    1    4    4  502    0 -0.65978225535E+01 -0.36408303148E+02 -0.46571992555E+02  0.59666877672E+02  0.47000000000E+01 0. -1.
         -5    1    4    4    0  502  0.20581493416E+01  0.44916816264E+02 -0.49041561500E+03  0.49249499672E+03  0.47000000000E+01 0. -1.
          5    1    5    5  503    0 -0.31326603134E+02  0.36371257360E+02 -0.10844771953E+03  0.11868960484E+03  0.47000000000E+01 0. -1.
         -5    1    5    5    0  503  0.35866276346E+02 -0.44879770476E+02 -0.48357459289E+02  0.75240397698E+02  0.47000000000E+01 0. -1.
<mgrwt>
<rscale>  0 0.27441694E+03</rscale>
<asrwt>0</asrwt>
<pdfrwt beam="1">  1        1 0.40230070E-02 0.27441694E+03</pdfrwt>
<pdfrwt beam="2">  1       -1 0.11076036E+00 0.27441694E+03</pdfrwt>
<totfact> 0.17995180E+03</totfact>
</mgrwt>
</event>
<event>
 9    1  0.2095749E-002  0.2747473E+03  0.7818608E-02  0.1098593E+00
          2   -1    0    0  501    0  0.00000000000E+00  0.00000000000E+00  0.20537778506E+04  0.20537778506E+04  0.00000000000E+00 0.  1.
         -2   -1    0    0    0  501 -0.00000000000E+00 -0.00000000000E+00 -0.91886886298E+01  0.91886886298E+01  0.00000000000E+00 0.  1.
         36    2    1    2    0    0  0.00000000000E+00  0.35527136788E-14  0.20445891620E+04  0.20629665392E+04  0.27474733982E+03 0.  0.
         25    2    3    3    0    0  0.50624912964E+02 -0.19164108273E+02  0.87090400496E+03  0.88123984436E+03  0.12320605738E+03 0.  0.
         25    2    3    3    0    0 -0.50624912964E+02  0.19164108273E+02  0.11736851570E+04  0.11817266949E+04  0.12653453568E+03 0.  0.
          5    1    4    4  502    0  0.27373157983E+02  0.23022520959E+02  0.68865441678E+02  0.77742300627E+02  0.47000000000E+01 0.  1.
         -5    1    4    4    0  502  0.23251754981E+02 -0.42186629231E+02  0.80203856328E+03  0.80349754373E+03  0.47000000000E+01 0.  1.
          5    1    5    5  503    0  0.33257944497E+02  0.29374168933E+02  0.62079757865E+03  0.62239911338E+03  0.47000000000E+01 0. -1.
         -5    1    5    5    0  503 -0.83882857460E+02 -0.10210060660E+02  0.55288757837E+03  0.55932758151E+03  0.47000000000E+01 0. -1.
<mgrwt>
<rscale>  0 0.27474734E+03</rscale>
<asrwt>0</asrwt>
<pdfrwt beam="1">  1        2 0.31596546E+00 0.27474734E+03</pdfrwt>
<pdfrwt beam="2">  1       -2 0.14136460E-02 0.27474734E+03</pdfrwt>
<totfact> 0.89559031E+03</totfact>
</mgrwt>
</event>
<event>
 9    1  0.2095749E-002  0.2763129E+03  0.7818608E-02  0.1097720E+00
          2   -1    0    0  501    0  0.00000000000E+00  0.00000000000E+00  0.15968403550E+03  0.15968403550E+03  0.00000000000E+00 0.  1.
         -2   -1    0    0    0  501 -0.00000000000E+00 -0.00000000000E+00 -0.11953106777E+03  0.11953106777E+03  0.00000000000E+00 0.  1.
         36    2    1    2    0    0  0.14210854715E-13  0.17763568394E-14  0.40152967729E+02  0.27921510327E+03  0.27631288981E+03 0.  0.
         25    2    3    3    0    0 -0.33024789861E+02 -0.13826143521E+02 -0.23329457527E+02  0.13419537522E+03  0.12720981154E+03 0.  0.
         25    2    3    3    0    0  0.33024789861E+02  0.13826143521E+02  0.63482425255E+02  0.14501972805E+03  0.12537505421E+03 0.  0.
          5    1    4    4  502    0 -0.24834249804E+02  0.95308364895E+01  0.49906077551E+02  0.56747540775E+02  0.47000000000E+01 0.  1.
         -5    1    4    4    0  502 -0.81905400574E+01 -0.23356980011E+02 -0.73235535078E+02  0.77447834442E+02  0.47000000000E+01 0.  1.
          5    1    5    5  503    0 -0.18388297780E+02  0.37213286199E+02  0.76230567355E+02  0.86926104044E+02  0.47000000000E+01 0. -1.
         -5    1    5    5    0  503  0.51413087641E+02 -0.23387142677E+02 -0.12748142099E+02  0.58093624008E+02  0.47000000000E+01 0. -1.
<mgrwt>
<rscale>  0 0.27631289E+03</rscale>
<asrwt>0</asrwt>
<pdfrwt beam="1">  1        2 0.24566775E-01 0.27631289E+03</pdfrwt>
<pdfrwt beam="2">  1       -2 0.18389395E-01 0.27631289E+03</pdfrwt>
<totfact> 0.52907706E+03</totfact>
</mgrwt>
</event>
<event>
 9    1  0.2095749E-002  0.2750473E+03  0.7818608E-02  0.1098425E+00
          2   -1    0    0  501    0  0.00000000000E+00  0.00000000000E+00  0.45053206400E+03  0.45053206400E+03  0.00000000000E+00 0. -1.
         -2   -1    0    0    0  501 -0.00000000000E+00 -0.00000000000E+00 -0.41978699667E+02  0.41978699667E+02  0.00000000000E+00 0. -1.
         36    2    1    2    0    0  0.00000000000E+00  0.00000000000E+00  0.40855336433E+03  0.49251076367E+03  0.27504727016E+03 0.  0.
         25    2    3    3    0    0  0.52454055850E+02  0.23000727544E+02  0.20499957695E+03  0.24695540432E+03  0.12522652966E+03 0.  0.
         25    2    3    3    0    0 -0.52454055850E+02 -0.23000727544E+02  0.20355378738E+03  0.24555535935E+03  0.12483120084E+03 0.  0.
          5    1    4    4  502    0  0.65496983175E+02 -0.29266146266E+02  0.65168623416E+02  0.97032992328E+02  0.47000000000E+01 0.  1.
         -5    1    4    4    0  502 -0.13042927325E+02  0.52266873810E+02  0.13983095353E+03  0.14992241199E+03  0.47000000000E+01 0.  1.
          5    1    5    5  503    0 -0.23469629646E+02  0.34739044879E+02  0.16470506648E+03  0.17002197999E+03  0.47000000000E+01 0.  1.
         -5    1    5    5    0  503 -0.28984426204E+02 -0.57739772424E+02  0.38848720905E+02  0.75533379362E+02  0.47000000000E+01 0.  1.
<mgrwt>
<rscale>  0 0.27504727E+03</rscale>
<asrwt>0</asrwt>
<pdfrwt beam="1">  1        2 0.69312622E-01 0.27504727E+03</pdfrwt>
<pdfrwt beam="2">  1       -2 0.64582618E-02 0.27504727E+03</pdfrwt>
<totfact> 0.91854233E+03</totfact>
</mgrwt>
</event>
<event>
 9    1  0.2095749E-002  0.2751139E+03  0.7818608E-02  0.1098388E+00
         -1   -1    0    0    0  501 -0.00000000000E+00  0.00000000000E+00  0.97115820020E+01  0.97115820020E+01  0.00000000000E+00 0.  1.
          1   -1    0    0  501    0  0.00000000000E+00 -0.00000000000E+00 -0.19483862556E+04  0.19483862556E+04  0.00000000000E+00 0.  1.
         36    2    1    2    0    0 -0.71054273576E-14 -0.71054273576E-14 -0.19386746736E+04  0.19580978376E+04  0.27511388837E+03 0.  0.
         25    2    3    3    0    0 -0.45286760989E+02  0.32222944573E+02 -0.10860328906E+04  0.10945813076E+04  0.12470601668E+03 0.  0.
         25    2    3    3    0    0  0.45286760989E+02 -0.32222944573E+02 -0.85264178305E+03  0.86351653006E+03  0.12479414490E+03 0.  0.
          5    1    4    4  502    0 -0.42921929004E+02 -0.41893561639E+02 -0.39327702206E+03  0.39785206871E+03  0.47000000000E+01 0.  1.
         -5    1    4    4    0  502 -0.23648319851E+01  0.74116506211E+02 -0.69275586852E+03  0.69672923886E+03  0.47000000000E+01 0.  1.
          5    1    5    5  503    0 -0.47568101221E+01 -0.13893211025E+01 -0.69769627224E+03  0.69772970107E+03  0.47000000000E+01 0.  1.
         -5    1    5    5    0  503  0.50043571111E+02 -0.30833623470E+02 -0.15494551081E+03  0.16578682898E+03  0.47000000000E+01 0.  1.
<mgrwt>
<rscale>  0 0.27511389E+03</rscale>
<asrwt>0</asrwt>
<pdfrwt beam="1">  1        1 0.29975152E+00 0.27511389E+03</pdfrwt>
<pdfrwt beam="2">  1       -1 0.14940906E-02 0.27511389E+03</pdfrwt>
<totfact> 0.38257862E+03</totfact>
</mgrwt>
</event>
<event>
 9    1  0.2095749E-002  0.2732526E+03  0.7818608E-02  0.1099432E+00
         -2   -1    0    0    0  501 -0.00000000000E+00  0.00000000000E+00  0.20114583148E+03  0.20114583148E+03  0.00000000000E+00 0.  1.
          2   -1    0    0  501    0  0.00000000000E+00 -0.00000000000E+00 -0.92802072442E+02  0.92802072442E+02  0.00000000000E+00 0.  1.
         36    2    1    2    0    0  0.00000000000E+00  0.71054273576E-14  0.10834375903E+03  0.29394790392E+03  0.27325263054E+03 0.  0.
         25    2    3    3    0    0  0.38047788494E+02  0.32909247624E+02  0.81721473769E+02  0.15512950809E+03  0.12188565221E+03 0.  0.
         25    2    3    3    0    0 -0.38047788494E+02 -0.32909247624E+02  0.26622285264E+02  0.13881839583E+03  0.12661417046E+03 0.  0.
          5    1    4    4  502    0 -0.18821649076E+02 -0.36897248887E+02  0.24924423987E+02  0.48569315009E+02  0.47000000000E+01 0.  1.
         -5    1    4    4    0  502  0.56869437569E+02  0.69806496511E+02  0.56797049782E+02  0.10656019308E+03  0.47000000000E+01 0.  1.
          5    1    5    5  503    0  0.30476802969E+02  0.13442733129E+02  0.42752440392E+02  0.54400402137E+02  0.47000000000E+01 0. -1.
         -5    1    5    5    0  503 -0.68524591463E+02 -0.46351980753E+02 -0.16130155128E+02  0.84417993694E+02  0.47000000000E+01 0. -1.
<mgrwt>
<rscale>  0 0.27325263E+03</rscale>
<asrwt>0</asrwt>
<pdfrwt beam="1">  1        2 0.14277242E-01 0.27325263E+03</pdfrwt>
<pdfrwt beam="2">  1       -2 0.30945512E-01 0.27325263E+03</pdfrwt>
<totfact> 0.39714169E+03</totfact>
</mgrwt>
</event>
<event>
 9    1  0.2095749E-002  0.2670176E+03  0.7818608E-02  0.1102999E+00
          2   -1    0    0  501    0  0.00000000000E+00  0.00000000000E+00  0.26259574284E+04  0.26259574284E+04  0.00000000000E+00 0. -1.
         -2   -1    0    0    0  501 -0.00000000000E+00 -0.00000000000E+00 -0.67878486011E+01  0.67878486011E+01  0.00000000000E+00 0. -1.
         36    2    1    2    0    0  0.71054273576E-14  0.35527136788E-14  0.26191695798E+04  0.26327452770E+04  0.26701761333E+03 0.  0.
         25    2    3    3    0    0 -0.48662610464E+02  0.71800599561E+01  0.13140006930E+04  0.13209378404E+04  0.12593392769E+03 0.  0.
         25    2    3    3    0    0  0.48662610464E+02 -0.71800599561E+01  0.13051688868E+04  0.13118074366E+04  0.12228378744E+03 0.  0.
          5    1    4    4  502    0 -0.57608356371E+02  0.31336531922E+02  0.12508086809E+04  0.12525354873E+04  0.47000000000E+01 0. -1.
         -5    1    4    4    0  502  0.89457459069E+01 -0.24156471966E+02  0.63192012128E+02  0.68402353063E+02  0.47000000000E+01 0. -1.
          5    1    5    5  503    0  0.37507306039E+02  0.55938084273E+02  0.68149757628E+03  0.68483348615E+03  0.47000000000E+01 0. -1.
         -5    1    5    5    0  503  0.11155304425E+02 -0.63118144229E+02  0.62367131051E+03  0.62697395041E+03  0.47000000000E+01 0. -1.
<mgrwt>
<rscale>  0 0.26701761E+03</rscale>
<asrwt>0</asrwt>
<pdfrwt beam="1">  1        2 0.40399264E+00 0.26701761E+03</pdfrwt>
<pdfrwt beam="2">  1       -2 0.10442865E-02 0.26701761E+03</pdfrwt>
<totfact> 0.68401479E+03</totfact>
</mgrwt>
</event>
<event>
 9    1  0.2095749E-002  0.2746763E+03  0.7818608E-02  0.1098633E+00
         -1   -1    0    0    0  501 -0.00000000000E+00  0.00000000000E+00  0.10766845693E+03  0.10766845693E+03  0.00000000000E+00 0.  1.
          1   -1    0    0  501    0  0.00000000000E+00 -0.00000000000E+00 -0.17518376010E+03  0.17518376010E+03  0.00000000000E+00 0.  1.
         36    2    1    2    0    0  0.71054273576E-14  0.00000000000E+00 -0.67515303174E+02  0.28285221703E+03  0.27467628313E+03 0.  0.
         25    2    3    3    0    0  0.13377417323E+02 -0.66098739742E+02 -0.28546050434E+02  0.13623239257E+03  0.11487553743E+03 0.  0.
         25    2    3    3    0    0 -0.13377417323E+02  0.66098739742E+02 -0.38969252741E+02  0.14661982446E+03  0.12422065681E+03 0.  0.
          5    1    4    4  502    0  0.52426374219E+02 -0.47383555840E+02 -0.50956297149E+02  0.87248841235E+02  0.47000000000E+01 0. -1.
         -5    1    4    4    0  502 -0.39048956896E+02 -0.18715183902E+02  0.22410246715E+02  0.48983551331E+02  0.47000000000E+01 0. -1.
          5    1    5    5  503    0 -0.56602645274E+02  0.38705883969E+02 -0.59861855157E+02  0.91145688919E+02  0.47000000000E+01 0. -1.
         -5    1    5    5    0  503  0.43225227951E+02  0.27392855774E+02  0.20892602416E+02  0.55474135546E+02  0.47000000000E+01 0. -1.
<mgrwt>
<rscale>  0 0.27467628E+03</rscale>
<asrwt>0</asrwt>
<pdfrwt beam="1">  1        1 0.26951347E-01 0.27467628E+03</pdfrwt>
<pdfrwt beam="2">  1       -1 0.16564378E-01 0.27467628E+03</pdfrwt>
<totfact> 0.47278967E+03</totfact>
</mgrwt>
</event>
<event>
 9    1  0.2095749E-002  0.2771998E+03  0.7818608E-02  0.1097228E+00
         -1   -1    0    0    0  501 -0.00000000000E+00  0.00000000000E+00  0.21770700474E+02  0.21770700474E+02  0.00000000000E+00 0.  1.
          1   -1    0    0  501    0  0.00000000000E+00 -0.00000000000E+00 -0.88237564516E+03  0.88237564516E+03  0.00000000000E+00 0.  1.
         36    2    1    2    0    0  0.00000000000E+00  0.00000000000E+00 -0.86060494469E+03  0.90414634564E+03  0.27719982595E+03 0.  0.
         25    2    3    3    0    0 -0.46146851606E+02 -0.98484273516E+01 -0.56492317394E+03  0.57963743215E+03  0.12089183952E+03 0.  0.
         25    2    3    3    0    0  0.46146851606E+02  0.98484273516E+01 -0.29568177075E+03  0.32450891348E+03  0.12510716184E+03 0.  0.
          5    1    4    4  502    0 -0.12651405748E+02 -0.22826915037E+02 -0.52522262681E+03  0.52589164647E+03  0.47000000000E+01 0.  1.
         -5    1    4    4    0  502 -0.33495445858E+02  0.12978487685E+02 -0.39700547135E+02  0.53745785682E+02  0.47000000000E+01 0.  1.
          5    1    5    5  503    0 -0.10084968559E+02  0.57518330746E+02 -0.10905072820E+03  0.12379101859E+03  0.47000000000E+01 0.  1.
         -5    1    5    5    0  503  0.56231820165E+02 -0.47669903394E+02 -0.18663104255E+03  0.20071789489E+03  0.47000000000E+01 0.  1.
<mgrwt>
<rscale>  0 0.27719983E+03</rscale>
<asrwt>0</asrwt>
<pdfrwt beam="1">  1        1 0.13575010E+00 0.27719983E+03</pdfrwt>
<pdfrwt beam="2">  1       -1 0.33493386E-02 0.27719983E+03</pdfrwt>
<totfact> 0.63118329E+03</totfact>
</mgrwt>
</event>
<event>
 9    1  0.2095749E-002  0.2752885E+03  0.7818608E-02  0.1098290E+00
         -1   -1    0    0    0  501 -0.00000000000E+00  0.00000000000E+00  0.16866655386E+03  0.16866655386E+03  0.00000000000E+00 0.  1.
          1   -1    0    0  501    0  0.00000000000E+00 -0.00000000000E+00 -0.11232774160E+03  0.11232774160E+03  0.00000000000E+00 0.  1.
         36    2    1    2    0    0  0.00000000000E+00 -0.71054273576E-14  0.56338812262E+02  0.28099429546E+03  0.27528845292E+03 0.  0.
         25    2    3    3    0    0  0.21073702605E+02 -0.21829832478E+01  0.77394838187E+02  0.15100443073E+03  0.12791993889E+03 0.  0.
         25    2    3    3    0    0 -0.21073702605E+02  0.21829832478E+01 -0.21056025925E+02  0.12998986473E+03  0.12651143168E+03 0.  0.
          5    1    4    4  502    0  0.32521253147E+02 -0.57431258560E+02  0.65594971321E+02  0.93170658625E+02  0.47000000000E+01 0.  1.
         -5    1    4    4    0  502 -0.11447550542E+02  0.55248275312E+02  0.11799866866E+02  0.57833772109E+02  0.47000000000E+01 0.  1.
          5    1    5    5  503    0 -0.55980513473E+02  0.44592424947E+02 -0.23105859521E+01  0.71761626645E+02  0.47000000000E+01 0.  1.
         -5    1    5    5    0  503  0.34906810868E+02 -0.42409441699E+02 -0.18745439973E+02  0.58228238080E+02  0.47000000000E+01 0.  1.
<mgrwt>
<rscale>  0 0.27528845E+03</rscale>
<asrwt>0</asrwt>
<pdfrwt beam="1">  1        1 0.17281191E-01 0.27528845E+03</pdfrwt>
<pdfrwt beam="2">  1       -1 0.25948700E-01 0.27528845E+03</pdfrwt>
<totfact> 0.40196425E+03</totfact>
</mgrwt>
</event>
<event>
 9    1  0.2095749E-002  0.2748439E+03  0.7818608E-02  0.1098539E+00
          2   -1    0    0  501    0  0.00000000000E+00  0.00000000000E+00  0.14406099647E+04  0.14406099647E+04  0.00000000000E+00 0.  1.
         -2   -1    0    0    0  501 -0.00000000000E+00 -0.00000000000E+00 -0.13108888777E+02  0.13108888777E+02  0.00000000000E+00 0.  1.
         36    2    1    2    0    0 -0.88817841970E-15  0.00000000000E+00  0.14275010759E+04  0.14537188535E+04  0.27484392516E+03 0.  0.
         25    2    3    3    0    0  0.30616294775E+01  0.18193355704E+02  0.10243631897E+04  0.10318596098E+04  0.12277596757E+03 0.  0.
         25    2    3    3    0    0 -0.30616294775E+01 -0.18193355704E+02  0.40313788624E+03  0.42185924367E+03  0.12290115695E+03 0.  0.
          5    1    4    4  502    0 -0.40412838829E+02  0.25977217220E+02  0.18095410971E+03  0.18728185491E+03  0.47000000000E+01 0. -1.
         -5    1    4    4    0  502  0.43474468307E+02 -0.77838615156E+01  0.84340907997E+03  0.84457775490E+03  0.47000000000E+01 0. -1.
          5    1    5    5  503    0 -0.77829620993E+01 -0.61240651128E+02  0.33717138797E+03  0.34280844027E+03  0.47000000000E+01 0.  1.
         -5    1    5    5    0  503  0.47213326219E+01  0.43047295424E+02  0.65966498270E+02  0.79050803406E+02  0.47000000000E+01 0.  1.
<mgrwt>
<rscale>  0 0.27484393E+03</rscale>
<asrwt>0</asrwt>
<pdfrwt beam="1">  1        2 0.22163218E+00 0.27484393E+03</pdfrwt>
<pdfrwt beam="2">  1       -2 0.20167533E-02 0.27484393E+03</pdfrwt>
<totfact> 0.11214095E+04</totfact>
</mgrwt>
</event>
<event>
 9    1  0.2095749E-002  0.2757579E+03  0.7818608E-02  0.1098029E+00
         -2   -1    0    0    0  501 -0.00000000000E+00  0.00000000000E+00  0.28681619612E+02  0.28681619612E+02  0.00000000000E+00 0. -1.
          2   -1    0    0  501    0  0.00000000000E+00 -0.00000000000E+00 -0.66281502192E+03  0.66281502192E+03  0.00000000000E+00 0. -1.
         36    2    1    2    0    0  0.00000000000E+00  0.35527136788E-14 -0.63413340231E+03  0.69149664153E+03  0.27575792523E+03 0.  0.
         25    2    3    3    0    0 -0.67472435534E+02 -0.25016294967E+02 -0.34438533296E+03  0.37332553174E+03  0.12486933378E+03 0.  0.
         25    2    3    3    0    0  0.67472435534E+02  0.25016294967E+02 -0.28974806935E+03  0.31817110979E+03  0.11000257654E+03 0.  0.
          5    1    4    4  502    0 -0.47741915936E+02  0.33123933228E+02 -0.65338028351E+02  0.87565024059E+02  0.47000000000E+01 0. -1.
         -5    1    4    4    0  502 -0.19730519599E+02 -0.58140228196E+02 -0.27904730461E+03  0.28576050768E+03  0.47000000000E+01 0. -1.
          5    1    5    5  503    0 -0.10912111898E+02 -0.30416080508E+02 -0.48386216874E+02  0.58374036376E+02  0.47000000000E+01 0. -1.
         -5    1    5    5    0  503  0.78384547432E+02  0.55432375475E+02 -0.24136185247E+03  0.25979707342E+03  0.47000000000E+01 0. -1.
<mgrwt>
<rscale>  0 0.27575793E+03</rscale>
<asrwt>0</asrwt>
<pdfrwt beam="1">  1        2 0.10197154E+00 0.27575793E+03</pdfrwt>
<pdfrwt beam="2">  1       -2 0.44125569E-02 0.27575793E+03</pdfrwt>
<totfact> 0.10572165E+04</totfact>
</mgrwt>
</event>
<event>
 9    1  0.2095749E-002  0.2746942E+03  0.7818608E-02  0.1098623E+00
          2   -1    0    0  501    0  0.00000000000E+00  0.00000000000E+00  0.10250606146E+03  0.10250606146E+03  0.00000000000E+00 0.  1.
         -2   -1    0    0    0  501 -0.00000000000E+00 -0.00000000000E+00 -0.18403033039E+03  0.18403033039E+03  0.00000000000E+00 0.  1.
         36    2    1    2    0    0 -0.71054273576E-14 -0.35527136788E-14 -0.81524268932E+02  0.28653639185E+03  0.27469418893E+03 0.  0.
         25    2    3    3    0    0  0.52427414586E+02  0.13642188173E+02 -0.63716872301E+02  0.15006346077E+03  0.12459718835E+03 0.  0.
         25    2    3    3    0    0 -0.52427414586E+02 -0.13642188173E+02 -0.17807396631E+02  0.13647293108E+03  0.12398796089E+03 0.  0.
          5    1    4    4  502    0  0.21877008261E+02 -0.44274214885E+02 -0.68118438708E+02  0.84267557732E+02  0.47000000000E+01 0. -1.
         -5    1    4    4    0  502  0.30550406325E+02  0.57916403058E+02  0.44015664072E+01  0.65795903038E+02  0.47000000000E+01 0. -1.
          5    1    5    5  503    0 -0.92147222632E+02 -0.20811337002E+02 -0.14693624073E+02  0.95719459750E+02  0.47000000000E+01 0. -1.
         -5    1    5    5    0  503  0.39719808046E+02  0.71691488294E+01 -0.31137725582E+01  0.40753471333E+02  0.47000000000E+01 0. -1.
<mgrwt>
<rscale>  0 0.27469419E+03</rscale>
<asrwt>0</asrwt>
<pdfrwt beam="1">  1        2 0.15770163E-01 0.27469419E+03</pdfrwt>
<pdfrwt beam="2">  1       -2 0.28312359E-01 0.27469419E+03</pdfrwt>
<totfact> 0.41477559E+03</totfact>
</mgrwt>
</event>
<event>
 9    1  0.2095749E-002  0.2747327E+03  0.7818608E-02  0.1098601E+00
         -2   -1    0    0    0  501 -0.00000000000E+00  0.00000000000E+00  0.30013902388E+03  0.30013902388E+03  0.00000000000E+00 0.  1.
          2   -1    0    0  501    0  0.00000000000E+00 -0.00000000000E+00 -0.62869244729E+02  0.62869244729E+02  0.00000000000E+00 0.  1.
         36    2    1    2    0    0  0.14210854715E-13  0.00000000000E+00  0.23726977915E+03  0.36300826861E+03  0.27473269733E+03 0.  0.
         25    2    3    3    0    0 -0.35787745626E+02  0.20157981998E+02  0.64583870858E+02  0.14627299795E+03  0.12464993614E+03 0.  0.
         25    2    3    3    0    0  0.35787745626E+02 -0.20157981998E+02  0.17268590829E+03  0.21673527066E+03  0.12436497758E+03 0.  0.
          5    1    4    4  502    0  0.12607928406E+02 -0.33852248654E+02 -0.14192418888E+02  0.39095387855E+02  0.47000000000E+01 0.  1.
         -5    1    4    4    0  502 -0.48395674032E+02  0.54010230652E+02  0.78776289746E+02  0.10717761010E+03  0.47000000000E+01 0.  1.
          5    1    5    5  503    0  0.79906624213E+02  0.32295272309E+01  0.95034675921E+02  0.12429472260E+03  0.47000000000E+01 0.  1.
         -5    1    5    5    0  503 -0.44118878587E+02 -0.23387509228E+02  0.77651232374E+02  0.92440548056E+02  0.47000000000E+01 0.  1.
<mgrwt>
<rscale>  0 0.27473270E+03</rscale>
<asrwt>0</asrwt>
<pdfrwt beam="1">  1        2 0.96721917E-02 0.27473270E+03</pdfrwt>
<pdfrwt beam="2">  1       -2 0.46175234E-01 0.27473270E+03</pdfrwt>
<totfact> 0.29961726E+03</totfact>
</mgrwt>
</event>
<event>
 9    1  0.2095749E-002  0.2749413E+03  0.7818608E-02  0.1098484E+00
          2   -1    0    0  501    0  0.00000000000E+00  0.00000000000E+00  0.29336994126E+04  0.29336994126E+04  0.00000000000E+00 0.  1.
         -2   -1    0    0    0  501 -0.00000000000E+00 -0.00000000000E+00 -0.64417552687E+01  0.64417552687E+01  0.00000000000E+00 0.  1.
         36    2    1    2    0    0  0.71054273576E-14  0.17763568394E-14  0.29272576574E+04  0.29401411679E+04  0.27494125662E+03 0.  0.
         25    2    3    3    0    0  0.52390024835E+02 -0.14096266068E+02  0.15161188902E+04  0.15224189995E+04  0.12727804750E+03 0.  0.
         25    2    3    3    0    0 -0.52390024835E+02  0.14096266068E+02  0.14111387672E+04  0.14177221685E+04  0.12522023473E+03 0.  0.
          5    1    4    4  502    0 -0.20376275421E+02  0.15091653293E+02  0.77911221470E+02  0.82068258359E+02  0.47000000000E+01 0. -1.
         -5    1    4    4    0  502  0.72766300256E+02 -0.29187919361E+02  0.14382076687E+04  0.14403507411E+04  0.47000000000E+01 0. -1.
          5    1    5    5  503    0 -0.13153485353E+02 -0.32920628730E+02  0.12230953221E+03  0.12743034820E+03  0.47000000000E+01 0. -1.
         -5    1    5    5    0  503 -0.39236539482E+02  0.47016894798E+02  0.12888292350E+04  0.12902918203E+04  0.47000000000E+01 0. -1.
<mgrwt>
<rscale>  0 0.27494126E+03</rscale>
<asrwt>0</asrwt>
<pdfrwt beam="1">  1        2 0.45133730E+00 0.27494126E+03</pdfrwt>
<pdfrwt beam="2">  1       -2 0.99104161E-03 0.27494126E+03</pdfrwt>
<totfact> 0.49246863E+03</totfact>
</mgrwt>
</event>
<event>
 9    1  0.2095749E-002  0.2752451E+03  0.7818608E-02  0.1098315E+00
          2   -1    0    0  501    0  0.00000000000E+00  0.00000000000E+00  0.80084036171E+03  0.80084036171E+03  0.00000000000E+00 0. -1.
         -2   -1    0    0    0  501 -0.00000000000E+00 -0.00000000000E+00 -0.23650109410E+02  0.23650109410E+02  0.00000000000E+00 0. -1.
         36    2    1    2    0    0  0.00000000000E+00  0.00000000000E+00  0.77719025230E+03  0.82449047112E+03  0.27524507025E+03 0.  0.
         25    2    3    3    0    0  0.51841120574E+02 -0.26095344995E+01  0.39173936408E+03  0.41582326322E+03  0.12944089544E+03 0.  0.
         25    2    3    3    0    0 -0.51841120574E+02  0.26095344995E+01  0.38545088822E+03  0.40866720790E+03  0.12546787689E+03 0.  0.
          5    1    4    4  502    0  0.56490643394E+02  0.49757308324E+02  0.30583742326E+03  0.31500095554E+03  0.47000000000E+01 0.  1.
         -5    1    4    4    0  502 -0.46495228194E+01 -0.52366842823E+02  0.85901940815E+02  0.10082230768E+03  0.47000000000E+01 0.  1.
          5    1    5    5  503    0 -0.36545876346E+02 -0.29799652265E+02  0.42007776625E+02  0.63327432049E+02  0.47000000000E+01 0. -1.
         -5    1    5    5    0  503 -0.15295244228E+02  0.32409186764E+02  0.34344311160E+03  0.34533977585E+03  0.47000000000E+01 0. -1.
<mgrwt>
<rscale>  0 0.27524507E+03</rscale>
<asrwt>0</asrwt>
<pdfrwt beam="1">  1        2 0.12320619E+00 0.27524507E+03</pdfrwt>
<pdfrwt beam="2">  1       -2 0.36384790E-02 0.27524507E+03</pdfrwt>
<totfact> 0.11195255E+04</totfact>
</mgrwt>
</event>
<event>
 9    1  0.2095749E-002  0.2814723E+03  0.7818608E-02  0.1094888E+00
         -1   -1    0    0    0  501 -0.00000000000E+00  0.00000000000E+00  0.36730709261E+02  0.36730709261E+02  0.00000000000E+00 0. -1.
          1   -1    0    0  501    0  0.00000000000E+00 -0.00000000000E+00 -0.53923987357E+03  0.53923987357E+03  0.00000000000E+00 0. -1.
         36    2    1    2    0    0  0.00000000000E+00 -0.88817841970E-15 -0.50250916431E+03  0.57597058283E+03  0.28147229361E+03 0.  0.
         25    2    3    3    0    0  0.67553087004E+02  0.14335084887E+01 -0.28839637499E+03  0.32089026027E+03  0.12342048256E+03 0.  0.
         25    2    3    3    0    0 -0.67553087004E+02 -0.14335084887E+01 -0.21411278931E+03  0.25508032256E+03  0.12106283451E+03 0.  0.
          5    1    4    4  502    0  0.56728121364E+02  0.26236609095E+02 -0.28658951651E+03  0.29336339306E+03  0.47000000000E+01 0. -1.
         -5    1    4    4    0  502  0.10824965640E+02 -0.24803100607E+02 -0.18068584787E+01  0.27526867210E+02  0.47000000000E+01 0. -1.
          5    1    5    5  503    0 -0.46953082306E+02 -0.14105064972E+01 -0.79933684044E+01  0.47880741484E+02  0.47000000000E+01 0.  1.
         -5    1    5    5    0  503 -0.20600004698E+02 -0.23001991569E-01 -0.20611942091E+03  0.20719958108E+03  0.47000000000E+01 0.  1.
<mgrwt>
<rscale>  0 0.28147229E+03</rscale>
<asrwt>0</asrwt>
<pdfrwt beam="1">  1        1 0.82959982E-01 0.28147229E+03</pdfrwt>
<pdfrwt beam="2">  1       -1 0.56508783E-02 0.28147229E+03</pdfrwt>
<totfact> 0.59452831E+03</totfact>
</mgrwt>
</event>
<event>
 9    1  0.2095749E-002  0.2743371E+03  0.7818608E-02  0.1098823E+00
         -1   -1    0    0    0  501 -0.00000000000E+00  0.00000000000E+00  0.17966985742E+03  0.17966985742E+03  0.00000000000E+00 0. -1.
          1   -1    0    0  501    0  0.00000000000E+00 -0.00000000000E+00 -0.10472104172E+03  0.10472104172E+03  0.00000000000E+00 0. -1.
         36    2    1    2    0    0 -0.71054273576E-14  0.00000000000E+00  0.74948815706E+02  0.28439089914E+03  0.27433712570E+03 0.  0.
         25    2    3    3    0    0  0.32417216439E+02 -0.49390684004E+02  0.23714958329E+02  0.14031209037E+03  0.12503906537E+03 0.  0.
         25    2    3    3    0    0 -0.32417216439E+02  0.49390684004E+02  0.51233857377E+02  0.14407880877E+03  0.12101024505E+03 0.  0.
          5    1    4    4  502    0 -0.22277585230E+02  0.13319957942E+00  0.55383698714E+02  0.59881154206E+02  0.47000000000E+01 0.  1.
         -5    1    4    4    0  502  0.54694801669E+02 -0.49523883584E+02 -0.31668740384E+02  0.80430936165E+02  0.47000000000E+01 0.  1.
          5    1    5    5  503    0 -0.25236598363E+02  0.88724558310E+02  0.23862610673E+02  0.95396264772E+02  0.47000000000E+01 0. -1.
         -5    1    5    5    0  503 -0.71806180757E+01 -0.39333874306E+02  0.27371246704E+02  0.48682543997E+02  0.47000000000E+01 0. -1.
<mgrwt>
<rscale>  0 0.27433713E+03</rscale>
<asrwt>0</asrwt>
<pdfrwt beam="1">  1        1 0.16110930E-01 0.27433713E+03</pdfrwt>
<pdfrwt beam="2">  1       -1 0.27641516E-01 0.27433713E+03</pdfrwt>
<totfact> 0.39611024E+03</totfact>
</mgrwt>
</event>
<event>
 9    1  0.2095749E-002  0.2782783E+03  0.7818608E-02  0.1096633E+00
          2   -1    0    0  501    0  0.00000000000E+00  0.00000000000E+00  0.12808572232E+04  0.12808572232E+04  0.00000000000E+00 0.  1.
         -2   -1    0    0    0  501 -0.00000000000E+00 -0.00000000000E+00 -0.15114650376E+02  0.15114650376E+02  0.00000000000E+00 0.  1.
         36    2    1    2    0    0  0.14210854715E-13 -0.71054273576E-14  0.12657425728E+04  0.12959718735E+04  0.27827834346E+03 0.  0.
         25    2    3    3    0    0 -0.46513123334E+02  0.34796721714E+02  0.72099350918E+03  0.73431552616E+03  0.12654394176E+03 0.  0.
         25    2    3    3    0    0  0.46513123334E+02 -0.34796721714E+02  0.54474906361E+03  0.56165634738E+03  0.12382256566E+03 0.  0.
          5    1    4    4  502    0 -0.67144064990E+02  0.27706279728E+02  0.19981644174E+03  0.21266091270E+03  0.47000000000E+01 0.  1.
         -5    1    4    4    0  502  0.20630941655E+02  0.70904419859E+01  0.52117706744E+03  0.52165461346E+03  0.47000000000E+01 0.  1.
          5    1    5    5  503    0 -0.12631882692E+02  0.35505991126E+02  0.89814564297E+02  0.97514028868E+02  0.47000000000E+01 0.  1.
         -5    1    5    5    0  503  0.59145006026E+02 -0.70302712840E+02  0.45493449931E+03  0.46414231851E+03  0.47000000000E+01 0.  1.
<mgrwt>
<rscale>  0 0.27827834E+03</rscale>
<asrwt>0</asrwt>
<pdfrwt beam="1">  1        2 0.19705487E+00 0.27827834E+03</pdfrwt>
<pdfrwt beam="2">  1       -2 0.23253318E-02 0.27827834E+03</pdfrwt>
<totfact> 0.11121491E+04</totfact>
</mgrwt>
</event>
<event>
 9    1  0.2095749E-002  0.2735559E+03  0.7818608E-02  0.1099262E+00
         -3   -1    0    0    0  501 -0.00000000000E+00  0.00000000000E+00  0.21044257181E+03  0.21044257181E+03  0.00000000000E+00 0.  1.
          3   -1    0    0  501    0  0.00000000000E+00 -0.00000000000E+00 -0.88899342624E+02  0.88899342624E+02  0.00000000000E+00 0.  1.
         36    2    1    2    0    0  0.00000000000E+00  0.00000000000E+00  0.12154322918E+03  0.29934191443E+03  0.27355589040E+03 0.  0.
         25    2    3    3    0    0 -0.37387668774E+02  0.30617453796E+02  0.88672582547E+02  0.15965439257E+03  0.12365852950E+03 0.  0.
         25    2    3    3    0    0  0.37387668774E+02 -0.30617453796E+02  0.32870646637E+02  0.13968752186E+03  0.12687339398E+03 0.  0.
          5    1    4    4  502    0 -0.15087996080E+02 -0.17925906553E+02  0.10169841453E+03  0.10446838407E+03  0.47000000000E+01 0. -1.
         -5    1    4    4    0  502 -0.22299672693E+02  0.48543360349E+02 -0.13025831982E+02  0.55186008508E+02  0.47000000000E+01 0. -1.
          5    1    5    5  503    0  0.60698727955E+01 -0.13691972084E+02 -0.48376353800E+02  0.50859365532E+02  0.47000000000E+01 0.  1.
         -5    1    5    5    0  503  0.31317795978E+02 -0.16925481712E+02  0.81247000438E+02  0.88828156326E+02  0.47000000000E+01 0.  1.
<mgrwt>
<rscale>  0 0.27355589E+03</rscale>
<asrwt>0</asrwt>
<pdfrwt beam="1">  1        3 0.13676822E-01 0.27355589E+03</pdfrwt>
<pdfrwt beam="2">  1       -3 0.32375780E-01 0.27355589E+03</pdfrwt>
<totfact> 0.10289296E+03</totfact>
</mgrwt>
</event>
<event>
 9    1  0.2095749E-002  0.2776943E+03  0.7818608E-02  0.1096955E+00
         -2   -1    0    0    0  501 -0.00000000000E+00  0.00000000000E+00  0.98578156665E+02  0.98578156665E+02  0.00000000000E+00 0. -1.
          2   -1    0    0  501    0  0.00000000000E+00 -0.00000000000E+00 -0.19556588715E+03  0.19556588715E+03  0.00000000000E+00 0. -1.
         36    2    1    2    0    0  0.00000000000E+00  0.00000000000E+00 -0.96987730483E+02  0.29414404381E+03  0.27769425390E+03 0.  0.
         25    2    3    3    0    0  0.45996395651E+02 -0.33799943697E+02 -0.47121333164E+02  0.15813665253E+03  0.13974504008E+03 0.  0.
         25    2    3    3    0    0 -0.45996395651E+02  0.33799943697E+02 -0.49866397319E+02  0.13600739128E+03  0.11293028068E+03 0.  0.
          5    1    4    4  502    0  0.29734270923E+02 -0.65933167177E+02 -0.80842335379E+02  0.10857662083E+03  0.47000000000E+01 0.  1.
         -5    1    4    4    0  502  0.16262124728E+02  0.32133223480E+02  0.33721002215E+02  0.49560031701E+02  0.47000000000E+01 0.  1.
          5    1    5    5  503    0  0.59344026969E+01  0.50521142663E+02 -0.61578819124E+02  0.80010274066E+02  0.47000000000E+01 0. -1.
         -5    1    5    5    0  503 -0.51930798348E+02 -0.16721198966E+02  0.11712421806E+02  0.55997117216E+02  0.47000000000E+01 0. -1.
<mgrwt>
<rscale>  0 0.27769425E+03</rscale>
<asrwt>0</asrwt>
<pdfrwt beam="1">  1        2 0.30087059E-01 0.27769425E+03</pdfrwt>
<pdfrwt beam="2">  1       -2 0.15165870E-01 0.27769425E+03</pdfrwt>
<totfact> 0.58349648E+03</totfact>
</mgrwt>
</event>
<event>
 9    1  0.2095749E-002  0.2754888E+03  0.7818608E-02  0.1098179E+00
         -1   -1    0    0    0  501 -0.00000000000E+00  0.00000000000E+00  0.15509427397E+02  0.15509427397E+02  0.00000000000E+00 0.  1.
          1   -1    0    0  501    0  0.00000000000E+00 -0.00000000000E+00 -0.12233540659E+04  0.12233540659E+04  0.00000000000E+00 0.  1.
         36    2    1    2    0    0  0.35527136788E-14  0.00000000000E+00 -0.12078446385E+04  0.12388634933E+04  0.27548880968E+03 0.  0.
         25    2    3    3    0    0 -0.13759508277E+02 -0.45641550225E+02 -0.88477796306E+03  0.89406580944E+03  0.11936981407E+03 0.  0.
         25    2    3    3    0    0  0.13759508277E+02  0.45641550225E+02 -0.32306667540E+03  0.34479768382E+03  0.11063855945E+03 0.  0.
          5    1    4    4  502    0 -0.37636712555E+02 -0.73389192722E+02 -0.43491011324E+03  0.44268656218E+03  0.47000000000E+01 0.  1.
         -5    1    4    4    0  502  0.23877204278E+02  0.27747642497E+02 -0.44986784982E+03  0.45137924725E+03  0.47000000000E+01 0.  1.
          5    1    5    5  503    0 -0.15746679367E+02  0.70458836945E+02 -0.13926613451E+03  0.15693805095E+03  0.47000000000E+01 0.  1.
         -5    1    5    5    0  503  0.29506187644E+02 -0.24817286721E+02 -0.18380054088E+03  0.18785963286E+03  0.47000000000E+01 0.  1.
<mgrwt>
<rscale>  0 0.27548881E+03</rscale>
<asrwt>0</asrwt>
<pdfrwt beam="1">  1        1 0.18820825E+00 0.27548881E+03</pdfrwt>
<pdfrwt beam="2">  1       -1 0.23860666E-02 0.27548881E+03</pdfrwt>
<totfact> 0.58327468E+03</totfact>
</mgrwt>
</event>
<event>
 9    1  0.2095749E-002  0.2756674E+03  0.7818608E-02  0.1098079E+00
          2   -1    0    0  501    0  0.00000000000E+00  0.00000000000E+00  0.22502501722E+04  0.22502501722E+04  0.00000000000E+00 0. -1.
         -2   -1    0    0    0  501 -0.00000000000E+00 -0.00000000000E+00 -0.84426744027E+01  0.84426744027E+01  0.00000000000E+00 0. -1.
         36    2    1    2    0    0  0.00000000000E+00  0.00000000000E+00  0.22418074978E+04  0.22586928466E+04  0.27566740488E+03 0.  0.
         25    2    3    3    0    0  0.50550759992E+02 -0.12062164238E+02  0.87134912918E+03  0.88167085517E+03  0.12406980610E+03 0.  0.
         25    2    3    3    0    0 -0.50550759992E+02  0.12062164238E+02  0.13704583686E+04  0.13770219914E+04  0.12382467301E+03 0.  0.
          5    1    4    4  502    0 -0.22378377869E+02 -0.47929794606E+02  0.34180291221E+03  0.34590371175E+03  0.47000000000E+01 0.  1.
         -5    1    4    4    0  502  0.72929137862E+02  0.35867630368E+02  0.52954621697E+03  0.53576714341E+03  0.47000000000E+01 0.  1.
          5    1    5    5  503    0 -0.89784753614E+02  0.11428447423E+02  0.78116355492E+03  0.78640352296E+03  0.47000000000E+01 0. -1.
         -5    1    5    5    0  503  0.39233993622E+02  0.63371681502E+00  0.58929481371E+03  0.59061846849E+03  0.47000000000E+01 0. -1.
<mgrwt>
<rscale>  0 0.27566740E+03</rscale>
<asrwt>0</asrwt>
<pdfrwt beam="1">  1        2 0.34619186E+00 0.27566740E+03</pdfrwt>
<pdfrwt beam="2">  1       -2 0.12988748E-02 0.27566740E+03</pdfrwt>
<totfact> 0.79727895E+03</totfact>
</mgrwt>
</event>
<event>
 9    1  0.2095749E-002  0.2753645E+03  0.7818608E-02  0.1098248E+00
          2   -1    0    0  501    0  0.00000000000E+00  0.00000000000E+00  0.19085412306E+04  0.19085412306E+04  0.00000000000E+00 0. -1.
         -2   -1    0    0    0  501 -0.00000000000E+00 -0.00000000000E+00 -0.99324040125E+01  0.99324040125E+01  0.00000000000E+00 0. -1.
         36    2    1    2    0    0  0.71054273576E-14  0.00000000000E+00  0.18986088266E+04  0.19184736346E+04  0.27536450444E+03 0.  0.
         25    2    3    3    0    0  0.34654579742E+02 -0.63364947688E+02  0.91494071847E+03  0.92628222424E+03  0.12516462814E+03 0.  0.
         25    2    3    3    0    0 -0.34654579742E+02  0.63364947688E+02  0.98366810812E+03  0.99219141037E+03  0.10781832588E+03 0.  0.
          5    1    4    4  502    0  0.12580104798E+02  0.37980482957E+02  0.22616207013E+03  0.22972189292E+03  0.47000000000E+01 0.  1.
         -5    1    4    4    0  502  0.22074474943E+02 -0.10134543065E+03  0.68877864835E+03  0.69656033132E+03  0.47000000000E+01 0.  1.
          5    1    5    5  503    0 -0.24256016312E+02  0.75816002741E+02  0.95891841541E+03  0.96222816318E+03  0.47000000000E+01 0. -1.
         -5    1    5    5    0  503 -0.10398563429E+02 -0.12451055053E+02  0.24749692707E+02  0.29963247194E+02  0.47000000000E+01 0. -1.
<mgrwt>
<rscale>  0 0.27536450E+03</rscale>
<asrwt>0</asrwt>
<pdfrwt beam="1">  1        2 0.29362144E+00 0.27536450E+03</pdfrwt>
<pdfrwt beam="2">  1       -2 0.15280637E-02 0.27536450E+03</pdfrwt>
<totfact> 0.95296111E+03</totfact>
</mgrwt>
</event>
<event>
 9    1  0.2095749E-002  0.2744785E+03  0.7818608E-02  0.1098743E+00
          2   -1    0    0  501    0  0.00000000000E+00  0.00000000000E+00  0.88510620980E+03  0.88510620980E+03  0.00000000000E+00 0. -1.
         -2   -1    0    0    0  501 -0.00000000000E+00 -0.00000000000E+00 -0.21279489202E+02  0.21279489202E+02  0.00000000000E+00 0. -1.
         36    2    1    2    0    0  0.71054273576E-14 -0.71054273576E-14  0.86382672060E+03  0.90638569900E+03  0.27447847300E+03 0.  0.
         25    2    3    3    0    0  0.28766093812E+02 -0.28668414110E+02  0.46504567536E+03  0.48562325407E+03  0.13383982442E+03 0.  0.
         25    2    3    3    0    0 -0.28766093812E+02  0.28668414110E+02  0.39878104523E+03  0.42076244493E+03  0.12792711560E+03 0.  0.
          5    1    4    4  502    0 -0.36336885277E+02 -0.19596013066E+02  0.48359580917E+02  0.63758231046E+02  0.47000000000E+01 0.  1.
         -5    1    4    4    0  502  0.65102979089E+02 -0.90724010438E+01  0.41668609445E+03  0.42186502303E+03  0.47000000000E+01 0.  1.
          5    1    5    5  503    0 -0.57400896074E+02  0.48690906958E+02  0.13501426459E+03  0.15464995613E+03  0.47000000000E+01 0. -1.
         -5    1    5    5    0  503  0.28634802262E+02 -0.20022492848E+02  0.26376678065E+03  0.26611248880E+03  0.47000000000E+01 0. -1.
<mgrwt>
<rscale>  0 0.27447847E+03</rscale>
<asrwt>0</asrwt>
<pdfrwt beam="1">  1        2 0.13617016E+00 0.27447847E+03</pdfrwt>
<pdfrwt beam="2">  1       -2 0.32737683E-02 0.27447847E+03</pdfrwt>
<totfact> 0.11510866E+04</totfact>
</mgrwt>
</event>
<event>
 9    1  0.2095749E-002  0.2745629E+03  0.7818608E-02  0.1098696E+00
          2   -1    0    0  501    0  0.00000000000E+00  0.00000000000E+00  0.36535629170E+02  0.36535629170E+02  0.00000000000E+00 0.  1.
         -2   -1    0    0    0  501 -0.00000000000E+00 -0.00000000000E+00 -0.51583059576E+03  0.51583059576E+03  0.00000000000E+00 0.  1.
         36    2    1    2    0    0  0.00000000000E+00  0.71054273576E-14 -0.47929496659E+03  0.55236622493E+03  0.27456289160E+03 0.  0.
         25    2    3    3    0    0  0.44320178080E+02  0.20849262620E+02 -0.28240496207E+03  0.31204135647E+03  0.12336237518E+03 0.  0.
         25    2    3    3    0    0 -0.44320178080E+02 -0.20849262620E+02 -0.19689000452E+03  0.24032486846E+03  0.12880760297E+03 0.  0.
          5    1    4    4  502    0 -0.78895633207E+01 -0.45797479511E+02 -0.80775279348E+02  0.93308038736E+02  0.47000000000E+01 0.  1.
         -5    1    4    4    0  502  0.52209741401E+02  0.66646742131E+02 -0.20162968272E+03  0.21873331774E+03  0.47000000000E+01 0.  1.
          5    1    5    5  503    0 -0.45527159620E+02 -0.59885480993E+02 -0.18414745287E+03  0.19897579626E+03  0.47000000000E+01 0. -1.
         -5    1    5    5    0  503  0.12069815393E+01  0.39036218373E+02 -0.12742551649E+02  0.41349072200E+02  0.47000000000E+01 0. -1.
<mgrwt>
<rscale>  0 0.27456289E+03</rscale>
<asrwt>0</asrwt>
<pdfrwt beam="1">  1        2 0.56208664E-02 0.27456289E+03</pdfrwt>
<pdfrwt beam="2">  1       -2 0.79358547E-01 0.27456289E+03</pdfrwt>
<totfact> 0.19483679E+03</totfact>
</mgrwt>
</event>
<event>
 9    1  0.2095749E-002  0.2755938E+03  0.7818608E-02  0.1098120E+00
         -1   -1    0    0    0  501 -0.00000000000E+00  0.00000000000E+00  0.69339575848E+03  0.69339575848E+03  0.00000000000E+00 0.  1.
          1   -1    0    0  501    0  0.00000000000E+00 -0.00000000000E+00 -0.27384060776E+02  0.27384060776E+02  0.00000000000E+00 0.  1.
         36    2    1    2    0    0  0.71054273576E-14  0.17763568394E-14  0.66601169770E+03  0.72077981926E+03  0.27559384313E+03 0.  0.
         25    2    3    3    0    0 -0.22193296603E+02  0.15711765228E+02  0.21965016676E+03  0.25368864596E+03  0.12398520619E+03 0.  0.
         25    2    3    3    0    0  0.22193296603E+02 -0.15711765228E+02  0.44636153095E+03  0.46709117329E+03  0.13489309054E+03 0.  0.
          5    1    4    4  502    0 -0.33299902819E+02  0.45947988764E+02  0.21297934783E+03  0.22045950603E+03  0.47000000000E+01 0.  1.
         -5    1    4    4    0  502  0.11106606216E+02 -0.30236223536E+02  0.66708189264E+01  0.33229139931E+02  0.47000000000E+01 0.  1.
          5    1    5    5  503    0 -0.20706573069E+02 -0.24439086425E+02  0.19145335950E+02  0.37612032679E+02  0.47000000000E+01 0. -1.
         -5    1    5    5    0  503  0.42899869672E+02  0.87273211978E+01  0.42721619500E+03  0.42947914061E+03  0.47000000000E+01 0. -1.
<mgrwt>
<rscale>  0 0.27559384E+03</rscale>
<asrwt>0</asrwt>
<pdfrwt beam="1">  1        1 0.42129329E-02 0.27559384E+03</pdfrwt>
<pdfrwt beam="2">  1       -1 0.10667626E+00 0.27559384E+03</pdfrwt>
<totfact> 0.18394966E+03</totfact>
</mgrwt>
</event>
<event>
 9    1  0.2095749E-002  0.2743224E+03  0.7818608E-02  0.1098831E+00
         -2   -1    0    0    0  501 -0.00000000000E+00  0.00000000000E+00  0.51185880533E+02  0.51185880533E+02  0.00000000000E+00 0.  1.
          2   -1    0    0  501    0  0.00000000000E+00 -0.00000000000E+00 -0.36754654998E+03  0.36754654998E+03  0.00000000000E+00 0.  1.
         36    2    1    2    0    0  0.00000000000E+00 -0.71054273576E-14 -0.31636066945E+03  0.41873243051E+03  0.27432239280E+03 0.  0.
         25    2    3    3    0    0  0.20250429193E+02 -0.44352653778E+02 -0.19024877820E+03  0.23285363453E+03  0.12509588214E+03 0.  0.
         25    2    3    3    0    0 -0.20250429193E+02  0.44352653778E+02 -0.12611189125E+03  0.18587879598E+03  0.12755187142E+03 0.  0.
          5    1    4    4  502    0 -0.12968918660E+02  0.40434504061E+02 -0.68774094612E+02  0.80963621828E+02  0.47000000000E+01 0. -1.
         -5    1    4    4    0  502  0.33219347852E+02 -0.84787157839E+02 -0.12147468359E+03  0.15189001270E+03  0.47000000000E+01 0. -1.
          5    1    5    5  503    0 -0.10670852295E+02  0.29975418984E+02  0.20524016548E+02  0.38153873817E+02  0.47000000000E+01 0.  1.
         -5    1    5    5    0  503 -0.95795768975E+01  0.14377234794E+02 -0.14663590780E+03  0.14772492217E+03  0.47000000000E+01 0.  1.
<mgrwt>
<rscale>  0 0.27432239E+03</rscale>
<asrwt>0</asrwt>
<pdfrwt beam="1">  1        2 0.56545623E-01 0.27432239E+03</pdfrwt>
<pdfrwt beam="2">  1       -2 0.78747509E-02 0.27432239E+03</pdfrwt>
<totfact> 0.84303730E+03</totfact>
</mgrwt>
</event>
<event>
 9    1  0.2095749E-002  0.2747850E+03  0.7818608E-02  0.1098572E+00
         -1   -1    0    0    0  501 -0.00000000000E+00  0.00000000000E+00  0.51674920168E+02  0.51674920168E+02  0.00000000000E+00 0.  1.
          1   -1    0    0  501    0  0.00000000000E+00 -0.00000000000E+00 -0.36529700263E+03  0.36529700263E+03  0.00000000000E+00 0.  1.
         36    2    1    2    0    0  0.00000000000E+00  0.00000000000E+00 -0.31362208246E+03  0.41697192279E+03  0.27478495918E+03 0.  0.
         25    2    3    3    0    0 -0.10887071187E+02 -0.18376769784E+02 -0.23376288723E+03  0.26554429865E+03  0.12414690133E+03 0.  0.
         25    2    3    3    0    0  0.10887071187E+02  0.18376769784E+02 -0.79859195226E+02  0.15142762415E+03  0.12687237802E+03 0.  0.
          5    1    4    4  502    0 -0.49986982163E+01  0.22620987067E+02 -0.22055414625E+03  0.22181730651E+03  0.47000000000E+01 0. -1.
         -5    1    4    4    0  502 -0.58883729704E+01 -0.40997756851E+02 -0.13208740983E+02  0.43726992138E+02  0.47000000000E+01 0. -1.
          5    1    5    5  503    0  0.31388096319E+01  0.69997006287E+02 -0.67874544440E+02  0.97665125802E+02  0.47000000000E+01 0. -1.
         -5    1    5    5    0  503  0.77482615548E+01 -0.51620236503E+02 -0.11984650785E+02  0.53762498344E+02  0.47000000000E+01 0. -1.
<mgrwt>
<rscale>  0 0.27478496E+03</rscale>
<asrwt>0</asrwt>
<pdfrwt beam="1">  1        1 0.56199537E-01 0.27478496E+03</pdfrwt>
<pdfrwt beam="2">  1       -1 0.79499879E-02 0.27478496E+03</pdfrwt>
<totfact> 0.58857761E+03</totfact>
</mgrwt>
</event>
<event>
 9    1  0.2095749E-002  0.2741581E+03  0.7818608E-02  0.1098923E+00
         -2   -1    0    0    0  501 -0.00000000000E+00  0.00000000000E+00  0.23050510888E+02  0.23050510888E+02  0.00000000000E+00 0.  1.
          2   -1    0    0  501    0  0.00000000000E+00 -0.00000000000E+00 -0.81519496357E+03  0.81519496357E+03  0.00000000000E+00 0.  1.
         36    2    1    2    0    0  0.10658141036E-13  0.35527136788E-14 -0.79214445268E+03  0.83824547445E+03  0.27415805940E+03 0.  0.
         25    2    3    3    0    0  0.25069151519E+02  0.20440134503E+02 -0.55644722119E+03  0.57133126142E+03  0.12545771737E+03 0.  0.
         25    2    3    3    0    0 -0.25069151519E+02 -0.20440134503E+02 -0.23569723149E+03  0.26691421304E+03  0.12101136613E+03 0.  0.
          5    1    4    4  502    0 -0.50315415839E+02 -0.23929118611E+00 -0.18963840057E+03  0.19625623888E+03  0.47000000000E+01 0. -1.
         -5    1    4    4    0  502  0.75384567358E+02  0.20679425689E+02 -0.36680882062E+03  0.37507502253E+03  0.47000000000E+01 0. -1.
          5    1    5    5  503    0  0.98679230332E+01  0.22412352174E+02 -0.16719340377E+00  0.24936066021E+02  0.47000000000E+01 0.  1.
         -5    1    5    5    0  503 -0.34937074552E+02 -0.42852486677E+02 -0.23553003809E+03  0.24197814702E+03  0.47000000000E+01 0.  1.
<mgrwt>
<rscale>  0 0.27415806E+03</rscale>
<asrwt>0</asrwt>
<pdfrwt beam="1">  1        2 0.12541461E+00 0.27415806E+03</pdfrwt>
<pdfrwt beam="2">  1       -2 0.35462325E-02 0.27415806E+03</pdfrwt>
<totfact> 0.11371509E+04</totfact>
</mgrwt>
</event>
<event>
 9    1  0.2095749E-002  0.2753453E+03  0.7818608E-02  0.1098259E+00
         -2   -1    0    0    0  501 -0.00000000000E+00  0.00000000000E+00  0.46434451510E+03  0.46434451510E+03  0.00000000000E+00 0. -1.
          2   -1    0    0  501    0  0.00000000000E+00 -0.00000000000E+00 -0.40818296816E+02  0.40818296816E+02  0.00000000000E+00 0. -1.
         36    2    1    2    0    0 -0.71054273576E-14  0.00000000000E+00  0.42352621829E+03  0.50516281192E+03  0.27534525413E+03 0.  0.
         25    2    3    3    0    0  0.12601828525E+02 -0.58311158924E+02  0.21177516007E+03  0.25241743132E+03  0.12372083040E+03 0.  0.
         25    2    3    3    0    0 -0.12601828525E+02  0.58311158924E+02  0.21175105822E+03  0.25274538060E+03  0.12442957615E+03 0.  0.
          5    1    4    4  502    0  0.59733367889E+02  0.16622902518E+01  0.10829175231E+03  0.12377411711E+03  0.47000000000E+01 0.  1.
         -5    1    4    4    0  502 -0.47131539364E+02 -0.59973449175E+02  0.10348340776E+03  0.12864331421E+03  0.47000000000E+01 0.  1.
          5    1    5    5  503    0  0.38460357071E+02  0.16177439232E+02  0.14168430377E+02  0.44314140243E+02  0.47000000000E+01 0. -1.
         -5    1    5    5    0  503 -0.51062185596E+02  0.42133719692E+02  0.19758262784E+03  0.20843124036E+03  0.47000000000E+01 0. -1.
<mgrwt>
<rscale>  0 0.27534525E+03</rscale>
<asrwt>0</asrwt>
<pdfrwt beam="1">  1        2 0.62797383E-02 0.27534525E+03</pdfrwt>
<pdfrwt beam="2">  1       -2 0.71437614E-01 0.27534525E+03</pdfrwt>
<totfact> 0.21197278E+03</totfact>
</mgrwt>
</event>
<event>
 9    1  0.2095749E-002  0.2764705E+03  0.7818608E-02  0.1097632E+00
          1   -1    0    0  501    0  0.00000000000E+00  0.00000000000E+00  0.10749500551E+04  0.10749500551E+04  0.00000000000E+00 0. -1.
         -1   -1    0    0    0  501 -0.00000000000E+00 -0.00000000000E+00 -0.17776627000E+02  0.17776627000E+02  0.00000000000E+00 0. -1.
         36    2    1    2    0    0  0.00000000000E+00 -0.71054273576E-14  0.10571734281E+04  0.10927266821E+04  0.27647051325E+03 0.  0.
         25    2    3    3    0    0 -0.49885783775E+02  0.20576201134E+02  0.52471773392E+03  0.54194779024E+03  0.12436533109E+03 0.  0.
         25    2    3    3    0    0  0.49885783775E+02 -0.20576201134E+02  0.53245569421E+03  0.55077889189E+03  0.13013973252E+03 0.  0.
          5    1    4    4  502    0 -0.24921098547E+02 -0.51912995672E+02  0.25799129787E+03  0.26438158039E+03  0.47000000000E+01 0.  1.
         -5    1    4    4    0  502 -0.24964685229E+02  0.72489196806E+02  0.26672643605E+03  0.27756620985E+03  0.47000000000E+01 0.  1.
          5    1    5    5  503    0 -0.20002845551E+02  0.37217629986E+02  0.96250671186E+02  0.10522142137E+03  0.47000000000E+01 0.  1.
         -5    1    5    5    0  503  0.69888629326E+02 -0.57793831120E+02  0.43620502302E+03  0.44555747052E+03  0.47000000000E+01 0.  1.
<mgrwt>
<rscale>  0 0.27647051E+03</rscale>
<asrwt>0</asrwt>
<pdfrwt beam="1">  1        1 0.16537688E+00 0.27647051E+03</pdfrwt>
<pdfrwt beam="2">  1       -1 0.27348665E-02 0.27647051E+03</pdfrwt>
<totfact> 0.60843916E+03</totfact>
</mgrwt>
</event>
<event>
 9    1  0.2095749E-002  0.2748291E+03  0.7818608E-02  0.1098547E+00
         -2   -1    0    0    0  501 -0.00000000000E+00  0.00000000000E+00  0.15367798972E+03  0.15367798972E+03  0.00000000000E+00 0. -1.
          2   -1    0    0  501    0  0.00000000000E+00 -0.00000000000E+00 -0.12287223872E+03  0.12287223872E+03  0.00000000000E+00 0. -1.
         36    2    1    2    0    0  0.71054273576E-14  0.00000000000E+00  0.30805751000E+02  0.27655022844E+03  0.27482910063E+03 0.  0.
         25    2    3    3    0    0 -0.40747355115E+02 -0.41258839769E+02  0.22019803101E+02  0.13993607986E+03  0.12543761761E+03 0.  0.
         25    2    3    3    0    0  0.40747355115E+02  0.41258839769E+02  0.87859478989E+01  0.13661414858E+03  0.12338392887E+03 0.  0.
          5    1    4    4  502    0 -0.35214308962E+02 -0.38924849470E+02 -0.46929291781E+02  0.70566563535E+02  0.47000000000E+01 0. -1.
         -5    1    4    4    0  502 -0.55330461529E+01 -0.23339902987E+01  0.68949094882E+02  0.69369516327E+02  0.47000000000E+01 0. -1.
          5    1    5    5  503    0  0.40803677908E+02  0.81533999872E+02 -0.10158029913E+02  0.91858635074E+02  0.47000000000E+01 0. -1.
         -5    1    5    5    0  503 -0.56322792989E-01 -0.40275160103E+02  0.18943977812E+02  0.44755513503E+02  0.47000000000E+01 0. -1.
<mgrwt>
<rscale>  0 0.27482910E+03</rscale>
<asrwt>0</asrwt>
<pdfrwt beam="1">  1        2 0.18903421E-01 0.27482910E+03</pdfrwt>
<pdfrwt beam="2">  1       -2 0.23642768E-01 0.27482910E+03</pdfrwt>
<totfact> 0.46230612E+03</totfact>
</mgrwt>
</event>
<event>
 9    1  0.2095749E-002  0.2771403E+03  0.7818608E-02  0.1097261E+00
         -1   -1    0    0    0  501 -0.00000000000E+00  0.00000000000E+00  0.28123128037E+02  0.28123128037E+02  0.00000000000E+00 0. -1.
          1   -1    0    0  501    0  0.00000000000E+00 -0.00000000000E+00 -0.68277227410E+03  0.68277227410E+03  0.00000000000E+00 0. -1.
         36    2    1    2    0    0  0.14210854715E-13  0.00000000000E+00 -0.65464914606E+03  0.71089540213E+03  0.27714034051E+03 0.  0.
         25    2    3    3    0    0 -0.33169309611E+02  0.60205946755E+01 -0.44608847052E+03  0.46790542183E+03  0.13712807732E+03 0.  0.
         25    2    3    3    0    0  0.33169309611E+02 -0.60205946755E+01 -0.20856067554E+03  0.24298998030E+03  0.12004217794E+03 0.  0.
          5    1    4    4  502    0 -0.79897875263E+02 -0.19315315527E+02 -0.33038313440E+03  0.34048767581E+03  0.47000000000E+01 0. -1.
         -5    1    4    4    0  502  0.46728565652E+02  0.25335910203E+02 -0.11570533612E+03  0.12741774602E+03  0.47000000000E+01 0. -1.
          5    1    5    5  503    0  0.14464291591E+02 -0.14445044200E+02 -0.21864766278E+03  0.21965146363E+03  0.47000000000E+01 0.  1.
         -5    1    5    5    0  503  0.18705018020E+02  0.84244495243E+01  0.10086987243E+02  0.23338516674E+02  0.47000000000E+01 0.  1.
<mgrwt>
<rscale>  0 0.27714034E+03</rscale>
<asrwt>0</asrwt>
<pdfrwt beam="1">  1        1 0.10504188E+00 0.27714034E+03</pdfrwt>
<pdfrwt beam="2">  1       -1 0.43266355E-02 0.27714034E+03</pdfrwt>
<totfact> 0.63775570E+03</totfact>
</mgrwt>
</event>
<event>
 9    1  0.2095749E-002  0.2745643E+03  0.7818608E-02  0.1098695E+00
          1   -1    0    0  501    0  0.00000000000E+00  0.00000000000E+00  0.17082033818E+03  0.17082033818E+03  0.00000000000E+00 0.  1.
         -1   -1    0    0    0  501 -0.00000000000E+00 -0.00000000000E+00 -0.11032868993E+03  0.11032868993E+03  0.00000000000E+00 0.  1.
         36    2    1    2    0    0  0.00000000000E+00  0.00000000000E+00  0.60491648256E+02  0.28114902811E+03  0.27456426661E+03 0.  0.
         25    2    3    3    0    0 -0.58928952961E+02 -0.24971691553E+02  0.25567319161E+02  0.14139645574E+03  0.12346280010E+03 0.  0.
         25    2    3    3    0    0  0.58928952961E+02  0.24971691553E+02  0.34924329095E+02  0.13975257237E+03  0.11922611227E+03 0.  0.
          5    1    4    4  502    0 -0.50611832710E+01  0.39030502092E+02 -0.21709182915E+02  0.45192635379E+02  0.47000000000E+01 0.  1.
         -5    1    4    4    0  502 -0.53867769690E+02 -0.64002193645E+02  0.47276502076E+02  0.96203820357E+02  0.47000000000E+01 0.  1.
          5    1    5    5  503    0  0.66298663073E+02 -0.59169476538E+01  0.66867286336E+02  0.94466115495E+02  0.47000000000E+01 0. -1.
         -5    1    5    5    0  503 -0.73697101120E+01  0.30888639207E+02 -0.31942957241E+02  0.45286456877E+02  0.47000000000E+01 0. -1.
<mgrwt>
<rscale>  0 0.27456427E+03</rscale>
<asrwt>0</asrwt>
<pdfrwt beam="1">  1        1 0.26280052E-01 0.27456427E+03</pdfrwt>
<pdfrwt beam="2">  1       -1 0.16973645E-01 0.27456427E+03</pdfrwt>
<totfact> 0.46945923E+03</totfact>
</mgrwt>
</event>
<event>
 9    1  0.2095749E-002  0.2753612E+03  0.7818608E-02  0.1098250E+00
         -2   -1    0    0    0  501 -0.00000000000E+00  0.00000000000E+00  0.68080018509E+02  0.68080018509E+02  0.00000000000E+00 0. -1.
          2   -1    0    0  501    0  0.00000000000E+00 -0.00000000000E+00 -0.27843623583E+03  0.27843623583E+03  0.00000000000E+00 0. -1.
         36    2    1    2    0    0 -0.71054273576E-14 -0.71054273576E-14 -0.21035621732E+03  0.34651625434E+03  0.27536117438E+03 0.  0.
         25    2    3    3    0    0 -0.11468835279E+02 -0.49298180249E+02 -0.13339723931E+03  0.18898582340E+03  0.12393132466E+03 0.  0.
         25    2    3    3    0    0  0.11468835279E+02  0.49298180249E+02 -0.76958978016E+02  0.15753043094E+03  0.12779400462E+03 0.  0.
          5    1    4    4  502    0 -0.77999611779E+01 -0.27553685091E+02 -0.15503988939E+03  0.15773237543E+03  0.47000000000E+01 0. -1.
         -5    1    4    4    0  502 -0.36688741014E+01 -0.21744495158E+02  0.21642650087E+02  0.31253447964E+02  0.47000000000E+01 0. -1.
          5    1    5    5  503    0 -0.54727683730E+02  0.14940070825E+01 -0.38872631325E+02  0.67309159033E+02  0.47000000000E+01 0. -1.
         -5    1    5    5    0  503  0.66196519009E+02  0.47804173166E+02 -0.38086346691E+02  0.90221271911E+02  0.47000000000E+01 0. -1.
<mgrwt>
<rscale>  0 0.27536117E+03</rscale>
<asrwt>0</asrwt>
<pdfrwt beam="1">  1        2 0.42836345E-01 0.27536117E+03</pdfrwt>
<pdfrwt beam="2">  1       -2 0.10473849E-01 0.27536117E+03</pdfrwt>
<totfact> 0.72510923E+03</totfact>
</mgrwt>
</event>
<event>
 9    1  0.2095749E-002  0.2756955E+03  0.7818608E-02  0.1098063E+00
          2   -1    0    0  501    0  0.00000000000E+00  0.00000000000E+00  0.30952765579E+03  0.30952765579E+03  0.00000000000E+00 0.  1.
         -2   -1    0    0    0  501 -0.00000000000E+00 -0.00000000000E+00 -0.61390334766E+02  0.61390334766E+02  0.00000000000E+00 0.  1.
         36    2    1    2    0    0 -0.53290705182E-14 -0.14210854715E-13  0.24813732102E+03  0.37091799055E+03  0.27569553067E+03 0.  0.
         25    2    3    3    0    0 -0.23842821635E+00 -0.61622927467E+02  0.17107418747E+03  0.21230131212E+03  0.10958114561E+03 0.  0.
         25    2    3    3    0    0  0.23842821635E+00  0.61622927467E+02  0.77063133555E+02  0.15861667843E+03  0.12418970201E+03 0.  0.
          5    1    4    4  502    0  0.14806742854E+02 -0.77081696789E+01 -0.11812429547E+02  0.20982826443E+02  0.47000000000E+01 0. -1.
         -5    1    4    4    0  502 -0.15045171071E+02 -0.53914757788E+02  0.18288661701E+03  0.19131848568E+03  0.47000000000E+01 0. -1.
          5    1    5    5  503    0 -0.40994870296E+02 -0.20739784658E+02  0.30047428213E+02  0.55096787570E+02  0.47000000000E+01 0.  1.
         -5    1    5    5    0  503  0.41233298513E+02  0.82362712126E+02  0.47015705342E+02  0.10351989086E+03  0.47000000000E+01 0.  1.
<mgrwt>
<rscale>  0 0.27569553E+03</rscale>
<asrwt>0</asrwt>
<pdfrwt beam="1">  1        2 0.47619638E-01 0.27569553E+03</pdfrwt>
<pdfrwt beam="2">  1       -2 0.94446671E-02 0.27569553E+03</pdfrwt>
<totfact> 0.76268640E+03</totfact>
</mgrwt>
</event>
<event>
 9    1  0.2095749E-002  0.2713672E+03  0.7818608E-02  0.1100500E+00
          1   -1    0    0  501    0  0.00000000000E+00  0.00000000000E+00  0.81051611221E+02  0.81051611221E+02  0.00000000000E+00 0.  1.
         -1   -1    0    0    0  501 -0.00000000000E+00 -0.00000000000E+00 -0.22713968236E+03  0.22713968236E+03  0.00000000000E+00 0.  1.
         36    2    1    2    0    0  0.00000000000E+00  0.00000000000E+00 -0.14608807114E+03  0.30819129358E+03  0.27136718466E+03 0.  0.
         25    2    3    3    0    0 -0.50603248882E+01  0.62333315630E+01 -0.68186645342E+02  0.14142960113E+03  0.12364648058E+03 0.  0.
         25    2    3    3    0    0  0.50603248882E+01 -0.62333315630E+01 -0.77901425797E+02  0.16676169246E+03  0.14722896664E+03 0.  0.
          5    1    4    4  502    0 -0.18820931637E+02 -0.29768383871E+02  0.22996516112E+02  0.42323916398E+02  0.47000000000E+01 0. -1.
         -5    1    4    4    0  502  0.13760606749E+02  0.36001715434E+02 -0.91183161455E+02  0.99105684727E+02  0.47000000000E+01 0. -1.
          5    1    5    5  503    0 -0.43850287353E+02  0.33407703287E+02  0.12284894430E+02  0.56673900263E+02  0.47000000000E+01 0. -1.
         -5    1    5    5    0  503  0.48910612241E+02 -0.39641034850E+02 -0.90186320227E+02  0.11008779219E+03  0.47000000000E+01 0. -1.
<mgrwt>
<rscale>  0 0.27136718E+03</rscale>
<asrwt>0</asrwt>
<pdfrwt beam="1">  1        1 0.12469479E-01 0.27136718E+03</pdfrwt>
<pdfrwt beam="2">  1       -1 0.34944567E-01 0.27136718E+03</pdfrwt>
<totfact> 0.37164356E+03</totfact>
</mgrwt>
</event>
<event>
 9    1  0.2095749E-002  0.2740666E+03  0.7818608E-02  0.1098974E+00
         -2   -1    0    0    0  501 -0.00000000000E+00  0.00000000000E+00  0.16049267358E+04  0.16049267358E+04  0.00000000000E+00 0.  1.
          2   -1    0    0  501    0  0.00000000000E+00 -0.00000000000E+00 -0.11700302304E+02  0.11700302304E+02  0.00000000000E+00 0.  1.
         36    2    1    2    0    0  0.71054273576E-14  0.35527136788E-14  0.15932264335E+04  0.16166270381E+04  0.27406661953E+03 0.  0.
         25    2    3    3    0    0  0.46375289060E+02 -0.10761990578E+02  0.97859324786E+03  0.98759002730E+03  0.12418868458E+03 0.  0.
         25    2    3    3    0    0 -0.46375289060E+02  0.10761990578E+02  0.61463318565E+03  0.62903701082E+03  0.12508844954E+03 0.  0.
          5    1    4    4  502    0  0.88764536492E+01 -0.65372099203E+02  0.52889557305E+03  0.53301493410E+03  0.47000000000E+01 0. -1.
         -5    1    4    4    0  502  0.37498835411E+02  0.54610108625E+02  0.44969767482E+03  0.45457509320E+03  0.47000000000E+01 0. -1.
          5    1    5    5  503    0  0.49497138509E+01  0.36117368528E+02  0.49464890468E+03  0.49601269427E+03  0.47000000000E+01 0. -1.
         -5    1    5    5    0  503 -0.51325002911E+02 -0.25355377950E+02  0.11998428097E+03  0.13302431656E+03  0.47000000000E+01 0. -1.
<mgrwt>
<rscale>  0 0.27406662E+03</rscale>
<asrwt>0</asrwt>
<pdfrwt beam="1">  1        2 0.18000478E-02 0.27406662E+03</pdfrwt>
<pdfrwt beam="2">  1       -2 0.24691163E+00 0.27406662E+03</pdfrwt>
<totfact> 0.47413324E+02</totfact>
</mgrwt>
</event>
<event>
 9    1  0.2095749E-002  0.2753425E+03  0.7818608E-02  0.1098260E+00
          2   -1    0    0  501    0  0.00000000000E+00  0.00000000000E+00  0.39243348254E+03  0.39243348254E+03  0.00000000000E+00 0.  1.
         -2   -1    0    0    0  501 -0.00000000000E+00 -0.00000000000E+00 -0.48297040811E+02  0.48297040811E+02  0.00000000000E+00 0.  1.
         36    2    1    2    0    0 -0.71054273576E-14  0.71054273576E-14  0.34413644173E+03  0.44073052335E+03  0.27534252067E+03 0.  0.
         25    2    3    3    0    0 -0.35032485127E+02  0.37633546047E+02  0.12161444514E+03  0.17825279115E+03  0.11975151558E+03 0.  0.
         25    2    3    3    0    0  0.35032485127E+02 -0.37633546047E+02  0.22252199659E+03  0.26247773221E+03  0.12936368167E+03 0.  0.
          5    1    4    4  502    0 -0.17518178385E+02  0.79690150270E+02  0.59564006752E+02  0.10113044806E+03  0.47000000000E+01 0. -1.
         -5    1    4    4    0  502 -0.17514306741E+02 -0.42056604223E+02  0.62050438387E+02  0.77122343088E+02  0.47000000000E+01 0. -1.
          5    1    5    5  503    0  0.83868360077E+02 -0.27929977563E+02  0.12950263496E+03  0.15686621029E+03  0.47000000000E+01 0. -1.
         -5    1    5    5    0  503 -0.48835874950E+02 -0.97035684837E+01  0.93019361632E+02  0.10561152192E+03  0.47000000000E+01 0. -1.
<mgrwt>
<rscale>  0 0.27534252E+03</rscale>
<asrwt>0</asrwt>
<pdfrwt beam="1">  1        2 0.60374380E-01 0.27534252E+03</pdfrwt>
<pdfrwt beam="2">  1       -2 0.74303142E-02 0.27534252E+03</pdfrwt>
<totfact> 0.85978728E+03</totfact>
</mgrwt>
</event>
<event>
 9    1  0.2095749E-002  0.2758068E+03  0.7818608E-02  0.1098001E+00
         -2   -1    0    0    0  501 -0.00000000000E+00  0.00000000000E+00  0.18855615515E+03  0.18855615515E+03  0.00000000000E+00 0.  1.
          2   -1    0    0  501    0  0.00000000000E+00 -0.00000000000E+00 -0.10085773741E+03  0.10085773741E+03  0.00000000000E+00 0.  1.
         36    2    1    2    0    0  0.00000000000E+00  0.71054273576E-14  0.87698417741E+02  0.28941389257E+03  0.27580679603E+03 0.  0.
         25    2    3    3    0    0 -0.29009512221E+02  0.43518290235E+02  0.20959679160E+02  0.14016640852E+03  0.12834298011E+03 0.  0.
         25    2    3    3    0    0  0.29009512221E+02 -0.43518290235E+02  0.66738738582E+02  0.14924748404E+03  0.12282246896E+03 0.  0.
          5    1    4    4  502    0 -0.25515851739E+02 -0.41812319045E+02  0.23642707391E+02  0.54593006207E+02  0.47000000000E+01 0.  1.
         -5    1    4    4    0  502 -0.34936604820E+01  0.85330609280E+02 -0.26830282313E+01  0.85573402318E+02  0.47000000000E+01 0.  1.
          5    1    5    5  503    0  0.35198551915E+02  0.36136097797E+02  0.11356666405E+02  0.51921281695E+02  0.47000000000E+01 0. -1.
         -5    1    5    5    0  503 -0.61890396940E+01 -0.79654388033E+02  0.55382072176E+02  0.97326202349E+02  0.47000000000E+01 0. -1.
<mgrwt>
<rscale>  0 0.27580680E+03</rscale>
<asrwt>0</asrwt>
<pdfrwt beam="1">  1        2 0.15516575E-01 0.27580680E+03</pdfrwt>
<pdfrwt beam="2">  1       -2 0.29008639E-01 0.27580680E+03</pdfrwt>
<totfact> 0.40471815E+03</totfact>
</mgrwt>
</event>
<event>
 9    1  0.2095749E-002  0.2749519E+03  0.7818608E-02  0.1098478E+00
         -1   -1    0    0    0  501 -0.00000000000E+00  0.00000000000E+00  0.62299946429E+02  0.62299946429E+02  0.00000000000E+00 0.  1.
          1   -1    0    0  501    0  0.00000000000E+00 -0.00000000000E+00 -0.30336529384E+03  0.30336529384E+03  0.00000000000E+00 0.  1.
         36    2    1    2    0    0 -0.71054273576E-14  0.00000000000E+00 -0.24106534741E+03  0.36566524027E+03  0.27495193438E+03 0.  0.
         25    2    3    3    0    0  0.25066658174E+02 -0.11770533053E+02 -0.10666677887E+03  0.17275735409E+03  0.13304292118E+03 0.  0.
         25    2    3    3    0    0 -0.25066658174E+02  0.11770533053E+02 -0.13439856854E+03  0.19290788618E+03  0.13558611479E+03 0.  0.
          5    1    4    4  502    0  0.30737841420E+02  0.49804037661E+02 -0.12539629296E+02  0.60038232530E+02  0.47000000000E+01 0.  1.
         -5    1    4    4    0  502 -0.56711832463E+01 -0.61574570714E+02 -0.94127149570E+02  0.11271912156E+03  0.47000000000E+01 0.  1.
          5    1    5    5  503    0 -0.40022353694E+02  0.27566984813E+01  0.14499904678E+02  0.42915328466E+02  0.47000000000E+01 0. -1.
         -5    1    5    5    0  503  0.14955695520E+02  0.90138345719E+01 -0.14889847322E+03  0.14999255771E+03  0.47000000000E+01 0. -1.
<mgrwt>
<rscale>  0 0.27495193E+03</rscale>
<asrwt>0</asrwt>
<pdfrwt beam="1">  1        1 0.46671584E-01 0.27495193E+03</pdfrwt>
<pdfrwt beam="2">  1       -1 0.95846070E-02 0.27495193E+03</pdfrwt>
<totfact> 0.55876915E+03</totfact>
</mgrwt>
</event>
<event>
 9    1  0.2095749E-002  0.2753067E+03  0.7818608E-02  0.1098280E+00
          2   -1    0    0  501    0  0.00000000000E+00  0.00000000000E+00  0.25684711137E+04  0.25684711137E+04  0.00000000000E+00 0. -1.
         -2   -1    0    0    0  501 -0.00000000000E+00 -0.00000000000E+00 -0.73773271096E+01  0.73773271096E+01  0.00000000000E+00 0. -1.
         36    2    1    2    0    0  0.00000000000E+00  0.71054273576E-14  0.25610937866E+04  0.25758484408E+04  0.27530674948E+03 0.  0.
         25    2    3    3    0    0  0.22874795093E+02 -0.55484888399E+02  0.15755531056E+04  0.15803566355E+04  0.10750663948E+03 0.  0.
         25    2    3    3    0    0 -0.22874795093E+02  0.55484888399E+02  0.98554068094E+03  0.99549180531E+03  0.12693175951E+03 0.  0.
          5    1    4    4  502    0 -0.10630712730E+02 -0.79271387545E+02  0.91020925543E+03  0.91372859407E+03  0.47000000000E+01 0. -1.
         -5    1    4    4    0  502  0.33505507823E+02  0.23786499146E+02  0.66534385019E+03  0.66662804140E+03  0.47000000000E+01 0. -1.
          5    1    5    5  503    0 -0.67384014043E+02  0.61753340254E+02  0.75810374093E+03  0.76360817989E+03  0.47000000000E+01 0. -1.
         -5    1    5    5    0  503  0.44509218950E+02 -0.62684518556E+01  0.22743694000E+03  0.23188362542E+03  0.47000000000E+01 0. -1.
<mgrwt>
<rscale>  0 0.27530675E+03</rscale>
<asrwt>0</asrwt>
<pdfrwt beam="1">  1        2 0.39514869E+00 0.27530675E+03</pdfrwt>
<pdfrwt beam="2">  1       -2 0.11349754E-02 0.27530675E+03</pdfrwt>
<totfact> 0.65203687E+03</totfact>
</mgrwt>
</event>
<event>
 9    1  0.2095749E-002  0.2739312E+03  0.7818608E-02  0.1099051E+00
          4   -1    0    0  501    0  0.00000000000E+00  0.00000000000E+00  0.40840153127E+02  0.40840153127E+02  0.00000000000E+00 0. -1.
         -4   -1    0    0    0  501 -0.00000000000E+00 -0.00000000000E+00 -0.45934141896E+03  0.45934141896E+03  0.00000000000E+00 0. -1.
         36    2    1    2    0    0 -0.71054273576E-14  0.00000000000E+00 -0.41850126584E+03  0.50018157209E+03  0.27393118762E+03 0.  0.
         25    2    3    3    0    0  0.18143117624E+02  0.71080619501E+01 -0.22281432266E+03  0.25524179501E+03  0.12297338848E+03 0.  0.
         25    2    3    3    0    0 -0.18143117624E+02 -0.71080619501E+01 -0.19568694317E+03  0.24493977708E+03  0.14602197577E+03 0.  0.
          5    1    4    4  502    0  0.53065978660E+02 -0.22215674611E+02 -0.49727338271E+02  0.76186826033E+02  0.47000000000E+01 0. -1.
         -5    1    4    4    0  502 -0.34922861036E+02  0.29323736561E+02 -0.17308698439E+03  0.17905496897E+03  0.47000000000E+01 0. -1.
          5    1    5    5  503    0  0.38321694793E+02  0.25746171066E+02 -0.16719315966E+03  0.17351386185E+03  0.47000000000E+01 0.  1.
         -5    1    5    5    0  503 -0.56464812417E+02 -0.32854233016E+02 -0.28493783516E+02  0.71425915236E+02  0.47000000000E+01 0.  1.
<mgrwt>
<rscale>  0 0.27393119E+03</rscale>
<asrwt>0</asrwt>
<pdfrwt beam="1">  1        4 0.62831006E-02 0.27393119E+03</pdfrwt>
<pdfrwt beam="2">  1       -4 0.70667910E-01 0.27393119E+03</pdfrwt>
<totfact> 0.57558608E+02</totfact>
</mgrwt>
</event>
<event>
 9    1  0.2095749E-002  0.2739754E+03  0.7818608E-02  0.1099026E+00
          2   -1    0    0  501    0  0.00000000000E+00  0.00000000000E+00  0.17356502991E+03  0.17356502991E+03  0.00000000000E+00 0.  1.
         -2   -1    0    0    0  501 -0.00000000000E+00 -0.00000000000E+00 -0.10811873945E+03  0.10811873945E+03  0.00000000000E+00 0.  1.
         36    2    1    2    0    0  0.00000000000E+00 -0.71054273576E-14  0.65446290460E+02  0.28168376937E+03  0.27397541676E+03 0.  0.
         25    2    3    3    0    0 -0.46910906359E+02  0.32349761373E+02  0.38699984563E+02  0.14238606206E+03  0.12461525455E+03 0.  0.
         25    2    3    3    0    0  0.46910906359E+02 -0.32349761373E+02  0.26746305897E+02  0.13929770730E+03  0.12426321332E+03 0.  0.
          5    1    4    4  502    0  0.29194464672E+02  0.18011442869E+02 -0.24418016331E+02  0.42368129098E+02  0.47000000000E+01 0.  1.
         -5    1    4    4    0  502 -0.76105371031E+02  0.14338318504E+02  0.63118000894E+02  0.10001793296E+03  0.47000000000E+01 0.  1.
          5    1    5    5  503    0  0.15976493901E+02  0.45986447140E+02  0.24994522432E+02  0.54925566265E+02  0.47000000000E+01 0.  1.
         -5    1    5    5    0  503  0.30934412458E+02 -0.78336208513E+02  0.17517834652E+01  0.84372141040E+02  0.47000000000E+01 0.  1.
<mgrwt>
<rscale>  0 0.27397542E+03</rscale>
<asrwt>0</asrwt>
<pdfrwt beam="1">  1        2 0.26702312E-01 0.27397542E+03</pdfrwt>
<pdfrwt beam="2">  1       -2 0.16633652E-01 0.27397542E+03</pdfrwt>
<totfact> 0.57055895E+03</totfact>
</mgrwt>
</event>
<event>
 9    1  0.2095749E-002  0.2745358E+03  0.7818608E-02  0.1098711E+00
          1   -1    0    0  501    0  0.00000000000E+00  0.00000000000E+00  0.28776444586E+04  0.28776444586E+04  0.00000000000E+00 0. -1.
         -1   -1    0    0    0  501 -0.00000000000E+00 -0.00000000000E+00 -0.65478836200E+01  0.65478836200E+01  0.00000000000E+00 0. -1.
         36    2    1    2    0    0  0.71054273576E-14  0.71054273576E-14  0.28710965750E+04  0.28841923422E+04  0.27453583383E+03 0.  0.
         25    2    3    3    0    0 -0.21939434045E+02 -0.52289437879E+02  0.16789508266E+04  0.16845773549E+04  0.12533739400E+03 0.  0.
         25    2    3    3    0    0  0.21939434045E+02  0.52289437879E+02  0.11921457484E+04  0.11996149873E+04  0.12103350116E+03 0.  0.
          5    1    4    4  502    0  0.21843164348E+02 -0.76737522655E+02  0.12743292013E+04  0.12768331037E+04  0.47000000000E+01 0.  1.
         -5    1    4    4    0  502 -0.43782598393E+02  0.24448084776E+02  0.40462162528E+03  0.40774425123E+03  0.47000000000E+01 0.  1.
          5    1    5    5  503    0 -0.33642409396E+02 -0.10739061298E+02  0.15418737962E+03  0.15824973043E+03  0.47000000000E+01 0.  1.
         -5    1    5    5    0  503  0.55581843441E+02  0.63028499176E+02  0.10379583687E+04  0.10413652569E+04  0.47000000000E+01 0.  1.
<mgrwt>
<rscale>  0 0.27453583E+03</rscale>
<asrwt>0</asrwt>
<pdfrwt beam="1">  1        1 0.44271352E+00 0.27453583E+03</pdfrwt>
<pdfrwt beam="2">  1       -1 0.10073690E-02 0.27453583E+03</pdfrwt>
<totfact> 0.16384578E+03</totfact>
</mgrwt>
</event>
<event>
 9    1  0.2095749E-002  0.2750033E+03  0.7818608E-02  0.1098450E+00
          4   -1    0    0  501    0  0.00000000000E+00  0.00000000000E+00  0.21881875029E+03  0.21881875029E+03  0.00000000000E+00 0. -1.
         -4   -1    0    0    0  501 -0.00000000000E+00 -0.00000000000E+00 -0.86403520194E+02  0.86403520194E+02  0.00000000000E+00 0. -1.
         36    2    1    2    0    0  0.00000000000E+00 -0.71054273576E-14  0.13241523010E+03  0.30522227049E+03  0.27500334769E+03 0.  0.
         25    2    3    3    0    0  0.38188268399E+02  0.57777690974E+01  0.17368080251E+02  0.12726473854E+03  0.12001223689E+03 0.  0.
         25    2    3    3    0    0 -0.38188268399E+02 -0.57777690974E+01  0.11504714985E+03  0.17795753195E+03  0.13015878776E+03 0.  0.
          5    1    4    4  502    0 -0.27052532007E+02  0.25934324852E+02 -0.26346692759E+02  0.46050699374E+02  0.47000000000E+01 0.  1.
         -5    1    4    4    0  502  0.65240800406E+02 -0.20156555754E+02  0.43714773010E+02  0.81214039161E+02  0.47000000000E+01 0.  1.
          5    1    5    5  503    0  0.31133123245E+02 -0.43739484488E+02  0.29676670996E+02  0.61524049507E+02  0.47000000000E+01 0. -1.
         -5    1    5    5    0  503 -0.69321391643E+02  0.37961715391E+02  0.85370478851E+02  0.11643348244E+03  0.47000000000E+01 0. -1.
<mgrwt>
<rscale>  0 0.27500335E+03</rscale>
<asrwt>0</asrwt>
<pdfrwt beam="1">  1        4 0.33664423E-01 0.27500335E+03</pdfrwt>
<pdfrwt beam="2">  1       -4 0.13292849E-01 0.27500335E+03</pdfrwt>
<totfact> 0.74413785E+02</totfact>
</mgrwt>
</event>
<event>
 9    1  0.2095749E-002  0.2745403E+03  0.7818608E-02  0.1098709E+00
          2   -1    0    0  501    0  0.00000000000E+00  0.00000000000E+00  0.84692950278E+03  0.84692950278E+03  0.00000000000E+00 0.  1.
         -2   -1    0    0    0  501 -0.00000000000E+00 -0.00000000000E+00 -0.22248712240E+02  0.22248712240E+02  0.00000000000E+00 0.  1.
         36    2    1    2    0    0 -0.71054273576E-14  0.00000000000E+00  0.82468079054E+03  0.86917821502E+03  0.27454027606E+03 0.  0.
         25    2    3    3    0    0 -0.28920946718E+02  0.13145993512E+02  0.53398592274E+03  0.55121179393E+03  0.13298209573E+03 0.  0.
         25    2    3    3    0    0  0.28920946718E+02 -0.13145993512E+02  0.29069486781E+03  0.31796642109E+03  0.12485952294E+03 0.  0.
          5    1    4    4  502    0 -0.35821400844E+02  0.62744525126E+02  0.42572471374E+03  0.43183755056E+03  0.47000000000E+01 0.  1.
         -5    1    4    4    0  502  0.69004541261E+01 -0.49598531614E+02  0.10826120900E+03  0.11937424337E+03  0.47000000000E+01 0.  1.
          5    1    5    5  503    0 -0.12886830140E+02 -0.58960764282E+02  0.95216623162E+02  0.11283056963E+03  0.47000000000E+01 0. -1.
         -5    1    5    5    0  503  0.41807776859E+02  0.45814770771E+02  0.19547824464E+03  0.20513585146E+03  0.47000000000E+01 0. -1.
<mgrwt>
<rscale>  0 0.27454028E+03</rscale>
<asrwt>0</asrwt>
<pdfrwt beam="1">  1        2 0.13029682E+00 0.27454028E+03</pdfrwt>
<pdfrwt beam="2">  1       -2 0.34228795E-02 0.27454028E+03</pdfrwt>
<totfact> 0.11413101E+04</totfact>
</mgrwt>
</event>
<event>
 9    1  0.2095749E-002  0.2749345E+03  0.7818608E-02  0.1098488E+00
         -2   -1    0    0    0  501 -0.00000000000E+00  0.00000000000E+00  0.25700034137E+02  0.25700034137E+02  0.00000000000E+00 0.  1.
          2   -1    0    0  501    0  0.00000000000E+00 -0.00000000000E+00 -0.73530053490E+03  0.73530053490E+03  0.00000000000E+00 0.  1.
         36    2    1    2    0    0  0.14210854715E-13  0.35527136788E-14 -0.70960050076E+03  0.76100056904E+03  0.27493452928E+03 0.  0.
         25    2    3    3    0    0 -0.60662138241E+02 -0.11337540322E+02 -0.34463510412E+03  0.37106199049E+03  0.12290325851E+03 0.  0.
         25    2    3    3    0    0  0.60662138241E+02  0.11337540322E+02 -0.36496539664E+03  0.38993857855E+03  0.12265365654E+03 0.  0.
          5    1    4    4  502    0 -0.12540213227E+02 -0.12525300171E+02  0.42645937732E+01  0.18825962185E+02  0.47000000000E+01 0. -1.
         -5    1    4    4    0  502 -0.48121925014E+02  0.11877598491E+01 -0.34889969790E+03  0.35223602830E+03  0.47000000000E+01 0. -1.
          5    1    5    5  503    0  0.30560750785E+02  0.66873376812E+02 -0.20869802321E+03  0.22132095000E+03  0.47000000000E+01 0.  1.
         -5    1    5    5    0  503  0.30101387455E+02 -0.55535836490E+02 -0.15626737343E+03  0.16861762855E+03  0.47000000000E+01 0.  1.
<mgrwt>
<rscale>  0 0.27493453E+03</rscale>
<asrwt>0</asrwt>
<pdfrwt beam="1">  1        2 0.11312316E+00 0.27493453E+03</pdfrwt>
<pdfrwt beam="2">  1       -2 0.39538514E-02 0.27493453E+03</pdfrwt>
<totfact> 0.10997464E+04</totfact>
</mgrwt>
</event>
<event>
 9    1  0.2095749E-002  0.2744360E+03  0.7818608E-02  0.1098767E+00
         -2   -1    0    0    0  501 -0.00000000000E+00  0.00000000000E+00  0.22908609614E+02  0.22908609614E+02  0.00000000000E+00 0. -1.
          2   -1    0    0  501    0  0.00000000000E+00 -0.00000000000E+00 -0.82190855690E+03  0.82190855690E+03  0.00000000000E+00 0. -1.
         36    2    1    2    0    0 -0.35527136788E-14  0.00000000000E+00 -0.79899994729E+03  0.84481716651E+03  0.27443602000E+03 0.  0.
         25    2    3    3    0    0  0.11166733003E+02  0.50165159757E+02 -0.40963919914E+03  0.43203841628E+03  0.12732509764E+03 0.  0.
         25    2    3    3    0    0 -0.11166733003E+02 -0.50165159757E+02 -0.38936074815E+03  0.41277875024E+03  0.12705615007E+03 0.  0.
          5    1    4    4  502    0  0.22993796031E+02  0.86864143261E+02 -0.20700667085E+03  0.22571651649E+03  0.47000000000E+01 0.  1.
         -5    1    4    4    0  502 -0.11827063028E+02 -0.36698983505E+02 -0.20263252829E+03  0.20632189979E+03  0.47000000000E+01 0.  1.
          5    1    5    5  503    0  0.18096756624E+02 -0.41094471075E+02 -0.35158414143E+02  0.57222829695E+02  0.47000000000E+01 0.  1.
         -5    1    5    5    0  503 -0.29263489627E+02 -0.90706886812E+01 -0.35420233400E+03  0.35555592054E+03  0.47000000000E+01 0.  1.
<mgrwt>
<rscale>  0 0.27443602E+03</rscale>
<asrwt>0</asrwt>
<pdfrwt beam="1">  1        2 0.12644743E+00 0.27443602E+03</pdfrwt>
<pdfrwt beam="2">  1       -2 0.35244026E-02 0.27443602E+03</pdfrwt>
<totfact> 0.11357222E+04</totfact>
</mgrwt>
</event>
<event>
 9    1  0.2095749E-002  0.2754378E+03  0.7818608E-02  0.1098207E+00
          2   -1    0    0  501    0  0.00000000000E+00  0.00000000000E+00  0.13001343394E+04  0.13001343394E+04  0.00000000000E+00 0. -1.
         -2   -1    0    0    0  501 -0.00000000000E+00 -0.00000000000E+00 -0.14588102234E+02  0.14588102234E+02  0.00000000000E+00 0. -1.
         36    2    1    2    0    0  0.00000000000E+00  0.35527136788E-14  0.12855462371E+04  0.13147224416E+04  0.27543777998E+03 0.  0.
         25    2    3    3    0    0  0.19961321606E+02 -0.27086043375E+02  0.79400051914E+03  0.80469677707E+03  0.12636443532E+03 0.  0.
         25    2    3    3    0    0 -0.19961321606E+02  0.27086043375E+02  0.49154571798E+03  0.51002566452E+03  0.13182138485E+03 0.  0.
          5    1    4    4  502    0 -0.97414731620E+00  0.32076391684E+02  0.59717058648E+03  0.59805070289E+03  0.47000000000E+01 0. -1.
         -5    1    4    4    0  502  0.20935468923E+02 -0.59162435060E+02  0.19682993266E+03  0.20664607418E+03  0.47000000000E+01 0. -1.
          5    1    5    5  503    0 -0.37437792281E+02  0.13569583142E+02  0.48479525639E+03  0.48645066810E+03  0.47000000000E+01 0. -1.
         -5    1    5    5    0  503  0.17476470675E+02  0.13516460233E+02  0.67504615829E+01  0.23574996417E+02  0.47000000000E+01 0. -1.
<mgrwt>
<rscale>  0 0.27543778E+03</rscale>
<asrwt>0</asrwt>
<pdfrwt beam="1">  1        2 0.20002058E+00 0.27543778E+03</pdfrwt>
<pdfrwt beam="2">  1       -2 0.22443245E-02 0.27543778E+03</pdfrwt>
<totfact> 0.11431069E+04</totfact>
</mgrwt>
</event>
<event>
 9    1  0.2095749E-002  0.2741670E+03  0.7818608E-02  0.1098918E+00
         -2   -1    0    0    0  501 -0.00000000000E+00  0.00000000000E+00  0.16597795228E+02  0.16597795228E+02  0.00000000000E+00 0.  1.
          2   -1    0    0  501    0  0.00000000000E+00 -0.00000000000E+00 -0.11321912923E+04  0.11321912923E+04  0.00000000000E+00 0.  1.
         36    2    1    2    0    0 -0.14210854715E-13 -0.35527136788E-14 -0.11155934970E+04  0.11487890875E+04  0.27416695081E+03 0.  0.
         25    2    3    3    0    0 -0.55529346327E+02  0.62377983154E+01 -0.56552096914E+03  0.58148424682E+03  0.12323775531E+03 0.  0.
         25    2    3    3    0    0  0.55529346327E+02 -0.62377983154E+01 -0.55007252790E+03  0.56730484068E+03  0.12701408533E+03 0.  0.
          5    1    4    4  502    0 -0.80251089413E+02  0.39156796936E+02 -0.44894635057E+03  0.45776457682E+03  0.47000000000E+01 0. -1.
         -5    1    4    4    0  502  0.24721743086E+02 -0.32918998621E+02 -0.11657461857E+03  0.12371967001E+03  0.47000000000E+01 0. -1.
          5    1    5    5  503    0 -0.11084720109E+02 -0.24731776671E+02 -0.23458218609E+02  0.36151207691E+02  0.47000000000E+01 0.  1.
         -5    1    5    5    0  503  0.66614066436E+02  0.18493978356E+02 -0.52661430930E+03  0.53115363299E+03  0.47000000000E+01 0.  1.
<mgrwt>
<rscale>  0 0.27416695E+03</rscale>
<asrwt>0</asrwt>
<pdfrwt beam="1">  1        2 0.17418328E+00 0.27416695E+03</pdfrwt>
<pdfrwt beam="2">  1       -2 0.25535068E-02 0.27416695E+03</pdfrwt>
<totfact> 0.11756052E+04</totfact>
</mgrwt>
</event>
<event>
 9    1  0.2095749E-002  0.2752944E+03  0.7818608E-02  0.1098287E+00
          1   -1    0    0  501    0  0.00000000000E+00  0.00000000000E+00  0.30286184246E+03  0.30286184246E+03  0.00000000000E+00 0. -1.
         -1   -1    0    0    0  501 -0.00000000000E+00 -0.00000000000E+00 -0.62559065923E+02  0.62559065923E+02  0.00000000000E+00 0. -1.
         36    2    1    2    0    0 -0.35527136788E-14 -0.71054273576E-14  0.24030277654E+03  0.36542090838E+03  0.27529441671E+03 0.  0.
         25    2    3    3    0    0  0.23016522168E+00  0.41535407725E+02  0.16951766360E+03  0.21450799086E+03  0.12470844719E+03 0.  0.
         25    2    3    3    0    0 -0.23016522168E+00 -0.41535407725E+02  0.70785112936E+02  0.15091291752E+03  0.12664491064E+03 0.  0.
          5    1    4    4  502    0 -0.28022893515E+02 -0.29906013973E+02  0.10916312439E+03  0.11669760049E+03  0.47000000000E+01 0. -1.
         -5    1    4    4    0  502  0.28253058736E+02  0.71441421697E+02  0.60354539211E+02  0.97810390376E+02  0.47000000000E+01 0. -1.
          5    1    5    5  503    0 -0.45535901084E+02  0.22034308044E+02  0.97997249871E+01  0.51741217887E+02  0.47000000000E+01 0. -1.
         -5    1    5    5    0  503  0.45305735863E+02 -0.63569715769E+02  0.60985387948E+02  0.99171699634E+02  0.47000000000E+01 0. -1.
<mgrwt>
<rscale>  0 0.27529442E+03</rscale>
<asrwt>0</asrwt>
<pdfrwt beam="1">  1        1 0.46594129E-01 0.27529442E+03</pdfrwt>
<pdfrwt beam="2">  1       -1 0.96244719E-02 0.27529442E+03</pdfrwt>
<totfact> 0.55638824E+03</totfact>
</mgrwt>
</event>
<event>
 9    1  0.2095749E-002  0.2748666E+03  0.7818608E-02  0.1098526E+00
         -3   -1    0    0    0  501 -0.00000000000E+00  0.00000000000E+00  0.25365973911E+03  0.25365973911E+03  0.00000000000E+00 0.  1.
          3   -1    0    0  501    0  0.00000000000E+00 -0.00000000000E+00 -0.74461632709E+02  0.74461632709E+02  0.00000000000E+00 0.  1.
         36    2    1    2    0    0  0.00000000000E+00  0.71054273576E-14  0.17919810640E+03  0.32812137182E+03  0.27486664640E+03 0.  0.
         25    2    3    3    0    0 -0.48981422510E+02  0.19613302506E+02  0.11513972651E+03  0.17785504586E+03  0.12486552499E+03 0.  0.
         25    2    3    3    0    0  0.48981422510E+02 -0.19613302506E+02  0.64058379885E+02  0.15026632595E+03  0.12527023308E+03 0.  0.
          5    1    4    4  502    0 -0.61015463093E+02 -0.34134648970E+02  0.29732673144E+02  0.76119530011E+02  0.47000000000E+01 0.  1.
         -5    1    4    4    0  502  0.12034040583E+02  0.53747951476E+02  0.85407053367E+02  0.10173551585E+03  0.47000000000E+01 0.  1.
          5    1    5    5  503    0 -0.23675170616E+02  0.28922337710E+01 -0.23759732207E+02  0.33992552044E+02  0.47000000000E+01 0.  1.
         -5    1    5    5    0  503  0.72656593125E+02 -0.22505536277E+02  0.87818112093E+02  0.11627377391E+03  0.47000000000E+01 0.  1.
<mgrwt>
<rscale>  0 0.27486665E+03</rscale>
<asrwt>0</asrwt>
<pdfrwt beam="1">  1        3 0.11455636E-01 0.27486665E+03</pdfrwt>
<pdfrwt beam="2">  1       -3 0.39024575E-01 0.27486665E+03</pdfrwt>
<totfact> 0.97332768E+02</totfact>
</mgrwt>
</event>
<event>
 9    1  0.2095749E-002  0.2737694E+03  0.7818608E-02  0.1099141E+00
          2   -1    0    0  501    0  0.00000000000E+00  0.00000000000E+00  0.78275958470E+03  0.78275958470E+03  0.00000000000E+00 0.  1.
         -2   -1    0    0    0  501 -0.00000000000E+00 -0.00000000000E+00 -0.23937641233E+02  0.23937641233E+02  0.00000000000E+00 0.  1.
         36    2    1    2    0    0  0.00000000000E+00  0.00000000000E+00  0.75882194346E+03  0.80669722593E+03  0.27376937820E+03 0.  0.
         25    2    3    3    0    0  0.39980100418E+02  0.27573590818E+02  0.30308312828E+03  0.33080086523E+03  0.12333336310E+03 0.  0.
         25    2    3    3    0    0 -0.39980100418E+02 -0.27573590818E+02  0.45573881518E+03  0.47589636069E+03  0.12814354106E+03 0.  0.
          5    1    4    4  502    0 -0.79900880944E+01  0.22661450683E+02  0.63047221335E+00  0.24492250816E+02  0.47000000000E+01 0.  1.
         -5    1    4    4    0  502  0.47970188512E+02  0.49121401346E+01  0.30245265606E+03  0.30630861442E+03  0.47000000000E+01 0.  1.
          5    1    5    5  503    0 -0.76048787697E+02  0.72741020440E+01  0.18005343030E+03  0.19564676954E+03  0.47000000000E+01 0. -1.
         -5    1    5    5    0  503  0.36068687279E+02 -0.34847692862E+02  0.27568538489E+03  0.28024959115E+03  0.47000000000E+01 0. -1.
<mgrwt>
<rscale>  0 0.27376938E+03</rscale>
<asrwt>0</asrwt>
<pdfrwt beam="1">  1        2 0.12042453E+00 0.27376938E+03</pdfrwt>
<pdfrwt beam="2">  1       -2 0.36827146E-02 0.27376938E+03</pdfrwt>
<totfact> 0.11315096E+04</totfact>
</mgrwt>
</event>
<event>
 9    1  0.2095749E-002  0.2749914E+03  0.7818608E-02  0.1098456E+00
         -2   -1    0    0    0  501 -0.00000000000E+00  0.00000000000E+00  0.11380538276E+02  0.11380538276E+02  0.00000000000E+00 0. -1.
          2   -1    0    0  501    0  0.00000000000E+00 -0.00000000000E+00 -0.16611745758E+04  0.16611745758E+04  0.00000000000E+00 0. -1.
         36    2    1    2    0    0  0.00000000000E+00  0.00000000000E+00 -0.16497940375E+04  0.16725551140E+04  0.27499135145E+03 0.  0.
         25    2    3    3    0    0  0.94316413031E+01  0.25180643534E-01 -0.11777354859E+04  0.11844153230E+04  0.12525903665E+03 0.  0.
         25    2    3    3    0    0 -0.94316413031E+01 -0.25180643534E-01 -0.47205855162E+03  0.48813979101E+03  0.12390408758E+03 0.  0.
          5    1    4    4  502    0  0.53339713450E+02  0.13434527665E+02 -0.97203380511E+03  0.97360023616E+03  0.47000000000E+01 0. -1.
         -5    1    4    4    0  502 -0.43908072147E+02 -0.13409347021E+02 -0.20570168075E+03  0.21081508687E+03  0.47000000000E+01 0. -1.
          5    1    5    5  503    0 -0.30680513567E+02 -0.48936178821E+02 -0.13581470347E+03  0.14766098737E+03  0.47000000000E+01 0. -1.
         -5    1    5    5    0  503  0.21248872264E+02  0.48910998178E+02 -0.33624384814E+03  0.34047880364E+03  0.47000000000E+01 0. -1.
<mgrwt>
<rscale>  0 0.27499135E+03</rscale>
<asrwt>0</asrwt>
<pdfrwt beam="1">  1        2 0.25556515E+00 0.27499135E+03</pdfrwt>
<pdfrwt beam="2">  1       -2 0.17508532E-02 0.27499135E+03</pdfrwt>
<totfact> 0.10531164E+04</totfact>
</mgrwt>
</event>
<event>
 9    1  0.2095749E-002  0.2750836E+03  0.7818608E-02  0.1098405E+00
          3   -1    0    0  501    0  0.00000000000E+00  0.00000000000E+00  0.68372751434E+02  0.68372751434E+02  0.00000000000E+00 0.  1.
         -3   -1    0    0    0  501 -0.00000000000E+00 -0.00000000000E+00 -0.27668540009E+03  0.27668540009E+03  0.00000000000E+00 0.  1.
         36    2    1    2    0    0 -0.14210854715E-13  0.71054273576E-14 -0.20831264866E+03  0.34505815153E+03  0.27508356611E+03 0.  0.
         25    2    3    3    0    0  0.41558144714E+02 -0.31576156210E+02 -0.76120236052E+02  0.15460760776E+03  0.12403664380E+03 0.  0.
         25    2    3    3    0    0 -0.41558144714E+02  0.31576156210E+02 -0.13219241261E+03  0.19045054377E+03  0.12677713768E+03 0.  0.
          5    1    4    4  502    0  0.20889566870E+00 -0.73104777223E+02 -0.27262576868E+02  0.78164507212E+02  0.47000000000E+01 0. -1.
         -5    1    4    4    0  502  0.41349249045E+02  0.41528621013E+02 -0.48857659183E+02  0.76443100544E+02  0.47000000000E+01 0. -1.
          5    1    5    5  503    0 -0.73094197583E+02  0.90916312631E+01 -0.13223170170E+03  0.15143557182E+03  0.47000000000E+01 0. -1.
         -5    1    5    5    0  503  0.31536052869E+02  0.22484524947E+02  0.39289088657E-01  0.39014971950E+02  0.47000000000E+01 0. -1.
<mgrwt>
<rscale>  0 0.27508357E+03</rscale>
<asrwt>0</asrwt>
<pdfrwt beam="1">  1        3 0.10518885E-01 0.27508357E+03</pdfrwt>
<pdfrwt beam="2">  1       -3 0.42566984E-01 0.27508357E+03</pdfrwt>
<totfact> 0.94824706E+02</totfact>
</mgrwt>
</event>
<event>
 9    1  0.2095749E-002  0.2751034E+03  0.7818608E-02  0.1098394E+00
         -2   -1    0    0    0  501 -0.00000000000E+00  0.00000000000E+00  0.84182757896E+01  0.84182757896E+01  0.00000000000E+00 0.  1.
          2   -1    0    0  501    0  0.00000000000E+00 -0.00000000000E+00 -0.22475462712E+04  0.22475462712E+04  0.00000000000E+00 0.  1.
         36    2    1    2    0    0  0.00000000000E+00  0.00000000000E+00 -0.22391279954E+04  0.22559645470E+04  0.27510335775E+03 0.  0.
         25    2    3    3    0    0  0.30621684939E+02 -0.30943720494E+02 -0.85649937229E+03  0.86718248167E+03  0.12852657455E+03 0.  0.
         25    2    3    3    0    0 -0.30621684939E+02  0.30943720494E+02 -0.13826286232E+04  0.13887820653E+04  0.12311991731E+03 0.  0.
          5    1    4    4  502    0  0.48961915889E+01 -0.55133197654E+02 -0.78816498763E+03  0.79012010473E+03  0.47000000000E+01 0. -1.
         -5    1    4    4    0  502  0.25725493350E+02  0.24189477161E+02 -0.68334384659E+02  0.77062376943E+02  0.47000000000E+01 0. -1.
          5    1    5    5  503    0  0.81408544361E+01 -0.23122973591E+02 -0.10049718180E+04  0.10052817468E+04  0.47000000000E+01 0. -1.
         -5    1    5    5    0  503 -0.38762539375E+02  0.54066694085E+02 -0.37765680515E+03  0.38350031857E+03  0.47000000000E+01 0. -1.
<mgrwt>
<rscale>  0 0.27510336E+03</rscale>
<asrwt>0</asrwt>
<pdfrwt beam="1">  1        2 0.34577646E+00 0.27510336E+03</pdfrwt>
<pdfrwt beam="2">  1       -2 0.12951189E-02 0.27510336E+03</pdfrwt>
<totfact> 0.80331341E+03</totfact>
</mgrwt>
</event>
<event>
 9    1  0.2095749E-002  0.2747980E+03  0.7818608E-02  0.1098565E+00
          1   -1    0    0  501    0  0.00000000000E+00  0.00000000000E+00  0.94939276500E+02  0.94939276500E+02  0.00000000000E+00 0.  1.
         -1   -1    0    0    0  501 -0.00000000000E+00 -0.00000000000E+00 -0.19884801905E+03  0.19884801905E+03  0.00000000000E+00 0.  1.
         36    2    1    2    0    0  0.71054273576E-14  0.71054273576E-14 -0.10390874255E+03  0.29378729555E+03  0.27479801354E+03 0.  0.
         25    2    3    3    0    0 -0.19635109386E+02 -0.59500487718E+02 -0.41431552485E+02  0.14585826299E+03  0.12502885180E+03 0.  0.
         25    2    3    3    0    0  0.19635109386E+02  0.59500487718E+02 -0.62477190063E+02  0.14792903256E+03  0.11854852946E+03 0.  0.
          5    1    4    4  502    0 -0.56792913090E+02  0.10782348617E+02 -0.30325920755E+02  0.65448036553E+02  0.47000000000E+01 0. -1.
         -5    1    4    4    0  502  0.37157803705E+02 -0.70282836335E+02 -0.11105631730E+02  0.80410226437E+02  0.47000000000E+01 0. -1.
          5    1    5    5  503    0  0.23068104995E+01  0.94539322647E+02 -0.42631812812E+02  0.10383913696E+03  0.47000000000E+01 0. -1.
         -5    1    5    5    0  503  0.17328298886E+02 -0.35038834929E+02 -0.19845377251E+02  0.44089895597E+02  0.47000000000E+01 0. -1.
<mgrwt>
<rscale>  0 0.27479801E+03</rscale>
<asrwt>0</asrwt>
<pdfrwt beam="1">  1        1 0.14606043E-01 0.27479801E+03</pdfrwt>
<pdfrwt beam="2">  1       -1 0.30592003E-01 0.27479801E+03</pdfrwt>
<totfact> 0.37932204E+03</totfact>
</mgrwt>
</event>
<event>
 9    1  0.2095749E-002  0.2750143E+03  0.7818608E-02  0.1098444E+00
          4   -1    0    0  501    0  0.00000000000E+00  0.00000000000E+00  0.28955583923E+03  0.28955583923E+03  0.00000000000E+00 0. -1.
         -4   -1    0    0    0  501 -0.00000000000E+00 -0.00000000000E+00 -0.65300749260E+02  0.65300749260E+02  0.00000000000E+00 0. -1.
         36    2    1    2    0    0  0.00000000000E+00 -0.35527136788E-14  0.22425508997E+03  0.35485658849E+03  0.27501427784E+03 0.  0.
         25    2    3    3    0    0 -0.48304410100E+02 -0.10940959749E+02  0.76177641669E+02  0.15615327184E+03  0.12699523842E+03 0.  0.
         25    2    3    3    0    0  0.48304410100E+02  0.10940959749E+02  0.14807744830E+03  0.19870331665E+03  0.12289449424E+03 0.  0.
          5    1    4    4  502    0  0.17477240680E+02  0.12300198252E+02 -0.24961801348E+02  0.33195336199E+02  0.47000000000E+01 0.  1.
         -5    1    4    4    0  502 -0.65781650780E+02 -0.23241158001E+02  0.10113944302E+03  0.12295793565E+03  0.47000000000E+01 0.  1.
          5    1    5    5  503    0  0.20793624268E+02  0.33223312358E+02  0.15700477508E+03  0.16189117547E+03  0.47000000000E+01 0. -1.
         -5    1    5    5    0  503  0.27510785831E+02 -0.22282352609E+02 -0.89273267825E+01  0.36812141181E+02  0.47000000000E+01 0. -1.
<mgrwt>
<rscale>  0 0.27501428E+03</rscale>
<asrwt>0</asrwt>
<pdfrwt beam="1">  1        4 0.44547052E-01 0.27501428E+03</pdfrwt>
<pdfrwt beam="2">  1       -4 0.10046269E-01 0.27501428E+03</pdfrwt>
<totfact> 0.69233377E+02</totfact>
</mgrwt>
</event>
<event>
 9    1  0.2095749E-002  0.2769508E+03  0.7818608E-02  0.1097366E+00
         -2   -1    0    0    0  501 -0.00000000000E+00  0.00000000000E+00  0.12015674115E+04  0.12015674115E+04  0.00000000000E+00 0.  1.
          2   -1    0    0  501    0  0.00000000000E+00 -0.00000000000E+00 -0.15958685861E+02  0.15958685861E+02  0.00000000000E+00 0.  1.
         36    2    1    2    0    0  0.71054273576E-14  0.00000000000E+00  0.11856087256E+04  0.12175260974E+04  0.27695080329E+03 0.  0.
         25    2    3    3    0    0 -0.11591636552E+02  0.40845104297E+02  0.30054933933E+03  0.32232045618E+03  0.10843377018E+03 0.  0.
         25    2    3    3    0    0  0.11591636552E+02 -0.40845104297E+02  0.88505938630E+03  0.89520564118E+03  0.12751601521E+03 0.  0.
          5    1    4    4  502    0 -0.56214435010E+02  0.42180942979E+02  0.20471113838E+03  0.21649026498E+03  0.47000000000E+01 0.  1.
         -5    1    4    4    0  502  0.44622798459E+02 -0.13358386813E+01  0.95838200950E+02  0.10583019120E+03  0.47000000000E+01 0.  1.
          5    1    5    5  503    0 -0.55389685078E+02 -0.13452508691E+02  0.51023830577E+03  0.51343374049E+03  0.47000000000E+01 0.  1.
         -5    1    5    5    0  503  0.66981321630E+02 -0.27392595607E+02  0.37482108054E+03  0.38177190069E+03  0.47000000000E+01 0.  1.
<mgrwt>
<rscale>  0 0.27695080E+03</rscale>
<asrwt>0</asrwt>
<pdfrwt beam="1">  1        2 0.24551834E-02 0.27695080E+03</pdfrwt>
<pdfrwt beam="2">  1       -2 0.18485645E+00 0.27695080E+03</pdfrwt>
<totfact> 0.74542556E+02</totfact>
</mgrwt>
</event>
<event>
 9    1  0.2095749E-002  0.2731718E+03  0.7818608E-02  0.1099478E+00
          1   -1    0    0  501    0  0.00000000000E+00  0.00000000000E+00  0.60079498801E+03  0.60079498801E+03  0.00000000000E+00 0. -1.
         -1   -1    0    0    0  501 -0.00000000000E+00 -0.00000000000E+00 -0.31051695592E+02  0.31051695592E+02  0.00000000000E+00 0. -1.
         36    2    1    2    0    0  0.00000000000E+00  0.00000000000E+00  0.56974329241E+03  0.63184668360E+03  0.27317176341E+03 0.  0.
         25    2    3    3    0    0  0.16313908338E+02 -0.28351341108E+02  0.17052454643E+03  0.21310071110E+03  0.12354493105E+03 0.  0.
         25    2    3    3    0    0 -0.16313908338E+02  0.28351341108E+02  0.39921874599E+03  0.41874597250E+03  0.12207637031E+03 0.  0.
          5    1    4    4  502    0  0.45272511412E+02  0.35349487043E+02  0.74294016572E+02  0.94025940155E+02  0.47000000000E+01 0. -1.
         -5    1    4    4    0  502 -0.28958603074E+02 -0.63700828151E+02  0.96230529858E+02  0.11907477095E+03  0.47000000000E+01 0. -1.
          5    1    5    5  503    0  0.10453740304E+02  0.47928383477E+02  0.58959631620E+02  0.76842298182E+02  0.47000000000E+01 0. -1.
         -5    1    5    5    0  503 -0.26767648642E+02 -0.19577042369E+02  0.34025911437E+03  0.34190367432E+03  0.47000000000E+01 0. -1.
<mgrwt>
<rscale>  0 0.27317176E+03</rscale>
<asrwt>0</asrwt>
<pdfrwt beam="1">  1        1 0.92429990E-01 0.27317176E+03</pdfrwt>
<pdfrwt beam="2">  1       -1 0.47771844E-02 0.27317176E+03</pdfrwt>
<totfact> 0.65908384E+03</totfact>
</mgrwt>
</event>
<event>
 9    1  0.2095749E-002  0.2740550E+03  0.7818608E-02  0.1098981E+00
          3   -1    0    0  501    0  0.00000000000E+00  0.00000000000E+00  0.48056071352E+03  0.48056071352E+03  0.00000000000E+00 0. -1.
         -3   -1    0    0    0  501 -0.00000000000E+00 -0.00000000000E+00 -0.39072151818E+02  0.39072151818E+02  0.00000000000E+00 0. -1.
         36    2    1    2    0    0 -0.10658141036E-13  0.00000000000E+00  0.44148856170E+03  0.51963286534E+03  0.27405503941E+03 0.  0.
         25    2    3    3    0    0  0.24477751308E+02  0.47859667750E+02  0.18083912882E+03  0.22653921269E+03  0.12540939465E+03 0.  0.
         25    2    3    3    0    0 -0.24477751308E+02 -0.47859667750E+02  0.26064943289E+03  0.29309365265E+03  0.12278458476E+03 0.  0.
          5    1    4    4  502    0 -0.28251488702E+02  0.63944102856E+02  0.14379097223E+03  0.15995289494E+03  0.47000000000E+01 0.  1.
         -5    1    4    4    0  502  0.52729240010E+02 -0.16084435106E+02  0.37048156587E+02  0.66586317748E+02  0.47000000000E+01 0.  1.
          5    1    5    5  503    0  0.80115805218E+01  0.37051926314E+02  0.45065213871E+02  0.59076172585E+02  0.47000000000E+01 0.  1.
         -5    1    5    5    0  503 -0.32489331830E+02 -0.84911594065E+02  0.21558421901E+03  0.23401748007E+03  0.47000000000E+01 0.  1.
<mgrwt>
<rscale>  0 0.27405504E+03</rscale>
<asrwt>0</asrwt>
<pdfrwt beam="1">  1        3 0.73932413E-01 0.27405504E+03</pdfrwt>
<pdfrwt beam="2">  1       -3 0.60111006E-02 0.27405504E+03</pdfrwt>
<totfact> 0.76360256E+02</totfact>
</mgrwt>
</event>
<event>
 9    1  0.2095749E-002  0.2754151E+03  0.7818608E-02  0.1098220E+00
          2   -1    0    0  501    0  0.00000000000E+00  0.00000000000E+00  0.45575980756E+03  0.45575980756E+03  0.00000000000E+00 0.  1.
         -2   -1    0    0    0  501 -0.00000000000E+00 -0.00000000000E+00 -0.41608239219E+02  0.41608239219E+02  0.00000000000E+00 0.  1.
         36    2    1    2    0    0 -0.35527136788E-14 -0.71054273576E-14  0.41415156834E+03  0.49736804678E+03  0.27541505477E+03 0.  0.
         25    2    3    3    0    0 -0.32290893060E+01  0.23033812235E+02  0.31511939950E+03  0.33946135844E+03  0.12406770091E+03 0.  0.
         25    2    3    3    0    0  0.32290893060E+01 -0.23033812235E+02  0.99032168837E+02  0.15790668834E+03  0.12077320991E+03 0.  0.
          5    1    4    4  502    0 -0.29399920719E+02 -0.69176302582E+01  0.29122377959E+03  0.29282347711E+03  0.47000000000E+01 0. -1.
         -5    1    4    4    0  502  0.26170831413E+02  0.29951442493E+02  0.23895619912E+02  0.46637881333E+02  0.47000000000E+01 0. -1.
          5    1    5    5  503    0 -0.36008470079E+02  0.28975958462E+02  0.75164157174E+02  0.88362642615E+02  0.47000000000E+01 0.  1.
         -5    1    5    5    0  503  0.39237559385E+02 -0.52009770697E+02  0.23868011663E+02  0.69544045720E+02  0.47000000000E+01 0.  1.
<mgrwt>
<rscale>  0 0.27541505E+03</rscale>
<asrwt>0</asrwt>
<pdfrwt beam="1">  1        2 0.70116890E-01 0.27541505E+03</pdfrwt>
<pdfrwt beam="2">  1       -2 0.64012679E-02 0.27541505E+03</pdfrwt>
<totfact> 0.91945447E+03</totfact>
</mgrwt>
</event>
<event>
 9    1  0.2095749E-002  0.2750133E+03  0.7818608E-02  0.1098444E+00
         -2   -1    0    0    0  501 -0.00000000000E+00  0.00000000000E+00  0.76815675916E+02  0.76815675916E+02  0.00000000000E+00 0.  1.
          2   -1    0    0  501    0  0.00000000000E+00 -0.00000000000E+00 -0.24614872060E+03  0.24614872060E+03  0.00000000000E+00 0.  1.
         36    2    1    2    0    0  0.71054273576E-14  0.00000000000E+00 -0.16933304468E+03  0.32296439651E+03  0.27501331130E+03 0.  0.
         25    2    3    3    0    0  0.30466353490E+02  0.51993225989E+01 -0.24489786474E+02  0.13295865295E+03  0.12697646279E+03 0.  0.
         25    2    3    3    0    0 -0.30466353490E+02 -0.51993225989E+01 -0.14484325821E+03  0.19000574356E+03  0.11902680996E+03 0.  0.
          5    1    4    4  502    0  0.21988071970E+02 -0.80477542995E+01 -0.75597237534E+02  0.79279719860E+02  0.47000000000E+01 0. -1.
         -5    1    4    4    0  502  0.84782815205E+01  0.13247076898E+02  0.51107451060E+02  0.53678933091E+02  0.47000000000E+01 0. -1.
          5    1    5    5  503    0 -0.37019982178E+02  0.24443178025E+02 -0.28209069475E+01  0.44698943482E+02  0.47000000000E+01 0.  1.
         -5    1    5    5    0  503  0.65536286872E+01 -0.29642500624E+02 -0.14202235126E+03  0.14530680008E+03  0.47000000000E+01 0.  1.
<mgrwt>
<rscale>  0 0.27501331E+03</rscale>
<asrwt>0</asrwt>
<pdfrwt beam="1">  1        2 0.37869034E-01 0.27501331E+03</pdfrwt>
<pdfrwt beam="2">  1       -2 0.11817796E-01 0.27501331E+03</pdfrwt>
<totfact> 0.68234094E+03</totfact>
</mgrwt>
</event>
<event>
 9    1  0.2095749E-002  0.2757721E+03  0.7818608E-02  0.1098021E+00
          3   -1    0    0  501    0  0.00000000000E+00  0.00000000000E+00  0.78133900154E+02  0.78133900154E+02  0.00000000000E+00 0. -1.
         -3   -1    0    0    0  501 -0.00000000000E+00 -0.00000000000E+00 -0.24333316993E+03  0.24333316993E+03  0.00000000000E+00 0. -1.
         36    2    1    2    0    0  0.71054273576E-14 -0.71054273576E-14 -0.16519926978E+03  0.32146707009E+03  0.27577214945E+03 0.  0.
         25    2    3    3    0    0 -0.33262113203E+02  0.34869610815E+02 -0.11552655671E+03  0.17768290229E+03  0.12610539453E+03 0.  0.
         25    2    3    3    0    0  0.33262113203E+02 -0.34869610815E+02 -0.49672713072E+02  0.14378416779E+03  0.12603273603E+03 0.  0.
          5    1    4    4  502    0  0.99889751614E+00  0.23313347508E+02 -0.13449305497E+03  0.13658324130E+03  0.47000000000E+01 0.  1.
         -5    1    4    4    0  502 -0.34261010719E+02  0.11556263308E+02  0.18966498266E+02  0.41099660991E+02  0.47000000000E+01 0.  1.
          5    1    5    5  503    0  0.22234051256E+02  0.39207466445E+02 -0.51656354663E+02  0.68717155335E+02  0.47000000000E+01 0. -1.
         -5    1    5    5    0  503  0.11028061947E+02 -0.74077077260E+02  0.19836415910E+01  0.75067012460E+02  0.47000000000E+01 0. -1.
<mgrwt>
<rscale>  0 0.27577215E+03</rscale>
<asrwt>0</asrwt>
<pdfrwt beam="1">  1        3 0.12020600E-01 0.27577215E+03</pdfrwt>
<pdfrwt beam="2">  1       -3 0.37435871E-01 0.27577215E+03</pdfrwt>
<totfact> 0.97266463E+02</totfact>
</mgrwt>
</event>
<event>
 9    1  0.2095749E-002  0.2743915E+03  0.7818608E-02  0.1098792E+00
          1   -1    0    0  501    0  0.00000000000E+00  0.00000000000E+00  0.37463092626E+03  0.37463092626E+03  0.00000000000E+00 0. -1.
         -1   -1    0    0    0  501 -0.00000000000E+00 -0.00000000000E+00 -0.50243251157E+02  0.50243251157E+02  0.00000000000E+00 0. -1.
         36    2    1    2    0    0 -0.71054273576E-14  0.35527136788E-14  0.32438767510E+03  0.42487417741E+03  0.27439151386E+03 0.  0.
         25    2    3    3    0    0  0.55911367069E+02  0.11415890571E+02  0.18967072100E+03  0.23314558788E+03  0.12298568704E+03 0.  0.
         25    2    3    3    0    0 -0.55911367069E+02 -0.11415890571E+02  0.13471695409E+03  0.19172858953E+03  0.12391444951E+03 0.  0.
          5    1    4    4  502    0  0.42626455457E+02  0.44749020448E+02  0.28963299395E+02  0.68413830822E+02  0.47000000000E+01 0.  1.
         -5    1    4    4    0  502  0.13284911612E+02 -0.33333129877E+02  0.16070742161E+03  0.16473175706E+03  0.47000000000E+01 0.  1.
          5    1    5    5  503    0  0.33433570463E+02 -0.28416375840E+02  0.32357796762E+02  0.54721212168E+02  0.47000000000E+01 0. -1.
         -5    1    5    5    0  503 -0.89344937532E+02  0.17000485269E+02  0.10235915733E+03  0.13700737736E+03  0.47000000000E+01 0. -1.
<mgrwt>
<rscale>  0 0.27439151E+03</rscale>
<asrwt>0</asrwt>
<pdfrwt beam="1">  1        1 0.57635525E-01 0.27439151E+03</pdfrwt>
<pdfrwt beam="2">  1       -1 0.77297312E-02 0.27439151E+03</pdfrwt>
<totfact> 0.59490621E+03</totfact>
</mgrwt>
</event>
<event>
 9    1  0.2095749E-002  0.2733556E+03  0.7818608E-02  0.1099374E+00
         -2   -1    0    0    0  501 -0.00000000000E+00  0.00000000000E+00  0.28128749806E+03  0.28128749806E+03  0.00000000000E+00 0.  1.
          2   -1    0    0  501    0  0.00000000000E+00 -0.00000000000E+00 -0.66411835765E+02  0.66411835765E+02  0.00000000000E+00 0.  1.
         36    2    1    2    0    0  0.71054273576E-14  0.00000000000E+00  0.21487566229E+03  0.34769933382E+03  0.27335558618E+03 0.  0.
         25    2    3    3    0    0  0.26199897671E+02 -0.34574217979E+02  0.16941893900E+03  0.21015243659E+03  0.11653093377E+03 0.  0.
         25    2    3    3    0    0 -0.26199897671E+02  0.34574217979E+02  0.45456723289E+02  0.13754689723E+03  0.12235613617E+03 0.  0.
          5    1    4    4  502    0  0.57339350421E+02 -0.32596433072E+02  0.40753107359E+02  0.77673897257E+02  0.47000000000E+01 0. -1.
         -5    1    4    4    0  502 -0.31139452750E+02 -0.19777849071E+01  0.12866583164E+03  0.13247853933E+03  0.47000000000E+01 0. -1.
          5    1    5    5  503    0  0.66058471296E+01 -0.28346337338E+02 -0.24093631851E+02  0.38075519071E+02  0.47000000000E+01 0. -1.
         -5    1    5    5    0  503 -0.32805744800E+02  0.62920555318E+02  0.69550355140E+02  0.99471378162E+02  0.47000000000E+01 0. -1.
<mgrwt>
<rscale>  0 0.27335559E+03</rscale>
<asrwt>0</asrwt>
<pdfrwt beam="1">  1        2 0.10217206E-01 0.27335559E+03</pdfrwt>
<pdfrwt beam="2">  1       -2 0.43274999E-01 0.27335559E+03</pdfrwt>
<totfact> 0.31759236E+03</totfact>
</mgrwt>
</event>
<event>
 9    1  0.2095749E-002  0.2762213E+03  0.7818608E-02  0.1097771E+00
         -1   -1    0    0    0  501 -0.00000000000E+00  0.00000000000E+00  0.46553043747E+02  0.46553043747E+02  0.00000000000E+00 0.  1.
          1   -1    0    0  501    0  0.00000000000E+00 -0.00000000000E+00 -0.40973789242E+03  0.40973789242E+03  0.00000000000E+00 0.  1.
         36    2    1    2    0    0  0.00000000000E+00  0.00000000000E+00 -0.36318484868E+03  0.45629093617E+03  0.27622125936E+03 0.  0.
         25    2    3    3    0    0  0.56195497330E+02 -0.36164473121E+02 -0.18083596716E+03  0.22730597491E+03  0.12041825514E+03 0.  0.
         25    2    3    3    0    0 -0.56195497330E+02  0.36164473121E+02 -0.18234888151E+03  0.22898496126E+03  0.12131444621E+03 0.  0.
          5    1    4    4  502    0  0.29230915027E+02 -0.79132780490E+02 -0.92088488037E+02  0.12497528944E+03  0.47000000000E+01 0. -1.
         -5    1    4    4    0  502  0.26964582303E+02  0.42968307368E+02 -0.88747479127E+02  0.10233068547E+03  0.47000000000E+01 0. -1.
          5    1    5    5  503    0 -0.71112328473E+02  0.70659103924E+02 -0.13860320873E+03  0.17112162838E+03  0.47000000000E+01 0. -1.
         -5    1    5    5    0  503  0.14916831143E+02 -0.34494630803E+02 -0.43745672784E+02  0.57863332887E+02  0.47000000000E+01 0. -1.
<mgrwt>
<rscale>  0 0.27622126E+03</rscale>
<asrwt>0</asrwt>
<pdfrwt beam="1">  1        1 0.63036599E-01 0.27622126E+03</pdfrwt>
<pdfrwt beam="2">  1       -1 0.71620068E-02 0.27622126E+03</pdfrwt>
<totfact> 0.59590552E+03</totfact>
</mgrwt>
</event>
<event>
 9    1  0.2095749E-002  0.2759096E+03  0.7818608E-02  0.1097944E+00
          2   -1    0    0  501    0  0.00000000000E+00  0.00000000000E+00  0.10500149189E+04  0.10500149189E+04  0.00000000000E+00 0.  1.
         -2   -1    0    0    0  501 -0.00000000000E+00 -0.00000000000E+00 -0.18125010624E+02  0.18125010624E+02  0.00000000000E+00 0.  1.
         36    2    1    2    0    0  0.71054273576E-14  0.00000000000E+00  0.10318899083E+04  0.10681399295E+04  0.27590963419E+03 0.  0.
         25    2    3    3    0    0  0.78260341382E+01 -0.45196013818E+02  0.34513626993E+03  0.36911486603E+03  0.12256758555E+03 0.  0.
         25    2    3    3    0    0 -0.78260341382E+01  0.45196013818E+02  0.68675363834E+03  0.69902506348E+03  0.12207191788E+03 0.  0.
          5    1    4    4  502    0  0.63129273588E+02 -0.77975380553E+01  0.17754902041E+03  0.18865802774E+03  0.47000000000E+01 0. -1.
         -5    1    4    4    0  502 -0.55303239450E+02 -0.37398475762E+02  0.16758724952E+03  0.18045683829E+03  0.47000000000E+01 0. -1.
          5    1    5    5  503    0  0.46295717855E+02  0.52155898758E+02  0.48330558006E+03  0.48833380488E+03  0.47000000000E+01 0.  1.
         -5    1    5    5    0  503 -0.54121751993E+02 -0.69598849402E+01  0.20344805827E+03  0.21069125860E+03  0.47000000000E+01 0.  1.
<mgrwt>
<rscale>  0 0.27590963E+03</rscale>
<asrwt>0</asrwt>
<pdfrwt beam="1">  1        2 0.16154071E+00 0.27590963E+03</pdfrwt>
<pdfrwt beam="2">  1       -2 0.27884640E-02 0.27590963E+03</pdfrwt>
<totfact> 0.11537416E+04</totfact>
</mgrwt>
</event>
<event>
 9    1  0.2095749E-002  0.2743287E+03  0.7818608E-02  0.1098827E+00
          1   -1    0    0  501    0  0.00000000000E+00  0.00000000000E+00  0.12852793869E+03  0.12852793869E+03  0.00000000000E+00 0. -1.
         -1   -1    0    0    0  501 -0.00000000000E+00 -0.00000000000E+00 -0.14638108966E+03  0.14638108966E+03  0.00000000000E+00 0. -1.
         36    2    1    2    0    0 -0.17763568394E-14  0.71054273576E-14 -0.17853150964E+02  0.27490902835E+03  0.27432870588E+03 0.  0.
         25    2    3    3    0    0 -0.12122864702E+02 -0.48814688457E+02  0.79000338788E+00  0.14018099706E+03  0.13084437387E+03 0.  0.
         25    2    3    3    0    0  0.12122864702E+02  0.48814688457E+02 -0.18643154352E+02  0.13472803129E+03  0.12358898638E+03 0.  0.
          5    1    4    4  502    0  0.93906456342E+01 -0.82584206176E+02 -0.31006433713E+02  0.88835940175E+02  0.47000000000E+01 0. -1.
         -5    1    4    4    0  502 -0.21513510336E+02  0.33769517719E+02  0.31796437101E+02  0.51345056883E+02  0.47000000000E+01 0. -1.
          5    1    5    5  503    0  0.47236738924E+02  0.56984462654E+02  0.24685619885E+02  0.78166542185E+02  0.47000000000E+01 0. -1.
         -5    1    5    5    0  503 -0.35113874222E+02 -0.81697741967E+01 -0.43328774237E+02  0.56561489109E+02  0.47000000000E+01 0. -1.
<mgrwt>
<rscale>  0 0.27432871E+03</rscale>
<asrwt>0</asrwt>
<pdfrwt beam="1">  1        1 0.19773529E-01 0.27432871E+03</pdfrwt>
<pdfrwt beam="2">  1       -1 0.22520168E-01 0.27432871E+03</pdfrwt>
<totfact> 0.42693698E+03</totfact>
</mgrwt>
</event>
<event>
 9    1  0.2095749E-002  0.2732005E+03  0.7818608E-02  0.1099462E+00
         -2   -1    0    0    0  501 -0.00000000000E+00  0.00000000000E+00  0.66732397793E+01  0.66732397793E+01  0.00000000000E+00 0. -1.
          2   -1    0    0  501    0  0.00000000000E+00 -0.00000000000E+00 -0.27961880021E+04  0.27961880021E+04  0.00000000000E+00 0. -1.
         36    2    1    2    0    0  0.35527136788E-14 -0.71054273576E-14 -0.27895147623E+04  0.28028612419E+04  0.27320053445E+03 0.  0.
         25    2    3    3    0    0  0.10047140648E+02 -0.49012872152E+02 -0.10650507878E+04  0.10738812686E+04  0.12800231188E+03 0.  0.
         25    2    3    3    0    0 -0.10047140648E+02  0.49012872152E+02 -0.17244639745E+04  0.17289799733E+04  0.11442264552E+03 0.  0.
          5    1    4    4  502    0  0.36435372141E+02 -0.51795186877E+02 -0.10154451346E+04  0.10174287145E+04  0.47000000000E+01 0. -1.
         -5    1    4    4    0  502 -0.26388231493E+02  0.27823147249E+01 -0.49605653154E+02  0.56452554073E+02  0.47000000000E+01 0. -1.
          5    1    5    5  503    0 -0.51254133985E+02  0.24344064282E+02 -0.44790561739E+03  0.45150985793E+03  0.47000000000E+01 0. -1.
         -5    1    5    5    0  503  0.41206993337E+02  0.24668807870E+02 -0.12765583571E+04  0.12774701153E+04  0.47000000000E+01 0. -1.
<mgrwt>
<rscale>  0 0.27320053E+03</rscale>
<asrwt>0</asrwt>
<pdfrwt beam="1">  1        2 0.43018316E+00 0.27320053E+03</pdfrwt>
<pdfrwt beam="2">  1       -2 0.10266513E-02 0.27320053E+03</pdfrwt>
<totfact> 0.56195134E+03</totfact>
</mgrwt>
</event>
<event>
 9    1  0.2095749E-002  0.2750438E+03  0.7818608E-02  0.1098427E+00
         -2   -1    0    0    0  501 -0.00000000000E+00  0.00000000000E+00  0.17650484413E+02  0.17650484413E+02  0.00000000000E+00 0. -1.
          2   -1    0    0  501    0  0.00000000000E+00 -0.00000000000E+00 -0.10714875984E+04  0.10714875984E+04  0.00000000000E+00 0. -1.
         36    2    1    2    0    0 -0.35527136788E-14  0.00000000000E+00 -0.10538371139E+04  0.10891380828E+04  0.27504381580E+03 0.  0.
         25    2    3    3    0    0 -0.10417417163E+02  0.49809499314E+02 -0.61646139565E+03  0.63115193669E+03  0.12545360118E+03 0.  0.
         25    2    3    3    0    0  0.10417417163E+02 -0.49809499314E+02 -0.43737571829E+03  0.45798614608E+03  0.12595349242E+03 0.  0.
          5    1    4    4  502    0  0.15773881929E+02 -0.29180119873E+02 -0.35842657644E+03  0.35998888239E+03  0.47000000000E+01 0.  1.
         -5    1    4    4    0  502 -0.26191299093E+02  0.78989619187E+02 -0.25803481921E+03  0.27116305429E+03  0.47000000000E+01 0.  1.
          5    1    5    5  503    0 -0.30747705058E+02  0.66404491278E+01 -0.27122565607E+02  0.41800005934E+02  0.47000000000E+01 0.  1.
         -5    1    5    5    0  503  0.41165122221E+02 -0.56449948442E+02 -0.41025315268E+03  0.41618614015E+03  0.47000000000E+01 0.  1.
<mgrwt>
<rscale>  0 0.27504382E+03</rscale>
<asrwt>0</asrwt>
<pdfrwt beam="1">  1        2 0.16484429E+00 0.27504382E+03</pdfrwt>
<pdfrwt beam="2">  1       -2 0.27154585E-02 0.27504382E+03</pdfrwt>
<totfact> 0.11650868E+04</totfact>
</mgrwt>
</event>
<event>
 9    1  0.2095749E-002  0.2755943E+03  0.7818608E-02  0.1098120E+00
         -2   -1    0    0    0  501 -0.00000000000E+00  0.00000000000E+00  0.14184252164E+02  0.14184252164E+02  0.00000000000E+00 0. -1.
          2   -1    0    0  501    0  0.00000000000E+00 -0.00000000000E+00 -0.13386716957E+04  0.13386716957E+04  0.00000000000E+00 0. -1.
         36    2    1    2    0    0  0.00000000000E+00 -0.35527136788E-14 -0.13244874436E+04  0.13528559479E+04  0.27559431705E+03 0.  0.
         25    2    3    3    0    0 -0.41583803032E+02 -0.22135956799E+02 -0.53105078068E+03  0.54786935021E+03  0.12620095079E+03 0.  0.
         25    2    3    3    0    0  0.41583803032E+02  0.22135956799E+02 -0.79343666289E+03  0.80498659769E+03  0.12744595397E+03 0.  0.
          5    1    4    4  502    0 -0.50682279297E+02  0.24430508318E+02 -0.10551316835E+03  0.11966896785E+03  0.47000000000E+01 0.  1.
         -5    1    4    4    0  502  0.90984762656E+01 -0.46566465117E+02 -0.42553761233E+03  0.42820038236E+03  0.47000000000E+01 0.  1.
          5    1    5    5  503    0  0.28587362944E+02  0.22895844230E+02 -0.78981744644E+03  0.79068017915E+03  0.47000000000E+01 0.  1.
         -5    1    5    5    0  503  0.12996440087E+02 -0.75988743031E+00 -0.36192164590E+01  0.14306418546E+02  0.47000000000E+01 0.  1.
<mgrwt>
<rscale>  0 0.27559432E+03</rscale>
<asrwt>0</asrwt>
<pdfrwt beam="1">  1        2 0.20594953E+00 0.27559432E+03</pdfrwt>
<pdfrwt beam="2">  1       -2 0.21821922E-02 0.27559432E+03</pdfrwt>
<totfact> 0.11345493E+04</totfact>
</mgrwt>
</event>
<event>
 9    1  0.2095749E-002  0.2736790E+03  0.7818608E-02  0.1099192E+00
          2   -1    0    0  501    0  0.00000000000E+00  0.00000000000E+00  0.33467956494E+04  0.33467956494E+04  0.00000000000E+00 0. -1.
         -2   -1    0    0    0  501 -0.00000000000E+00 -0.00000000000E+00 -0.55949183465E+01  0.55949183465E+01  0.00000000000E+00 0. -1.
         36    2    1    2    0    0 -0.71054273576E-14  0.00000000000E+00  0.33412007311E+04  0.33523905678E+04  0.27367899723E+03 0.  0.
         25    2    3    3    0    0  0.30337908633E+02  0.46934021435E+02  0.16481635084E+04  0.16539171962E+04  0.12599980271E+03 0.  0.
         25    2    3    3    0    0 -0.30337908633E+02 -0.46934021435E+02  0.16930372227E+04  0.16984733716E+04  0.12374799235E+03 0.  0.
          5    1    4    4  502    0 -0.46585062059E+02  0.34581939255E+02  0.58328528880E+03  0.58618247728E+03  0.47000000000E+01 0. -1.
         -5    1    4    4    0  502  0.76922970693E+02  0.12352082180E+02  0.10648782196E+04  0.10677347189E+04  0.47000000000E+01 0. -1.
          5    1    5    5  503    0  0.32135123397E+02 -0.52938206173E+02  0.51074772619E+03  0.51450991208E+03  0.47000000000E+01 0.  1.
         -5    1    5    5    0  503 -0.62473032030E+02  0.60041847379E+01  0.11822894965E+04  0.11839634596E+04  0.47000000000E+01 0.  1.
<mgrwt>
<rscale>  0 0.27367900E+03</rscale>
<asrwt>0</asrwt>
<pdfrwt beam="1">  1        2 0.51489004E+00 0.27367900E+03</pdfrwt>
<pdfrwt beam="2">  1       -2 0.86075934E-03 0.27367900E+03</pdfrwt>
<totfact> 0.33816419E+03</totfact>
</mgrwt>
</event>
<event>
 9    1  0.2095749E-002  0.2697318E+03  0.7818608E-02  0.1101433E+00
          2   -1    0    0  501    0  0.00000000000E+00  0.00000000000E+00  0.91727947268E+03  0.91727947268E+03  0.00000000000E+00 0.  1.
         -2   -1    0    0    0  501 -0.00000000000E+00 -0.00000000000E+00 -0.19829079474E+02  0.19829079474E+02  0.00000000000E+00 0.  1.
         36    2    1    2    0    0 -0.71054273576E-14  0.00000000000E+00  0.89745039320E+03  0.93710855215E+03  0.26973177465E+03 0.  0.
         25    2    3    3    0    0 -0.24379493047E+02 -0.37832311695E+02  0.35897916522E+03  0.38259204687E+03  0.12443869889E+03 0.  0.
         25    2    3    3    0    0  0.24379493047E+02  0.37832311695E+02  0.53847122798E+03  0.55451650528E+03  0.12454576575E+03 0.  0.
          5    1    4    4  502    0 -0.44714913603E+02 -0.35288349482E+02  0.59969235292E+02  0.82843770371E+02  0.47000000000E+01 0.  1.
         -5    1    4    4    0  502  0.20335420556E+02 -0.25439622129E+01  0.29900992992E+03  0.29974827650E+03  0.47000000000E+01 0.  1.
          5    1    5    5  503    0  0.66030303895E+02  0.43853916637E+02  0.44321818359E+03  0.45027504406E+03  0.47000000000E+01 0. -1.
         -5    1    5    5    0  503 -0.41650810848E+02 -0.60216049421E+01  0.95253044396E+02  0.10424146122E+03  0.47000000000E+01 0. -1.
<mgrwt>
<rscale>  0 0.26973177E+03</rscale>
<asrwt>0</asrwt>
<pdfrwt beam="1">  1        2 0.14111989E+00 0.26973177E+03</pdfrwt>
<pdfrwt beam="2">  1       -2 0.30506283E-02 0.26973177E+03</pdfrwt>
<totfact> 0.12183880E+04</totfact>
</mgrwt>
</event>
<event>
 9    1  0.2095749E-002  0.2755352E+03  0.7818608E-02  0.1098153E+00
         -3   -1    0    0    0  501 -0.00000000000E+00  0.00000000000E+00  0.27221196361E+03  0.27221196361E+03  0.00000000000E+00 0. -1.
          3   -1    0    0  501    0  0.00000000000E+00 -0.00000000000E+00 -0.69724770678E+02  0.69724770678E+02  0.00000000000E+00 0. -1.
         36    2    1    2    0    0  0.71054273576E-14 -0.71054273576E-14  0.20248719293E+03  0.34193673428E+03  0.27553523723E+03 0.  0.
         25    2    3    3    0    0 -0.15981978339E+02 -0.51210595835E+02  0.12946301025E+03  0.18627265611E+03  0.12271463903E+03 0.  0.
         25    2    3    3    0    0  0.15981978339E+02  0.51210595835E+02  0.73024182676E+02  0.15566407817E+03  0.12657339855E+03 0.  0.
          5    1    4    4  502    0 -0.60180411612E+02 -0.58809460854E+01  0.98414401258E+02  0.11560169481E+03  0.47000000000E+01 0. -1.
         -5    1    4    4    0  502  0.44198433273E+02 -0.45329649750E+02  0.31048608995E+02  0.70670961298E+02  0.47000000000E+01 0. -1.
          5    1    5    5  503    0 -0.44516665257E+02  0.77928479489E+01 -0.73131428471E+01  0.46022103636E+02  0.47000000000E+01 0. -1.
         -5    1    5    5    0  503  0.60498643596E+02  0.43417747886E+02  0.80337325523E+02  0.10964197454E+03  0.47000000000E+01 0. -1.
<mgrwt>
<rscale>  0 0.27553524E+03</rscale>
<asrwt>0</asrwt>
<pdfrwt beam="1">  1        3 0.10726888E-01 0.27553524E+03</pdfrwt>
<pdfrwt beam="2">  1       -3 0.41878763E-01 0.27553524E+03</pdfrwt>
<totfact> 0.94761312E+02</totfact>
</mgrwt>
</event>
<event>
 9    1  0.2095749E-002  0.2749245E+03  0.7818608E-02  0.1098494E+00
         -2   -1    0    0    0  501 -0.00000000000E+00  0.00000000000E+00  0.42922725262E+03  0.42922725262E+03  0.00000000000E+00 0. -1.
          2   -1    0    0  501    0  0.00000000000E+00 -0.00000000000E+00 -0.44022997095E+02  0.44022997095E+02  0.00000000000E+00 0. -1.
         36    2    1    2    0    0  0.71054273576E-14  0.71054273576E-14  0.38520425553E+03  0.47325024972E+03  0.27492449942E+03 0.  0.
         25    2    3    3    0    0  0.25531722878E+02  0.21442596313E+02  0.26989374244E+03  0.29973013580E+03  0.12603121950E+03 0.  0.
         25    2    3    3    0    0 -0.25531722878E+02 -0.21442596313E+02  0.11531051308E+03  0.17352011391E+03  0.12530387742E+03 0.  0.
          5    1    4    4  502    0 -0.40484194514E+02 -0.14266601338E+02  0.16568958838E+03  0.17122393412E+03  0.47000000000E+01 0. -1.
         -5    1    4    4    0  502  0.66015917392E+02  0.35709197651E+02  0.10420415407E+03  0.12850620168E+03  0.47000000000E+01 0. -1.
          5    1    5    5  503    0  0.34931922664E+02  0.46267271545E+01  0.99474035280E+02  0.10563531379E+03  0.47000000000E+01 0.  1.
         -5    1    5    5    0  503 -0.60463645542E+02 -0.26069323467E+02  0.15836477802E+02  0.67884800121E+02  0.47000000000E+01 0.  1.
<mgrwt>
<rscale>  0 0.27492450E+03</rscale>
<asrwt>0</asrwt>
<pdfrwt beam="1">  1        2 0.67727691E-02 0.27492450E+03</pdfrwt>
<pdfrwt beam="2">  1       -2 0.66034959E-01 0.27492450E+03</pdfrwt>
<totfact> 0.22729283E+03</totfact>
</mgrwt>
</event>
<event>
 9    1  0.2095749E-002  0.2756413E+03  0.7818608E-02  0.1098094E+00
          2   -1    0    0  501    0  0.00000000000E+00  0.00000000000E+00  0.10227939804E+03  0.10227939804E+03  0.00000000000E+00 0. -1.
         -2   -1    0    0    0  501 -0.00000000000E+00 -0.00000000000E+00 -0.18571215809E+03  0.18571215809E+03  0.00000000000E+00 0. -1.
         36    2    1    2    0    0  0.00000000000E+00  0.00000000000E+00 -0.83432760049E+02  0.28799155613E+03  0.27564127222E+03 0.  0.
         25    2    3    3    0    0 -0.26806264825E+02 -0.23094427426E+02  0.10357988196E+02  0.12929533809E+03  0.12392767294E+03 0.  0.
         25    2    3    3    0    0  0.26806264825E+02  0.23094427426E+02 -0.93790748245E+02  0.15869621804E+03  0.12302786981E+03 0.  0.
          5    1    4    4  502    0 -0.39271640674E+02 -0.26312149956E+02  0.60724047825E+02  0.77097931106E+02  0.47000000000E+01 0. -1.
         -5    1    4    4    0  502  0.12465375849E+02  0.32177225308E+01 -0.50366059628E+02  0.52197406984E+02  0.47000000000E+01 0. -1.
          5    1    5    5  503    0  0.24981744197E+02 -0.48078585113E+02 -0.55563105354E+02  0.77749511678E+02  0.47000000000E+01 0. -1.
         -5    1    5    5    0  503  0.18245206283E+01  0.71173012539E+02 -0.38227642892E+02  0.80946706359E+02  0.47000000000E+01 0. -1.
<mgrwt>
<rscale>  0 0.27564127E+03</rscale>
<asrwt>0</asrwt>
<pdfrwt beam="1">  1        2 0.15735292E-01 0.27564127E+03</pdfrwt>
<pdfrwt beam="2">  1       -2 0.28571101E-01 0.27564127E+03</pdfrwt>
<totfact> 0.40914848E+03</totfact>
</mgrwt>
</event>
<event>
 9    1  0.2095749E-002  0.2751949E+03  0.7818608E-02  0.1098343E+00
         -1   -1    0    0    0  501 -0.00000000000E+00  0.00000000000E+00  0.26106828889E+03  0.26106828889E+03  0.00000000000E+00 0. -1.
          1   -1    0    0  501    0  0.00000000000E+00 -0.00000000000E+00 -0.72521486161E+02  0.72521486161E+02  0.00000000000E+00 0. -1.
         36    2    1    2    0    0  0.00000000000E+00 -0.35527136788E-14  0.18854680273E+03  0.33358977505E+03  0.27519491492E+03 0.  0.
         25    2    3    3    0    0 -0.19021784797E+02  0.22718181423E+02  0.26897450599E+02  0.12919003596E+03  0.12283585990E+03 0.  0.
         25    2    3    3    0    0  0.19021784797E+02 -0.22718181423E+02  0.16164935213E+03  0.20439973909E+03  0.12153516460E+03 0.  0.
          5    1    4    4  502    0 -0.61155110841E+02  0.42828755485E+02 -0.58598065731E+00  0.74810983497E+02  0.47000000000E+01 0.  1.
         -5    1    4    4    0  502  0.42133326045E+02 -0.20110574062E+02  0.27483431257E+02  0.54379052459E+02  0.47000000000E+01 0.  1.
          5    1    5    5  503    0  0.50327102285E+02  0.29618968305E+02  0.10877396915E+03  0.12354742763E+03  0.47000000000E+01 0.  1.
         -5    1    5    5    0  503 -0.31305317489E+02 -0.52337149728E+02  0.52875382974E+02  0.80852311466E+02  0.47000000000E+01 0.  1.
<mgrwt>
<rscale>  0 0.27519491E+03</rscale>
<asrwt>0</asrwt>
<pdfrwt beam="1">  1        1 0.11157152E-01 0.27519491E+03</pdfrwt>
<pdfrwt beam="2">  1       -1 0.40164352E-01 0.27519491E+03</pdfrwt>
<totfact> 0.33761947E+03</totfact>
</mgrwt>
</event>
<event>
 9    1  0.2095749E-002  0.2738434E+03  0.7818608E-02  0.1099100E+00
          2   -1    0    0  501    0  0.00000000000E+00  0.00000000000E+00  0.23456940184E+04  0.23456940184E+04  0.00000000000E+00 0. -1.
         -2   -1    0    0    0  501 -0.00000000000E+00 -0.00000000000E+00 -0.79923276853E+01  0.79923276853E+01  0.00000000000E+00 0. -1.
         36    2    1    2    0    0 -0.71054273576E-14  0.71054273576E-14  0.23377016907E+04  0.23536863461E+04  0.27384342420E+03 0.  0.
         25    2    3    3    0    0  0.38986748386E+02 -0.22190272583E+02  0.79827415066E+03  0.80969380957E+03  0.12786739578E+03 0.  0.
         25    2    3    3    0    0 -0.38986748386E+02  0.22190272583E+02  0.15394275401E+04  0.15439925365E+04  0.10983363317E+03 0.  0.
          5    1    4    4  502    0  0.99433489876E+01 -0.54562192203E+02  0.69895960240E+03  0.70117224616E+03  0.47000000000E+01 0.  1.
         -5    1    4    4    0  502  0.29043399399E+02  0.32371919620E+02  0.99314548260E+02  0.10852156341E+03  0.47000000000E+01 0.  1.
          5    1    5    5  503    0  0.32037842900E+02  0.19630417072E+02  0.86190434804E+03  0.86273574855E+03  0.47000000000E+01 0.  1.
         -5    1    5    5    0  503 -0.71024591286E+02  0.25598555114E+01  0.67752319203E+03  0.68125678798E+03  0.47000000000E+01 0.  1.
<mgrwt>
<rscale>  0 0.27384342E+03</rscale>
<asrwt>0</asrwt>
<pdfrwt beam="1">  1        2 0.36087545E+00 0.27384342E+03</pdfrwt>
<pdfrwt beam="2">  1       -2 0.12295907E-02 0.27384342E+03</pdfrwt>
<totfact> 0.76760008E+03</totfact>
</mgrwt>
</event>
<event>
 9    1  0.2095749E-002  0.2751697E+03  0.7818608E-02  0.1098357E+00
         -1   -1    0    0    0  501 -0.00000000000E+00  0.00000000000E+00  0.11693212046E+03  0.11693212046E+03  0.00000000000E+00 0.  1.
          1   -1    0    0  501    0  0.00000000000E+00 -0.00000000000E+00 -0.16188523808E+03  0.16188523808E+03  0.00000000000E+00 0.  1.
         36    2    1    2    0    0  0.00000000000E+00  0.14210854715E-13 -0.44953117621E+02  0.27881735854E+03  0.27516965065E+03 0.  0.
         25    2    3    3    0    0 -0.28013634819E+02  0.58229913457E+02  0.14083261224E+01  0.13299058069E+03  0.11622832965E+03 0.  0.
         25    2    3    3    0    0  0.28013634819E+02 -0.58229913457E+02 -0.46361443743E+02  0.14582677785E+03  0.12223166167E+03 0.  0.
          5    1    4    4  502    0 -0.64374673599E+02  0.59813262044E+02  0.22276060557E+02  0.90774653904E+02  0.47000000000E+01 0.  1.
         -5    1    4    4    0  502  0.36361038781E+02 -0.15833485869E+01 -0.20867734435E+02  0.42215926786E+02  0.47000000000E+01 0.  1.
          5    1    5    5  503    0  0.10724126739E+02 -0.68112369544E+02 -0.80455722593E+02  0.10606373120E+03  0.47000000000E+01 0. -1.
         -5    1    5    5    0  503  0.17289508080E+02  0.98824560863E+01  0.34094278850E+02  0.39763046641E+02  0.47000000000E+01 0. -1.
<mgrwt>
<rscale>  0 0.27516965E+03</rscale>
<asrwt>0</asrwt>
<pdfrwt beam="1">  1        1 0.24905421E-01 0.27516965E+03</pdfrwt>
<pdfrwt beam="2">  1       -1 0.17989557E-01 0.27516965E+03</pdfrwt>
<totfact> 0.45787690E+03</totfact>
</mgrwt>
</event>
<event>
 9    1  0.2095749E-002  0.2754924E+03  0.7818608E-02  0.1098177E+00
         -1   -1    0    0    0  501 -0.00000000000E+00  0.00000000000E+00  0.18058501503E+02  0.18058501503E+02  0.00000000000E+00 0.  1.
          1   -1    0    0  501    0  0.00000000000E+00 -0.00000000000E+00 -0.10506972978E+04  0.10506972978E+04  0.00000000000E+00 0.  1.
         36    2    1    2    0    0  0.00000000000E+00  0.00000000000E+00 -0.10326387963E+04  0.10687557993E+04  0.27549242262E+03 0.  0.
         25    2    3    3    0    0  0.53714925998E+02  0.36522893641E+02 -0.46441234648E+03  0.48382559528E+03  0.11911827756E+03 0.  0.
         25    2    3    3    0    0 -0.53714925998E+02 -0.36522893641E+02 -0.56822644977E+03  0.58493020398E+03  0.12264921635E+03 0.  0.
          5    1    4    4  502    0 -0.33086425433E+02  0.20314361029E+02 -0.75969336593E+02  0.85444806246E+02  0.47000000000E+01 0.  1.
         -5    1    4    4    0  502  0.86801351432E+02  0.16208532612E+02 -0.38844300989E+03  0.39838078903E+03  0.47000000000E+01 0.  1.
          5    1    5    5  503    0 -0.49857766769E+02 -0.26051458803E+02 -0.56991552272E+03  0.57270434645E+03  0.47000000000E+01 0.  1.
         -5    1    5    5    0  503 -0.38571592290E+01 -0.10471434838E+02  0.16890729430E+01  0.12225857528E+02  0.47000000000E+01 0.  1.
<mgrwt>
<rscale>  0 0.27549242E+03</rscale>
<asrwt>0</asrwt>
<pdfrwt beam="1">  1        1 0.16164575E+00 0.27549242E+03</pdfrwt>
<pdfrwt beam="2">  1       -1 0.27782308E-02 0.27549242E+03</pdfrwt>
<totfact> 0.61921396E+03</totfact>
</mgrwt>
</event>
<event>
 9    1  0.2095749E-002  0.2749952E+03  0.7818608E-02  0.1098454E+00
         -2   -1    0    0    0  501 -0.00000000000E+00  0.00000000000E+00  0.40299024091E+03  0.40299024091E+03  0.00000000000E+00 0. -1.
          2   -1    0    0  501    0  0.00000000000E+00 -0.00000000000E+00 -0.46913286643E+02  0.46913286643E+02  0.00000000000E+00 0. -1.
         36    2    1    2    0    0  0.35527136788E-14  0.00000000000E+00  0.35607695426E+03  0.44990352755E+03  0.27499524859E+03 0.  0.
         25    2    3    3    0    0 -0.77633122363E+01  0.42705984701E+02  0.20929002717E+03  0.25077090283E+03  0.13114747456E+03 0.  0.
         25    2    3    3    0    0  0.77633122363E+01 -0.42705984701E+02  0.14678692709E+03  0.19913262472E+03  0.12737083700E+03 0.  0.
          5    1    4    4  502    0  0.28088006945E+02  0.52313195394E+02  0.20456636030E+03  0.21306124076E+03  0.47000000000E+01 0. -1.
         -5    1    4    4    0  502 -0.35851319182E+02 -0.96072106928E+01  0.47236668696E+01  0.37709662065E+02  0.47000000000E+01 0. -1.
          5    1    5    5  503    0  0.52301083089E+02  0.15052242428E+02  0.94903547427E+02  0.10950226760E+03  0.47000000000E+01 0.  1.
         -5    1    5    5    0  503 -0.44537770853E+02 -0.57758227129E+02  0.51883379663E+02  0.89630357128E+02  0.47000000000E+01 0.  1.
<mgrwt>
<rscale>  0 0.27499525E+03</rscale>
<asrwt>0</asrwt>
<pdfrwt beam="1">  1        2 0.72174290E-02 0.27499525E+03</pdfrwt>
<pdfrwt beam="2">  1       -2 0.61998496E-01 0.27499525E+03</pdfrwt>
<totfact> 0.23908909E+03</totfact>
</mgrwt>
</event>
<event>
 9    1  0.2095749E-002  0.2754216E+03  0.7818608E-02  0.1098216E+00
          3   -1    0    0  501    0  0.00000000000E+00  0.00000000000E+00  0.86815917104E+01  0.86815917104E+01  0.00000000000E+00 0.  1.
         -3   -1    0    0    0  501 -0.00000000000E+00 -0.00000000000E+00 -0.21844221349E+04  0.21844221349E+04  0.00000000000E+00 0.  1.
         36    2    1    2    0    0 -0.71054273576E-14  0.00000000000E+00 -0.21757405432E+04  0.21931037266E+04  0.27542157576E+03 0.  0.
         25    2    3    3    0    0  0.26912301304E+02 -0.39618155666E+01 -0.65926976400E+03  0.67118362711E+03  0.12292628534E+03 0.  0.
         25    2    3    3    0    0 -0.26912301304E+02  0.39618155666E+01 -0.15164707792E+04  0.15219200995E+04  0.12576643905E+03 0.  0.
          5    1    4    4  502    0  0.74367529913E+02  0.42231339935E+01 -0.46659272746E+03  0.47252431438E+03  0.47000000000E+01 0. -1.
         -5    1    4    4    0  502 -0.47455228609E+02 -0.81849495601E+01 -0.19267703655E+03  0.19865931273E+03  0.47000000000E+01 0. -1.
          5    1    5    5  503    0  0.27136484942E+02 -0.24824777876E+02 -0.11292833333E+04  0.11298918512E+04  0.47000000000E+01 0.  1.
         -5    1    5    5    0  503 -0.54048786246E+02  0.28786593443E+02 -0.38718744583E+03  0.39202824830E+03  0.47000000000E+01 0.  1.
<mgrwt>
<rscale>  0 0.27542158E+03</rscale>
<asrwt>0</asrwt>
<pdfrwt beam="1">  1        3 0.13356280E-02 0.27542158E+03</pdfrwt>
<pdfrwt beam="2">  1       -3 0.33606531E+00 0.27542158E+03</pdfrwt>
<totfact> 0.12571297E+02</totfact>
</mgrwt>
</event>
<event>
 9    1  0.2095749E-002  0.2748745E+03  0.7818608E-02  0.1098522E+00
         -2   -1    0    0    0  501 -0.00000000000E+00  0.00000000000E+00  0.86584487604E+02  0.86584487604E+02  0.00000000000E+00 0.  1.
          2   -1    0    0  501    0  0.00000000000E+00 -0.00000000000E+00 -0.21815688613E+03  0.21815688613E+03  0.00000000000E+00 0.  1.
         36    2    1    2    0    0  0.00000000000E+00 -0.17763568394E-14 -0.13157239853E+03  0.30474137374E+03  0.27487453285E+03 0.  0.
         25    2    3    3    0    0  0.26258984020E+02 -0.10487189875E+02 -0.16594013333E+02  0.13100179429E+03  0.12683293514E+03 0.  0.
         25    2    3    3    0    0 -0.26258984020E+02  0.10487189875E+02 -0.11497838519E+03  0.17373957944E+03  0.12714518084E+03 0.  0.
          5    1    4    4  502    0 -0.38231906237E+02 -0.23713977482E+02 -0.40588609659E+02  0.60774637938E+02  0.47000000000E+01 0.  1.
         -5    1    4    4    0  502  0.64490890257E+02  0.13226787607E+02  0.23994596326E+02  0.70227156352E+02  0.47000000000E+01 0.  1.
          5    1    5    5  503    0 -0.69381899865E+02  0.83680987539E+01 -0.25972171876E+02  0.74702856824E+02  0.47000000000E+01 0.  1.
         -5    1    5    5    0  503  0.43122915846E+02  0.21190911211E+01 -0.89006213319E+02  0.99036722621E+02  0.47000000000E+01 0.  1.
<mgrwt>
<rscale>  0 0.27487453E+03</rscale>
<asrwt>0</asrwt>
<pdfrwt beam="1">  1        2 0.33562598E-01 0.27487453E+03</pdfrwt>
<pdfrwt beam="2">  1       -2 0.13320690E-01 0.27487453E+03</pdfrwt>
<totfact> 0.64055182E+03</totfact>
</mgrwt>
</event>
<event>
 9    1  0.2095749E-002  0.2750007E+03  0.7818608E-02  0.1098451E+00
          2   -1    0    0  501    0  0.00000000000E+00  0.00000000000E+00  0.21504608893E+04  0.21504608893E+04  0.00000000000E+00 0.  1.
         -2   -1    0    0    0  501 -0.00000000000E+00 -0.00000000000E+00 -0.87917658618E+01  0.87917658618E+01  0.00000000000E+00 0.  1.
         36    2    1    2    0    0  0.14210854715E-13 -0.14210854715E-13  0.21416691234E+04  0.21592526551E+04  0.27500071733E+03 0.  0.
         25    2    3    3    0    0 -0.39749733115E+02  0.50558704849E+02  0.12979279658E+04  0.13056012434E+04  0.12586253780E+03 0.  0.
         25    2    3    3    0    0  0.39749733115E+02 -0.50558704849E+02  0.84374115758E+03  0.85365141171E+03  0.11262933812E+03 0.  0.
          5    1    4    4  502    0 -0.72501681296E+02  0.32116036837E+02  0.45932645056E+03  0.46614462540E+03  0.47000000000E+01 0. -1.
         -5    1    4    4    0  502  0.32751948182E+02  0.18442668012E+02  0.83860151528E+03  0.83945661803E+03  0.47000000000E+01 0. -1.
          5    1    5    5  503    0 -0.29268129032E+02 -0.19510894848E+02  0.10106606601E+03  0.10711553619E+03  0.47000000000E+01 0. -1.
         -5    1    5    5    0  503  0.69017862146E+02 -0.31047810001E+02  0.74267509157E+03  0.74653587552E+03  0.47000000000E+01 0. -1.
<mgrwt>
<rscale>  0 0.27500072E+03</rscale>
<asrwt>0</asrwt>
<pdfrwt beam="1">  1        2 0.33083972E+00 0.27500072E+03</pdfrwt>
<pdfrwt beam="2">  1       -2 0.13525811E-02 0.27500072E+03</pdfrwt>
<totfact> 0.84921192E+03</totfact>
</mgrwt>
</event>
<event>
 9    1  0.2095749E-002  0.2758753E+03  0.7818608E-02  0.1097963E+00
         -1   -1    0    0    0  501 -0.00000000000E+00  0.00000000000E+00  0.49980677854E+02  0.49980677854E+02  0.00000000000E+00 0.  1.
          1   -1    0    0  501    0  0.00000000000E+00 -0.00000000000E+00 -0.38068313910E+03  0.38068313910E+03  0.00000000000E+00 0.  1.
         36    2    1    2    0    0  0.71054273576E-14 -0.71054273576E-14 -0.33070246125E+03  0.43066381695E+03  0.27587534388E+03 0.  0.
         25    2    3    3    0    0 -0.22445998321E+02 -0.27126577294E+02 -0.23126925120E+03  0.26591869065E+03  0.12644211897E+03 0.  0.
         25    2    3    3    0    0  0.22445998321E+02  0.27126577294E+02 -0.99433210046E+02  0.16474512631E+03  0.12654769593E+03 0.  0.
          5    1    4    4  502    0  0.30269261446E+02  0.34716352231E+02 -0.11517414009E+03  0.12413148612E+03  0.47000000000E+01 0. -1.
         -5    1    4    4    0  502 -0.52715259767E+02 -0.61842929525E+02 -0.11609511111E+03  0.14178720453E+03  0.47000000000E+01 0. -1.
          5    1    5    5  503    0  0.24750736326E+02  0.58557191349E+02 -0.37061088394E+01  0.63854278244E+02  0.47000000000E+01 0. -1.
         -5    1    5    5    0  503 -0.23047380050E+01 -0.31430614055E+02 -0.95727101207E+02  0.10089084806E+03  0.47000000000E+01 0. -1.
<mgrwt>
<rscale>  0 0.27587534E+03</rscale>
<asrwt>0</asrwt>
<pdfrwt beam="1">  1        1 0.58566637E-01 0.27587534E+03</pdfrwt>
<pdfrwt beam="2">  1       -1 0.76893350E-02 0.27587534E+03</pdfrwt>
<totfact> 0.58764987E+03</totfact>
</mgrwt>
</event>
<event>
 9    1  0.2095749E-002  0.2714439E+03  0.7818608E-02  0.1100456E+00
          1   -1    0    0  501    0  0.00000000000E+00  0.00000000000E+00  0.10476498307E+04  0.10476498307E+04  0.00000000000E+00 0.  1.
         -1   -1    0    0    0  501 -0.00000000000E+00 -0.00000000000E+00 -0.17582633367E+02  0.17582633367E+02  0.00000000000E+00 0.  1.
         36    2    1    2    0    0  0.00000000000E+00 -0.71054273576E-14  0.10300671974E+04  0.10652324641E+04  0.27144386433E+03 0.  0.
         25    2    3    3    0    0 -0.42014474399E+02  0.30102681806E+02  0.67894850496E+03  0.68933553475E+03  0.10742913746E+03 0.  0.
         25    2    3    3    0    0  0.42014474399E+02 -0.30102681806E+02  0.35111869241E+03  0.37589692935E+03  0.12386596718E+03 0.  0.
          5    1    4    4  502    0 -0.59458584246E+02  0.55785470851E+02  0.37615329253E+03  0.38491652534E+03  0.47000000000E+01 0. -1.
         -5    1    4    4    0  502  0.17444109848E+02 -0.25682789046E+02  0.30279521244E+03  0.30441900942E+03  0.47000000000E+01 0. -1.
          5    1    5    5  503    0 -0.43603738345E+00  0.45732247361E+02  0.98393741963E+02  0.10860500465E+03  0.47000000000E+01 0. -1.
         -5    1    5    5    0  503  0.42450511782E+02 -0.75834929167E+02  0.25272495045E+03  0.26729192470E+03  0.47000000000E+01 0. -1.
<mgrwt>
<rscale>  0 0.27144386E+03</rscale>
<asrwt>0</asrwt>
<pdfrwt beam="1">  1        1 0.16117685E+00 0.27144386E+03</pdfrwt>
<pdfrwt beam="2">  1       -1 0.27050213E-02 0.27144386E+03</pdfrwt>
<totfact> 0.64717030E+03</totfact>
</mgrwt>
</event>
<event>
 9    1  0.2095749E-002  0.2747587E+03  0.7818608E-02  0.1098587E+00
          1   -1    0    0  501    0  0.00000000000E+00  0.00000000000E+00  0.14960315631E+04  0.14960315631E+04  0.00000000000E+00 0. -1.
         -1   -1    0    0    0  501 -0.00000000000E+00 -0.00000000000E+00 -0.12615435687E+02  0.12615435687E+02  0.00000000000E+00 0. -1.
         36    2    1    2    0    0  0.14210854715E-13 -0.17763568394E-14  0.14834161274E+04  0.15086469988E+04  0.27475873032E+03 0.  0.
         25    2    3    3    0    0 -0.48328157697E+02  0.24229908353E+01  0.86928687572E+03  0.88010551153E+03  0.12878104448E+03 0.  0.
         25    2    3    3    0    0  0.48328157697E+02 -0.24229908353E+01  0.61412925173E+03  0.62854148729E+03  0.12477251984E+03 0.  0.
          5    1    4    4  502    0 -0.77385523751E+02 -0.12790549443E+02  0.30880727843E+03  0.31864736411E+03  0.47000000000E+01 0. -1.
         -5    1    4    4    0  502  0.29057366054E+02  0.15213540278E+02  0.56047959729E+03  0.56145814742E+03  0.47000000000E+01 0. -1.
          5    1    5    5  503    0  0.75129024769E+02  0.14870669930E+02  0.21813288955E+03  0.23123484748E+03  0.47000000000E+01 0. -1.
         -5    1    5    5    0  503 -0.26800867072E+02 -0.17293660765E+02  0.39599636218E+03  0.39730663981E+03  0.47000000000E+01 0. -1.
<mgrwt>
<rscale>  0 0.27475873E+03</rscale>
<asrwt>0</asrwt>
<pdfrwt beam="1">  1        1 0.23015856E+00 0.27475873E+03</pdfrwt>
<pdfrwt beam="2">  1       -1 0.19408374E-02 0.27475873E+03</pdfrwt>
<totfact> 0.51587548E+03</totfact>
</mgrwt>
</event>
<event>
 9    1  0.2095749E-002  0.2748070E+03  0.7818608E-02  0.1098560E+00
          2   -1    0    0  501    0  0.00000000000E+00  0.00000000000E+00  0.11709662684E+04  0.11709662684E+04  0.00000000000E+00 0. -1.
         -2   -1    0    0    0  501 -0.00000000000E+00 -0.00000000000E+00 -0.16123199705E+02  0.16123199705E+02  0.00000000000E+00 0. -1.
         36    2    1    2    0    0  0.00000000000E+00 -0.71054273576E-14  0.11548430687E+04  0.11870894681E+04  0.27480700859E+03 0.  0.
         25    2    3    3    0    0 -0.48678234336E+01  0.51005597997E+02  0.44248841200E+03  0.46242883171E+03  0.12417392201E+03 0.  0.
         25    2    3    3    0    0  0.48678234336E+01 -0.51005597997E+02  0.71235465668E+03  0.72466063639E+03  0.12271354569E+03 0.  0.
          5    1    4    4  502    0 -0.39003974121E+02  0.31278505512E+02  0.61594119575E+02  0.79470626464E+02  0.47000000000E+01 0. -1.
         -5    1    4    4    0  502  0.34136150688E+02  0.19727092485E+02  0.38089429242E+03  0.38295820524E+03  0.47000000000E+01 0. -1.
          5    1    5    5  503    0 -0.19431164965E+02 -0.86949429590E+02  0.46355019342E+03  0.47205788342E+03  0.47000000000E+01 0. -1.
         -5    1    5    5    0  503  0.24298988399E+02  0.35943831593E+02  0.24880446327E+03  0.25260275297E+03  0.47000000000E+01 0. -1.
<mgrwt>
<rscale>  0 0.27480701E+03</rscale>
<asrwt>0</asrwt>
<pdfrwt beam="1">  1        2 0.18014859E+00 0.27480701E+03</pdfrwt>
<pdfrwt beam="2">  1       -2 0.24804932E-02 0.27480701E+03</pdfrwt>
<totfact> 0.11656606E+04</totfact>
</mgrwt>
</event>
<event>
 9    1  0.2095749E-002  0.2752999E+03  0.7818608E-02  0.1098284E+00
          1   -1    0    0  501    0  0.00000000000E+00  0.00000000000E+00  0.25324389353E+04  0.25324389353E+04  0.00000000000E+00 0.  1.
         -1   -1    0    0    0  501 -0.00000000000E+00 -0.00000000000E+00 -0.74819236516E+01  0.74819236516E+01  0.00000000000E+00 0.  1.
         36    2    1    2    0    0  0.53290705182E-14  0.00000000000E+00  0.25249570116E+04  0.25399208589E+04  0.27529994381E+03 0.  0.
         25    2    3    3    0    0  0.16737860044E+00 -0.11076667147E+02  0.17425998250E+04  0.17475617800E+04  0.13113086641E+03 0.  0.
         25    2    3    3    0    0 -0.16737860044E+00  0.11076667147E+02  0.78235718660E+03  0.79235907894E+03  0.12500968756E+03 0.  0.
          5    1    4    4  502    0 -0.46410966382E+02  0.39481845455E+02  0.68558057334E+03  0.68829906760E+03  0.47000000000E+01 0. -1.
         -5    1    4    4    0  502  0.46578344982E+02 -0.50558512602E+02  0.10570192517E+04  0.10592627124E+04  0.47000000000E+01 0. -1.
          5    1    5    5  503    0 -0.86140928235E+01  0.52959401356E+02  0.66837109058E+03  0.67053777337E+03  0.47000000000E+01 0.  1.
         -5    1    5    5    0  503  0.84467142230E+01 -0.41882734209E+02  0.11398609602E+03  0.12182130557E+03  0.47000000000E+01 0.  1.
<mgrwt>
<rscale>  0 0.27529994E+03</rscale>
<asrwt>0</asrwt>
<pdfrwt beam="1">  1        1 0.38960531E+00 0.27529994E+03</pdfrwt>
<pdfrwt beam="2">  1       -1 0.11510672E-02 0.27529994E+03</pdfrwt>
<totfact> 0.23143245E+03</totfact>
</mgrwt>
</event>
<event>
 9    1  0.2095749E-002  0.2817877E+03  0.7818608E-02  0.1094717E+00
          1   -1    0    0  501    0  0.00000000000E+00  0.00000000000E+00  0.33142694183E+03  0.33142694183E+03  0.00000000000E+00 0.  1.
         -1   -1    0    0    0  501 -0.00000000000E+00 -0.00000000000E+00 -0.59895782257E+02  0.59895782257E+02  0.00000000000E+00 0.  1.
         36    2    1    2    0    0  0.00000000000E+00 -0.17763568394E-14  0.27153115957E+03  0.39132272408E+03  0.28178769272E+03 0.  0.
         25    2    3    3    0    0  0.79706281697E+01 -0.13745092784E+02  0.18350774601E+03  0.23598256497E+03  0.14751345577E+03 0.  0.
         25    2    3    3    0    0 -0.79706281697E+01  0.13745092784E+02  0.88023413557E+02  0.15534015911E+03  0.12700387872E+03 0.  0.
          5    1    4    4  502    0  0.75388754399E+02 -0.18779249990E+02  0.75249246312E+02  0.10826201361E+03  0.47000000000E+01 0. -1.
         -5    1    4    4    0  502 -0.67418126229E+02  0.50341572059E+01  0.10825849970E+03  0.12772055136E+03  0.47000000000E+01 0. -1.
          5    1    5    5  503    0  0.37394955081E+02 -0.16727063204E+02  0.91517167261E+02  0.10037758322E+03  0.47000000000E+01 0. -1.
         -5    1    5    5    0  503 -0.45365583250E+02  0.30472155989E+02 -0.34937537031E+01  0.54962575896E+02  0.47000000000E+01 0. -1.
<mgrwt>
<rscale>  0 0.28178769E+03</rscale>
<asrwt>0</asrwt>
<pdfrwt beam="1">  1        1 0.50988759E-01 0.28178769E+03</pdfrwt>
<pdfrwt beam="2">  1       -1 0.92147359E-02 0.28178769E+03</pdfrwt>
<totfact> 0.53142999E+03</totfact>
</mgrwt>
</event>
<event>
 9    1  0.2095749E-002  0.2745238E+03  0.7818608E-02  0.1098718E+00
         -2   -1    0    0    0  501 -0.00000000000E+00  0.00000000000E+00  0.11209980896E+02  0.11209980896E+02  0.00000000000E+00 0. -1.
          2   -1    0    0  501    0  0.00000000000E+00 -0.00000000000E+00 -0.16807192479E+04  0.16807192479E+04  0.00000000000E+00 0. -1.
         36    2    1    2    0    0  0.00000000000E+00  0.35527136788E-14 -0.16695092670E+04  0.16919292288E+04  0.27452381070E+03 0.  0.
         25    2    3    3    0    0  0.61873839410E+02  0.25982172500E+02 -0.87242847342E+03  0.88221460806E+03  0.11255100243E+03 0.  0.
         25    2    3    3    0    0 -0.61873839410E+02 -0.25982172500E+02 -0.79708079356E+03  0.80971462072E+03  0.12568424819E+03 0.  0.
          5    1    4    4  502    0  0.63401387057E+02 -0.75608858150E+01 -0.79639217762E+03  0.79896150936E+03  0.47000000000E+01 0. -1.
         -5    1    4    4    0  502 -0.15275476470E+01  0.33543058315E+02 -0.76036295800E+02  0.83253098693E+02  0.47000000000E+01 0. -1.
          5    1    5    5  503    0 -0.62453517012E+02  0.41235451435E+02 -0.40406518836E+03  0.41096419635E+03  0.47000000000E+01 0.  1.
         -5    1    5    5    0  503  0.57967760158E+00 -0.67217623935E+02 -0.39301560521E+03  0.39875042436E+03  0.47000000000E+01 0.  1.
<mgrwt>
<rscale>  0 0.27452381E+03</rscale>
<asrwt>0</asrwt>
<pdfrwt beam="1">  1        2 0.25857226E+00 0.27452381E+03</pdfrwt>
<pdfrwt beam="2">  1       -2 0.17246120E-02 0.27452381E+03</pdfrwt>
<totfact> 0.10514156E+04</totfact>
</mgrwt>
</event>
<event>
 9    1  0.2095749E-002  0.2741336E+03  0.7818608E-02  0.1098937E+00
          2   -1    0    0  501    0  0.00000000000E+00  0.00000000000E+00  0.78294760808E+03  0.78294760808E+03  0.00000000000E+00 0.  1.
         -2   -1    0    0    0  501 -0.00000000000E+00 -0.00000000000E+00 -0.23995614387E+02  0.23995614387E+02  0.00000000000E+00 0.  1.
         36    2    1    2    0    0  0.00000000000E+00  0.35527136788E-14  0.75895199370E+03  0.80694322247E+03  0.27413360895E+03 0.  0.
         25    2    3    3    0    0  0.52238340398E+02 -0.22366864512E+02  0.33509314365E+03  0.36162032705E+03  0.12350192378E+03 0.  0.
         25    2    3    3    0    0 -0.52238340398E+02  0.22366864512E+02  0.42385885005E+03  0.44532289542E+03  0.12420561819E+03 0.  0.
          5    1    4    4  502    0  0.14837883908E+02 -0.65653815046E-01 -0.67626920168E+01  0.16970300899E+02  0.47000000000E+01 0.  1.
         -5    1    4    4    0  502  0.37400456489E+02 -0.22301210697E+02  0.34185583567E+03  0.34465002615E+03  0.47000000000E+01 0.  1.
          5    1    5    5  503    0 -0.92004158517E+02  0.14144240962E+02  0.33084410584E+03  0.34372188919E+03  0.47000000000E+01 0. -1.
         -5    1    5    5    0  503  0.39765818119E+02  0.82226235499E+01  0.93014744204E+02  0.10160100624E+03  0.47000000000E+01 0. -1.
<mgrwt>
<rscale>  0 0.27413361E+03</rscale>
<asrwt>0</asrwt>
<pdfrwt beam="1">  1        2 0.12045346E+00 0.27413361E+03</pdfrwt>
<pdfrwt beam="2">  1       -2 0.36916336E-02 0.27413361E+03</pdfrwt>
<totfact> 0.11271254E+04</totfact>
</mgrwt>
</event>
<event>
 9    1  0.2095749E-002  0.2758089E+03  0.7818608E-02  0.1098000E+00
          2   -1    0    0  501    0  0.00000000000E+00  0.00000000000E+00  0.64263262077E+03  0.64263262077E+03  0.00000000000E+00 0.  1.
         -2   -1    0    0    0  501 -0.00000000000E+00 -0.00000000000E+00 -0.29593318783E+02  0.29593318783E+02  0.00000000000E+00 0.  1.
         36    2    1    2    0    0  0.00000000000E+00 -0.35527136788E-14  0.61303930198E+03  0.67222593955E+03  0.27580886140E+03 0.  0.
         25    2    3    3    0    0 -0.41445538415E+02  0.22186734718E+02  0.23675575104E+03  0.27367085387E+03  0.12896692117E+03 0.  0.
         25    2    3    3    0    0  0.41445538415E+02 -0.22186734718E+02  0.37628355094E+03  0.39855508568E+03  0.12266565027E+03 0.  0.
          5    1    4    4  502    0 -0.39236468618E+01  0.14203377294E+02 -0.13450492724E+02  0.20497236052E+02  0.47000000000E+01 0.  1.
         -5    1    4    4    0  502 -0.37521891553E+02  0.79833574241E+01  0.25020624376E+03  0.25317361782E+03  0.47000000000E+01 0.  1.
          5    1    5    5  503    0  0.68098720208E+02 -0.59693742236E+01  0.10459786136E+03  0.12504347933E+03  0.47000000000E+01 0.  1.
         -5    1    5    5    0  503 -0.26653181793E+02 -0.16217360494E+02  0.27168568958E+03  0.27351160635E+03  0.47000000000E+01 0.  1.
<mgrwt>
<rscale>  0 0.27580886E+03</rscale>
<asrwt>0</asrwt>
<pdfrwt beam="1">  1        2 0.98866546E-01 0.27580886E+03</pdfrwt>
<pdfrwt beam="2">  1       -2 0.45528188E-02 0.27580886E+03</pdfrwt>
<totfact> 0.10461062E+04</totfact>
</mgrwt>
</event>
<event>
 9    1  0.2095749E-002  0.2749035E+03  0.7818608E-02  0.1098506E+00
         -2   -1    0    0    0  501 -0.00000000000E+00  0.00000000000E+00  0.34495849171E+02  0.34495849171E+02  0.00000000000E+00 0. -1.
          2   -1    0    0  501    0  0.00000000000E+00 -0.00000000000E+00 -0.54768854558E+03  0.54768854558E+03  0.00000000000E+00 0. -1.
         36    2    1    2    0    0  0.00000000000E+00 -0.35527136788E-14 -0.51319269641E+03  0.58218439475E+03  0.27490348460E+03 0.  0.
         25    2    3    3    0    0  0.64806660221E+01  0.23010263786E+02 -0.17487763106E+03  0.22028368399E+03  0.13180001638E+03 0.  0.
         25    2    3    3    0    0 -0.64806660221E+01 -0.23010263786E+02 -0.33831506535E+03  0.36190071076E+03  0.12626784916E+03 0.  0.
          5    1    4    4  502    0 -0.61647454657E+02  0.14458974753E+02 -0.66873064167E+02  0.92214789095E+02  0.47000000000E+01 0.  1.
         -5    1    4    4    0  502  0.68128120679E+02  0.85512890335E+01 -0.10800456689E+03  0.12806889490E+03  0.47000000000E+01 0.  1.
          5    1    5    5  503    0  0.33240711352E+02 -0.51979654943E+02 -0.93277890626E+02  0.11193607237E+03  0.47000000000E+01 0. -1.
         -5    1    5    5    0  503 -0.39721377374E+02  0.28969391157E+02 -0.24503717473E+03  0.24996463838E+03  0.47000000000E+01 0. -1.
<mgrwt>
<rscale>  0 0.27490348E+03</rscale>
<asrwt>0</asrwt>
<pdfrwt beam="1">  1        2 0.84259772E-01 0.27490348E+03</pdfrwt>
<pdfrwt beam="2">  1       -2 0.53070540E-02 0.27490348E+03</pdfrwt>
<totfact> 0.99746652E+03</totfact>
</mgrwt>
</event>
<event>
 9    1  0.2095749E-002  0.2759090E+03  0.7818608E-02  0.1097945E+00
          1   -1    0    0  501    0  0.00000000000E+00  0.00000000000E+00  0.96413488715E+02  0.96413488715E+02  0.00000000000E+00 0.  1.
         -1   -1    0    0    0  501 -0.00000000000E+00 -0.00000000000E+00 -0.19739406778E+03  0.19739406778E+03  0.00000000000E+00 0.  1.
         36    2    1    2    0    0  0.71054273576E-14  0.35527136788E-14 -0.10098057907E+03  0.29380755650E+03  0.27590904825E+03 0.  0.
         25    2    3    3    0    0 -0.48563429848E+02 -0.25265162204E+02 -0.62382699407E+02  0.15072509788E+03  0.12581621042E+03 0.  0.
         25    2    3    3    0    0  0.48563429848E+02  0.25265162204E+02 -0.38597879659E+02  0.14308245862E+03  0.12643598582E+03 0.  0.
          5    1    4    4  502    0 -0.87296930479E+02  0.53515823509E+01 -0.38401210114E+02  0.95635435080E+02  0.47000000000E+01 0. -1.
         -5    1    4    4    0  502  0.38733500631E+02 -0.30616744555E+02 -0.23981489294E+02  0.55089662796E+02  0.47000000000E+01 0. -1.
          5    1    5    5  503    0 -0.29304296912E+02 -0.19215869010E+02 -0.39849868063E+02  0.53273759244E+02  0.47000000000E+01 0. -1.
         -5    1    5    5    0  503  0.77867726760E+02  0.44481031214E+02  0.12519884043E+01  0.89808699376E+02  0.47000000000E+01 0. -1.
<mgrwt>
<rscale>  0 0.27590905E+03</rscale>
<asrwt>0</asrwt>
<pdfrwt beam="1">  1        1 0.14832844E-01 0.27590905E+03</pdfrwt>
<pdfrwt beam="2">  1       -1 0.30368318E-01 0.27590905E+03</pdfrwt>
<totfact> 0.37644470E+03</totfact>
</mgrwt>
</event>
<event>
 9    1  0.2095749E-002  0.2742790E+03  0.7818608E-02  0.1098855E+00
          2   -1    0    0  501    0  0.00000000000E+00  0.00000000000E+00  0.13037697650E+04  0.13037697650E+04  0.00000000000E+00 0.  1.
         -2   -1    0    0    0  501 -0.00000000000E+00 -0.00000000000E+00 -0.14425280865E+02  0.14425280865E+02  0.00000000000E+00 0.  1.
         36    2    1    2    0    0  0.00000000000E+00 -0.71054273576E-14  0.12893444841E+04  0.13181950458E+04  0.27427901883E+03 0.  0.
         25    2    3    3    0    0  0.35785682735E+02  0.44181337152E+02  0.69398755488E+03  0.70715190579E+03  0.12333890667E+03 0.  0.
         25    2    3    3    0    0 -0.35785682735E+02 -0.44181337152E+02  0.59535692924E+03  0.61104314005E+03  0.12526468047E+03 0.  0.
          5    1    4    4  502    0 -0.19245380899E+02 -0.63555430798E+01  0.47993130031E+03  0.48038205694E+03  0.47000000000E+01 0.  1.
         -5    1    4    4    0  502  0.55031063634E+02  0.50536880232E+02  0.21405625457E+03  0.22676984886E+03  0.47000000000E+01 0.  1.
          5    1    5    5  503    0 -0.56205199900E+02  0.11589915599E+02  0.13389030712E+03  0.14574654363E+03  0.47000000000E+01 0. -1.
         -5    1    5    5    0  503  0.20419517165E+02 -0.55771252751E+02  0.46146662211E+03  0.46529659642E+03  0.47000000000E+01 0. -1.
<mgrwt>
<rscale>  0 0.27427902E+03</rscale>
<asrwt>0</asrwt>
<pdfrwt beam="1">  1        2 0.20057987E+00 0.27427902E+03</pdfrwt>
<pdfrwt beam="2">  1       -2 0.22192750E-02 0.27427902E+03</pdfrwt>
<totfact> 0.11566969E+04</totfact>
</mgrwt>
</event>
<event>
 9    1  0.2095749E-002  0.2753751E+03  0.7818608E-02  0.1098242E+00
          2   -1    0    0  501    0  0.00000000000E+00  0.00000000000E+00  0.22653606684E+04  0.22653606684E+04  0.00000000000E+00 0. -1.
         -2   -1    0    0    0  501 -0.00000000000E+00 -0.00000000000E+00 -0.83685860280E+01  0.83685860280E+01  0.00000000000E+00 0. -1.
         36    2    1    2    0    0 -0.35527136788E-14  0.71054273576E-14  0.22569920824E+04  0.22737292545E+04  0.27537513060E+03 0.  0.
         25    2    3    3    0    0 -0.14833733771E+02  0.26572800342E+02  0.80110021194E+03  0.81233349262E+03  0.13114114644E+03 0.  0.
         25    2    3    3    0    0  0.14833733771E+02 -0.26572800342E+02  0.14558918705E+04  0.14613957618E+04  0.12300520664E+03 0.  0.
          5    1    4    4  502    0  0.40152043427E+02 -0.11684137377E+02  0.10676416528E+03  0.11475793064E+03  0.47000000000E+01 0.  1.
         -5    1    4    4    0  502 -0.54985777198E+02  0.38256937719E+02  0.69433604666E+03  0.69757556198E+03  0.47000000000E+01 0.  1.
          5    1    5    5  503    0  0.30919610840E+02 -0.71880263228E+02  0.91243202776E+03  0.91579314797E+03  0.47000000000E+01 0.  1.
         -5    1    5    5    0  503 -0.16085877069E+02  0.45307462886E+02  0.54345984270E+03  0.54560261387E+03  0.47000000000E+01 0.  1.
<mgrwt>
<rscale>  0 0.27537513E+03</rscale>
<asrwt>0</asrwt>
<pdfrwt beam="1">  1        2 0.34851654E+00 0.27537513E+03</pdfrwt>
<pdfrwt beam="2">  1       -2 0.12874766E-02 0.27537513E+03</pdfrwt>
<totfact> 0.79271739E+03</totfact>
</mgrwt>
</event>
<event>
 9    1  0.2095749E-002  0.2753109E+03  0.7818608E-02  0.1098278E+00
         -1   -1    0    0    0  501 -0.00000000000E+00  0.00000000000E+00  0.14085487693E+02  0.14085487693E+02  0.00000000000E+00 0. -1.
          1   -1    0    0  501    0  0.00000000000E+00 -0.00000000000E+00 -0.13452867318E+04  0.13452867318E+04  0.00000000000E+00 0. -1.
         36    2    1    2    0    0 -0.71054273576E-14  0.35527136788E-14 -0.13312012441E+04  0.13593722195E+04  0.27531087668E+03 0.  0.
         25    2    3    3    0    0 -0.53672283795E+02  0.37119240040E+01 -0.77748699930E+03  0.78934330264E+03  0.12522908171E+03 0.  0.
         25    2    3    3    0    0  0.53672283795E+02 -0.37119240040E+01 -0.55371424479E+03  0.57002891684E+03  0.12425380769E+03 0.  0.
          5    1    4    4  502    0  0.30958757721E+02 -0.25169181365E+02 -0.36759845618E+03  0.36978730015E+03  0.47000000000E+01 0. -1.
         -5    1    4    4    0  502 -0.84631041516E+02  0.28881105369E+02 -0.40988854313E+03  0.41955600248E+03  0.47000000000E+01 0. -1.
          5    1    5    5  503    0  0.20937569358E+02 -0.63225723473E+02 -0.29980120889E+03  0.30714610330E+03  0.47000000000E+01 0.  1.
         -5    1    5    5    0  503  0.32734714437E+02  0.59513799469E+02 -0.25391303589E+03  0.26288281354E+03  0.47000000000E+01 0.  1.
<mgrwt>
<rscale>  0 0.27531088E+03</rscale>
<asrwt>0</asrwt>
<pdfrwt beam="1">  1        1 0.20696717E+00 0.27531088E+03</pdfrwt>
<pdfrwt beam="2">  1       -1 0.21669983E-02 0.27531088E+03</pdfrwt>
<totfact> 0.55400597E+03</totfact>
</mgrwt>
</event>
<event>
 9    1  0.2095749E-002  0.2758004E+03  0.7818608E-02  0.1098005E+00
          2   -1    0    0  501    0  0.00000000000E+00  0.00000000000E+00  0.40214679687E+03  0.40214679687E+03  0.00000000000E+00 0.  1.
         -2   -1    0    0    0  501 -0.00000000000E+00 -0.00000000000E+00 -0.47287383385E+02  0.47287383385E+02  0.00000000000E+00 0.  1.
         36    2    1    2    0    0  0.00000000000E+00  0.00000000000E+00  0.35485941349E+03  0.44943418026E+03  0.27580043336E+03 0.  0.
         25    2    3    3    0    0 -0.11150848918E+02  0.24509265429E+02  0.26708434785E+03  0.29576867203E+03  0.12417734480E+03 0.  0.
         25    2    3    3    0    0  0.11150848918E+02 -0.24509265429E+02  0.87775065636E+02  0.15366550823E+03  0.12322167321E+03 0.  0.
          5    1    4    4  502    0 -0.45942128204E+02  0.47296869929E+02  0.78642374391E+02  0.10273454190E+03  0.47000000000E+01 0. -1.
         -5    1    4    4    0  502  0.34791279286E+02 -0.22787604500E+02  0.18844197346E+03  0.19303413013E+03  0.47000000000E+01 0. -1.
          5    1    5    5  503    0  0.55395112565E+02 -0.44193221651E+02  0.27387765666E+02  0.76117271655E+02  0.47000000000E+01 0.  1.
         -5    1    5    5    0  503 -0.44244263648E+02  0.19683956222E+02  0.60387299970E+02  0.77548236575E+02  0.47000000000E+01 0.  1.
<mgrwt>
<rscale>  0 0.27580043E+03</rscale>
<asrwt>0</asrwt>
<pdfrwt beam="1">  1        2 0.61868736E-01 0.27580043E+03</pdfrwt>
<pdfrwt beam="2">  1       -2 0.72749823E-02 0.27580043E+03</pdfrwt>
<totfact> 0.86524011E+03</totfact>
</mgrwt>
</event>
<event>
 9    1  0.2095749E-002  0.2751408E+03  0.7818608E-02  0.1098373E+00
          1   -1    0    0  501    0  0.00000000000E+00  0.00000000000E+00  0.72749341289E+03  0.72749341289E+03  0.00000000000E+00 0.  1.
         -1   -1    0    0    0  501 -0.00000000000E+00 -0.00000000000E+00 -0.26014824681E+02  0.26014824681E+02  0.00000000000E+00 0.  1.
         36    2    1    2    0    0  0.35527136788E-14  0.00000000000E+00  0.70147858821E+03  0.75350823758E+03  0.27514079009E+03 0.  0.
         25    2    3    3    0    0 -0.12852310229E+02 -0.22968569060E+01  0.20448927420E+03  0.23996277759E+03  0.12488320117E+03 0.  0.
         25    2    3    3    0    0  0.12852310229E+02  0.22968569060E+01  0.49698931401E+03  0.51354545999E+03  0.12868606686E+03 0.  0.
          5    1    4    4  502    0 -0.27053513736E+02 -0.36313967270E+02  0.19682254712E+03  0.20201931066E+03  0.47000000000E+01 0.  1.
         -5    1    4    4    0  502  0.14201203507E+02  0.34017110364E+02  0.76667270854E+01  0.37943466932E+02  0.47000000000E+01 0.  1.
          5    1    5    5  503    0  0.21044374878E+02  0.62921209709E+02  0.29696094069E+03  0.30431863999E+03  0.47000000000E+01 0. -1.
         -5    1    5    5    0  503 -0.81920646493E+01 -0.60624352803E+02  0.20002837331E+03  0.20922682000E+03  0.47000000000E+01 0. -1.
<mgrwt>
<rscale>  0 0.27514079E+03</rscale>
<asrwt>0</asrwt>
<pdfrwt beam="1">  1        1 0.11192205E+00 0.27514079E+03</pdfrwt>
<pdfrwt beam="2">  1       -1 0.40022813E-02 0.27514079E+03</pdfrwt>
<totfact> 0.65259457E+03</totfact>
</mgrwt>
</event>
<event>
 9    1  0.2095749E-002  0.2744215E+03  0.7818608E-02  0.1098775E+00
         -2   -1    0    0    0  501 -0.00000000000E+00  0.00000000000E+00  0.48840192841E+02  0.48840192841E+02  0.00000000000E+00 0. -1.
          2   -1    0    0  501    0  0.00000000000E+00 -0.00000000000E+00 -0.38547750179E+03  0.38547750179E+03  0.00000000000E+00 0. -1.
         36    2    1    2    0    0  0.71054273576E-14 -0.17763568394E-14 -0.33663730895E+03  0.43431769463E+03  0.27442154087E+03 0.  0.
         25    2    3    3    0    0 -0.82307083266E+01  0.85334145634E+01 -0.21990871678E+03  0.26214605078E+03  0.14219755449E+03 0.  0.
         25    2    3    3    0    0  0.82307083266E+01 -0.85334145634E+01 -0.11672859217E+03  0.17217164384E+03  0.12600375784E+03 0.  0.
          5    1    4    4  502    0  0.43886532357E+02  0.14853207960E+02 -0.12603652975E+02  0.48245078271E+02  0.47000000000E+01 0. -1.
         -5    1    4    4    0  502 -0.52117240684E+02 -0.63197933966E+01 -0.20730506380E+03  0.21390097251E+03  0.47000000000E+01 0. -1.
          5    1    5    5  503    0 -0.49127867891E+02 -0.34859288904E+02 -0.75241380673E+02  0.96499081820E+02  0.47000000000E+01 0.  1.
         -5    1    5    5    0  503  0.57358576218E+02  0.26325874341E+02 -0.41487211498E+02  0.75672562025E+02  0.47000000000E+01 0.  1.
<mgrwt>
<rscale>  0 0.27442154E+03</rscale>
<asrwt>0</asrwt>
<pdfrwt beam="1">  1        2 0.59304231E-01 0.27442154E+03</pdfrwt>
<pdfrwt beam="2">  1       -2 0.75138759E-02 0.27442154E+03</pdfrwt>
<totfact> 0.86139980E+03</totfact>
</mgrwt>
</event>
<event>
 9    1  0.2095749E-002  0.2697698E+03  0.7818608E-02  0.1101411E+00
         -3   -1    0    0    0  501 -0.00000000000E+00  0.00000000000E+00  0.24026946376E+03  0.24026946376E+03  0.00000000000E+00 0.  1.
          3   -1    0    0  501    0  0.00000000000E+00 -0.00000000000E+00 -0.75723075531E+02  0.75723075531E+02  0.00000000000E+00 0.  1.
         36    2    1    2    0    0  0.00000000000E+00 -0.35527136788E-14  0.16454638823E+03  0.31599253929E+03  0.26976984822E+03 0.  0.
         25    2    3    3    0    0 -0.44210922613E+02 -0.40448679863E+01  0.58071429729E+02  0.14578889762E+03  0.12613938751E+03 0.  0.
         25    2    3    3    0    0  0.44210922613E+02  0.40448679863E+01  0.10647495850E+03  0.17020364168E+03  0.12514550019E+03 0.  0.
          5    1    4    4  502    0  0.16380480249E+01 -0.15243039295E+02 -0.36568088631E+02  0.39929294439E+02  0.47000000000E+01 0.  1.
         -5    1    4    4    0  502 -0.45848970638E+02  0.11198171309E+02  0.94639518360E+02  0.10585960318E+03  0.47000000000E+01 0.  1.
          5    1    5    5  503    0 -0.30902964329E+02  0.38609335865E+02  0.45440598820E+02  0.67324676319E+02  0.47000000000E+01 0. -1.
         -5    1    5    5    0  503  0.75113886942E+02 -0.34564467879E+02  0.61034359679E+02  0.10287896536E+03  0.47000000000E+01 0. -1.
<mgrwt>
<rscale>  0 0.26976985E+03</rscale>
<asrwt>0</asrwt>
<pdfrwt beam="1">  1        3 0.11649704E-01 0.26976985E+03</pdfrwt>
<pdfrwt beam="2">  1       -3 0.36964533E-01 0.26976985E+03</pdfrwt>
<totfact> 0.10484468E+03</totfact>
</mgrwt>
</event>
<event>
 9    1  0.2095749E-002  0.2743443E+03  0.7818608E-02  0.1098819E+00
          2   -1    0    0  501    0  0.00000000000E+00  0.00000000000E+00  0.10371415174E+03  0.10371415174E+03  0.00000000000E+00 0. -1.
         -2   -1    0    0    0  501 -0.00000000000E+00 -0.00000000000E+00 -0.18142368705E+03  0.18142368705E+03  0.00000000000E+00 0. -1.
         36    2    1    2    0    0  0.00000000000E+00  0.00000000000E+00 -0.77709535311E+02  0.28513783879E+03  0.27434433698E+03 0.  0.
         25    2    3    3    0    0 -0.28501062483E+02 -0.39978151626E+02 -0.26520830523E+02  0.14095824430E+03  0.12944229994E+03 0.  0.
         25    2    3    3    0    0  0.28501062483E+02  0.39978151626E+02 -0.51188704788E+02  0.14417959449E+03  0.12552652628E+03 0.  0.
          5    1    4    4  502    0 -0.59408547281E+02 -0.18890748571E+02  0.32851460532E+02  0.70622548316E+02  0.47000000000E+01 0. -1.
         -5    1    4    4    0  502  0.30907484798E+02 -0.21087403055E+02 -0.59372291055E+02  0.70335695982E+02  0.47000000000E+01 0. -1.
          5    1    5    5  503    0  0.59383970826E+02  0.53973227863E+02 -0.68689479754E+02  0.10573504597E+03  0.47000000000E+01 0. -1.
         -5    1    5    5    0  503 -0.30882908343E+02 -0.13995076237E+02  0.17500774966E+02  0.38444548521E+02  0.47000000000E+01 0. -1.
<mgrwt>
<rscale>  0 0.27434434E+03</rscale>
<asrwt>0</asrwt>
<pdfrwt beam="1">  1        2 0.15956023E-01 0.27434434E+03</pdfrwt>
<pdfrwt beam="2">  1       -2 0.27911337E-01 0.27434434E+03</pdfrwt>
<totfact> 0.41969877E+03</totfact>
</mgrwt>
</event>
<event>
 9    1  0.2095749E-002  0.2760693E+03  0.7818608E-02  0.1097855E+00
         -2   -1    0    0    0  501 -0.00000000000E+00  0.00000000000E+00  0.69153303124E+01  0.69153303124E+01  0.00000000000E+00 0.  1.
          2   -1    0    0  501    0  0.00000000000E+00 -0.00000000000E+00 -0.27552653911E+04  0.27552653911E+04  0.00000000000E+00 0.  1.
         36    2    1    2    0    0 -0.35527136788E-14  0.00000000000E+00 -0.27483500608E+04  0.27621807214E+04  0.27606934113E+03 0.  0.
         25    2    3    3    0    0 -0.22391016790E+01  0.26928135833E+02 -0.94157513918E+03  0.95073857288E+03  0.12887960725E+03 0.  0.
         25    2    3    3    0    0  0.22391016790E+01 -0.26928135833E+02 -0.18067749216E+04  0.18114421485E+04  0.12710980314E+03 0.  0.
          5    1    4    4  502    0  0.69170593007E+01 -0.51524194267E+02 -0.40911047984E+03  0.41242703963E+03  0.47000000000E+01 0. -1.
         -5    1    4    4    0  502 -0.91561609797E+01  0.78452330100E+02 -0.53246465934E+03  0.53831153325E+03  0.47000000000E+01 0. -1.
          5    1    5    5  503    0 -0.47388309535E+02 -0.11630736593E+02 -0.31816255494E+03  0.32191680180E+03  0.47000000000E+01 0. -1.
         -5    1    5    5    0  503  0.49627411214E+02 -0.15297399240E+02 -0.14886123666E+04  0.14895253467E+04  0.47000000000E+01 0. -1.
<mgrwt>
<rscale>  0 0.27606934E+03</rscale>
<asrwt>0</asrwt>
<pdfrwt beam="1">  1        2 0.42388659E+00 0.27606934E+03</pdfrwt>
<pdfrwt beam="2">  1       -2 0.10638979E-02 0.27606934E+03</pdfrwt>
<totfact> 0.56294346E+03</totfact>
</mgrwt>
</event>
<event>
 9    1  0.2095749E-002  0.2750647E+03  0.7818608E-02  0.1098415E+00
          4   -1    0    0  501    0  0.00000000000E+00  0.00000000000E+00  0.27745475400E+03  0.27745475400E+03  0.00000000000E+00 0.  1.
         -4   -1    0    0    0  501 -0.00000000000E+00 -0.00000000000E+00 -0.68173822590E+02  0.68173822590E+02  0.00000000000E+00 0.  1.
         36    2    1    2    0    0  0.00000000000E+00  0.00000000000E+00  0.20928093142E+03  0.34562857659E+03  0.27506472821E+03 0.  0.
         25    2    3    3    0    0 -0.34223354398E+02 -0.33532736497E+02  0.68015386304E+02  0.15115080401E+03  0.12619346408E+03 0.  0.
         25    2    3    3    0    0  0.34223354398E+02  0.33532736497E+02  0.14126554511E+03  0.19447777258E+03  0.12477967539E+03 0.  0.
          5    1    4    4  502    0 -0.71214810409E+01 -0.50347458385E+02 -0.21950352338E+02  0.55583181141E+02  0.47000000000E+01 0. -1.
         -5    1    4    4    0  502 -0.27101873357E+02  0.16814721887E+02  0.89965738643E+02  0.95567622870E+02  0.47000000000E+01 0. -1.
          5    1    5    5  503    0  0.50656617657E+02 -0.28776742734E+02  0.10554861957E+03  0.12065154341E+03  0.47000000000E+01 0. -1.
         -5    1    5    5    0  503 -0.16433263260E+02  0.62309479231E+02  0.35716925542E+02  0.73826229170E+02  0.47000000000E+01 0. -1.
<mgrwt>
<rscale>  0 0.27506473E+03</rscale>
<asrwt>0</asrwt>
<pdfrwt beam="1">  1        4 0.42685346E-01 0.27506473E+03</pdfrwt>
<pdfrwt beam="2">  1       -4 0.10488281E-01 0.27506473E+03</pdfrwt>
<totfact> 0.70112469E+02</totfact>
</mgrwt>
</event>
<event>
 9    1  0.2095749E-002  0.2751536E+03  0.7818608E-02  0.1098366E+00
         -1   -1    0    0    0  501 -0.00000000000E+00  0.00000000000E+00  0.73984278403E+03  0.73984278403E+03  0.00000000000E+00 0.  1.
          1   -1    0    0  501    0  0.00000000000E+00 -0.00000000000E+00 -0.25582970231E+02  0.25582970231E+02  0.00000000000E+00 0.  1.
         36    2    1    2    0    0  0.71054273576E-14  0.00000000000E+00  0.71425981380E+03  0.76542575426E+03  0.27515360015E+03 0.  0.
         25    2    3    3    0    0 -0.31697768307E+02 -0.45055442485E+01  0.23319560706E+03  0.26758127820E+03  0.12725761608E+03 0.  0.
         25    2    3    3    0    0  0.31697768307E+02  0.45055442485E+01  0.48106420674E+03  0.49784447606E+03  0.12410198583E+03 0.  0.
          5    1    4    4  502    0  0.32729702122E+02 -0.42710204133E+02  0.12207000890E+03  0.13348622405E+03  0.47000000000E+01 0. -1.
         -5    1    4    4    0  502 -0.64427470429E+02  0.38204659885E+02  0.11112559816E+03  0.13409505416E+03  0.47000000000E+01 0. -1.
          5    1    5    5  503    0  0.59405606628E+02  0.39953029395E+02  0.18644447038E+03  0.19977212316E+03  0.47000000000E+01 0.  1.
         -5    1    5    5    0  503 -0.27707838321E+02 -0.35447485146E+02  0.29461973637E+03  0.29807235290E+03  0.47000000000E+01 0.  1.
<mgrwt>
<rscale>  0 0.27515360E+03</rscale>
<asrwt>0</asrwt>
<pdfrwt beam="1">  1        1 0.39358421E-02 0.27515360E+03</pdfrwt>
<pdfrwt beam="2">  1       -1 0.11382195E+00 0.27515360E+03</pdfrwt>
<totfact> 0.17417654E+03</totfact>
</mgrwt>
</event>
<event>
 9    1  0.2095749E-002  0.2752355E+03  0.7818608E-02  0.1098320E+00
          2   -1    0    0  501    0  0.00000000000E+00  0.00000000000E+00  0.70845651161E+03  0.70845651161E+03  0.00000000000E+00 0. -1.
         -2   -1    0    0    0  501 -0.00000000000E+00 -0.00000000000E+00 -0.26732254993E+02  0.26732254993E+02  0.00000000000E+00 0. -1.
         36    2    1    2    0    0  0.71054273576E-14  0.00000000000E+00  0.68172425662E+03  0.73518876660E+03  0.27523546370E+03 0.  0.
         25    2    3    3    0    0  0.30529843292E+02  0.42085847201E+02  0.36293772563E+03  0.38862874826E+03  0.12886124872E+03 0.  0.
         25    2    3    3    0    0 -0.30529843292E+02 -0.42085847201E+02  0.31878653098E+03  0.34656001834E+03  0.12560136985E+03 0.  0.
          5    1    4    4  502    0  0.80114145318E+02  0.38390575617E+02  0.23740016963E+03  0.25352128731E+03  0.47000000000E+01 0. -1.
         -5    1    4    4    0  502 -0.49584302026E+02  0.36952715846E+01  0.12553755600E+03  0.13510746096E+03  0.47000000000E+01 0. -1.
          5    1    5    5  503    0 -0.62984081185E+01 -0.60060760819E+02  0.30842301182E+03  0.31431482491E+03  0.47000000000E+01 0.  1.
         -5    1    5    5    0  503 -0.24231435174E+02  0.17974913618E+02  0.10363519162E+02  0.32245193434E+02  0.47000000000E+01 0.  1.
<mgrwt>
<rscale>  0 0.27523546E+03</rscale>
<asrwt>0</asrwt>
<pdfrwt beam="1">  1        2 0.10899330E+00 0.27523546E+03</pdfrwt>
<pdfrwt beam="2">  1       -2 0.41126551E-02 0.27523546E+03</pdfrwt>
<totfact> 0.10848656E+04</totfact>
</mgrwt>
</event>
<event>
 9    1  0.2095749E-002  0.2745119E+03  0.7818608E-02  0.1098725E+00
         -2   -1    0    0    0  501 -0.00000000000E+00  0.00000000000E+00  0.16794932815E+02  0.16794932815E+02  0.00000000000E+00 0.  1.
          2   -1    0    0  501    0  0.00000000000E+00 -0.00000000000E+00 -0.11217189260E+04  0.11217189260E+04  0.00000000000E+00 0.  1.
         36    2    1    2    0    0  0.35527136788E-14  0.00000000000E+00 -0.11049239932E+04  0.11385138588E+04  0.27451188681E+03 0.  0.
         25    2    3    3    0    0  0.22816055491E+02 -0.44964598662E+02 -0.59370195259E+03  0.60863331779E+03  0.12413750239E+03 0.  0.
         25    2    3    3    0    0 -0.22816055491E+02  0.44964598662E+02 -0.51122204062E+03  0.52988054105E+03  0.12993469684E+03 0.  0.
          5    1    4    4  502    0  0.72399402158E+02 -0.29566004297E+02 -0.28553921288E+03  0.29609213791E+03  0.47000000000E+01 0.  1.
         -5    1    4    4    0  502 -0.49583346667E+02 -0.15398594366E+02 -0.30816273971E+03  0.31254117988E+03  0.47000000000E+01 0.  1.
          5    1    5    5  503    0  0.86373673409E+01  0.76154231749E+02 -0.18024448408E+03  0.19591895051E+03  0.47000000000E+01 0. -1.
         -5    1    5    5    0  503 -0.31453422832E+02 -0.31189633086E+02 -0.33097755654E+03  0.33396159053E+03  0.47000000000E+01 0. -1.
<mgrwt>
<rscale>  0 0.27451189E+03</rscale>
<asrwt>0</asrwt>
<pdfrwt beam="1">  1        2 0.17257210E+00 0.27451189E+03</pdfrwt>
<pdfrwt beam="2">  1       -2 0.25838365E-02 0.27451189E+03</pdfrwt>
<totfact> 0.11715870E+04</totfact>
</mgrwt>
</event>
<event>
 9    1  0.2095749E-002  0.2750465E+03  0.7818608E-02  0.1098426E+00
          2   -1    0    0  501    0  0.00000000000E+00  0.00000000000E+00  0.21072794155E+03  0.21072794155E+03  0.00000000000E+00 0. -1.
         -2   -1    0    0    0  501 -0.00000000000E+00 -0.00000000000E+00 -0.89749087947E+02  0.89749087947E+02  0.00000000000E+00 0. -1.
         36    2    1    2    0    0  0.71054273576E-14  0.00000000000E+00  0.12097885360E+03  0.30047702950E+03  0.27504647287E+03 0.  0.
         25    2    3    3    0    0  0.89900494638E+01  0.22773256399E+02  0.11517499602E+03  0.17238715343E+03  0.12590714342E+03 0.  0.
         25    2    3    3    0    0 -0.89900494638E+01 -0.22773256399E+02  0.58038575854E+01  0.12808987606E+03  0.12559414553E+03 0.  0.
          5    1    4    4  502    0  0.59803566177E+02  0.78198931814E+01  0.20634661827E+02  0.63917888932E+02  0.47000000000E+01 0. -1.
         -5    1    4    4    0  502 -0.50813516713E+02  0.14953363218E+02  0.94540334192E+02  0.10846926450E+03  0.47000000000E+01 0. -1.
          5    1    5    5  503    0 -0.53153415396E+02  0.86055538574E+01  0.36902216273E+02  0.65446196920E+02  0.47000000000E+01 0. -1.
         -5    1    5    5    0  503  0.44163365932E+02 -0.31378810256E+02 -0.31098358688E+02  0.62643679144E+02  0.47000000000E+01 0. -1.
<mgrwt>
<rscale>  0 0.27504647E+03</rscale>
<asrwt>0</asrwt>
<pdfrwt beam="1">  1        2 0.32419683E-01 0.27504647E+03</pdfrwt>
<pdfrwt beam="2">  1       -2 0.13807552E-01 0.27504647E+03</pdfrwt>
<totfact> 0.62730271E+03</totfact>
</mgrwt>
</event>
<event>
 9    1  0.2095749E-002  0.2736363E+03  0.7818608E-02  0.1099216E+00
          2   -1    0    0  501    0  0.00000000000E+00  0.00000000000E+00  0.87100653336E+02  0.87100653336E+02  0.00000000000E+00 0.  1.
         -2   -1    0    0    0  501 -0.00000000000E+00 -0.00000000000E+00 -0.21491471772E+03  0.21491471772E+03  0.00000000000E+00 0.  1.
         36    2    1    2    0    0 -0.17763568394E-14 -0.26645352591E-14 -0.12781406438E+03  0.30201537106E+03  0.27363634499E+03 0.  0.
         25    2    3    3    0    0 -0.94584523930E+01  0.35895869498E+01 -0.11983754118E+03  0.17437339831E+03  0.12626439842E+03 0.  0.
         25    2    3    3    0    0  0.94584523930E+01 -0.35895869498E+01 -0.79765232083E+01  0.12764197274E+03  0.12699016035E+03 0.  0.
          5    1    4    4  502    0  0.31176550170E+01 -0.27218425602E+02 -0.13476439812E+03  0.13760121898E+03  0.47000000000E+01 0.  1.
         -5    1    4    4    0  502 -0.12576107410E+02  0.30808012552E+02  0.14926856940E+02  0.36772179336E+02  0.47000000000E+01 0.  1.
          5    1    5    5  503    0 -0.56779755092E+02  0.75690756078E+01  0.90605108658E+01  0.58184313617E+02  0.47000000000E+01 0.  1.
         -5    1    5    5    0  503  0.66238207485E+02 -0.11158662558E+02 -0.17037034074E+02  0.69457659124E+02  0.47000000000E+01 0.  1.
<mgrwt>
<rscale>  0 0.27363634E+03</rscale>
<asrwt>0</asrwt>
<pdfrwt beam="1">  1        2 0.13400100E-01 0.27363634E+03</pdfrwt>
<pdfrwt beam="2">  1       -2 0.33063803E-01 0.27363634E+03</pdfrwt>
<totfact> 0.37943809E+03</totfact>
</mgrwt>
</event>
<event>
 9    1  0.2095749E-002  0.2752248E+03  0.7818608E-02  0.1098326E+00
         -1   -1    0    0    0  501 -0.00000000000E+00  0.00000000000E+00  0.14390397095E+03  0.14390397095E+03  0.00000000000E+00 0. -1.
          1   -1    0    0  501    0  0.00000000000E+00 -0.00000000000E+00 -0.13159587131E+03  0.13159587131E+03  0.00000000000E+00 0. -1.
         36    2    1    2    0    0  0.71054273576E-14  0.71054273576E-14  0.12308099634E+02  0.27549984226E+03  0.27522476954E+03 0.  0.
         25    2    3    3    0    0  0.31890641875E+02  0.15691188005E+02  0.53233890465E+02  0.14055916221E+03  0.12513914082E+03 0.  0.
         25    2    3    3    0    0 -0.31890641875E+02 -0.15691188005E+02 -0.40925790831E+02  0.13494068006E+03  0.12357524169E+03 0.  0.
          5    1    4    4  502    0  0.50882689944E+02  0.54410452059E+02  0.37298381859E+01  0.74736517995E+02  0.47000000000E+01 0. -1.
         -5    1    4    4    0  502 -0.18992048069E+02 -0.38719264054E+02  0.49504052279E+02  0.65822644210E+02  0.47000000000E+01 0. -1.
          5    1    5    5  503    0 -0.54751815964E+01 -0.68119885704E+02 -0.12849833744E+02  0.69695800943E+02  0.47000000000E+01 0. -1.
         -5    1    5    5    0  503 -0.26415460278E+02  0.52428697699E+02 -0.28075957088E+02  0.65244879113E+02  0.47000000000E+01 0. -1.
<mgrwt>
<rscale>  0 0.27522477E+03</rscale>
<asrwt>0</asrwt>
<pdfrwt beam="1">  1        1 0.20245519E-01 0.27522477E+03</pdfrwt>
<pdfrwt beam="2">  1       -1 0.22139072E-01 0.27522477E+03</pdfrwt>
<totfact> 0.42597815E+03</totfact>
</mgrwt>
</event>
<event>
 9    1  0.2095749E-002  0.2742109E+03  0.7818608E-02  0.1098894E+00
         -1   -1    0    0    0  501 -0.00000000000E+00  0.00000000000E+00  0.11725411286E+03  0.11725411286E+03  0.00000000000E+00 0.  1.
          1   -1    0    0  501    0  0.00000000000E+00 -0.00000000000E+00 -0.16031762149E+03  0.16031762149E+03  0.00000000000E+00 0.  1.
         36    2    1    2    0    0 -0.14210854715E-13  0.00000000000E+00 -0.43063508631E+02  0.27757173435E+03  0.27421087129E+03 0.  0.
         25    2    3    3    0    0 -0.29461829604E+02 -0.54276879574E+02 -0.17299842361E+02  0.13635508612E+03  0.12033056928E+03 0.  0.
         25    2    3    3    0    0  0.29461829604E+02  0.54276879574E+02 -0.25763666270E+02  0.14121664823E+03  0.12435592539E+03 0.  0.
          5    1    4    4  502    0 -0.74624398866E+02 -0.25231653085E+02  0.24408045620E+01  0.78952420802E+02  0.47000000000E+01 0. -1.
         -5    1    4    4    0  502  0.45162569263E+02 -0.29045226489E+02 -0.19740646923E+02  0.57402665314E+02  0.47000000000E+01 0. -1.
          5    1    5    5  503    0  0.57706481130E+02  0.78441872915E+02 -0.33249883228E+02  0.10300878664E+03  0.47000000000E+01 0. -1.
         -5    1    5    5    0  503 -0.28244651527E+02 -0.24164993341E+02  0.74862169578E+01  0.38207861591E+02  0.47000000000E+01 0. -1.
<mgrwt>
<rscale>  0 0.27421087E+03</rscale>
<asrwt>0</asrwt>
<pdfrwt beam="1">  1        1 0.24664249E-01 0.27421087E+03</pdfrwt>
<pdfrwt beam="2">  1       -1 0.18039094E-01 0.27421087E+03</pdfrwt>
<totfact> 0.46148674E+03</totfact>
</mgrwt>
</event>
<event>
 9    1  0.2095749E-002  0.2740183E+03  0.7818608E-02  0.1099002E+00
         -4   -1    0    0    0  501 -0.00000000000E+00  0.00000000000E+00  0.12829502517E+04  0.12829502517E+04  0.00000000000E+00 0. -1.
          4   -1    0    0  501    0  0.00000000000E+00 -0.00000000000E+00 -0.14631515531E+02  0.14631515531E+02  0.00000000000E+00 0. -1.
         36    2    1    2    0    0  0.00000000000E+00  0.00000000000E+00  0.12683187362E+04  0.12975817673E+04  0.27401829526E+03 0.  0.
         25    2    3    3    0    0 -0.39495602881E+02 -0.23538650445E+02  0.39943876366E+03  0.41961766450E+03  0.12005701869E+03 0.  0.
         25    2    3    3    0    0  0.39495602881E+02  0.23538650445E+02  0.86887997254E+03  0.87796410276E+03  0.11727995711E+03 0.  0.
          5    1    4    4  502    0  0.42312355638E+02 -0.17833363348E+02  0.15678054202E+03  0.16343375613E+03  0.47000000000E+01 0. -1.
         -5    1    4    4    0  502 -0.81807958520E+02 -0.57052870964E+01  0.24265822164E+03  0.25618390837E+03  0.47000000000E+01 0. -1.
          5    1    5    5  503    0  0.75273791891E+02  0.28962776876E+02  0.72665775182E+03  0.73113512053E+03  0.47000000000E+01 0.  1.
         -5    1    5    5    0  503 -0.35778189009E+02 -0.54241264317E+01  0.14222222072E+03  0.14682898223E+03  0.47000000000E+01 0.  1.
<mgrwt>
<rscale>  0 0.27401830E+03</rscale>
<asrwt>0</asrwt>
<pdfrwt beam="1">  1        4 0.22510034E-02 0.27401830E+03</pdfrwt>
<pdfrwt beam="2">  1       -4 0.19737687E+00 0.27401830E+03</pdfrwt>
<totfact> 0.23655022E+02</totfact>
</mgrwt>
</event>
<event>
 9    1  0.2095749E-002  0.2752633E+03  0.7818608E-02  0.1098305E+00
         -1   -1    0    0    0  501 -0.00000000000E+00  0.00000000000E+00  0.14122034610E+03  0.14122034610E+03  0.00000000000E+00 0. -1.
          1   -1    0    0  501    0  0.00000000000E+00 -0.00000000000E+00 -0.13413414959E+03  0.13413414959E+03  0.00000000000E+00 0. -1.
         36    2    1    2    0    0  0.00000000000E+00 -0.35527136788E-14  0.70861965062E+01  0.27535449569E+03  0.27526329962E+03 0.  0.
         25    2    3    3    0    0  0.12509530040E+02 -0.26209316235E+02  0.34625701983E+02  0.13560934423E+03  0.12785749257E+03 0.  0.
         25    2    3    3    0    0 -0.12509530040E+02  0.26209316235E+02 -0.27539505477E+02  0.13974515146E+03  0.13389124839E+03 0.  0.
          5    1    4    4  502    0  0.57285827050E+02 -0.48066756182E+02  0.40576500524E+02  0.85209280161E+02  0.47000000000E+01 0. -1.
         -5    1    4    4    0  502 -0.44776297010E+02  0.21857439948E+02 -0.59507985416E+01  0.50400064070E+02  0.47000000000E+01 0. -1.
          5    1    5    5  503    0  0.58516967977E+01 -0.16165587901E+02  0.47933111516E+02  0.51139434561E+02  0.47000000000E+01 0. -1.
         -5    1    5    5    0  503 -0.18361226837E+02  0.42374904136E+02 -0.75472616992E+02  0.88605716899E+02  0.47000000000E+01 0. -1.
<mgrwt>
<rscale>  0 0.27526330E+03</rscale>
<asrwt>0</asrwt>
<pdfrwt beam="1">  1        1 0.20636023E-01 0.27526330E+03</pdfrwt>
<pdfrwt beam="2">  1       -1 0.21726207E-01 0.27526330E+03</pdfrwt>
<totfact> 0.42866952E+03</totfact>
</mgrwt>
</event>
<event>
 9    1  0.2095749E-002  0.2756477E+03  0.7818608E-02  0.1098090E+00
         -2   -1    0    0    0  501 -0.00000000000E+00  0.00000000000E+00  0.67096267087E+03  0.67096267087E+03  0.00000000000E+00 0. -1.
          2   -1    0    0  501    0  0.00000000000E+00 -0.00000000000E+00 -0.28310689792E+02  0.28310689792E+02  0.00000000000E+00 0. -1.
         36    2    1    2    0    0  0.00000000000E+00 -0.21316282073E-13  0.64265198108E+03  0.69927336066E+03  0.27564771747E+03 0.  0.
         25    2    3    3    0    0 -0.40036852511E+02  0.63210874511E+02  0.42112403327E+03  0.44387175570E+03  0.11865125324E+03 0.  0.
         25    2    3    3    0    0  0.40036852511E+02 -0.63210874511E+02  0.22152794781E+03  0.25540160496E+03  0.10274621132E+03 0.  0.
          5    1    4    4  502    0 -0.14166672840E+02 -0.35293155566E+02  0.11426880227E+03  0.12052282199E+03  0.47000000000E+01 0.  1.
         -5    1    4    4    0  502 -0.25870179671E+02  0.98504030077E+02  0.30685523100E+03  0.32334893371E+03  0.47000000000E+01 0.  1.
          5    1    5    5  503    0 -0.10621852208E+02  0.23261006658E+02  0.57811835360E+02  0.63389245798E+02  0.47000000000E+01 0. -1.
         -5    1    5    5    0  503  0.50658704719E+02 -0.86471881169E+02  0.16371611245E+03  0.19201235917E+03  0.47000000000E+01 0. -1.
<mgrwt>
<rscale>  0 0.27564772E+03</rscale>
<asrwt>0</asrwt>
<pdfrwt beam="1">  1        2 0.43554912E-02 0.27564772E+03</pdfrwt>
<pdfrwt beam="2">  1       -2 0.10322501E+00 0.27564772E+03</pdfrwt>
<totfact> 0.15038219E+03</totfact>
</mgrwt>
</event>
<event>
 9    1  0.2095749E-002  0.2797252E+03  0.7818608E-02  0.1095839E+00
          2   -1    0    0  501    0  0.00000000000E+00  0.00000000000E+00  0.23126410376E+04  0.23126410376E+04  0.00000000000E+00 0. -1.
         -2   -1    0    0    0  501 -0.00000000000E+00 -0.00000000000E+00 -0.84585313182E+01  0.84585313182E+01  0.00000000000E+00 0. -1.
         36    2    1    2    0    0  0.00000000000E+00  0.14210854715E-13  0.23041825063E+04  0.23210995689E+04  0.27972519832E+03 0.  0.
         25    2    3    3    0    0  0.20175658810E+02  0.38600126654E+02  0.79049102601E+03  0.80171350274E+03  0.12637820733E+03 0.  0.
         25    2    3    3    0    0 -0.20175658810E+02 -0.38600126654E+02  0.15136914803E+04  0.15193860662E+04  0.12399634536E+03 0.  0.
          5    1    4    4  502    0  0.23921312571E+02 -0.29046646659E+02  0.86410940558E+02  0.94365658613E+02  0.47000000000E+01 0.  1.
         -5    1    4    4    0  502 -0.37456537610E+01  0.67646773313E+02  0.70408008545E+03  0.70734784412E+03  0.47000000000E+01 0.  1.
          5    1    5    5  503    0  0.88837618159E+01 -0.11579063680E+02  0.20198974105E+02  0.25359110682E+02  0.47000000000E+01 0.  1.
         -5    1    5    5    0  503 -0.29059420626E+02 -0.27021062974E+02  0.14934925062E+04  0.14940269555E+04  0.47000000000E+01 0.  1.
<mgrwt>
<rscale>  0 0.27972520E+03</rscale>
<asrwt>0</asrwt>
<pdfrwt beam="1">  1        2 0.35579042E+00 0.27972520E+03</pdfrwt>
<pdfrwt beam="2">  1       -2 0.13013144E-02 0.27972520E+03</pdfrwt>
<totfact> 0.73620820E+03</totfact>
</mgrwt>
</event>
<event>
 9    1  0.2095749E-002  0.2826604E+03  0.7818608E-02  0.1094245E+00
          1   -1    0    0  501    0  0.00000000000E+00  0.00000000000E+00  0.32593355237E+02  0.32593355237E+02  0.00000000000E+00 0.  1.
         -1   -1    0    0    0  501 -0.00000000000E+00 -0.00000000000E+00 -0.61283105380E+03  0.61283105380E+03  0.00000000000E+00 0.  1.
         36    2    1    2    0    0 -0.71054273576E-14  0.14210854715E-13 -0.58023769857E+03  0.64542440904E+03  0.28266036324E+03 0.  0.
         25    2    3    3    0    0 -0.38644293012E+02 -0.50264735764E+02 -0.33805284821E+03  0.36538488427E+03  0.12331447777E+03 0.  0.
         25    2    3    3    0    0  0.38644293012E+02  0.50264735764E+02 -0.24218485036E+03  0.28003952477E+03  0.12549385900E+03 0.  0.
          5    1    4    4  502    0 -0.55889862900E+02  0.23418659577E+02 -0.18214479876E+03  0.19201804109E+03  0.47000000000E+01 0.  1.
         -5    1    4    4    0  502  0.17245569887E+02 -0.73683395341E+02 -0.15590804945E+03  0.17336684318E+03  0.47000000000E+01 0.  1.
          5    1    5    5  503    0 -0.37023890370E+02 -0.14919525451E+02 -0.79593662883E+02  0.89166147550E+02  0.47000000000E+01 0.  1.
         -5    1    5    5    0  503  0.75668183382E+02  0.65184261215E+02 -0.16259118747E+03  0.19087337722E+03  0.47000000000E+01 0.  1.
<mgrwt>
<rscale>  0 0.28266036E+03</rscale>
<asrwt>0</asrwt>
<pdfrwt beam="1">  1        1 0.50143624E-02 0.28266036E+03</pdfrwt>
<pdfrwt beam="2">  1       -1 0.94281700E-01 0.28266036E+03</pdfrwt>
<totfact> 0.19031484E+03</totfact>
</mgrwt>
</event>
<event>
 8    1  0.2095749E-002  0.2599279E+03  0.7818608E-02  0.1107187E+00
         -1   -1    0    0    0  501 -0.00000000000E+00  0.00000000000E+00  0.21369193741E+03  0.21369193741E+03  0.00000000000E+00 0. -1.
          1   -1    0    0  501    0  0.00000000000E+00 -0.00000000000E+00 -0.79041960641E+02  0.79041960641E+02  0.00000000000E+00 0. -1.
         25    2    1    2    0    0 -0.58655503838E+00 -0.26417352811E+02  0.94279267890E+02  0.15878440919E+03  0.12500275066E+03 0.  0.
         25    2    1    2    0    0  0.58655503838E+00  0.26417352811E+02  0.40370708877E+02  0.13394948886E+03  0.12495779629E+03 0.  0.
          5    1    3    3  502    0 -0.49219141147E+02 -0.46569514730E+02  0.26673175514E+02  0.72971171358E+02  0.47000000000E+01 0.  1.
         -5    1    3    3    0  502  0.48632586108E+02  0.20152161919E+02  0.67606092376E+02  0.85813237836E+02  0.47000000000E+01 0.  1.
          5    1    4    4  503    0  0.43839937887E+02  0.49197331772E+02 -0.60906009033E+01  0.66343824331E+02  0.47000000000E+01 0.  1.
         -5    1    4    4    0  503 -0.43253382848E+02 -0.22779978962E+02  0.46461309780E+02  0.67605664525E+02  0.47000000000E+01 0.  1.
<mgrwt>
<rscale>  0 0.25992791E+03</rscale>
<asrwt>0</asrwt>
<pdfrwt beam="1">  1        1 0.12160302E-01 0.25992791E+03</pdfrwt>
<pdfrwt beam="2">  1       -1 0.32875682E-01 0.25992791E+03</pdfrwt>
<totfact> 0.42640940E+03</totfact>
</mgrwt>
</event>
<event>
 9    1  0.2095749E-002  0.2750824E+03  0.7818608E-02  0.1098406E+00
          2   -1    0    0  501    0  0.00000000000E+00  0.00000000000E+00  0.76689484243E+03  0.76689484243E+03  0.00000000000E+00 0.  1.
         -2   -1    0    0    0  501 -0.00000000000E+00 -0.00000000000E+00 -0.24667764317E+02  0.24667764317E+02  0.00000000000E+00 0.  1.
         36    2    1    2    0    0 -0.17763568394E-14  0.00000000000E+00  0.74222707811E+03  0.79156260675E+03  0.27508239659E+03 0.  0.
         25    2    3    3    0    0  0.60187102068E+01 -0.17536118422E+02  0.51436245615E+03  0.52955971100E+03  0.12458334922E+03 0.  0.
         25    2    3    3    0    0 -0.60187102068E+01  0.17536118422E+02  0.22786462197E+03  0.26200289574E+03  0.12798238595E+03 0.  0.
          5    1    4    4  502    0  0.55778029942E+02 -0.67635216735E+01  0.40416423821E+03  0.40807812402E+03  0.47000000000E+01 0. -1.
         -5    1    4    4    0  502 -0.49759319735E+02 -0.10772596748E+02  0.11019821793E+03  0.12148158699E+03  0.47000000000E+01 0. -1.
          5    1    5    5  503    0  0.12050415590E+02  0.68515499211E+02  0.90112658392E+02  0.11393843667E+03  0.47000000000E+01 0.  1.
         -5    1    5    5    0  503 -0.18069125797E+02 -0.50979380789E+02  0.13775196357E+03  0.14806445907E+03  0.47000000000E+01 0.  1.
<mgrwt>
<rscale>  0 0.27508240E+03</rscale>
<asrwt>0</asrwt>
<pdfrwt beam="1">  1        2 0.11798380E+00 0.27508240E+03</pdfrwt>
<pdfrwt beam="2">  1       -2 0.37950412E-02 0.27508240E+03</pdfrwt>
<totfact> 0.11100412E+04</totfact>
</mgrwt>
</event>
<event>
 9    1  0.2095749E-002  0.2747560E+03  0.7818608E-02  0.1098588E+00
         -2   -1    0    0    0  501 -0.00000000000E+00  0.00000000000E+00  0.90376063175E+01  0.90376063175E+01  0.00000000000E+00 0. -1.
          2   -1    0    0  501    0  0.00000000000E+00 -0.00000000000E+00 -0.20882427381E+04  0.20882427381E+04  0.00000000000E+00 0. -1.
         36    2    1    2    0    0  0.71054273576E-14  0.00000000000E+00 -0.20792051318E+04  0.20972803444E+04  0.27475600639E+03 0.  0.
         25    2    3    3    0    0  0.45186838564E+02  0.40490880839E+02 -0.11312282176E+04  0.11397984835E+04  0.12562619481E+03 0.  0.
         25    2    3    3    0    0 -0.45186838564E+02 -0.40490880839E+02 -0.94797691414E+03  0.95748186090E+03  0.12012461198E+03 0.  0.
          5    1    4    4  502    0  0.83522771367E+02  0.31275789456E+01 -0.59005825353E+03  0.59596700214E+03  0.47000000000E+01 0. -1.
         -5    1    4    4    0  502 -0.38335932803E+02  0.37363301893E+02 -0.54116996409E+03  0.54383148135E+03  0.47000000000E+01 0. -1.
          5    1    5    5  503    0  0.37709156915E+02 -0.28995164854E+02 -0.25373460874E+03  0.25819767964E+03  0.47000000000E+01 0. -1.
         -5    1    5    5    0  503 -0.82895995479E+02 -0.11495715985E+02 -0.69424230540E+03  0.69928418126E+03  0.47000000000E+01 0. -1.
<mgrwt>
<rscale>  0 0.27475601E+03</rscale>
<asrwt>0</asrwt>
<pdfrwt beam="1">  1        2 0.32126839E+00 0.27475601E+03</pdfrwt>
<pdfrwt beam="2">  1       -2 0.13903998E-02 0.27475601E+03</pdfrwt>
<totfact> 0.87991551E+03</totfact>
</mgrwt>
</event>
<event>
 9    1  0.2095749E-002  0.2768796E+03  0.7818608E-02  0.1097406E+00
         -1   -1    0    0    0  501 -0.00000000000E+00  0.00000000000E+00  0.42867101252E+03  0.42867101252E+03  0.00000000000E+00 0. -1.
          1   -1    0    0  501    0  0.00000000000E+00 -0.00000000000E+00 -0.44709285799E+02  0.44709285799E+02  0.00000000000E+00 0. -1.
         36    2    1    2    0    0  0.00000000000E+00 -0.53290705182E-14  0.38396172672E+03  0.47338029832E+03  0.27687957536E+03 0.  0.
         25    2    3    3    0    0 -0.47905468895E+01  0.12991517544E+02  0.23772390459E+03  0.26948837057E+03  0.12617289008E+03 0.  0.
         25    2    3    3    0    0  0.47905468895E+01 -0.12991517544E+02  0.14623782213E+03  0.20389192775E+03  0.14140257675E+03 0.  0.
          5    1    4    4  502    0 -0.60710521788E+02 -0.36719965446E+01  0.75742027603E+02  0.97253255780E+02  0.47000000000E+01 0. -1.
         -5    1    4    4    0  502  0.55919974899E+02  0.16663514088E+02  0.16198187698E+03  0.17223511479E+03  0.47000000000E+01 0. -1.
          5    1    5    5  503    0  0.48073633998E+02  0.40867436979E+02  0.10696239151E+03  0.12427495681E+03  0.47000000000E+01 0. -1.
         -5    1    5    5    0  503 -0.43283087108E+02 -0.53858954523E+02  0.39275430617E+02  0.79616970942E+02  0.47000000000E+01 0. -1.
<mgrwt>
<rscale>  0 0.27687958E+03</rscale>
<asrwt>0</asrwt>
<pdfrwt beam="1">  1        1 0.68783519E-02 0.27687958E+03</pdfrwt>
<pdfrwt beam="2">  1       -1 0.65949384E-01 0.27687958E+03</pdfrwt>
<totfact> 0.25777441E+03</totfact>
</mgrwt>
</event>
<event>
 9    1  0.2095749E-002  0.2754785E+03  0.7818608E-02  0.1098184E+00
         -3   -1    0    0    0  501 -0.00000000000E+00  0.00000000000E+00  0.18867400158E+03  0.18867400158E+03  0.00000000000E+00 0.  1.
          3   -1    0    0  501    0  0.00000000000E+00 -0.00000000000E+00 -0.10055494371E+03  0.10055494371E+03  0.00000000000E+00 0.  1.
         36    2    1    2    0    0  0.00000000000E+00  0.00000000000E+00  0.88119057870E+02  0.28922894529E+03  0.27547851900E+03 0.  0.
         25    2    3    3    0    0 -0.21257718049E+02 -0.80147253787E+01 -0.16169538444E+02  0.12769494000E+03  0.12461307046E+03 0.  0.
         25    2    3    3    0    0  0.21257718049E+02  0.80147253787E+01  0.10428859631E+03  0.16153400528E+03  0.12124766861E+03 0.  0.
          5    1    4    4  502    0 -0.70429141032E+01 -0.62733000993E+02  0.11884424044E+02  0.64407775831E+02  0.47000000000E+01 0.  1.
         -5    1    4    4    0  502 -0.14214803946E+02  0.54718275614E+02 -0.28053962488E+02  0.63287164170E+02  0.47000000000E+01 0.  1.
          5    1    5    5  503    0 -0.33200536985E+02  0.19904842337E+02  0.97717238161E+02  0.10521039416E+03  0.47000000000E+01 0. -1.
         -5    1    5    5    0  503  0.54458255034E+02 -0.11890116958E+02  0.65713581523E+01  0.56323611129E+02  0.47000000000E+01 0. -1.
<mgrwt>
<rscale>  0 0.27547852E+03</rscale>
<asrwt>0</asrwt>
<pdfrwt beam="1">  1        3 0.15469991E-01 0.27547852E+03</pdfrwt>
<pdfrwt beam="2">  1       -3 0.29026770E-01 0.27547852E+03</pdfrwt>
<totfact> 0.10218928E+03</totfact>
</mgrwt>
</event>
<event>
 9    1  0.2095749E-002  0.2727350E+03  0.7818608E-02  0.1099724E+00
          2   -1    0    0  501    0  0.00000000000E+00  0.00000000000E+00  0.24103076091E+04  0.24103076091E+04  0.00000000000E+00 0.  1.
         -2   -1    0    0    0  501 -0.00000000000E+00 -0.00000000000E+00 -0.77152383037E+01  0.77152383037E+01  0.00000000000E+00 0.  1.
         36    2    1    2    0    0  0.14210854715E-13  0.00000000000E+00  0.24025923708E+04  0.24180228474E+04  0.27273501857E+03 0.  0.
         25    2    3    3    0    0 -0.47352850771E+02 -0.87972891181E+01  0.14177391842E+04  0.14242736683E+04  0.12748099110E+03 0.  0.
         25    2    3    3    0    0  0.47352850771E+02  0.87972891181E+01  0.98485318654E+03  0.99374917902E+03  0.12362017231E+03 0.  0.
          5    1    4    4  502    0 -0.52937167814E+02  0.33271067799E+02  0.12358812612E+04  0.12374707630E+04  0.47000000000E+01 0. -1.
         -5    1    4    4    0  502  0.55843170436E+01 -0.42068356917E+02  0.18185792306E+03  0.18680290530E+03  0.47000000000E+01 0. -1.
          5    1    5    5  503    0  0.33295482563E+02  0.63592209311E+02  0.66692625854E+03  0.67079451591E+03  0.47000000000E+01 0. -1.
         -5    1    5    5    0  503  0.14057368207E+02 -0.54794920193E+02  0.31792692799E+03  0.32295466311E+03  0.47000000000E+01 0. -1.
<mgrwt>
<rscale>  0 0.27273502E+03</rscale>
<asrwt>0</asrwt>
<pdfrwt beam="1">  1        2 0.37081595E+00 0.27273502E+03</pdfrwt>
<pdfrwt beam="2">  1       -2 0.11869617E-02 0.27273502E+03</pdfrwt>
<totfact> 0.74566697E+03</totfact>
</mgrwt>
</event>
<event>
 9    1  0.2095749E-002  0.2706423E+03  0.7818608E-02  0.1100913E+00
         -2   -1    0    0    0  501 -0.00000000000E+00  0.00000000000E+00  0.16148959416E+03  0.16148959416E+03  0.00000000000E+00 0.  1.
          2   -1    0    0  501    0  0.00000000000E+00 -0.00000000000E+00 -0.11339311959E+03  0.11339311959E+03  0.00000000000E+00 0.  1.
         36    2    1    2    0    0  0.00000000000E+00  0.00000000000E+00  0.48096474570E+02  0.27488271374E+03  0.27064226471E+03 0.  0.
         25    2    3    3    0    0 -0.15998577707E+02 -0.42381986933E+02  0.17104640678E+02  0.12208029776E+03  0.11206624409E+03 0.  0.
         25    2    3    3    0    0  0.15998577707E+02  0.42381986933E+02  0.30991833892E+02  0.15280241598E+03  0.14260398752E+03 0.  0.
          5    1    4    4  502    0 -0.25413690251E+02  0.22987950618E+02 -0.25827858030E+02  0.43167925317E+02  0.47000000000E+01 0. -1.
         -5    1    4    4    0  502  0.94151125445E+01 -0.65369937550E+02  0.42932498708E+02  0.78912372445E+02  0.47000000000E+01 0. -1.
          5    1    5    5  503    0 -0.16558060500E+02  0.74744433061E+02 -0.24604790754E+02  0.80550514394E+02  0.47000000000E+01 0.  1.
         -5    1    5    5    0  503  0.32556638207E+02 -0.32362446128E+02  0.55596624646E+02  0.72251901586E+02  0.47000000000E+01 0.  1.
<mgrwt>
<rscale>  0 0.27064226E+03</rscale>
<asrwt>0</asrwt>
<pdfrwt beam="1">  1        2 0.17445095E-01 0.27064226E+03</pdfrwt>
<pdfrwt beam="2">  1       -2 0.24844553E-01 0.27064226E+03</pdfrwt>
<totfact> 0.46481421E+03</totfact>
</mgrwt>
</event>
<event>
 9    1  0.2095749E-002  0.2757534E+03  0.7818608E-02  0.1098031E+00
          2   -1    0    0  501    0  0.00000000000E+00  0.00000000000E+00  0.67980458377E+03  0.67980458377E+03  0.00000000000E+00 0.  1.
         -2   -1    0    0    0  501 -0.00000000000E+00 -0.00000000000E+00 -0.27963893214E+02  0.27963893214E+02  0.00000000000E+00 0.  1.
         36    2    1    2    0    0 -0.71054273576E-14 -0.14210854715E-13  0.65184069056E+03  0.70776847698E+03  0.27575338828E+03 0.  0.
         25    2    3    3    0    0  0.25738954415E+02  0.52761600509E+02  0.36468576565E+03  0.38991667611E+03  0.12487204002E+03 0.  0.
         25    2    3    3    0    0 -0.25738954415E+02 -0.52761600509E+02  0.28715492490E+03  0.31785180087E+03  0.12298591854E+03 0.  0.
          5    1    4    4  502    0  0.62502645139E+02  0.69590354101E+02  0.20950157586E+03  0.22948289331E+03  0.47000000000E+01 0.  1.
         -5    1    4    4    0  502 -0.36763690724E+02 -0.16828753593E+02  0.15518418979E+03  0.16043378280E+03  0.47000000000E+01 0.  1.
          5    1    5    5  503    0 -0.34600685814E+02 -0.62599614527E+02  0.29372255119E+03  0.30234243215E+03  0.47000000000E+01 0.  1.
         -5    1    5    5    0  503  0.88617313985E+01  0.98380140179E+01 -0.65676262885E+01  0.15509368725E+02  0.47000000000E+01 0.  1.
<mgrwt>
<rscale>  0 0.27575339E+03</rscale>
<asrwt>0</asrwt>
<pdfrwt beam="1">  1        2 0.10458531E+00 0.27575339E+03</pdfrwt>
<pdfrwt beam="2">  1       -2 0.43021379E-02 0.27575339E+03</pdfrwt>
<totfact> 0.10656519E+04</totfact>
</mgrwt>
</event>
<event>
 9    1  0.2095749E-002  0.2746758E+03  0.7818608E-02  0.1098633E+00
         -4   -1    0    0    0  501 -0.00000000000E+00  0.00000000000E+00  0.84378226131E+03  0.84378226131E+03  0.00000000000E+00 0. -1.
          4   -1    0    0  501    0  0.00000000000E+00 -0.00000000000E+00 -0.22353746623E+02  0.22353746623E+02  0.00000000000E+00 0. -1.
         36    2    1    2    0    0  0.00000000000E+00  0.00000000000E+00  0.82142851468E+03  0.86613600793E+03  0.27467577159E+03 0.  0.
         25    2    3    3    0    0 -0.27822598461E+01 -0.42069177352E+02  0.22047925967E+03  0.25703679147E+03  0.12521681824E+03 0.  0.
         25    2    3    3    0    0  0.27822598461E+01  0.42069177352E+02  0.60094925501E+03  0.60909921646E+03  0.89912689533E+02 0.  0.
          5    1    4    4  502    0  0.16619435094E+02 -0.39030703596E+02  0.77841467083E+01  0.43385301497E+02  0.47000000000E+01 0.  1.
         -5    1    4    4    0  502 -0.19401694940E+02 -0.30384737566E+01  0.21269511296E+03  0.21365148997E+03  0.47000000000E+01 0.  1.
          5    1    5    5  503    0 -0.33785877918E+02  0.29173479302E+02  0.47781270311E+03  0.47991629134E+03  0.47000000000E+01 0.  1.
         -5    1    5    5    0  503  0.36568137765E+02  0.12895698050E+02  0.12313655190E+03  0.12918292512E+03  0.47000000000E+01 0.  1.
<mgrwt>
<rscale>  0 0.27467577E+03</rscale>
<asrwt>0</asrwt>
<pdfrwt beam="1">  1        4 0.34390386E-02 0.27467577E+03</pdfrwt>
<pdfrwt beam="2">  1       -4 0.12981263E+00 0.27467577E+03</pdfrwt>
<totfact> 0.37102526E+02</totfact>
</mgrwt>
</event>
<event>
 9    1  0.2095749E-002  0.2755628E+03  0.7818608E-02  0.1098137E+00
         -2   -1    0    0    0  501 -0.00000000000E+00  0.00000000000E+00  0.34519327707E+02  0.34519327707E+02  0.00000000000E+00 0.  1.
          2   -1    0    0  501    0  0.00000000000E+00 -0.00000000000E+00 -0.54994453628E+03  0.54994453628E+03  0.00000000000E+00 0.  1.
         36    2    1    2    0    0  0.71054273576E-14 -0.71054273576E-14 -0.51542520857E+03  0.58446386398E+03  0.27556281076E+03 0.  0.
         25    2    3    3    0    0  0.33086889094E+02  0.43467944389E+02 -0.20657218410E+03  0.24618111977E+03  0.12226558006E+03 0.  0.
         25    2    3    3    0    0 -0.33086889094E+02 -0.43467944389E+02 -0.30885302447E+03  0.33828274422E+03  0.12673129009E+03 0.  0.
          5    1    4    4  502    0  0.16302624500E+02  0.27841421541E+02 -0.21779420398E+03  0.22022108347E+03  0.47000000000E+01 0.  1.
         -5    1    4    4    0  502  0.16784264594E+02  0.15626522848E+02  0.11222019882E+02  0.25960036296E+02  0.47000000000E+01 0.  1.
          5    1    5    5  503    0 -0.35757923801E+02 -0.80645899789E+02 -0.27064502965E+03  0.28469845863E+03  0.47000000000E+01 0.  1.
         -5    1    5    5    0  503  0.26710347077E+01  0.37177955400E+02 -0.38207994820E+02  0.53584285591E+02  0.47000000000E+01 0.  1.
<mgrwt>
<rscale>  0 0.27556281E+03</rscale>
<asrwt>0</asrwt>
<pdfrwt beam="1">  1        2 0.84606857E-01 0.27556281E+03</pdfrwt>
<pdfrwt beam="2">  1       -2 0.53106655E-02 0.27556281E+03</pdfrwt>
<totfact> 0.99187285E+03</totfact>
</mgrwt>
</event>
<event>
 9    1  0.2095749E-002  0.2747681E+03  0.7818608E-02  0.1098581E+00
          2   -1    0    0  501    0  0.00000000000E+00  0.00000000000E+00  0.12746533161E+04  0.12746533161E+04  0.00000000000E+00 0. -1.
         -2   -1    0    0    0  501 -0.00000000000E+00 -0.00000000000E+00 -0.14807454505E+02  0.14807454505E+02  0.00000000000E+00 0. -1.
         36    2    1    2    0    0 -0.71054273576E-14 -0.35527136788E-14  0.12598458616E+04  0.12894607706E+04  0.27476805482E+03 0.  0.
         25    2    3    3    0    0  0.38678995157E+02  0.12515457063E+01  0.61585027293E+03  0.63238022916E+03  0.13833135774E+03 0.  0.
         25    2    3    3    0    0 -0.38678995157E+02 -0.12515457063E+01  0.64399558863E+03  0.65708054141E+03  0.12460693676E+03 0.  0.
          5    1    4    4  502    0  0.55816463434E+02  0.60060601831E+02  0.34179184908E+03  0.35152028616E+03  0.47000000000E+01 0. -1.
         -5    1    4    4    0  502 -0.17137468277E+02 -0.58809056125E+02  0.27405842385E+03  0.28085994300E+03  0.47000000000E+01 0. -1.
          5    1    5    5  503    0 -0.24710865639E+02  0.29097339334E+02  0.54972845788E+02  0.67092367755E+02  0.47000000000E+01 0. -1.
         -5    1    5    5    0  503 -0.13968129518E+02 -0.30348885041E+02  0.58902274284E+03  0.58998817366E+03  0.47000000000E+01 0. -1.
<mgrwt>
<rscale>  0 0.27476805E+03</rscale>
<asrwt>0</asrwt>
<pdfrwt beam="1">  1        2 0.19610042E+00 0.27476805E+03</pdfrwt>
<pdfrwt beam="2">  1       -2 0.22780709E-02 0.27476805E+03</pdfrwt>
<totfact> 0.11551714E+04</totfact>
</mgrwt>
</event>
<event>
 9    1  0.2095749E-002  0.2746114E+03  0.7818608E-02  0.1098669E+00
         -1   -1    0    0    0  501 -0.00000000000E+00  0.00000000000E+00  0.41225280504E+02  0.41225280504E+02  0.00000000000E+00 0. -1.
          1   -1    0    0  501    0  0.00000000000E+00 -0.00000000000E+00 -0.45731308038E+03  0.45731308038E+03  0.00000000000E+00 0. -1.
         36    2    1    2    0    0 -0.71054273576E-14  0.14210854715E-13 -0.41608779987E+03  0.49853836088E+03  0.27461143470E+03 0.  0.
         25    2    3    3    0    0  0.27595567126E+02 -0.32629442284E+02 -0.27113880362E+03  0.30148125997E+03  0.12469363841E+03 0.  0.
         25    2    3    3    0    0 -0.27595567126E+02  0.32629442284E+02 -0.14494899626E+03  0.19705710091E+03  0.12647171096E+03 0.  0.
          5    1    4    4  502    0  0.46849325769E+02 -0.30939854868E+02 -0.27542948164E+03  0.28113275031E+03  0.47000000000E+01 0. -1.
         -5    1    4    4    0  502 -0.19253758643E+02 -0.16895874163E+01  0.42906780199E+01  0.20348509660E+02  0.47000000000E+01 0. -1.
          5    1    5    5  503    0 -0.78089694798E+02  0.15447561646E+02 -0.92101741598E+02  0.12182548338E+03  0.47000000000E+01 0.  1.
         -5    1    5    5    0  503  0.50494127671E+02  0.17181880639E+02 -0.52847254657E+02  0.75231617531E+02  0.47000000000E+01 0.  1.
<mgrwt>
<rscale>  0 0.27461143E+03</rscale>
<asrwt>0</asrwt>
<pdfrwt beam="1">  1        1 0.70355861E-01 0.27461143E+03</pdfrwt>
<pdfrwt beam="2">  1       -1 0.63423507E-02 0.27461143E+03</pdfrwt>
<totfact> 0.62124399E+03</totfact>
</mgrwt>
</event>
<event>
 9    1  0.2095749E-002  0.2750962E+03  0.7818608E-02  0.1098398E+00
         -2   -1    0    0    0  501 -0.00000000000E+00  0.00000000000E+00  0.48740298374E+02  0.48740298374E+02  0.00000000000E+00 0.  1.
          2   -1    0    0  501    0  0.00000000000E+00 -0.00000000000E+00 -0.38816921219E+03  0.38816921219E+03  0.00000000000E+00 0.  1.
         36    2    1    2    0    0  0.00000000000E+00  0.00000000000E+00 -0.33942891382E+03  0.43690951056E+03  0.27509622478E+03 0.  0.
         25    2    3    3    0    0 -0.27672596558E+02 -0.90196401425E-02 -0.21071301118E+03  0.25426726617E+03  0.13959261041E+03 0.  0.
         25    2    3    3    0    0  0.27672596558E+02  0.90196401425E-02 -0.12871590263E+03  0.18264224439E+03  0.12658844009E+03 0.  0.
          5    1    4    4  502    0 -0.69650427818E+02  0.92487760493E+01 -0.19651878425E+03  0.20875450778E+03  0.47000000000E+01 0.  1.
         -5    1    4    4    0  502  0.41977831260E+02 -0.92577956894E+01 -0.14194226934E+02  0.45512758394E+02  0.47000000000E+01 0.  1.
          5    1    5    5  503    0 -0.47705146329E+02  0.19218184192E+02 -0.52009993629E+02  0.73295627613E+02  0.47000000000E+01 0.  1.
         -5    1    5    5    0  503  0.75377742887E+02 -0.19209164552E+02 -0.76705909004E+02  0.10934661678E+03  0.47000000000E+01 0.  1.
<mgrwt>
<rscale>  0 0.27509622E+03</rscale>
<asrwt>0</asrwt>
<pdfrwt beam="1">  1        2 0.59718337E-01 0.27509622E+03</pdfrwt>
<pdfrwt beam="2">  1       -2 0.74985078E-02 0.27509622E+03</pdfrwt>
<totfact> 0.85773562E+03</totfact>
</mgrwt>
</event>
<event>
 9    1  0.2095749E-002  0.2745884E+03  0.7818608E-02  0.1098682E+00
          2   -1    0    0  501    0  0.00000000000E+00  0.00000000000E+00  0.10676813045E+04  0.10676813045E+04  0.00000000000E+00 0.  1.
         -2   -1    0    0    0  501 -0.00000000000E+00 -0.00000000000E+00 -0.17654794792E+02  0.17654794792E+02  0.00000000000E+00 0.  1.
         36    2    1    2    0    0  0.00000000000E+00  0.00000000000E+00  0.10500265097E+04  0.10853360992E+04  0.27458837800E+03 0.  0.
         25    2    3    3    0    0 -0.56572144206E+02 -0.32501006142E+02  0.45190539113E+03  0.47090681043E+03  0.11523028541E+03 0.  0.
         25    2    3    3    0    0  0.56572144206E+02  0.32501006142E+02  0.59812111853E+03  0.61442928882E+03  0.12457028386E+03 0.  0.
          5    1    4    4  502    0 -0.24127239053E+02  0.42056706196E+02  0.12909267197E+03  0.13797789010E+03  0.47000000000E+01 0.  1.
         -5    1    4    4    0  502 -0.32444905153E+02 -0.74557712338E+02  0.32281271916E+03  0.33292892033E+03  0.47000000000E+01 0.  1.
          5    1    5    5  503    0  0.13270307115E+02 -0.26132380934E+02  0.43128014785E+03  0.43230042599E+03  0.47000000000E+01 0. -1.
         -5    1    5    5    0  503  0.43301837091E+02  0.58633387076E+02  0.16684097069E+03  0.18212886283E+03  0.47000000000E+01 0. -1.
<mgrwt>
<rscale>  0 0.27458838E+03</rscale>
<asrwt>0</asrwt>
<pdfrwt beam="1">  1        2 0.16425861E+00 0.27458838E+03</pdfrwt>
<pdfrwt beam="2">  1       -2 0.27161231E-02 0.27458838E+03</pdfrwt>
<totfact> 0.11706882E+04</totfact>
</mgrwt>
</event>
<event>
 9    1  0.2095749E-002  0.2745722E+03  0.7818608E-02  0.1098691E+00
          2   -1    0    0  501    0  0.00000000000E+00  0.00000000000E+00  0.82331973375E+03  0.82331973375E+03  0.00000000000E+00 0.  1.
         -2   -1    0    0    0  501 -0.00000000000E+00 -0.00000000000E+00 -0.22892052991E+02  0.22892052991E+02  0.00000000000E+00 0.  1.
         36    2    1    2    0    0  0.71054273576E-14  0.71054273576E-14  0.80042768076E+03  0.84621178674E+03  0.27457224167E+03 0.  0.
         25    2    3    3    0    0 -0.17183441679E+02 -0.48180328841E+02  0.49859906944E+03  0.51614792112E+03  0.12325189521E+03 0.  0.
         25    2    3    3    0    0  0.17183441679E+02  0.48180328841E+02  0.30182861132E+03  0.33006386563E+03  0.12338974846E+03 0.  0.
          5    1    4    4  502    0 -0.41125911656E+02 -0.80023348525E+02  0.28804735678E+03  0.30180862590E+03  0.47000000000E+01 0. -1.
         -5    1    4    4    0  502  0.23942469977E+02  0.31843019684E+02  0.21055171266E+03  0.21433929522E+03  0.47000000000E+01 0. -1.
          5    1    5    5  503    0  0.62365812920E+02  0.37007458342E+02  0.10462253724E+03  0.12738528915E+03  0.47000000000E+01 0. -1.
         -5    1    5    5    0  503 -0.45182371241E+02  0.11172870498E+02  0.19720607408E+03  0.20267857647E+03  0.47000000000E+01 0. -1.
<mgrwt>
<rscale>  0 0.27457224E+03</rscale>
<asrwt>0</asrwt>
<pdfrwt beam="1">  1        2 0.12666455E+00 0.27457224E+03</pdfrwt>
<pdfrwt beam="2">  1       -2 0.35218549E-02 0.27457224E+03</pdfrwt>
<totfact> 0.11344636E+04</totfact>
</mgrwt>
</event>
<event>
 9    1  0.2095749E-002  0.2750183E+03  0.7818608E-02  0.1098441E+00
          2   -1    0    0  501    0  0.00000000000E+00  0.00000000000E+00  0.70099445081E+03  0.70099445081E+03  0.00000000000E+00 0. -1.
         -2   -1    0    0    0  501 -0.00000000000E+00 -0.00000000000E+00 -0.26974194472E+02  0.26974194472E+02  0.00000000000E+00 0. -1.
         36    2    1    2    0    0  0.14210854715E-13  0.35527136788E-14  0.67402025634E+03  0.72796864529E+03  0.27501825860E+03 0.  0.
         25    2    3    3    0    0 -0.65289972609E+02 -0.66276256507E+01  0.39887975516E+03  0.41880191119E+03  0.10946814969E+03 0.  0.
         25    2    3    3    0    0  0.65289972609E+02  0.66276256507E+01  0.27514050118E+03  0.30916673409E+03  0.12480011272E+03 0.  0.
          5    1    4    4  502    0 -0.60215969313E+02  0.27983571409E+02  0.11611269341E+03  0.13384054244E+03  0.47000000000E+01 0. -1.
         -5    1    4    4    0  502 -0.50740032965E+01 -0.34611197060E+02  0.28276706175E+03  0.28496136875E+03  0.47000000000E+01 0. -1.
          5    1    5    5  503    0  0.83840196410E+02 -0.32620699651E+02  0.22674105307E+03  0.24398131840E+03  0.47000000000E+01 0.  1.
         -5    1    5    5    0  503 -0.18550223801E+02  0.39248325302E+02  0.48399448108E+02  0.65185415694E+02  0.47000000000E+01 0.  1.
<mgrwt>
<rscale>  0 0.27501826E+03</rscale>
<asrwt>0</asrwt>
<pdfrwt beam="1">  1        2 0.10784529E+00 0.27501826E+03</pdfrwt>
<pdfrwt beam="2">  1       -2 0.41498766E-02 0.27501826E+03</pdfrwt>
<totfact> 0.10840830E+04</totfact>
</mgrwt>
</event>
<event>
 9    1  0.2095749E-002  0.2752973E+03  0.7818608E-02  0.1098286E+00
          2   -1    0    0  501    0  0.00000000000E+00  0.00000000000E+00  0.45348676307E+03  0.45348676307E+03  0.00000000000E+00 0.  1.
         -2   -1    0    0    0  501 -0.00000000000E+00 -0.00000000000E+00 -0.41781046316E+02  0.41781046316E+02  0.00000000000E+00 0.  1.
         36    2    1    2    0    0  0.14210854715E-13 -0.35527136788E-14  0.41170571675E+03  0.49526780939E+03  0.27529730439E+03 0.  0.
         25    2    3    3    0    0  0.55068588391E+02 -0.23936016561E+02  0.19941096100E+03  0.24203709475E+03  0.12333588915E+03 0.  0.
         25    2    3    3    0    0 -0.55068588391E+02  0.23936016561E+02  0.21229475575E+03  0.25323071463E+03  0.12430305386E+03 0.  0.
          5    1    4    4  502    0 -0.37635598435E+02 -0.21465786754E+02  0.75788363182E+02  0.87425306773E+02  0.47000000000E+01 0. -1.
         -5    1    4    4    0  502  0.92704186826E+02 -0.24702298065E+01  0.12362259782E+03  0.15461178798E+03  0.47000000000E+01 0. -1.
          5    1    5    5  503    0 -0.42472089315E+01 -0.65982380052E+01  0.18921318754E+03  0.18943414652E+03  0.47000000000E+01 0.  1.
         -5    1    5    5    0  503 -0.50821379459E+02  0.30534254566E+02  0.23081568212E+02  0.63796568114E+02  0.47000000000E+01 0.  1.
<mgrwt>
<rscale>  0 0.27529730E+03</rscale>
<asrwt>0</asrwt>
<pdfrwt beam="1">  1        2 0.69767191E-01 0.27529730E+03</pdfrwt>
<pdfrwt beam="2">  1       -2 0.64278536E-02 0.27529730E+03</pdfrwt>
<totfact> 0.91863857E+03</totfact>
</mgrwt>
</event>
<event>
 9    1  0.2095749E-002  0.2749971E+03  0.7818608E-02  0.1098453E+00
         -2   -1    0    0    0  501 -0.00000000000E+00  0.00000000000E+00  0.37559208379E+01  0.37559208379E+01  0.00000000000E+00 0. -1.
          2   -1    0    0  501    0  0.00000000000E+00 -0.00000000000E+00 -0.50336119603E+04  0.50336119603E+04  0.00000000000E+00 0. -1.
         36    2    1    2    0    0  0.53290705182E-14 -0.71054273576E-14 -0.50298560395E+04  0.50373678812E+04  0.27499707672E+03 0.  0.
         25    2    3    3    0    0 -0.10183287352E+02  0.33293887194E+02 -0.33184667172E+04  0.33209543951E+04  0.12371159480E+03 0.  0.
         25    2    3    3    0    0  0.10183287352E+02 -0.33293887194E+02 -0.17113893223E+04  0.17164134861E+04  0.12652928731E+03 0.  0.
          5    1    4    4  502    0  0.47918536103E+02 -0.83593806454E+01 -0.81578412018E+03  0.81724652711E+03  0.47000000000E+01 0.  1.
         -5    1    4    4    0  502 -0.58101823455E+02  0.41653267840E+02 -0.25026825970E+04  0.25037078680E+04  0.47000000000E+01 0.  1.
          5    1    5    5  503    0  0.54558447786E+01  0.35264346493E+02 -0.18487959020E+03  0.18835045327E+03  0.47000000000E+01 0. -1.
         -5    1    5    5    0  503  0.47274425736E+01 -0.68558233688E+02 -0.15265097321E+04  0.15280630328E+04  0.47000000000E+01 0. -1.
<mgrwt>
<rscale>  0 0.27499708E+03</rscale>
<asrwt>0</asrwt>
<pdfrwt beam="1">  1        2 0.77440621E+00 0.27499708E+03</pdfrwt>
<pdfrwt beam="2">  1       -2 0.57783071E-03 0.27499708E+03</pdfrwt>
<totfact> 0.21729692E+02</totfact>
</mgrwt>
</event>
<event>
 9    1  0.2095749E-002  0.2754844E+03  0.7818608E-02  0.1098181E+00
          2   -1    0    0  501    0  0.00000000000E+00  0.00000000000E+00  0.94134991057E+02  0.94134991057E+02  0.00000000000E+00 0. -1.
         -2   -1    0    0    0  501 -0.00000000000E+00 -0.00000000000E+00 -0.20155004916E+03  0.20155004916E+03  0.00000000000E+00 0. -1.
         36    2    1    2    0    0 -0.14210854715E-13 -0.35527136788E-14 -0.10741505810E+03  0.29568504021E+03  0.27548438849E+03 0.  0.
         25    2    3    3    0    0 -0.72365887678E+02  0.22058079671E+00 -0.75163417137E+02  0.14686713130E+03  0.10336123367E+03 0.  0.
         25    2    3    3    0    0  0.72365887678E+02 -0.22058079671E+00 -0.32251640961E+02  0.14881790891E+03  0.12597512180E+03 0.  0.
          5    1    4    4  502    0 -0.15409922059E+02 -0.40568644844E+02  0.48884237484E+00  0.43653288641E+02  0.47000000000E+01 0.  1.
         -5    1    4    4    0  502 -0.56955965619E+02  0.40789225640E+02 -0.75652259512E+02  0.10321384266E+03  0.47000000000E+01 0.  1.
          5    1    5    5  503    0  0.93210437676E+02  0.15874279805E+02 -0.58544095147E+02  0.11130893732E+03  0.47000000000E+01 0. -1.
         -5    1    5    5    0  503 -0.20844549998E+02 -0.16094860601E+02  0.26292454186E+02  0.37508971587E+02  0.47000000000E+01 0. -1.
<mgrwt>
<rscale>  0 0.27548439E+03</rscale>
<asrwt>0</asrwt>
<pdfrwt beam="1">  1        2 0.14482306E-01 0.27548439E+03</pdfrwt>
<pdfrwt beam="2">  1       -2 0.31007699E-01 0.27548439E+03</pdfrwt>
<totfact> 0.38912534E+03</totfact>
</mgrwt>
</event>
<event>
 9    1  0.2095749E-002  0.2759850E+03  0.7818608E-02  0.1097902E+00
         -1   -1    0    0    0  501 -0.00000000000E+00  0.00000000000E+00  0.10579747885E+03  0.10579747885E+03  0.00000000000E+00 0.  1.
          1   -1    0    0  501    0  0.00000000000E+00 -0.00000000000E+00 -0.17998467651E+03  0.17998467651E+03  0.00000000000E+00 0.  1.
         36    2    1    2    0    0 -0.35527136788E-14  0.71054273576E-14 -0.74187197668E+02  0.28578215536E+03  0.27598496340E+03 0.  0.
         25    2    3    3    0    0 -0.29852457595E+02 -0.17972000631E+02  0.11250822028E+02  0.12925201601E+03  0.12395701116E+03 0.  0.
         25    2    3    3    0    0  0.29852457595E+02  0.17972000631E+02 -0.85438019696E+02  0.15653013935E+03  0.12644313854E+03 0.  0.
          5    1    4    4  502    0  0.94289813369E+01 -0.65677441049E+02  0.16500610399E+01  0.66537543186E+02  0.47000000000E+01 0.  1.
         -5    1    4    4    0  502 -0.39281438932E+02  0.47705440418E+02  0.96007609879E+01  0.62714472824E+02  0.47000000000E+01 0.  1.
          5    1    5    5  503    0  0.18062994634E+02  0.35411811187E+02  0.22865452801E+02  0.46099751393E+02  0.47000000000E+01 0. -1.
         -5    1    5    5    0  503  0.11789462961E+02 -0.17439810556E+02 -0.10830347250E+03  0.11043038796E+03  0.47000000000E+01 0. -1.
<mgrwt>
<rscale>  0 0.27598496E+03</rscale>
<asrwt>0</asrwt>
<pdfrwt beam="1">  1        1 0.27689950E-01 0.27598496E+03</pdfrwt>
<pdfrwt beam="2">  1       -1 0.16276535E-01 0.27598496E+03</pdfrwt>
<totfact> 0.46991863E+03</totfact>
</mgrwt>
</event>
<event>
 9    1  0.2095749E-002  0.2747144E+03  0.7818608E-02  0.1098611E+00
         -2   -1    0    0    0  501 -0.00000000000E+00  0.00000000000E+00  0.29242908228E+02  0.29242908228E+02  0.00000000000E+00 0.  1.
          2   -1    0    0  501    0  0.00000000000E+00 -0.00000000000E+00 -0.64518214045E+03  0.64518214045E+03  0.00000000000E+00 0.  1.
         36    2    1    2    0    0  0.00000000000E+00  0.00000000000E+00 -0.61593923222E+03  0.67442504868E+03  0.27471441261E+03 0.  0.
         25    2    3    3    0    0  0.37984581641E+02  0.26681090410E+02 -0.42135342759E+03  0.44221977947E+03  0.12595599780E+03 0.  0.
         25    2    3    3    0    0 -0.37984581641E+02 -0.26681090410E+02 -0.19458580463E+03  0.23220526921E+03  0.11790225891E+03 0.  0.
          5    1    4    4  502    0 -0.35621799951E+02 -0.24795072763E+02 -0.15859576731E+03  0.16449442445E+03  0.47000000000E+01 0.  1.
         -5    1    4    4    0  502  0.73606381593E+02  0.51476163172E+02 -0.26275766028E+03  0.27772535502E+03  0.47000000000E+01 0.  1.
          5    1    5    5  503    0 -0.78961073692E+02 -0.31052057684E+02 -0.12368109335E+03  0.15006060209E+03  0.47000000000E+01 0. -1.
         -5    1    5    5    0  503  0.40976492051E+02  0.43709672742E+01 -0.70904711273E+02  0.82144667121E+02  0.47000000000E+01 0. -1.
<mgrwt>
<rscale>  0 0.27471441E+03</rscale>
<asrwt>0</asrwt>
<pdfrwt beam="1">  1        2 0.99258778E-01 0.27471441E+03</pdfrwt>
<pdfrwt beam="2">  1       -2 0.44989095E-02 0.27471441E+03</pdfrwt>
<totfact> 0.10599885E+04</totfact>
</mgrwt>
</event>
<event>
 9    1  0.2095749E-002  0.2743513E+03  0.7818608E-02  0.1098815E+00
         -3   -1    0    0    0  501 -0.00000000000E+00  0.00000000000E+00  0.42109373395E+02  0.42109373395E+02  0.00000000000E+00 0.  1.
          3   -1    0    0  501    0  0.00000000000E+00 -0.00000000000E+00 -0.44686400548E+03  0.44686400548E+03  0.00000000000E+00 0.  1.
         36    2    1    2    0    0  0.00000000000E+00 -0.71054273576E-14 -0.40475463209E+03  0.48897337888E+03  0.27435133142E+03 0.  0.
         25    2    3    3    0    0 -0.38851811603E+02  0.49012457072E+01 -0.24653098034E+03  0.28166526444E+03  0.13047724496E+03 0.  0.
         25    2    3    3    0    0  0.38851811603E+02 -0.49012457072E+01 -0.15822365175E+03  0.20730811444E+03  0.12809545216E+03 0.  0.
          5    1    4    4  502    0 -0.11176085806E+01 -0.60433604884E+02 -0.11099307863E+03  0.12647143216E+03  0.47000000000E+01 0. -1.
         -5    1    4    4    0  502 -0.37734203023E+02  0.65334850592E+02 -0.13553790171E+03  0.15519383228E+03  0.47000000000E+01 0. -1.
          5    1    5    5  503    0  0.12030217173E+02 -0.62669983918E+02 -0.11009399011E+03  0.12733824904E+03  0.47000000000E+01 0. -1.
         -5    1    5    5    0  503  0.26821594431E+02  0.57768738211E+02 -0.48129661638E+02  0.79969865397E+02  0.47000000000E+01 0. -1.
<mgrwt>
<rscale>  0 0.27435133E+03</rscale>
<asrwt>0</asrwt>
<pdfrwt beam="1">  1        3 0.68748307E-01 0.27435133E+03</pdfrwt>
<pdfrwt beam="2">  1       -3 0.64783652E-02 0.27435133E+03</pdfrwt>
<totfact> 0.79081998E+02</totfact>
</mgrwt>
</event>
<event>
 9    1  0.2095749E-002  0.2746926E+03  0.7818608E-02  0.1098624E+00
         -2   -1    0    0    0  501 -0.00000000000E+00  0.00000000000E+00  0.76891745272E+02  0.76891745272E+02  0.00000000000E+00 0. -1.
          2   -1    0    0  501    0  0.00000000000E+00 -0.00000000000E+00 -0.24533192329E+03  0.24533192329E+03  0.00000000000E+00 0. -1.
         36    2    1    2    0    0  0.71054273576E-14  0.00000000000E+00 -0.16844017802E+03  0.32222366857E+03  0.27469255362E+03 0.  0.
         25    2    3    3    0    0  0.57380605886E+02 -0.13493495200E+02 -0.84274542972E+02  0.15971697037E+03  0.12219944225E+03 0.  0.
         25    2    3    3    0    0 -0.57380605886E+02  0.13493495200E+02 -0.84165635050E+02  0.16250669820E+03  0.12589664210E+03 0.  0.
          5    1    4    4  502    0  0.56869502050E+02 -0.39606255889E+02 -0.10510279059E+03  0.12598207157E+03  0.47000000000E+01 0. -1.
         -5    1    4    4    0  502  0.51110383528E+00  0.26112760689E+02  0.20828247615E+02  0.33734898794E+02  0.47000000000E+01 0. -1.
          5    1    5    5  503    0 -0.74304261085E+02  0.32898192598E+02 -0.77879828188E+01  0.81768924219E+02  0.47000000000E+01 0. -1.
         -5    1    5    5    0  503  0.16923655200E+02 -0.19404697397E+02 -0.76377652232E+02  0.80737773977E+02  0.47000000000E+01 0. -1.
<mgrwt>
<rscale>  0 0.27469255E+03</rscale>
<asrwt>0</asrwt>
<pdfrwt beam="1">  1        2 0.37743374E-01 0.27469255E+03</pdfrwt>
<pdfrwt beam="2">  1       -2 0.11829499E-01 0.27469255E+03</pdfrwt>
<totfact> 0.68367650E+03</totfact>
</mgrwt>
</event>
<event>
 9    1  0.2095749E-002  0.2745607E+03  0.7818608E-02  0.1098697E+00
          2   -1    0    0  501    0  0.00000000000E+00  0.00000000000E+00  0.51387678092E+03  0.51387678092E+03  0.00000000000E+00 0. -1.
         -2   -1    0    0    0  501 -0.00000000000E+00 -0.00000000000E+00 -0.36673953066E+02  0.36673953066E+02  0.00000000000E+00 0. -1.
         36    2    1    2    0    0 -0.35527136788E-14 -0.71054273576E-14  0.47720282785E+03  0.55055073398E+03  0.27456068870E+03 0.  0.
         25    2    3    3    0    0 -0.18619034939E+02 -0.51643782986E+02  0.26455158401E+03  0.29756446110E+03  0.12467284837E+03 0.  0.
         25    2    3    3    0    0  0.18619034939E+02  0.51643782986E+02  0.21265124384E+03  0.25298627289E+03  0.12556971760E+03 0.  0.
          5    1    4    4  502    0 -0.42134482516E+02  0.26965745935E+01  0.21799643433E+03  0.22209709929E+03  0.47000000000E+01 0.  1.
         -5    1    4    4    0  502  0.23515447576E+02 -0.54340357579E+02  0.46555149681E+02  0.75467361809E+02  0.47000000000E+01 0.  1.
          5    1    5    5  503    0  0.39055742449E+02  0.64434171514E+02  0.21542238950E+03  0.22826740761E+03  0.47000000000E+01 0. -1.
         -5    1    5    5    0  503 -0.20436707510E+02 -0.12790388528E+02 -0.27711456592E+01  0.24718865282E+02  0.47000000000E+01 0. -1.
<mgrwt>
<rscale>  0 0.27456069E+03</rscale>
<asrwt>0</asrwt>
<pdfrwt beam="1">  1        2 0.79057961E-01 0.27456069E+03</pdfrwt>
<pdfrwt beam="2">  1       -2 0.56421470E-02 0.27456069E+03</pdfrwt>
<totfact> 0.97629585E+03</totfact>
</mgrwt>
</event>
<event>
 9    1  0.2095749E-002  0.2715164E+03  0.7818608E-02  0.1100415E+00
          2   -1    0    0  501    0  0.00000000000E+00  0.00000000000E+00  0.20023743232E+04  0.20023743232E+04  0.00000000000E+00 0.  1.
         -2   -1    0    0    0  501 -0.00000000000E+00 -0.00000000000E+00 -0.92042149867E+01  0.92042149867E+01  0.00000000000E+00 0.  1.
         36    2    1    2    0    0  0.00000000000E+00  0.00000000000E+00  0.19931701082E+04  0.20115785381E+04  0.27151636234E+03 0.  0.
         25    2    3    3    0    0  0.26051022525E+01  0.18129708525E+02  0.62613613828E+03  0.63893722379E+03  0.12593188393E+03 0.  0.
         25    2    3    3    0    0 -0.26051022525E+01 -0.18129708525E+02  0.13670339699E+04  0.13726413144E+04  0.12258397187E+03 0.  0.
          5    1    4    4  502    0 -0.69217803388E+01 -0.43732017575E+02  0.44524476278E+03  0.44746551731E+03  0.47000000000E+01 0. -1.
         -5    1    4    4    0  502  0.95268825912E+01  0.61861726100E+02  0.18089137551E+03  0.19147170647E+03  0.47000000000E+01 0. -1.
          5    1    5    5  503    0  0.51993131244E+02 -0.37444672763E+02  0.82655825139E+03  0.82905127836E+03  0.47000000000E+01 0. -1.
         -5    1    5    5    0  503 -0.54598233496E+02  0.19314964238E+02  0.54047571850E+03  0.54359003600E+03  0.47000000000E+01 0. -1.
<mgrwt>
<rscale>  0 0.27151636E+03</rscale>
<asrwt>0</asrwt>
<pdfrwt beam="1">  1        2 0.30805724E+00 0.27151636E+03</pdfrwt>
<pdfrwt beam="2">  1       -2 0.14160347E-02 0.27151636E+03</pdfrwt>
<totfact> 0.95073286E+03</totfact>
</mgrwt>
</event>
<event>
 9    1  0.2095749E-002  0.2738326E+03  0.7818608E-02  0.1099106E+00
         -2   -1    0    0    0  501 -0.00000000000E+00  0.00000000000E+00  0.56059220393E+03  0.56059220393E+03  0.00000000000E+00 0.  1.
          2   -1    0    0  501    0  0.00000000000E+00 -0.00000000000E+00 -0.33439775259E+02  0.33439775259E+02  0.00000000000E+00 0.  1.
         36    2    1    2    0    0  0.71054273576E-14 -0.17763568394E-14  0.52715242867E+03  0.59403197919E+03  0.27383262999E+03 0.  0.
         25    2    3    3    0    0  0.42579271614E+02  0.11761856501E+02  0.19024017448E+03  0.23225883067E+03  0.12570403653E+03 0.  0.
         25    2    3    3    0    0 -0.42579271614E+02 -0.11761856501E+02  0.33691225419E+03  0.36177314852E+03  0.12417168890E+03 0.  0.
          5    1    4    4  502    0  0.11459165782E+02 -0.13489167049E+02  0.19102488815E+03  0.19190067223E+03  0.47000000000E+01 0.  1.
         -5    1    4    4    0  502  0.31120105831E+02  0.25251023549E+02 -0.78471367373E+00  0.40358158441E+02  0.47000000000E+01 0.  1.
          5    1    5    5  503    0 -0.78407141782E+02  0.22715021946E+02  0.20280445326E+03  0.21866730063E+03  0.47000000000E+01 0. -1.
         -5    1    5    5    0  503  0.35827870168E+02 -0.34476878446E+02  0.13410780093E+03  0.14310584789E+03  0.47000000000E+01 0. -1.
<mgrwt>
<rscale>  0 0.27383263E+03</rscale>
<asrwt>0</asrwt>
<pdfrwt beam="1">  1        2 0.51445812E-02 0.27383263E+03</pdfrwt>
<pdfrwt beam="2">  1       -2 0.86244948E-01 0.27383263E+03</pdfrwt>
<totfact> 0.18193635E+03</totfact>
</mgrwt>
</event>
<event>
 8    1  0.2095749E-002  0.2955284E+03  0.7818608E-02  0.1087497E+00
         -1   -1    0    0    0  501 -0.00000000000E+00  0.00000000000E+00  0.55703825502E+02  0.55703825502E+02  0.00000000000E+00 0. -1.
          1   -1    0    0  501    0  0.00000000000E+00 -0.00000000000E+00 -0.39197065556E+03  0.39197065556E+03  0.00000000000E+00 0. -1.
         25    2    1    2    0    0 -0.49491101703E+01  0.69469491615E+02 -0.22438022448E+03  0.26506581253E+03  0.12273098989E+03 0.  0.
         25    2    1    2    0    0  0.49491101703E+01 -0.69469491615E+02 -0.11188660558E+03  0.18260866853E+03  0.12639940410E+03 0.  0.
          5    1    3    3  502    0 -0.26995897523E+02  0.98413607544E+02 -0.14242545274E+03  0.17527440264E+03  0.47000000000E+01 0. -1.
         -5    1    3    3    0  502  0.22046787353E+02 -0.28944115930E+02 -0.81954771736E+02  0.89791409889E+02  0.47000000000E+01 0. -1.
          5    1    4    4  503    0  0.50077246845E+00 -0.37605214617E+02  0.22680582728E+02  0.44169013713E+02  0.47000000000E+01 0.  1.
         -5    1    4    4    0  503  0.44483377018E+01 -0.31864276997E+02 -0.13456718831E+03  0.13843965482E+03  0.47000000000E+01 0.  1.
<mgrwt>
<rscale>  0 0.29552844E+03</rscale>
<asrwt>0</asrwt>
<pdfrwt beam="1">  1        1 0.60303180E-01 0.29552844E+03</pdfrwt>
<pdfrwt beam="2">  1       -1 0.85698190E-02 0.29552844E+03</pdfrwt>
<totfact> 0.48047947E+03</totfact>
</mgrwt>
</event>
<event>
 9    1  0.2095749E-002  0.2750794E+03  0.7818608E-02  0.1098407E+00
          2   -1    0    0  501    0  0.00000000000E+00  0.00000000000E+00  0.25453517822E+04  0.25453517822E+04  0.00000000000E+00 0.  1.
         -2   -1    0    0    0  501 -0.00000000000E+00 -0.00000000000E+00 -0.74320473136E+01  0.74320473136E+01  0.00000000000E+00 0.  1.
         36    2    1    2    0    0  0.35527136788E-14  0.00000000000E+00  0.25379197348E+04  0.25527838295E+04  0.27507944216E+03 0.  0.
         25    2    3    3    0    0 -0.26107586448E+02  0.46043456499E+02  0.10589518196E+04  0.10675141276E+04  0.12412030630E+03 0.  0.
         25    2    3    3    0    0  0.26107586448E+02 -0.46043456499E+02  0.14789679153E+04  0.14852697019E+04  0.12600947193E+03 0.  0.
          5    1    4    4  502    0  0.72526187874E+01  0.83762489737E+02  0.63661432627E+03  0.64215936151E+03  0.47000000000E+01 0. -1.
         -5    1    4    4    0  502 -0.33360205235E+02 -0.37719033238E+02  0.42233749331E+03  0.42535476607E+03  0.47000000000E+01 0. -1.
          5    1    5    5  503    0  0.32865707627E+02 -0.58033581200E+02  0.35695425487E+03  0.36316178400E+03  0.47000000000E+01 0. -1.
         -5    1    5    5    0  503 -0.67581211790E+01  0.11990124701E+02  0.11220136604E+04  0.11221079179E+04  0.47000000000E+01 0. -1.
<mgrwt>
<rscale>  0 0.27507944E+03</rscale>
<asrwt>0</asrwt>
<pdfrwt beam="1">  1        2 0.39159189E+00 0.27507944E+03</pdfrwt>
<pdfrwt beam="2">  1       -2 0.11433939E-02 0.27507944E+03</pdfrwt>
<totfact> 0.66430229E+03</totfact>
</mgrwt>
</event>
<event>
 9    1  0.2095749E-002  0.2752623E+03  0.7818608E-02  0.1098305E+00
         -2   -1    0    0    0  501 -0.00000000000E+00  0.00000000000E+00  0.25587197973E+02  0.25587197973E+02  0.00000000000E+00 0. -1.
          2   -1    0    0  501    0  0.00000000000E+00 -0.00000000000E+00 -0.74030513174E+03  0.74030513174E+03  0.00000000000E+00 0. -1.
         36    2    1    2    0    0  0.00000000000E+00 -0.35527136788E-14 -0.71471793377E+03  0.76589232971E+03  0.27526230375E+03 0.  0.
         25    2    3    3    0    0 -0.35129421600E+02  0.19403455494E+02 -0.25583780973E+03  0.28735026780E+03  0.12452558439E+03 0.  0.
         25    2    3    3    0    0  0.35129421600E+02 -0.19403455494E+02 -0.45888012403E+03  0.47854206192E+03  0.12969566855E+03 0.  0.
          5    1    4    4  502    0 -0.81151274602E+02  0.19962840246E+02 -0.18008924348E+03  0.19859070970E+03  0.47000000000E+01 0. -1.
         -5    1    4    4    0  502  0.46021853002E+02 -0.55938475159E+00 -0.75748566250E+02  0.88759558100E+02  0.47000000000E+01 0. -1.
          5    1    5    5  503    0 -0.48319210886E+02 -0.35481516790E+01 -0.20840902047E+03  0.21401809581E+03  0.47000000000E+01 0. -1.
         -5    1    5    5    0  503  0.83448632486E+02 -0.15855303815E+02 -0.25047110356E+03  0.26452396610E+03  0.47000000000E+01 0. -1.
<mgrwt>
<rscale>  0 0.27526230E+03</rscale>
<asrwt>0</asrwt>
<pdfrwt beam="1">  1        2 0.11389308E+00 0.27526230E+03</pdfrwt>
<pdfrwt beam="2">  1       -2 0.39364925E-02 0.27526230E+03</pdfrwt>
<totfact> 0.10978568E+04</totfact>
</mgrwt>
</event>
<event>
 9    1  0.2095749E-002  0.2751018E+03  0.7818608E-02  0.1098395E+00
          3   -1    0    0  501    0  0.00000000000E+00  0.00000000000E+00  0.17598291418E+02  0.17598291418E+02  0.00000000000E+00 0. -1.
         -3   -1    0    0    0  501 -0.00000000000E+00 -0.00000000000E+00 -0.10751182079E+04  0.10751182079E+04  0.00000000000E+00 0. -1.
         36    2    1    2    0    0 -0.71054273576E-14  0.17763568394E-14 -0.10575199165E+04  0.10927164994E+04  0.27510175232E+03 0.  0.
         25    2    3    3    0    0 -0.24636198892E+02  0.34256777529E+01 -0.29421080118E+03  0.32002671970E+03  0.12344402872E+03 0.  0.
         25    2    3    3    0    0  0.24636198892E+02 -0.34256777529E+01 -0.76330911534E+03  0.77268977965E+03  0.11743088377E+03 0.  0.
          5    1    4    4  502    0 -0.41594864096E+02 -0.51760131695E+02 -0.18110344516E+03  0.19295023141E+03  0.47000000000E+01 0.  1.
         -5    1    4    4    0  502  0.16958665204E+02  0.55185809448E+02 -0.11310735602E+03  0.12707648829E+03  0.47000000000E+01 0.  1.
          5    1    5    5  503    0 -0.44036088414E+02  0.80380759148E+01 -0.41686541520E+03  0.41928826854E+03  0.47000000000E+01 0. -1.
         -5    1    5    5    0  503  0.68672287306E+02 -0.11463753668E+02 -0.34644370014E+03  0.35340151111E+03  0.47000000000E+01 0. -1.
<mgrwt>
<rscale>  0 0.27510175E+03</rscale>
<asrwt>0</asrwt>
<pdfrwt beam="1">  1        3 0.27074286E-02 0.27510175E+03</pdfrwt>
<pdfrwt beam="2">  1       -3 0.16540285E+00 0.27510175E+03</pdfrwt>
<totfact> 0.40305300E+02</totfact>
</mgrwt>
</event>
<event>
 9    1  0.2095749E-002  0.2709839E+03  0.7818608E-02  0.1100718E+00
         -2   -1    0    0    0  501 -0.00000000000E+00  0.00000000000E+00  0.12441383040E+02  0.12441383040E+02  0.00000000000E+00 0. -1.
          2   -1    0    0  501    0  0.00000000000E+00 -0.00000000000E+00 -0.14755653802E+04  0.14755653802E+04  0.00000000000E+00 0. -1.
         36    2    1    2    0    0  0.00000000000E+00 -0.71054273576E-14 -0.14631239972E+04  0.14880067633E+04  0.27098394119E+03 0.  0.
         25    2    3    3    0    0 -0.13203147953E+02 -0.40257680523E+02 -0.85115611104E+03  0.86173936688E+03  0.12780065379E+03 0.  0.
         25    2    3    3    0    0  0.13203147953E+02  0.40257680523E+02 -0.61196788615E+03  0.62626739639E+03  0.12613942345E+03 0.  0.
          5    1    4    4  502    0 -0.12263185528E+02 -0.60342771160E+02 -0.18062386700E+03  0.19088925344E+03  0.47000000000E+01 0.  1.
         -5    1    4    4    0  502 -0.93996242568E+00  0.20085090637E+02 -0.67053224404E+03  0.67085011344E+03  0.47000000000E+01 0.  1.
          5    1    5    5  503    0  0.37950379608E+02  0.14561796976E+01 -0.53570730266E+03  0.53707239353E+03  0.47000000000E+01 0.  1.
         -5    1    5    5    0  503 -0.24747231655E+02  0.38801500825E+02 -0.76260583489E+02  0.89195002859E+02  0.47000000000E+01 0.  1.
<mgrwt>
<rscale>  0 0.27098394E+03</rscale>
<asrwt>0</asrwt>
<pdfrwt beam="1">  1        2 0.22701003E+00 0.27098394E+03</pdfrwt>
<pdfrwt beam="2">  1       -2 0.19140592E-02 0.27098394E+03</pdfrwt>
<totfact> 0.11592798E+04</totfact>
</mgrwt>
</event>
<event>
 9    1  0.2095749E-002  0.2726773E+03  0.7818608E-02  0.1099757E+00
          1   -1    0    0  501    0  0.00000000000E+00  0.00000000000E+00  0.99063193065E+03  0.99063193065E+03  0.00000000000E+00 0. -1.
         -1   -1    0    0    0  501 -0.00000000000E+00 -0.00000000000E+00 -0.18764012198E+02  0.18764012198E+02  0.00000000000E+00 0. -1.
         36    2    1    2    0    0  0.00000000000E+00 -0.14210854715E-13  0.97186791845E+03  0.10093959428E+04  0.27267731575E+03 0.  0.
         25    2    3    3    0    0 -0.10541847894E+02 -0.39377453934E+02  0.63608684055E+03  0.64951019799E+03  0.12488120013E+03 0.  0.
         25    2    3    3    0    0  0.10541847894E+02  0.39377453934E+02  0.33578107790E+03  0.35988574485E+03  0.12291095409E+03 0.  0.
          5    1    4    4  502    0  0.34577150750E+01 -0.71914850712E+02  0.21241809785E+03  0.22433733492E+03  0.47000000000E+01 0. -1.
         -5    1    4    4    0  502 -0.13999562969E+02  0.32537396778E+02  0.42366874270E+03  0.42517286307E+03  0.47000000000E+01 0. -1.
          5    1    5    5  503    0 -0.27941182272E+02 -0.30094125454E+02  0.60003450523E+02  0.72861993715E+02  0.47000000000E+01 0. -1.
         -5    1    5    5    0  503  0.38483030166E+02  0.69471579388E+02  0.27577762738E+03  0.28702375114E+03  0.47000000000E+01 0. -1.
<mgrwt>
<rscale>  0 0.27267732E+03</rscale>
<asrwt>0</asrwt>
<pdfrwt beam="1">  1        1 0.15240487E+00 0.27267732E+03</pdfrwt>
<pdfrwt beam="2">  1       -1 0.28867719E-02 0.27267732E+03</pdfrwt>
<totfact> 0.64835603E+03</totfact>
</mgrwt>
</event>
<event>
 9    1  0.2095749E-002  0.2744546E+03  0.7818608E-02  0.1098757E+00
          2   -1    0    0  501    0  0.00000000000E+00  0.00000000000E+00  0.32935967550E+03  0.32935967550E+03  0.00000000000E+00 0. -1.
         -2   -1    0    0    0  501 -0.00000000000E+00 -0.00000000000E+00 -0.57175570334E+02  0.57175570334E+02  0.00000000000E+00 0. -1.
         36    2    1    2    0    0  0.17763568394E-14  0.71054273576E-14  0.27218410517E+03  0.38653524584E+03  0.27445456667E+03 0.  0.
         25    2    3    3    0    0 -0.78804094828E+01 -0.42588006104E+02  0.19436146357E+03  0.23445103083E+03  0.12375406345E+03 0.  0.
         25    2    3    3    0    0  0.78804094828E+01  0.42588006104E+02  0.77822641595E+02  0.15208421500E+03  0.12327775870E+03 0.  0.
          5    1    4    4  502    0 -0.21556543306E+02 -0.56575261076E+02  0.27986221848E+02  0.66863767008E+02  0.47000000000E+01 0.  1.
         -5    1    4    4    0  502  0.13676133823E+02  0.13987254972E+02  0.16637524172E+03  0.16758726383E+03  0.47000000000E+01 0.  1.
          5    1    5    5  503    0  0.38579858888E+02 -0.29915121606E+02  0.45309455870E+02  0.66770927834E+02  0.47000000000E+01 0.  1.
         -5    1    5    5    0  503 -0.30699449405E+02  0.72503127710E+02  0.32513185725E+02  0.85313287169E+02  0.47000000000E+01 0.  1.
<mgrwt>
<rscale>  0 0.27445457E+03</rscale>
<asrwt>0</asrwt>
<pdfrwt beam="1">  1        2 0.50670718E-01 0.27445457E+03</pdfrwt>
<pdfrwt beam="2">  1       -2 0.87962418E-02 0.27445457E+03</pdfrwt>
<totfact> 0.79795527E+03</totfact>
</mgrwt>
</event>
<event>
 9    1  0.2095749E-002  0.2740765E+03  0.7818608E-02  0.1098969E+00
         -1   -1    0    0    0  501 -0.00000000000E+00  0.00000000000E+00  0.27925432720E+02  0.27925432720E+02  0.00000000000E+00 0.  1.
          1   -1    0    0  501    0  0.00000000000E+00 -0.00000000000E+00 -0.67248649055E+03  0.67248649055E+03  0.00000000000E+00 0.  1.
         36    2    1    2    0    0  0.35527136788E-14  0.71054273576E-14 -0.64456105783E+03  0.70041192327E+03  0.27407645829E+03 0.  0.
         25    2    3    3    0    0 -0.46931910581E+01  0.55092423100E+02 -0.30478716693E+03  0.33434859854E+03  0.12584342295E+03 0.  0.
         25    2    3    3    0    0  0.46931910581E+01 -0.55092423100E+02 -0.33977389090E+03  0.36606332472E+03  0.12449441612E+03 0.  0.
          5    1    4    4  502    0  0.18883417432E+02  0.91466080291E+02 -0.19662763846E+03  0.21773182014E+03  0.47000000000E+01 0. -1.
         -5    1    4    4    0  502 -0.23576608490E+02 -0.36373657191E+02 -0.10815952847E+03  0.11661677840E+03  0.47000000000E+01 0. -1.
          5    1    5    5  503    0 -0.31810584164E+02 -0.11461824062E+02 -0.16732835033E+02  0.38017948971E+02  0.47000000000E+01 0.  1.
         -5    1    5    5    0  503  0.36503775222E+02 -0.43630599038E+02 -0.32304105586E+03  0.32804537575E+03  0.47000000000E+01 0.  1.
<mgrwt>
<rscale>  0 0.27407646E+03</rscale>
<asrwt>0</asrwt>
<pdfrwt beam="1">  1        1 0.10345946E+00 0.27407646E+03</pdfrwt>
<pdfrwt beam="2">  1       -1 0.42962204E-02 0.27407646E+03</pdfrwt>
<totfact> 0.65857355E+03</totfact>
</mgrwt>
</event>
<event>
 9    1  0.2095749E-002  0.2741838E+03  0.7818608E-02  0.1098909E+00
          1   -1    0    0  501    0  0.00000000000E+00  0.00000000000E+00  0.26355990894E+02  0.26355990894E+02  0.00000000000E+00 0.  1.
         -1   -1    0    0    0  501 -0.00000000000E+00 -0.00000000000E+00 -0.71309000266E+03  0.71309000266E+03  0.00000000000E+00 0.  1.
         36    2    1    2    0    0  0.53290705182E-14  0.71054273576E-14 -0.68673401176E+03  0.73944599355E+03  0.27418383334E+03 0.  0.
         25    2    3    3    0    0 -0.60880516567E+01 -0.43979409155E+02 -0.31492295332E+03  0.34253231022E+03  0.12720323978E+03 0.  0.
         25    2    3    3    0    0  0.60880516567E+01  0.43979409155E+02 -0.37181105844E+03  0.39691368334E+03  0.13162733772E+03 0.  0.
          5    1    4    4  502    0 -0.51241435907E+02  0.81554777050E+01 -0.65425838275E+02  0.83635081660E+02  0.47000000000E+01 0. -1.
         -5    1    4    4    0  502  0.45153384250E+02 -0.52134886860E+02 -0.24949711505E+03  0.25889722856E+03  0.47000000000E+01 0. -1.
          5    1    5    5  503    0 -0.56547212968E+01  0.37851729586E+02 -0.37911751945E+03  0.38107336939E+03  0.47000000000E+01 0. -1.
         -5    1    5    5    0  503  0.11742772953E+02  0.61276795693E+01  0.73064610041E+01  0.15840313947E+02  0.47000000000E+01 0. -1.
<mgrwt>
<rscale>  0 0.27418383E+03</rscale>
<asrwt>0</asrwt>
<pdfrwt beam="1">  1        1 0.40547675E-02 0.27418383E+03</pdfrwt>
<pdfrwt beam="2">  1       -1 0.10970616E+00 0.27418383E+03</pdfrwt>
<totfact> 0.18195283E+03</totfact>
</mgrwt>
</event>
<event>
 9    1  0.2095749E-002  0.2764982E+03  0.7818608E-02  0.1097617E+00
          1   -1    0    0  501    0  0.00000000000E+00  0.00000000000E+00  0.32615868092E+04  0.32615868092E+04  0.00000000000E+00 0.  1.
         -1   -1    0    0    0  501 -0.00000000000E+00 -0.00000000000E+00 -0.58599746117E+01  0.58599746117E+01  0.00000000000E+00 0.  1.
         36    2    1    2    0    0  0.00000000000E+00  0.35527136788E-14  0.32557268346E+04  0.32674467838E+04  0.27649821624E+03 0.  0.
         25    2    3    3    0    0  0.53860429012E+02  0.62561725702E+00  0.18820866879E+04  0.18872649455E+04  0.12890824857E+03 0.  0.
         25    2    3    3    0    0 -0.53860429012E+02 -0.62561725702E+00  0.13736401467E+04  0.13801818383E+04  0.12293623140E+03 0.  0.
          5    1    4    4  502    0 -0.89419069095E+01  0.38915569482E+02  0.12874862654E+04  0.12881138741E+04  0.47000000000E+01 0. -1.
         -5    1    4    4    0  502  0.62802335921E+02 -0.38289952225E+02  0.59460042252E+03  0.59915107135E+03  0.47000000000E+01 0. -1.
          5    1    5    5  503    0 -0.32651672758E+02 -0.28985853844E+02  0.12661395377E+04  0.12669008369E+04  0.47000000000E+01 0. -1.
         -5    1    5    5    0  503 -0.21208756254E+02  0.28360236587E+02  0.10750060902E+03  0.11328100150E+03  0.47000000000E+01 0. -1.
<mgrwt>
<rscale>  0 0.27649822E+03</rscale>
<asrwt>0</asrwt>
<pdfrwt beam="1">  1        1 0.50178114E+00 0.27649822E+03</pdfrwt>
<pdfrwt beam="2">  1       -1 0.90153716E-03 0.27649822E+03</pdfrwt>
<totfact> 0.10293956E+03</totfact>
</mgrwt>
</event>
<event>
 9    1  0.2095749E-002  0.2753395E+03  0.7818608E-02  0.1098262E+00
         -2   -1    0    0    0  501 -0.00000000000E+00  0.00000000000E+00  0.46473709713E+02  0.46473709713E+02  0.00000000000E+00 0. -1.
          2   -1    0    0  501    0  0.00000000000E+00 -0.00000000000E+00 -0.40782109179E+03  0.40782109179E+03  0.00000000000E+00 0. -1.
         36    2    1    2    0    0  0.00000000000E+00  0.00000000000E+00 -0.36134738207E+03  0.45429480150E+03  0.27533949251E+03 0.  0.
         25    2    3    3    0    0  0.48432434713E+01  0.30317453480E+02 -0.26103233397E+03  0.29429593756E+03  0.13239945048E+03 0.  0.
         25    2    3    3    0    0 -0.48432434713E+01 -0.30317453480E+02 -0.10031504810E+03  0.15999886394E+03  0.12080530864E+03 0.  0.
          5    1    4    4  502    0 -0.15990316488E+02 -0.40549868971E+02 -0.17684632203E+03  0.18219959855E+03  0.47000000000E+01 0. -1.
         -5    1    4    4    0  502  0.20833559959E+02  0.70867322451E+02 -0.84186011941E+02  0.11209633901E+03  0.47000000000E+01 0. -1.
          5    1    5    5  503    0  0.21790050241E+02 -0.61925982462E+02 -0.98366017237E+02  0.11835369424E+03  0.47000000000E+01 0. -1.
         -5    1    5    5    0  503 -0.26633293712E+02  0.31608528982E+02 -0.19490308626E+01  0.41645169704E+02  0.47000000000E+01 0. -1.
<mgrwt>
<rscale>  0 0.27533949E+03</rscale>
<asrwt>0</asrwt>
<pdfrwt beam="1">  1        2 0.62741708E-01 0.27533949E+03</pdfrwt>
<pdfrwt beam="2">  1       -2 0.71498013E-02 0.27533949E+03</pdfrwt>
<totfact> 0.87535111E+03</totfact>
</mgrwt>
</event>
<event>
 9    1  0.2095749E-002  0.2745253E+03  0.7818608E-02  0.1098717E+00
         -1   -1    0    0    0  501 -0.00000000000E+00  0.00000000000E+00  0.15616790164E+02  0.15616790164E+02  0.00000000000E+00 0.  1.
          1   -1    0    0  501    0  0.00000000000E+00 -0.00000000000E+00 -0.12064604347E+04  0.12064604347E+04  0.00000000000E+00 0.  1.
         36    2    1    2    0    0  0.00000000000E+00  0.00000000000E+00 -0.11908436445E+04  0.12220772249E+04  0.27452533180E+03 0.  0.
         25    2    3    3    0    0  0.40458451338E+02 -0.17616212451E+02 -0.79968179268E+03  0.81001167497E+03  0.12116404923E+03 0.  0.
         25    2    3    3    0    0 -0.40458451338E+02  0.17616212451E+02 -0.39116185186E+03  0.41206554989E+03  0.12183269607E+03 0.  0.
          5    1    4    4  502    0 -0.36635160154E+02  0.21110917636E+02 -0.26703647778E+03  0.27040409810E+03  0.47000000000E+01 0.  1.
         -5    1    4    4    0  502  0.77093611492E+02 -0.38727130087E+02 -0.53264531490E+03  0.53960757688E+03  0.47000000000E+01 0.  1.
          5    1    5    5  503    0 -0.43669547071E+02 -0.37568814877E+02 -0.29867309644E+03  0.30421399331E+03  0.47000000000E+01 0. -1.
         -5    1    5    5    0  503  0.32110957330E+01  0.55185027327E+02 -0.92488755425E+02  0.10785155658E+03  0.47000000000E+01 0. -1.
<mgrwt>
<rscale>  0 0.27452533E+03</rscale>
<asrwt>0</asrwt>
<pdfrwt beam="1">  1        1 0.18560934E+00 0.27452533E+03</pdfrwt>
<pdfrwt beam="2">  1       -1 0.24025826E-02 0.27452533E+03</pdfrwt>
<totfact> 0.59323651E+03</totfact>
</mgrwt>
</event>
<event>
 9    1  0.2095749E-002  0.2755429E+03  0.7818608E-02  0.1098149E+00
         -2   -1    0    0    0  501 -0.00000000000E+00  0.00000000000E+00  0.49775680447E+02  0.49775680447E+02  0.00000000000E+00 0.  1.
          2   -1    0    0  501    0  0.00000000000E+00 -0.00000000000E+00 -0.38133025589E+03  0.38133025589E+03  0.00000000000E+00 0.  1.
         36    2    1    2    0    0  0.14210854715E-13  0.00000000000E+00 -0.33155457545E+03  0.43110593634E+03  0.27554290382E+03 0.  0.
         25    2    3    3    0    0 -0.35548398653E+02 -0.36095477567E+02 -0.12203886905E+03  0.18157254119E+03  0.12453324861E+03 0.  0.
         25    2    3    3    0    0  0.35548398653E+02  0.36095477567E+02 -0.20951570640E+03  0.24953339515E+03  0.12571201978E+03 0.  0.
          5    1    4    4  502    0 -0.73803692798E+02 -0.38333761806E+02 -0.11551737755E+03  0.14241775480E+03  0.47000000000E+01 0.  1.
         -5    1    4    4    0  502  0.38255294145E+02  0.22382842390E+01 -0.65214914940E+01  0.39154786397E+02  0.47000000000E+01 0.  1.
          5    1    5    5  503    0  0.20311887553E+02  0.83196486527E+02 -0.13555023292E+03  0.16040630845E+03  0.47000000000E+01 0.  1.
         -5    1    5    5    0  503  0.15236511100E+02 -0.47101008960E+02 -0.73965473481E+02  0.89127086695E+02  0.47000000000E+01 0.  1.
<mgrwt>
<rscale>  0 0.27554290E+03</rscale>
<asrwt>0</asrwt>
<pdfrwt beam="1">  1        2 0.58666191E-01 0.27554290E+03</pdfrwt>
<pdfrwt beam="2">  1       -2 0.76577972E-02 0.27554290E+03</pdfrwt>
<totfact> 0.84632222E+03</totfact>
</mgrwt>
</event>
<event>
 9    1  0.2095749E-002  0.2772968E+03  0.7818608E-02  0.1097175E+00
         -2   -1    0    0    0  501 -0.00000000000E+00  0.00000000000E+00  0.21716916907E+02  0.21716916907E+02  0.00000000000E+00 0.  1.
          2   -1    0    0  501    0  0.00000000000E+00 -0.00000000000E+00 -0.88518020765E+03  0.88518020765E+03  0.00000000000E+00 0.  1.
         36    2    1    2    0    0  0.00000000000E+00 -0.17763568394E-14 -0.86346329075E+03  0.90689712456E+03  0.27729684468E+03 0.  0.
         25    2    3    3    0    0  0.58375919848E+02  0.10798933815E+02 -0.41863702863E+03  0.44124424741E+03  0.12615529773E+03 0.  0.
         25    2    3    3    0    0 -0.58375919848E+02 -0.10798933815E+02 -0.44482626212E+03  0.46565287715E+03  0.12424907862E+03 0.  0.
          5    1    4    4  502    0 -0.91209587409E+01  0.13406086859E+02  0.28595617289E+00  0.16884514330E+02  0.47000000000E+01 0. -1.
         -5    1    4    4    0  502  0.67496878589E+02 -0.26071530440E+01 -0.41892298480E+03  0.42435973308E+03  0.47000000000E+01 0. -1.
          5    1    5    5  503    0 -0.54132530351E+02  0.22825342951E+02 -0.80736672146E+02  0.99959128409E+02  0.47000000000E+01 0.  1.
         -5    1    5    5    0  503 -0.42433894973E+01 -0.33624276766E+02 -0.36408958997E+03  0.36569374874E+03  0.47000000000E+01 0.  1.
<mgrwt>
<rscale>  0 0.27729684E+03</rscale>
<asrwt>0</asrwt>
<pdfrwt beam="1">  1        2 0.13618159E+00 0.27729684E+03</pdfrwt>
<pdfrwt beam="2">  1       -2 0.33410637E-02 0.27729684E+03</pdfrwt>
<totfact> 0.11168902E+04</totfact>
</mgrwt>
</event>
<event>
 9    1  0.2095749E-002  0.2752811E+03  0.7818608E-02  0.1098295E+00
         -1   -1    0    0    0  501 -0.00000000000E+00  0.00000000000E+00  0.14455549164E+02  0.14455549164E+02  0.00000000000E+00 0.  1.
          1   -1    0    0  501    0  0.00000000000E+00 -0.00000000000E+00 -0.13105637895E+04  0.13105637895E+04  0.00000000000E+00 0.  1.
         36    2    1    2    0    0  0.00000000000E+00  0.35527136788E-14 -0.12961082403E+04  0.13250193386E+04  0.27528108756E+03 0.  0.
         25    2    3    3    0    0 -0.55977687949E+02  0.70084278138E+01 -0.72028097904E+03  0.73279959469E+03  0.12250688798E+03 0.  0.
         25    2    3    3    0    0  0.55977687949E+02 -0.70084278138E+01 -0.57582726128E+03  0.59221974396E+03  0.12635098216E+03 0.  0.
          5    1    4    4  502    0 -0.31356473582E+02 -0.36403904476E+02 -0.60707165476E+03  0.60898814169E+03  0.47000000000E+01 0. -1.
         -5    1    4    4    0  502 -0.24621214367E+02  0.43412332290E+02 -0.11320932428E+03  0.12381145300E+03  0.47000000000E+01 0. -1.
          5    1    5    5  503    0  0.38067320349E+02 -0.19866022753E+02 -0.50688108072E+02  0.66596952171E+02  0.47000000000E+01 0.  1.
         -5    1    5    5    0  503  0.17910367600E+02  0.12857594940E+02 -0.52513915321E+03  0.52562279179E+03  0.47000000000E+01 0.  1.
<mgrwt>
<rscale>  0 0.27528109E+03</rscale>
<asrwt>0</asrwt>
<pdfrwt beam="1">  1        1 0.20162533E+00 0.27528109E+03</pdfrwt>
<pdfrwt beam="2">  1       -1 0.22239292E-02 0.27528109E+03</pdfrwt>
<totfact> 0.56315392E+03</totfact>
</mgrwt>
</event>
<event>
 9    1  0.2095749E-002  0.2751114E+03  0.7818608E-02  0.1098389E+00
          2   -1    0    0  501    0  0.00000000000E+00  0.00000000000E+00  0.71882678651E+03  0.71882678651E+03  0.00000000000E+00 0.  1.
         -2   -1    0    0    0  501 -0.00000000000E+00 -0.00000000000E+00 -0.26322859263E+02  0.26322859263E+02  0.00000000000E+00 0.  1.
         36    2    1    2    0    0  0.00000000000E+00 -0.71054273576E-14  0.69250392725E+03  0.74514964577E+03  0.27511144168E+03 0.  0.
         25    2    3    3    0    0  0.15534905858E+02  0.20401029021E+02  0.21883522175E+03  0.25461521522E+03  0.12760297119E+03 0.  0.
         25    2    3    3    0    0 -0.15534905858E+02 -0.20401029021E+02  0.47366870550E+03  0.49053443056E+03  0.12491777178E+03 0.  0.
          5    1    4    4  502    0  0.43544954825E+02 -0.33990527348E+02  0.16106281889E+03  0.17033743179E+03  0.47000000000E+01 0.  1.
         -5    1    4    4    0  502 -0.28010048967E+02  0.54391556369E+02  0.57772402858E+02  0.84277783427E+02  0.47000000000E+01 0.  1.
          5    1    5    5  503    0 -0.22928020546E+02  0.47881680570E+02  0.27917113822E+03  0.28421288478E+03  0.47000000000E+01 0.  1.
         -5    1    5    5    0  503  0.73931146871E+01 -0.68282709590E+02  0.19449756728E+03  0.20632154578E+03  0.47000000000E+01 0.  1.
<mgrwt>
<rscale>  0 0.27511144E+03</rscale>
<asrwt>0</asrwt>
<pdfrwt beam="1">  1        2 0.11058872E+00 0.27511144E+03</pdfrwt>
<pdfrwt beam="2">  1       -2 0.40496712E-02 0.27511144E+03</pdfrwt>
<totfact> 0.10908176E+04</totfact>
</mgrwt>
</event>
<event>
 9    1  0.2095749E-002  0.2753194E+03  0.7818608E-02  0.1098273E+00
          2   -1    0    0  501    0  0.00000000000E+00  0.00000000000E+00  0.27166082989E+03  0.27166082989E+03  0.00000000000E+00 0.  1.
         -2   -1    0    0    0  501 -0.00000000000E+00 -0.00000000000E+00 -0.69756822294E+02  0.69756822294E+02  0.00000000000E+00 0.  1.
         36    2    1    2    0    0  0.00000000000E+00  0.00000000000E+00  0.20190400760E+03  0.34141765218E+03  0.27531942347E+03 0.  0.
         25    2    3    3    0    0 -0.40110489854E+02  0.36541079414E+02  0.13321415302E+03  0.18958263894E+03  0.12349681996E+03 0.  0.
         25    2    3    3    0    0  0.40110489854E+02 -0.36541079414E+02  0.68689854575E+02  0.15183501325E+03  0.12406237643E+03 0.  0.
          5    1    4    4  502    0  0.32729299199E+02  0.12449663529E+02  0.99616172997E+02  0.10569613555E+03  0.47000000000E+01 0. -1.
         -5    1    4    4    0  502 -0.72839789052E+02  0.24091415884E+02  0.33597980024E+02  0.83886503385E+02  0.47000000000E+01 0. -1.
          5    1    5    5  503    0 -0.76865803823E+01  0.17181565471E+02  0.76898583779E+02  0.79308082168E+02  0.47000000000E+01 0.  1.
         -5    1    5    5    0  503  0.47797070236E+02 -0.53722644884E+02 -0.82087292040E+01  0.72526931078E+02  0.47000000000E+01 0.  1.
<mgrwt>
<rscale>  0 0.27531942E+03</rscale>
<asrwt>0</asrwt>
<pdfrwt beam="1">  1        2 0.41793973E-01 0.27531942E+03</pdfrwt>
<pdfrwt beam="2">  1       -2 0.10731819E-01 0.27531942E+03</pdfrwt>
<totfact> 0.71620332E+03</totfact>
</mgrwt>
</event>
<event>
 9    1  0.2095749E-002  0.2752103E+03  0.7818608E-02  0.1098334E+00
         -2   -1    0    0    0  501 -0.00000000000E+00  0.00000000000E+00  0.26663903965E+03  0.26663903965E+03  0.00000000000E+00 0.  1.
          2   -1    0    0  501    0  0.00000000000E+00 -0.00000000000E+00 -0.71014255548E+02  0.71014255548E+02  0.00000000000E+00 0.  1.
         36    2    1    2    0    0  0.00000000000E+00  0.00000000000E+00  0.19562478410E+03  0.33765329519E+03  0.27521026798E+03 0.  0.
         25    2    3    3    0    0 -0.25368224407E+02 -0.27070780674E+02  0.10672357998E+03  0.17573088077E+03  0.13459214672E+03 0.  0.
         25    2    3    3    0    0  0.25368224407E+02  0.27070780674E+02  0.88901204122E+02  0.16192241442E+03  0.13015018333E+03 0.  0.
          5    1    4    4  502    0 -0.62550956871E+02 -0.47843896715E+02  0.10692665250E+03  0.13287986933E+03  0.47000000000E+01 0. -1.
         -5    1    4    4    0  502  0.37182732464E+02  0.20773116041E+02 -0.20307252230E+00  0.42851011447E+02  0.47000000000E+01 0. -1.
          5    1    5    5  503    0 -0.39215091407E+02  0.22311752219E+02 -0.72133356192E+01  0.45932122658E+02  0.47000000000E+01 0.  1.
         -5    1    5    5    0  503  0.64583315813E+02  0.47590284550E+01  0.96114539742E+02  0.11599029176E+03  0.47000000000E+01 0.  1.
<mgrwt>
<rscale>  0 0.27521027E+03</rscale>
<asrwt>0</asrwt>
<pdfrwt beam="1">  1        2 0.10925270E-01 0.27521027E+03</pdfrwt>
<pdfrwt beam="2">  1       -2 0.41021390E-01 0.27521027E+03</pdfrwt>
<totfact> 0.32421082E+03</totfact>
</mgrwt>
</event>
<event>
 9    1  0.2095749E-002  0.2749389E+03  0.7818608E-02  0.1098486E+00
         -2   -1    0    0    0  501 -0.00000000000E+00  0.00000000000E+00  0.62241876781E+02  0.62241876781E+02  0.00000000000E+00 0. -1.
          2   -1    0    0  501    0  0.00000000000E+00 -0.00000000000E+00 -0.30361955723E+03  0.30361955723E+03  0.00000000000E+00 0. -1.
         36    2    1    2    0    0  0.35527136788E-14  0.00000000000E+00 -0.24137768045E+03  0.36586143401E+03  0.27493891008E+03 0.  0.
         25    2    3    3    0    0 -0.17210917708E+02  0.47569232691E+02 -0.12812467508E+03  0.19020219217E+03  0.13115599092E+03 0.  0.
         25    2    3    3    0    0  0.17210917708E+02 -0.47569232691E+02 -0.11325300538E+03  0.17565924185E+03  0.12438198596E+03 0.  0.
          5    1    4    4  502    0 -0.57807800963E+02  0.22528345114E+02 -0.10385331447E+02  0.63081005818E+02  0.47000000000E+01 0.  1.
         -5    1    4    4    0  502  0.40596883256E+02  0.25040887577E+02 -0.11773934363E+03  0.12712118635E+03  0.47000000000E+01 0.  1.
          5    1    5    5  503    0 -0.10356685548E+02  0.33009671983E+02 -0.73884130581E+02  0.81718138327E+02  0.47000000000E+01 0.  1.
         -5    1    5    5    0  503  0.27567603256E+02 -0.80578904674E+02 -0.39368874794E+02  0.93941103518E+02  0.47000000000E+01 0.  1.
<mgrwt>
<rscale>  0 0.27493891E+03</rscale>
<asrwt>0</asrwt>
<pdfrwt beam="1">  1        2 0.46710700E-01 0.27493891E+03</pdfrwt>
<pdfrwt beam="2">  1       -2 0.95756736E-02 0.27493891E+03</pdfrwt>
<totfact> 0.76178359E+03</totfact>
</mgrwt>
</event>
<event>
 9    1  0.2095749E-002  0.2743285E+03  0.7818608E-02  0.1098828E+00
          2   -1    0    0  501    0  0.00000000000E+00  0.00000000000E+00  0.36208129869E+03  0.36208129869E+03  0.00000000000E+00 0. -1.
         -2   -1    0    0    0  501 -0.00000000000E+00 -0.00000000000E+00 -0.51960782894E+02  0.51960782894E+02  0.00000000000E+00 0. -1.
         36    2    1    2    0    0  0.71054273576E-14  0.00000000000E+00  0.31012051579E+03  0.41404208158E+03  0.27432847283E+03 0.  0.
         25    2    3    3    0    0 -0.40881933040E+02  0.38624408156E+01  0.20261770782E+03  0.24458113906E+03  0.13068950671E+03 0.  0.
         25    2    3    3    0    0  0.40881933040E+02 -0.38624408156E+01  0.10750280797E+03  0.16946094252E+03  0.12439415750E+03 0.  0.
          5    1    4    4  502    0  0.25936676570E+02 -0.43845312257E+02  0.51826472318E+02  0.72823044645E+02  0.47000000000E+01 0.  1.
         -5    1    4    4    0  502 -0.66818609610E+02  0.47707753073E+02  0.15079123550E+03  0.17175809442E+03  0.47000000000E+01 0.  1.
          5    1    5    5  503    0  0.62568028545E+02  0.25669891209E+02  0.11333582479E+03  0.13206362365E+03  0.47000000000E+01 0.  1.
         -5    1    5    5    0  503 -0.21686095505E+02 -0.29532332024E+02 -0.58330168228E+01  0.37397318865E+02  0.47000000000E+01 0.  1.
<mgrwt>
<rscale>  0 0.27432847E+03</rscale>
<asrwt>0</asrwt>
<pdfrwt beam="1">  1        2 0.55704814E-01 0.27432847E+03</pdfrwt>
<pdfrwt beam="2">  1       -2 0.79939668E-02 0.27432847E+03</pdfrwt>
<totfact> 0.83694355E+03</totfact>
</mgrwt>
</event>
<event>
 9    1  0.2095749E-002  0.2707632E+03  0.7818608E-02  0.1100844E+00
         -2   -1    0    0    0  501 -0.00000000000E+00  0.00000000000E+00  0.64427836056E+01  0.64427836056E+01  0.00000000000E+00 0. -1.
          2   -1    0    0  501    0  0.00000000000E+00 -0.00000000000E+00 -0.28447608015E+04  0.28447608015E+04  0.00000000000E+00 0. -1.
         36    2    1    2    0    0 -0.14210854715E-13 -0.35527136788E-14 -0.28383180179E+04  0.28512035851E+04  0.27076320469E+03 0.  0.
         25    2    3    3    0    0  0.46421270113E+02  0.11943841466E+02 -0.11608724185E+04  0.11685531437E+04  0.12487629000E+03 0.  0.
         25    2    3    3    0    0 -0.46421270113E+02 -0.11943841466E+02 -0.16774455994E+04  0.16826504414E+04  0.12325250332E+03 0.  0.
          5    1    4    4  502    0  0.51531215635E+02 -0.11908739016E+02 -0.18775605865E+03  0.19511973711E+03  0.47000000000E+01 0. -1.
         -5    1    4    4    0  502 -0.51099455218E+01  0.23852580482E+02 -0.97311635989E+03  0.97343340657E+03  0.47000000000E+01 0. -1.
          5    1    5    5  503    0 -0.11090152778E+02 -0.59050926607E+02 -0.12080687422E+04  0.12095710724E+04  0.47000000000E+01 0.  1.
         -5    1    5    5    0  503 -0.35331117335E+02  0.47107085141E+02 -0.46937685722E+03  0.47307936905E+03  0.47000000000E+01 0.  1.
<mgrwt>
<rscale>  0 0.27076320E+03</rscale>
<asrwt>0</asrwt>
<pdfrwt beam="1">  1        2 0.43765494E+00 0.27076320E+03</pdfrwt>
<pdfrwt beam="2">  1       -2 0.99119875E-03 0.27076320E+03</pdfrwt>
<totfact> 0.55468843E+03</totfact>
</mgrwt>
</event>
<event>
 9    1  0.2095749E-002  0.2743805E+03  0.7818608E-02  0.1098798E+00
         -1   -1    0    0    0  501 -0.00000000000E+00  0.00000000000E+00  0.13106139551E+02  0.13106139551E+02  0.00000000000E+00 0.  1.
          1   -1    0    0  501    0  0.00000000000E+00 -0.00000000000E+00 -0.14360572042E+04  0.14360572042E+04  0.00000000000E+00 0.  1.
         36    2    1    2    0    0  0.00000000000E+00 -0.88817841970E-15 -0.14229510647E+04  0.14491633438E+04  0.27438051040E+03 0.  0.
         25    2    3    3    0    0  0.25063642286E+02 -0.57435336407E+01 -0.42271805719E+03  0.44113961584E+03  0.12350073057E+03 0.  0.
         25    2    3    3    0    0 -0.25063642286E+02  0.57435336407E+01 -0.10002330075E+04  0.10080237279E+04  0.12241156999E+03 0.  0.
          5    1    4    4  502    0 -0.22306072617E+02 -0.10959283346E+02 -0.36615589877E+03  0.36702847161E+03  0.47000000000E+01 0.  1.
         -5    1    4    4    0  502  0.47369714904E+02  0.52157497054E+01 -0.56562158417E+02  0.74111144235E+02  0.47000000000E+01 0.  1.
          5    1    5    5  503    0 -0.44795652639E+02 -0.12220526521E+02 -0.14424640938E+03  0.15160840473E+03  0.47000000000E+01 0.  1.
         -5    1    5    5    0  503  0.19732010352E+02  0.17964060162E+02 -0.85598659812E+03  0.85641532322E+03  0.47000000000E+01 0.  1.
<mgrwt>
<rscale>  0 0.27438051E+03</rscale>
<asrwt>0</asrwt>
<pdfrwt beam="1">  1        1 0.22093199E+00 0.27438051E+03</pdfrwt>
<pdfrwt beam="2">  1       -1 0.20163281E-02 0.27438051E+03</pdfrwt>
<totfact> 0.53485178E+03</totfact>
</mgrwt>
</event>
<event>
 9    1  0.2095749E-002  0.2696794E+03  0.7818608E-02  0.1101463E+00
          3   -1    0    0  501    0  0.00000000000E+00  0.00000000000E+00  0.17489158529E+03  0.17489158529E+03  0.00000000000E+00 0. -1.
         -3   -1    0    0    0  501 -0.00000000000E+00 -0.00000000000E+00 -0.10396006629E+03  0.10396006629E+03  0.00000000000E+00 0. -1.
         36    2    1    2    0    0 -0.35527136788E-14 -0.71054273576E-14  0.70931519002E+02  0.27885165158E+03  0.26967937111E+03 0.  0.
         25    2    3    3    0    0 -0.13833360924E+02  0.28189219435E+02  0.33186890033E+01  0.13035498242E+03  0.12647297648E+03 0.  0.
         25    2    3    3    0    0  0.13833360924E+02 -0.28189219435E+02  0.67612829999E+02  0.14849666916E+03  0.12842808106E+03 0.  0.
          5    1    4    4  502    0  0.18490878734E+02  0.59316191265E+02  0.38408820892E+02  0.73195974376E+02  0.47000000000E+01 0.  1.
         -5    1    4    4    0  502 -0.32324239657E+02 -0.31126971830E+02 -0.35090131889E+02  0.57159008045E+02  0.47000000000E+01 0.  1.
          5    1    5    5  503    0  0.65652885802E+01  0.41816823764E+02 -0.98662230043E+01  0.43717068981E+02  0.47000000000E+01 0.  1.
         -5    1    5    5    0  503  0.72680723435E+01 -0.70006043199E+02  0.77479053003E+02  0.10477960018E+03  0.47000000000E+01 0.  1.
<mgrwt>
<rscale>  0 0.26967937E+03</rscale>
<asrwt>0</asrwt>
<pdfrwt beam="1">  1        3 0.26906398E-01 0.26967937E+03</pdfrwt>
<pdfrwt beam="2">  1       -3 0.15993856E-01 0.26967937E+03</pdfrwt>
<totfact> 0.11074599E+03</totfact>
</mgrwt>
</event>
<event>
 9    1  0.2095749E-002  0.2743525E+03  0.7818608E-02  0.1098814E+00
         -2   -1    0    0    0  501 -0.00000000000E+00  0.00000000000E+00  0.15363552814E+02  0.15363552814E+02  0.00000000000E+00 0. -1.
          2   -1    0    0  501    0  0.00000000000E+00 -0.00000000000E+00 -0.12248025031E+04  0.12248025031E+04  0.00000000000E+00 0. -1.
         36    2    1    2    0    0 -0.35527136788E-14  0.00000000000E+00 -0.12094389503E+04  0.12401660559E+04  0.27435245903E+03 0.  0.
         25    2    3    3    0    0  0.30111158740E+02  0.31758678450E+02 -0.76998710825E+03  0.78157025897E+03  0.12671474774E+03 0.  0.
         25    2    3    3    0    0 -0.30111158740E+02 -0.31758678450E+02 -0.43945184203E+03  0.45859579694E+03  0.12359970862E+03 0.  0.
          5    1    4    4  502    0  0.68853544081E+01  0.19123563884E+02 -0.14039727691E+02  0.25146028604E+02  0.47000000000E+01 0. -1.
         -5    1    4    4    0  502  0.23225804332E+02  0.12635114566E+02 -0.75594738056E+03  0.75642423037E+03  0.47000000000E+01 0. -1.
          5    1    5    5  503    0 -0.10801669529E+02 -0.73384574509E+02 -0.17465690952E+03  0.18981332378E+03  0.47000000000E+01 0.  1.
         -5    1    5    5    0  503 -0.19309489212E+02  0.41625896059E+02 -0.26479493251E+03  0.26878247317E+03  0.47000000000E+01 0.  1.
<mgrwt>
<rscale>  0 0.27435246E+03</rscale>
<asrwt>0</asrwt>
<pdfrwt beam="1">  1        2 0.18843122E+00 0.27435246E+03</pdfrwt>
<pdfrwt beam="2">  1       -2 0.23636226E-02 0.27435246E+03</pdfrwt>
<totfact> 0.11666160E+04</totfact>
</mgrwt>
</event>
<event>
 9    1  0.2095749E-002  0.2758894E+03  0.7818608E-02  0.1097955E+00
          1   -1    0    0  501    0  0.00000000000E+00  0.00000000000E+00  0.14370204882E+04  0.14370204882E+04  0.00000000000E+00 0. -1.
         -1   -1    0    0    0  501 -0.00000000000E+00 -0.00000000000E+00 -0.13241797923E+02  0.13241797923E+02  0.00000000000E+00 0. -1.
         36    2    1    2    0    0  0.00000000000E+00  0.00000000000E+00  0.14237786903E+04  0.14502622861E+04  0.27588936127E+03 0.  0.
         25    2    3    3    0    0  0.24680896635E+02 -0.27513726260E+02  0.89691569720E+03  0.90654679296E+03  0.12650362905E+03 0.  0.
         25    2    3    3    0    0 -0.24680896635E+02  0.27513726260E+02  0.52686299307E+03  0.54371549315E+03  0.12913470576E+03 0.  0.
          5    1    4    4  502    0 -0.29499519593E+02 -0.45910075637E+02  0.20297689217E+03  0.21023716478E+03  0.47000000000E+01 0.  1.
         -5    1    4    4    0  502  0.54180416228E+02  0.18396349377E+02  0.69393880503E+03  0.69630962818E+03  0.47000000000E+01 0.  1.
          5    1    5    5  503    0 -0.53782675991E+02  0.13015408753E+02  0.90936127370E+02  0.10655255212E+03  0.47000000000E+01 0. -1.
         -5    1    5    5    0  503  0.29101779356E+02  0.14498317508E+02  0.43592686570E+03  0.43716294103E+03  0.47000000000E+01 0. -1.
<mgrwt>
<rscale>  0 0.27588936E+03</rscale>
<asrwt>0</asrwt>
<pdfrwt beam="1">  1        1 0.22107995E+00 0.27588936E+03</pdfrwt>
<pdfrwt beam="2">  1       -1 0.20372008E-02 0.27588936E+03</pdfrwt>
<totfact> 0.52610400E+03</totfact>
</mgrwt>
</event>
<event>
 9    1  0.2095749E-002  0.2745882E+03  0.7818608E-02  0.1098682E+00
         -2   -1    0    0    0  501 -0.00000000000E+00  0.00000000000E+00  0.16411110218E+03  0.16411110218E+03  0.00000000000E+00 0. -1.
          2   -1    0    0  501    0  0.00000000000E+00 -0.00000000000E+00 -0.11485915862E+03  0.11485915862E+03  0.00000000000E+00 0. -1.
         36    2    1    2    0    0  0.00000000000E+00 -0.71054273576E-14  0.49251943551E+02  0.27897026080E+03  0.27458815063E+03 0.  0.
         25    2    3    3    0    0  0.63213870312E+02 -0.12276813362E+02  0.14519765987E+02  0.14115168162E+03  0.12476481906E+03 0.  0.
         25    2    3    3    0    0 -0.63213870312E+02  0.12276813362E+02  0.34732177564E+02  0.13781857918E+03  0.11679436229E+03 0.  0.
          5    1    4    4  502    0  0.58496625015E+02 -0.64055731590E+02 -0.33300822607E+00  0.86874580760E+02  0.47000000000E+01 0. -1.
         -5    1    4    4    0  502  0.47172452974E+01  0.51778918228E+02  0.14852774213E+02  0.54277100861E+02  0.47000000000E+01 0. -1.
          5    1    5    5  503    0  0.23876253193E+02 -0.21570714912E+02 -0.10135346014E+02  0.34061509761E+02  0.47000000000E+01 0. -1.
         -5    1    5    5    0  503 -0.87090123505E+02  0.33847528274E+02  0.44867523578E+02  0.10375706942E+03  0.47000000000E+01 0. -1.
<mgrwt>
<rscale>  0 0.27458815E+03</rscale>
<asrwt>0</asrwt>
<pdfrwt beam="1">  1        2 0.17670640E-01 0.27458815E+03</pdfrwt>
<pdfrwt beam="2">  1       -2 0.25247862E-01 0.27458815E+03</pdfrwt>
<totfact> 0.44531167E+03</totfact>
</mgrwt>
</event>
<event>
 9    1  0.2095749E-002  0.2750947E+03  0.7818608E-02  0.1098399E+00
          2   -1    0    0  501    0  0.00000000000E+00  0.00000000000E+00  0.50747159818E+03  0.50747159818E+03  0.00000000000E+00 0. -1.
         -2   -1    0    0    0  501 -0.00000000000E+00 -0.00000000000E+00 -0.37281432548E+02  0.37281432548E+02  0.00000000000E+00 0. -1.
         36    2    1    2    0    0  0.00000000000E+00  0.00000000000E+00  0.47019016563E+03  0.54475303073E+03  0.27509466122E+03 0.  0.
         25    2    3    3    0    0 -0.18194141034E+02  0.93690426174E+01  0.14804969856E+03  0.19022504493E+03  0.11767773260E+03 0.  0.
         25    2    3    3    0    0  0.18194141034E+02 -0.93690426174E+01  0.32214046707E+03  0.35452798579E+03  0.14661789270E+03 0.  0.
          5    1    4    4  502    0  0.70904106472E+00 -0.17594672203E+02  0.15514613985E+03  0.15621296341E+03  0.47000000000E+01 0. -1.
         -5    1    4    4    0  502 -0.18903182098E+02  0.26963714820E+02 -0.70964412878E+01  0.34012081520E+02  0.47000000000E+01 0. -1.
          5    1    5    5  503    0  0.64042077559E+02  0.43520305160E+02  0.15760158086E+03  0.17565805689E+03  0.47000000000E+01 0. -1.
         -5    1    5    5    0  503 -0.45847936525E+02 -0.52889347777E+02  0.16453888621E+03  0.17886992891E+03  0.47000000000E+01 0. -1.
<mgrwt>
<rscale>  0 0.27509466E+03</rscale>
<asrwt>0</asrwt>
<pdfrwt beam="1">  1        2 0.78072548E-01 0.27509466E+03</pdfrwt>
<pdfrwt beam="2">  1       -2 0.57356054E-02 0.27509466E+03</pdfrwt>
<totfact> 0.96564401E+03</totfact>
</mgrwt>
</event>
<event>
 9    1  0.2095749E-002  0.2749916E+03  0.7818608E-02  0.1098456E+00
         -2   -1    0    0    0  501 -0.00000000000E+00  0.00000000000E+00  0.32517760416E+02  0.32517760416E+02  0.00000000000E+00 0. -1.
          2   -1    0    0  501    0  0.00000000000E+00 -0.00000000000E+00 -0.58137739842E+03  0.58137739842E+03  0.00000000000E+00 0. -1.
         36    2    1    2    0    0  0.00000000000E+00  0.00000000000E+00 -0.54885963800E+03  0.61389515883E+03  0.27499157044E+03 0.  0.
         25    2    3    3    0    0  0.46070099272E+01  0.49968867209E+02 -0.16513780362E+03  0.21389542167E+03  0.12634336152E+03 0.  0.
         25    2    3    3    0    0 -0.46070099272E+01 -0.49968867209E+02 -0.38372183439E+03  0.39999973716E+03  0.10118908692E+03 0.  0.
          5    1    4    4  502    0 -0.46207727963E+02  0.49931751013E+02 -0.14268313218E+03  0.15814202506E+03  0.47000000000E+01 0.  1.
         -5    1    4    4    0  502  0.50814737890E+02  0.37116195709E-01 -0.22454671438E+02  0.55753396613E+02  0.47000000000E+01 0.  1.
          5    1    5    5  503    0  0.35452456060E+02  0.12425270371E+02 -0.15279383424E+03  0.15741445221E+03  0.47000000000E+01 0. -1.
         -5    1    5    5    0  503 -0.40059465987E+02 -0.62394137580E+02 -0.23092800015E+03  0.24258528495E+03  0.47000000000E+01 0. -1.
<mgrwt>
<rscale>  0 0.27499157E+03</rscale>
<asrwt>0</asrwt>
<pdfrwt beam="1">  1        2 0.89442676E-01 0.27499157E+03</pdfrwt>
<pdfrwt beam="2">  1       -2 0.50027324E-02 0.27499157E+03</pdfrwt>
<totfact> 0.10191830E+04</totfact>
</mgrwt>
</event>
<event>
 9    1  0.2095749E-002  0.2733259E+03  0.7818608E-02  0.1099391E+00
         -2   -1    0    0    0  501 -0.00000000000E+00  0.00000000000E+00  0.21116712636E+02  0.21116712636E+02  0.00000000000E+00 0. -1.
          2   -1    0    0  501    0  0.00000000000E+00 -0.00000000000E+00 -0.88445417211E+03  0.88445417211E+03  0.00000000000E+00 0. -1.
         36    2    1    2    0    0 -0.35527136788E-14  0.71054273576E-14 -0.86333745947E+03  0.90557088474E+03  0.27332591968E+03 0.  0.
         25    2    3    3    0    0  0.17503000511E+02 -0.28595246074E+02 -0.54549452198E+03  0.56073761970E+03  0.12545262654E+03 0.  0.
         25    2    3    3    0    0 -0.17503000511E+02  0.28595246074E+02 -0.31784293749E+03  0.34483326504E+03  0.12946738835E+03 0.  0.
          5    1    4    4  502    0  0.56783923006E+02 -0.20563181403E+02 -0.47996174697E+03  0.48376918762E+03  0.47000000000E+01 0. -1.
         -5    1    4    4    0  502 -0.39280922495E+02 -0.80320646711E+01 -0.65532775018E+02  0.76968432078E+02  0.47000000000E+01 0. -1.
          5    1    5    5  503    0 -0.10325095106E+02  0.28087311496E+02 -0.36365273228E+01  0.30509326230E+02  0.47000000000E+01 0.  1.
         -5    1    5    5    0  503 -0.71779054051E+01  0.50793457846E+00 -0.31420641016E+03  0.31432393881E+03  0.47000000000E+01 0.  1.
<mgrwt>
<rscale>  0 0.27332592E+03</rscale>
<asrwt>0</asrwt>
<pdfrwt beam="1">  1        2 0.13606988E+00 0.27332592E+03</pdfrwt>
<pdfrwt beam="2">  1       -2 0.32487247E-02 0.27332592E+03</pdfrwt>
<totfact> 0.11653280E+04</totfact>
</mgrwt>
</event>
<event>
 9    1  0.2095749E-002  0.2745165E+03  0.7818608E-02  0.1098722E+00
         -1   -1    0    0    0  501 -0.00000000000E+00  0.00000000000E+00  0.94979779592E+01  0.94979779592E+01  0.00000000000E+00 0.  1.
          1   -1    0    0  501    0  0.00000000000E+00 -0.00000000000E+00 -0.19835615138E+04  0.19835615138E+04  0.00000000000E+00 0.  1.
         36    2    1    2    0    0 -0.44408920985E-14 -0.71054273576E-14 -0.19740635358E+04  0.19930594917E+04  0.27451647337E+03 0.  0.
         25    2    3    3    0    0 -0.16267476920E+01 -0.56957568656E+02 -0.10138277213E+04  0.10229083700E+04  0.12348309193E+03 0.  0.
         25    2    3    3    0    0  0.16267476920E+01  0.56957568656E+02 -0.96023581452E+03  0.97015112174E+03  0.12606969738E+03 0.  0.
          5    1    4    4  502    0  0.64930635097E+01  0.22782328037E+02 -0.64457858947E+03  0.64503088480E+03  0.47000000000E+01 0.  1.
         -5    1    4    4    0  502 -0.81198112017E+01 -0.79739896694E+02 -0.36924913182E+03  0.37787748518E+03  0.47000000000E+01 0.  1.
          5    1    5    5  503    0  0.62498356381E+02  0.21053379561E+02 -0.39502555995E+03  0.40052037695E+03  0.47000000000E+01 0. -1.
         -5    1    5    5    0  503 -0.60871608689E+02  0.35904189096E+02 -0.56521025457E+03  0.56963074479E+03  0.47000000000E+01 0. -1.
<mgrwt>
<rscale>  0 0.27451647E+03</rscale>
<asrwt>0</asrwt>
<pdfrwt beam="1">  1        1 0.30516306E+00 0.27451647E+03</pdfrwt>
<pdfrwt beam="2">  1       -1 0.14612286E-02 0.27451647E+03</pdfrwt>
<totfact> 0.37492664E+03</totfact>
</mgrwt>
</event>
<event>
 9    1  0.2095749E-002  0.2745360E+03  0.7818608E-02  0.1098711E+00
         -2   -1    0    0    0  501 -0.00000000000E+00  0.00000000000E+00  0.10124249213E+02  0.10124249213E+02  0.00000000000E+00 0. -1.
          2   -1    0    0  501    0  0.00000000000E+00 -0.00000000000E+00 -0.18611261867E+04  0.18611261867E+04  0.00000000000E+00 0. -1.
         36    2    1    2    0    0  0.17763568394E-14 -0.71054273576E-14 -0.18510019375E+04  0.18712504359E+04  0.27453601098E+03 0.  0.
         25    2    3    3    0    0 -0.46730770074E+01  0.57558730434E+02 -0.88474457323E+03  0.89536513904E+03  0.12478352155E+03 0.  0.
         25    2    3    3    0    0  0.46730770074E+01 -0.57558730434E+02 -0.96625736426E+03  0.97588529688E+03  0.12395149686E+03 0.  0.
          5    1    4    4  502    0 -0.12818617188E+02 -0.23800687865E+02 -0.53790119596E+02  0.60384241782E+02  0.47000000000E+01 0.  1.
         -5    1    4    4    0  502  0.81455401809E+01  0.81359418299E+02 -0.83095445363E+03  0.83498089726E+03  0.47000000000E+01 0.  1.
          5    1    5    5  503    0  0.45122969274E+01 -0.13565632992E+02 -0.86795196034E+03  0.86808241699E+03  0.47000000000E+01 0. -1.
         -5    1    5    5    0  503  0.16078007998E+00 -0.43993097442E+02 -0.98305403922E+02  0.10780287989E+03  0.47000000000E+01 0. -1.
<mgrwt>
<rscale>  0 0.27453601E+03</rscale>
<asrwt>0</asrwt>
<pdfrwt beam="1">  1        2 0.28632731E+00 0.27453601E+03</pdfrwt>
<pdfrwt beam="2">  1       -2 0.15575757E-02 0.27453601E+03</pdfrwt>
<totfact> 0.98126284E+03</totfact>
</mgrwt>
</event>
<event>
 9    1  0.2095749E-002  0.2744255E+03  0.7818608E-02  0.1098773E+00
         -2   -1    0    0    0  501 -0.00000000000E+00  0.00000000000E+00  0.11678687355E+02  0.11678687355E+02  0.00000000000E+00 0.  1.
          2   -1    0    0  501    0  0.00000000000E+00 -0.00000000000E+00 -0.16121113284E+04  0.16121113284E+04  0.00000000000E+00 0.  1.
         36    2    1    2    0    0  0.00000000000E+00  0.00000000000E+00 -0.16004326410E+04  0.16237900157E+04  0.27442553952E+03 0.  0.
         25    2    3    3    0    0 -0.33139293507E+02  0.43801495186E+02 -0.91637688635E+03  0.92662086199E+03  0.12594776808E+03 0.  0.
         25    2    3    3    0    0  0.33139293507E+02 -0.43801495186E+02 -0.68405575467E+03  0.69716915373E+03  0.12286484312E+03 0.  0.
          5    1    4    4  502    0 -0.20991017141E+02  0.69836958627E+02 -0.27376675577E+03  0.28335163694E+03  0.47000000000E+01 0. -1.
         -5    1    4    4    0  502 -0.12148276367E+02 -0.26035463440E+02 -0.64261013059E+03  0.64326922506E+03  0.47000000000E+01 0. -1.
          5    1    5    5  503    0  0.21499924803E+02 -0.51396851478E+02 -0.11447008286E+03  0.12739455632E+03  0.47000000000E+01 0.  1.
         -5    1    5    5    0  503  0.11639368705E+02  0.75953562923E+01 -0.56958567180E+03  0.56977459742E+03  0.47000000000E+01 0.  1.
<mgrwt>
<rscale>  0 0.27442554E+03</rscale>
<asrwt>0</asrwt>
<pdfrwt beam="1">  1        2 0.24801698E+00 0.27442554E+03</pdfrwt>
<pdfrwt beam="2">  1       -2 0.17967222E-02 0.27442554E+03</pdfrwt>
<totfact> 0.10762434E+04</totfact>
</mgrwt>
</event>
<event>
 9    1  0.2095749E-002  0.2752777E+03  0.7818608E-02  0.1098296E+00
         -2   -1    0    0    0  501 -0.00000000000E+00  0.00000000000E+00  0.21985557130E+02  0.21985557130E+02  0.00000000000E+00 0. -1.
          2   -1    0    0  501    0  0.00000000000E+00 -0.00000000000E+00 -0.86167746934E+03  0.86167746934E+03  0.00000000000E+00 0. -1.
         36    2    1    2    0    0  0.00000000000E+00  0.00000000000E+00 -0.83969191221E+03  0.88366302647E+03  0.27527774505E+03 0.  0.
         25    2    3    3    0    0  0.45696343495E+02  0.21507090396E+02 -0.31308650888E+03  0.34075567622E+03  0.12466177476E+03 0.  0.
         25    2    3    3    0    0 -0.45696343495E+02 -0.21507090396E+02 -0.52660540333E+03  0.54290735025E+03  0.12200175981E+03 0.  0.
          5    1    4    4  502    0 -0.15082412949E+02 -0.20469511480E+02 -0.22148358857E+03  0.22298778013E+03  0.47000000000E+01 0.  1.
         -5    1    4    4    0  502  0.60778756444E+02  0.41976601876E+02 -0.91602920310E+02  0.11776789609E+03  0.47000000000E+01 0.  1.
          5    1    5    5  503    0 -0.73729416487E+02  0.14972232131E+02 -0.21375154574E+03  0.22665393863E+03  0.47000000000E+01 0.  1.
         -5    1    5    5    0  503  0.28033072992E+02 -0.36479322528E+02 -0.31285385759E+03  0.31625341162E+03  0.47000000000E+01 0.  1.
<mgrwt>
<rscale>  0 0.27527775E+03</rscale>
<asrwt>0</asrwt>
<pdfrwt beam="1">  1        2 0.13256575E+00 0.27527775E+03</pdfrwt>
<pdfrwt beam="2">  1       -2 0.33823939E-02 0.27527775E+03</pdfrwt>
<totfact> 0.11359577E+04</totfact>
</mgrwt>
</event>
<event>
 9    1  0.2095749E-002  0.2772969E+03  0.7818608E-02  0.1097175E+00
         -2   -1    0    0    0  501 -0.00000000000E+00  0.00000000000E+00  0.51238315227E+03  0.51238315227E+03  0.00000000000E+00 0. -1.
          2   -1    0    0  501    0  0.00000000000E+00 -0.00000000000E+00 -0.37517616537E+02  0.37517616537E+02  0.00000000000E+00 0. -1.
         36    2    1    2    0    0  0.00000000000E+00  0.35527136788E-14  0.47486553574E+03  0.54990076881E+03  0.27729691399E+03 0.  0.
         25    2    3    3    0    0 -0.56848307502E+02 -0.13773013578E+02  0.22950452043E+03  0.26949338373E+03  0.12858045344E+03 0.  0.
         25    2    3    3    0    0  0.56848307502E+02  0.13773013578E+02  0.24536101531E+03  0.28040738509E+03  0.12249427663E+03 0.  0.
          5    1    4    4  502    0 -0.45203948686E+02 -0.14358310753E+02  0.88443875780E+01  0.48475470664E+02  0.47000000000E+01 0. -1.
         -5    1    4    4    0  502 -0.11644358817E+02  0.58529717470E+00  0.22066013285E+03  0.22101791306E+03  0.47000000000E+01 0. -1.
          5    1    5    5  503    0  0.88808728944E+02  0.36581616369E+02  0.17091193636E+03  0.19610758523E+03  0.47000000000E+01 0. -1.
         -5    1    5    5    0  503 -0.31960421441E+02 -0.22808602791E+02  0.74449078950E+02  0.84299799860E+02  0.47000000000E+01 0. -1.
<mgrwt>
<rscale>  0 0.27729691E+03</rscale>
<asrwt>0</asrwt>
<pdfrwt beam="1">  1        2 0.57719414E-02 0.27729691E+03</pdfrwt>
<pdfrwt beam="2">  1       -2 0.78828172E-01 0.27729691E+03</pdfrwt>
<totfact> 0.19103603E+03</totfact>
</mgrwt>
</event>
<event>
 9    1  0.2095749E-002  0.2725191E+03  0.7818608E-02  0.1099846E+00
         -2   -1    0    0    0  501 -0.00000000000E+00  0.00000000000E+00  0.74274345327E+01  0.74274345327E+01  0.00000000000E+00 0. -1.
          2   -1    0    0  501    0  0.00000000000E+00 -0.00000000000E+00 -0.24997407945E+04  0.24997407945E+04  0.00000000000E+00 0. -1.
         36    2    1    2    0    0  0.00000000000E+00  0.00000000000E+00 -0.24923133599E+04  0.25071682290E+04  0.27251907162E+03 0.  0.
         25    2    3    3    0    0  0.33302927008E+02  0.10466957502E+02 -0.70648211828E+03  0.71649028454E+03  0.11411705501E+03 0.  0.
         25    2    3    3    0    0 -0.33302927008E+02 -0.10466957502E+02 -0.17858312416E+04  0.17906779445E+04  0.12694737082E+03 0.  0.
          5    1    4    4  502    0 -0.30299698898E+02  0.17371244055E+02 -0.89592098489E+02  0.96273911237E+02  0.47000000000E+01 0.  1.
         -5    1    4    4    0  502  0.63602625906E+02 -0.69042865528E+01 -0.61689001979E+03  0.62021637330E+03  0.47000000000E+01 0.  1.
          5    1    5    5  503    0  0.14760853332E+01  0.52794407686E+02 -0.10386586138E+04  0.10400111703E+04  0.47000000000E+01 0.  1.
         -5    1    5    5    0  503 -0.34779012341E+02 -0.63261365188E+02 -0.74717262787E+03  0.75066677418E+03  0.47000000000E+01 0.  1.
<mgrwt>
<rscale>  0 0.27251907E+03</rscale>
<asrwt>0</asrwt>
<pdfrwt beam="1">  1        2 0.38457532E+00 0.27251907E+03</pdfrwt>
<pdfrwt beam="2">  1       -2 0.11426828E-02 0.27251907E+03</pdfrwt>
<totfact> 0.70444032E+03</totfact>
</mgrwt>
</event>
<event>
 9    1  0.2095749E-002  0.2764504E+03  0.7818608E-02  0.1097644E+00
          2   -1    0    0  501    0  0.00000000000E+00  0.00000000000E+00  0.93746352503E+03  0.93746352503E+03  0.00000000000E+00 0. -1.
         -2   -1    0    0    0  501 -0.00000000000E+00 -0.00000000000E+00 -0.20380740417E+02  0.20380740417E+02  0.00000000000E+00 0. -1.
         36    2    1    2    0    0  0.35527136788E-14  0.71054273576E-14  0.91708278461E+03  0.95784426545E+03  0.27645036266E+03 0.  0.
         25    2    3    3    0    0 -0.18132146959E+02  0.54073028691E+02  0.37309940000E+03  0.39657122430E+03  0.12170828435E+03 0.  0.
         25    2    3    3    0    0  0.18132146959E+02 -0.54073028691E+02  0.54398338461E+03  0.56127304114E+03  0.12592393257E+03 0.  0.
          5    1    4    4  502    0  0.20673793585E+01  0.56580834304E+02  0.59467529311E+02  0.82244403519E+02  0.47000000000E+01 0.  1.
         -5    1    4    4    0  502 -0.20199526317E+02 -0.25078056130E+01  0.31363187069E+03  0.31432682079E+03  0.47000000000E+01 0.  1.
          5    1    5    5  503    0  0.42009746427E+02 -0.85620576597E+02  0.32676753369E+03  0.34043327247E+03  0.47000000000E+01 0. -1.
         -5    1    5    5    0  503 -0.23877599468E+02  0.31547547906E+02  0.21721585092E+03  0.22083976867E+03  0.47000000000E+01 0. -1.
<mgrwt>
<rscale>  0 0.27645036E+03</rscale>
<asrwt>0</asrwt>
<pdfrwt beam="1">  1        2 0.14422512E+00 0.27645036E+03</pdfrwt>
<pdfrwt beam="2">  1       -2 0.31354993E-02 0.27645036E+03</pdfrwt>
<totfact> 0.11364728E+04</totfact>
</mgrwt>
</event>
<event>
 9    1  0.2095749E-002  0.2746558E+03  0.7818608E-02  0.1098644E+00
          1   -1    0    0  501    0  0.00000000000E+00  0.00000000000E+00  0.17731263748E+03  0.17731263748E+03  0.00000000000E+00 0. -1.
         -1   -1    0    0    0  501 -0.00000000000E+00 -0.00000000000E+00 -0.10635988983E+03  0.10635988983E+03  0.00000000000E+00 0. -1.
         36    2    1    2    0    0  0.71054273576E-14  0.17763568394E-14  0.70952747647E+02  0.28367252730E+03  0.27465580341E+03 0.  0.
         25    2    3    3    0    0 -0.50852024556E+02  0.13938386772E+02  0.56069580524E+02  0.14760288926E+03  0.12594684605E+03 0.  0.
         25    2    3    3    0    0  0.50852024556E+02 -0.13938386772E+02  0.14883167124E+02  0.13606963804E+03  0.12455212044E+03 0.  0.
          5    1    4    4  502    0 -0.76123034732E+02 -0.10506746203E+02 -0.48149104531E+01  0.77138715930E+02  0.47000000000E+01 0.  1.
         -5    1    4    4    0  502  0.25271010176E+02  0.24445132975E+02  0.60884490977E+02  0.70464173329E+02  0.47000000000E+01 0.  1.
          5    1    5    5  503    0  0.86689135241E+02 -0.96028738788E+01  0.35441637136E+02  0.94262511098E+02  0.47000000000E+01 0.  1.
         -5    1    5    5    0  503 -0.35837110685E+02 -0.43355128935E+01 -0.20558470012E+02  0.41807126947E+02  0.47000000000E+01 0.  1.
<mgrwt>
<rscale>  0 0.27465580E+03</rscale>
<asrwt>0</asrwt>
<pdfrwt beam="1">  1        1 0.27278867E-01 0.27465580E+03</pdfrwt>
<pdfrwt beam="2">  1       -1 0.16363060E-01 0.27465580E+03</pdfrwt>
<totfact> 0.47479288E+03</totfact>
</mgrwt>
</event>
<event>
 9    1  0.2095749E-002  0.2746221E+03  0.7818608E-02  0.1098663E+00
         -2   -1    0    0    0  501 -0.00000000000E+00  0.00000000000E+00  0.43882899681E+02  0.43882899681E+02  0.00000000000E+00 0.  1.
          2   -1    0    0  501    0  0.00000000000E+00 -0.00000000000E+00 -0.42965086760E+03  0.42965086760E+03  0.00000000000E+00 0.  1.
         36    2    1    2    0    0 -0.14210854715E-13  0.14210854715E-13 -0.38576796792E+03  0.47353376728E+03  0.27462211070E+03 0.  0.
         25    2    3    3    0    0 -0.29427498772E+02  0.26353061795E+02 -0.12615892831E+03  0.18207370020E+03  0.12519702697E+03 0.  0.
         25    2    3    3    0    0  0.29427498772E+02 -0.26353061795E+02 -0.25960903961E+03  0.29146006708E+03  0.12645811839E+03 0.  0.
          5    1    4    4  502    0  0.33446785556E+01  0.72615073196E+02 -0.84495914848E+02  0.11156068015E+03  0.47000000000E+01 0. -1.
         -5    1    4    4    0  502 -0.32772177328E+02 -0.46262011401E+02 -0.41663013460E+02  0.70513020047E+02  0.47000000000E+01 0. -1.
          5    1    5    5  503    0 -0.28320879828E+02 -0.22043331936E+02 -0.21548797017E+03  0.21850660403E+03  0.47000000000E+01 0.  1.
         -5    1    5    5    0  503  0.57748378601E+02 -0.43097298590E+01 -0.44121069440E+02  0.72953463050E+02  0.47000000000E+01 0.  1.
<mgrwt>
<rscale>  0 0.27462211E+03</rscale>
<asrwt>0</asrwt>
<pdfrwt beam="1">  1        2 0.66100133E-01 0.27462211E+03</pdfrwt>
<pdfrwt beam="2">  1       -2 0.67512154E-02 0.27462211E+03</pdfrwt>
<totfact> 0.90359556E+03</totfact>
</mgrwt>
</event>
<event>
 9    1  0.2095749E-002  0.2754098E+03  0.7818608E-02  0.1098223E+00
          4   -1    0    0  501    0  0.00000000000E+00  0.00000000000E+00  0.41801565719E+02  0.41801565719E+02  0.00000000000E+00 0.  1.
         -4   -1    0    0    0  501 -0.00000000000E+00 -0.00000000000E+00 -0.45363467278E+03  0.45363467278E+03  0.00000000000E+00 0.  1.
         36    2    1    2    0    0 -0.71054273576E-14 -0.71054273576E-14 -0.41183310706E+03  0.49543623850E+03  0.27540980074E+03 0.  0.
         25    2    3    3    0    0  0.19713794504E+02  0.40405979429E+02 -0.15849416188E+03  0.20961236352E+03  0.12959809691E+03 0.  0.
         25    2    3    3    0    0 -0.19713794504E+02 -0.40405979429E+02 -0.25333894517E+03  0.28582387497E+03  0.12447244473E+03 0.  0.
          5    1    4    4  502    0  0.19734028188E+02 -0.27660819060E+02 -0.13205911885E+03  0.13644139273E+03  0.47000000000E+01 0.  1.
         -5    1    4    4    0  502 -0.20233683741E-01  0.68066798489E+02 -0.26435043038E+02  0.73170970790E+02  0.47000000000E+01 0.  1.
          5    1    5    5  503    0  0.34239639496E+02 -0.62653214427E+02 -0.16496458155E+03  0.17981429687E+03  0.47000000000E+01 0.  1.
         -5    1    5    5    0  503 -0.53953434000E+02  0.22247234998E+02 -0.88374363621E+02  0.10600957811E+03  0.47000000000E+01 0.  1.
<mgrwt>
<rscale>  0 0.27540980E+03</rscale>
<asrwt>0</asrwt>
<pdfrwt beam="1">  1        4 0.64310100E-02 0.27540980E+03</pdfrwt>
<pdfrwt beam="2">  1       -4 0.69789951E-01 0.27540980E+03</pdfrwt>
<totfact> 0.56969644E+02</totfact>
</mgrwt>
</event>
<event>
 9    1  0.2095749E-002  0.2751624E+03  0.7818608E-02  0.1098361E+00
         -1   -1    0    0    0  501 -0.00000000000E+00  0.00000000000E+00  0.15808160768E+02  0.15808160768E+02  0.00000000000E+00 0.  1.
          1   -1    0    0  501    0  0.00000000000E+00 -0.00000000000E+00 -0.11973936664E+04  0.11973936664E+04  0.00000000000E+00 0.  1.
         36    2    1    2    0    0  0.14210854715E-13  0.00000000000E+00 -0.11815855057E+04  0.12132018272E+04  0.27516243626E+03 0.  0.
         25    2    3    3    0    0 -0.43290897332E+02 -0.32621613804E+00 -0.87299764096E+03  0.88071208250E+03  0.10795685682E+03 0.  0.
         25    2    3    3    0    0  0.43290897332E+02  0.32621613804E+00 -0.30858786472E+03  0.33248974472E+03  0.11596875389E+03 0.  0.
          5    1    4    4  502    0 -0.42145463297E+02  0.72733347177E+01 -0.11699504009E+03  0.12465580965E+03  0.47000000000E+01 0.  1.
         -5    1    4    4    0  502 -0.11454340353E+01 -0.75995508557E+01 -0.75600260086E+03  0.75605627284E+03  0.47000000000E+01 0.  1.
          5    1    5    5  503    0  0.66488260992E+02  0.72274998933E+01 -0.29835659023E+03  0.30579677980E+03  0.47000000000E+01 0.  1.
         -5    1    5    5    0  503 -0.23197363659E+02 -0.69012837553E+01 -0.10231274494E+02  0.26692964916E+02  0.47000000000E+01 0.  1.
<mgrwt>
<rscale>  0 0.27516244E+03</rscale>
<asrwt>0</asrwt>
<pdfrwt beam="1">  1        1 0.18421445E+00 0.27516244E+03</pdfrwt>
<pdfrwt beam="2">  1       -1 0.24320242E-02 0.27516244E+03</pdfrwt>
<totfact> 0.59131629E+03</totfact>
</mgrwt>
</event>
<event>
 9    1  0.2095749E-002  0.2747369E+03  0.7818608E-02  0.1098599E+00
          1   -1    0    0  501    0  0.00000000000E+00  0.00000000000E+00  0.17229632253E+04  0.17229632253E+04  0.00000000000E+00 0.  1.
         -1   -1    0    0    0  501 -0.00000000000E+00 -0.00000000000E+00 -0.10952116522E+02  0.10952116522E+02  0.00000000000E+00 0.  1.
         36    2    1    2    0    0  0.35527136788E-14  0.71054273576E-14  0.17120111088E+04  0.17339153419E+04  0.27473692149E+03 0.  0.
         25    2    3    3    0    0 -0.54868043566E+01  0.96769866552E+01  0.12260399228E+04  0.12340659172E+04  0.14007514562E+03 0.  0.
         25    2    3    3    0    0  0.54868043566E+01 -0.96769866552E+01  0.48597118597E+03  0.49984942469E+03  0.11643755698E+03 0.  0.
          5    1    4    4  502    0  0.27019994824E+02 -0.42676746577E+02  0.20596256581E+03  0.21211801747E+03  0.47000000000E+01 0. -1.
         -5    1    4    4    0  502 -0.32506799181E+02  0.52353733232E+02  0.10200773570E+04  0.10219478997E+04  0.47000000000E+01 0. -1.
          5    1    5    5  503    0  0.19797249053E+02  0.49127339341E+02  0.28471314110E+03  0.28963613251E+03  0.47000000000E+01 0. -1.
         -5    1    5    5    0  503 -0.14310444697E+02 -0.58804325996E+02  0.20125804487E+03  0.21021329217E+03  0.47000000000E+01 0. -1.
<mgrwt>
<rscale>  0 0.27473692E+03</rscale>
<asrwt>0</asrwt>
<pdfrwt beam="1">  1        1 0.26507105E+00 0.27473692E+03</pdfrwt>
<pdfrwt beam="2">  1       -1 0.16849424E-02 0.27473692E+03</pdfrwt>
<totfact> 0.44994540E+03</totfact>
</mgrwt>
</event>
<event>
 9    1  0.2095749E-002  0.2746515E+03  0.7818608E-02  0.1098647E+00
          1   -1    0    0  501    0  0.00000000000E+00  0.00000000000E+00  0.46371967973E+03  0.46371967973E+03  0.00000000000E+00 0.  1.
         -1   -1    0    0    0  501 -0.00000000000E+00 -0.00000000000E+00 -0.40667592159E+02  0.40667592159E+02  0.00000000000E+00 0.  1.
         36    2    1    2    0    0 -0.71054273576E-14  0.35527136788E-14  0.42305208757E+03  0.50438727189E+03  0.27465150873E+03 0.  0.
         25    2    3    3    0    0  0.32624706724E+02  0.15611882452E+02  0.12586825924E+03  0.18095772792E+03  0.12487905448E+03 0.  0.
         25    2    3    3    0    0 -0.32624706724E+02 -0.15611882452E+02  0.29718382833E+03  0.32342954397E+03  0.12239419810E+03 0.  0.
          5    1    4    4  502    0  0.70118696550E+02  0.12280645431E+02  0.12390194940E+03  0.14297282582E+03  0.47000000000E+01 0. -1.
         -5    1    4    4    0  502 -0.37493989826E+02  0.33312370208E+01  0.19663098433E+01  0.37984902101E+02  0.47000000000E+01 0. -1.
          5    1    5    5  503    0 -0.10630729968E+01  0.51498407548E+02  0.14768786246E+03  0.15648326052E+03  0.47000000000E+01 0. -1.
         -5    1    5    5    0  503 -0.31561633727E+02 -0.67110290000E+02  0.14949596587E+03  0.16694628345E+03  0.47000000000E+01 0. -1.
<mgrwt>
<rscale>  0 0.27465151E+03</rscale>
<asrwt>0</asrwt>
<pdfrwt beam="1">  1        1 0.71341485E-01 0.27465151E+03</pdfrwt>
<pdfrwt beam="2">  1       -1 0.62565530E-02 0.27465151E+03</pdfrwt>
<totfact> 0.62272788E+03</totfact>
</mgrwt>
</event>
<event>
 9    1  0.2095749E-002  0.2754223E+03  0.7818608E-02  0.1098216E+00
         -2   -1    0    0    0  501 -0.00000000000E+00  0.00000000000E+00  0.11191003278E+03  0.11191003278E+03  0.00000000000E+00 0. -1.
          2   -1    0    0  501    0  0.00000000000E+00 -0.00000000000E+00 -0.16946077766E+03  0.16946077766E+03  0.00000000000E+00 0. -1.
         36    2    1    2    0    0 -0.14210854715E-13 -0.71054273576E-14 -0.57550744876E+02  0.28137081045E+03  0.27542230254E+03 0.  0.
         25    2    3    3    0    0 -0.32005540831E+02 -0.19498817766E+02 -0.76231082132E+02  0.14870608671E+03  0.12205639599E+03 0.  0.
         25    2    3    3    0    0  0.32005540831E+02  0.19498817766E+02  0.18680337257E+02  0.13266472374E+03  0.12588254600E+03 0.  0.
          5    1    4    4  502    0  0.33798186172E+02 -0.36496027037E+02 -0.51154833373E+01  0.50224849903E+02  0.47000000000E+01 0. -1.
         -5    1    4    4    0  502 -0.65803727003E+02  0.16997209270E+02 -0.71115598795E+02  0.98481236804E+02  0.47000000000E+01 0. -1.
          5    1    5    5  503    0  0.55847593811E+02  0.38875154880E+01  0.60035480076E+02  0.82221745172E+02  0.47000000000E+01 0.  1.
         -5    1    5    5    0  503 -0.23842052980E+02  0.15611302278E+02 -0.41355142819E+02  0.50442978567E+02  0.47000000000E+01 0.  1.
<mgrwt>
<rscale>  0 0.27542230E+03</rscale>
<asrwt>0</asrwt>
<pdfrwt beam="1">  1        2 0.26070889E-01 0.27542230E+03</pdfrwt>
<pdfrwt beam="2">  1       -2 0.17216928E-01 0.27542230E+03</pdfrwt>
<totfact> 0.55318229E+03</totfact>
</mgrwt>
</event>
<event>
 9    1  0.2095749E-002  0.2758600E+03  0.7818608E-02  0.1097972E+00
         -2   -1    0    0    0  501 -0.00000000000E+00  0.00000000000E+00  0.54150007856E+02  0.54150007856E+02  0.00000000000E+00 0. -1.
          2   -1    0    0  501    0  0.00000000000E+00 -0.00000000000E+00 -0.35133304649E+03  0.35133304649E+03  0.00000000000E+00 0. -1.
         36    2    1    2    0    0  0.00000000000E+00  0.71054273576E-14 -0.29718303863E+03  0.40548305434E+03  0.27586001687E+03 0.  0.
         25    2    3    3    0    0  0.16342961176E+02 -0.28328162022E+02 -0.94203271007E+02  0.16330274474E+03  0.12932112367E+03 0.  0.
         25    2    3    3    0    0 -0.16342961176E+02  0.28328162022E+02 -0.20297976762E+03  0.24218030960E+03  0.12798804300E+03 0.  0.
          5    1    4    4  502    0  0.60751678045E+02 -0.37933406674E+02 -0.17259749589E+02  0.73822074497E+02  0.47000000000E+01 0. -1.
         -5    1    4    4    0  502 -0.44408716869E+02  0.96052446516E+01 -0.76943521418E+02  0.89480670242E+02  0.47000000000E+01 0. -1.
          5    1    5    5  503    0 -0.42314078022E+02  0.97855181521E+01 -0.78272542160E+01  0.44380102219E+02  0.47000000000E+01 0.  1.
         -5    1    5    5    0  503  0.25971116846E+02  0.18542643870E+02 -0.19515251341E+03  0.19780020738E+03  0.47000000000E+01 0.  1.
<mgrwt>
<rscale>  0 0.27586002E+03</rscale>
<asrwt>0</asrwt>
<pdfrwt beam="1">  1        2 0.54051238E-01 0.27586002E+03</pdfrwt>
<pdfrwt beam="2">  1       -2 0.83307705E-02 0.27586002E+03</pdfrwt>
<totfact> 0.81075424E+03</totfact>
</mgrwt>
</event>
<event>
 9    1  0.2095749E-002  0.2705670E+03  0.7818608E-02  0.1100956E+00
          1   -1    0    0  501    0  0.00000000000E+00  0.00000000000E+00  0.55761645219E+03  0.55761645219E+03  0.00000000000E+00 0.  1.
         -1   -1    0    0    0  501 -0.00000000000E+00 -0.00000000000E+00 -0.32821168033E+02  0.32821168033E+02  0.00000000000E+00 0.  1.
         36    2    1    2    0    0  0.71054273576E-14 -0.71054273576E-14  0.52479528416E+03  0.59043762023E+03  0.27056698450E+03 0.  0.
         25    2    3    3    0    0 -0.97056758034E+00  0.17761147854E+02  0.16277415333E+03  0.20654259269E+03  0.12588890828E+03 0.  0.
         25    2    3    3    0    0  0.97056758034E+00 -0.17761147854E+02  0.36202113084E+03  0.38389502754E+03  0.12648989139E+03 0.  0.
          5    1    4    4  502    0 -0.50817995013E+02 -0.28733154482E+02  0.81539248224E+02  0.10039323575E+03  0.47000000000E+01 0.  1.
         -5    1    4    4    0  502  0.49847427433E+02  0.46494302336E+02  0.81234905102E+02  0.10614935694E+03  0.47000000000E+01 0.  1.
          5    1    5    5  503    0 -0.51958829275E+02 -0.10847574061E+02  0.75527188527E+02  0.92432872991E+02  0.47000000000E+01 0.  1.
         -5    1    5    5    0  503  0.52929396856E+02 -0.69135737929E+01  0.28649394231E+03  0.29146215455E+03  0.47000000000E+01 0.  1.
<mgrwt>
<rscale>  0 0.27056698E+03</rscale>
<asrwt>0</asrwt>
<pdfrwt beam="1">  1        1 0.85787140E-01 0.27056698E+03</pdfrwt>
<pdfrwt beam="2">  1       -1 0.50494109E-02 0.27056698E+03</pdfrwt>
<totfact> 0.67192495E+03</totfact>
</mgrwt>
</event>
<event>
 9    1  0.2095749E-002  0.2724588E+03  0.7818608E-02  0.1099881E+00
          1   -1    0    0  501    0  0.00000000000E+00  0.00000000000E+00  0.28739028962E+03  0.28739028962E+03  0.00000000000E+00 0. -1.
         -1   -1    0    0    0  501 -0.00000000000E+00 -0.00000000000E+00 -0.64575751030E+02  0.64575751030E+02  0.00000000000E+00 0. -1.
         36    2    1    2    0    0  0.35527136788E-14  0.00000000000E+00  0.22281453858E+03  0.35196604065E+03  0.27245875865E+03 0.  0.
         25    2    3    3    0    0  0.13571265670E+02 -0.44852574744E+02  0.11669212544E+03  0.17952603806E+03  0.12812733311E+03 0.  0.
         25    2    3    3    0    0 -0.13571265670E+02  0.44852574744E+02  0.10612241314E+03  0.17244000258E+03  0.12758391437E+03 0.  0.
          5    1    4    4  502    0  0.16678957746E+02 -0.44754752064E+02  0.14392523246E+03  0.15171597807E+03  0.47000000000E+01 0.  1.
         -5    1    4    4    0  502 -0.31076920753E+01 -0.97822680142E-01 -0.27233107012E+02  0.27810059994E+02  0.47000000000E+01 0.  1.
          5    1    5    5  503    0  0.22979468328E+02  0.38555027246E+02 -0.13505215025E+02  0.47106548626E+02  0.47000000000E+01 0. -1.
         -5    1    5    5    0  503 -0.36550733998E+02  0.62975474978E+01  0.11962762817E+03  0.12533345396E+03  0.47000000000E+01 0. -1.
<mgrwt>
<rscale>  0 0.27245876E+03</rscale>
<asrwt>0</asrwt>
<pdfrwt beam="1">  1        1 0.44213890E-01 0.27245876E+03</pdfrwt>
<pdfrwt beam="2">  1       -1 0.99347311E-02 0.27245876E+03</pdfrwt>
<totfact> 0.56569789E+03</totfact>
</mgrwt>
</event>
<event>
 9    1  0.2095749E-002  0.2749578E+03  0.7818608E-02  0.1098475E+00
         -2   -1    0    0    0  501 -0.00000000000E+00  0.00000000000E+00  0.14574404029E+02  0.14574404029E+02  0.00000000000E+00 0.  1.
          2   -1    0    0  501    0  0.00000000000E+00 -0.00000000000E+00 -0.12968252136E+04  0.12968252136E+04  0.00000000000E+00 0.  1.
         36    2    1    2    0    0  0.71054273576E-14 -0.71054273576E-14 -0.12822508096E+04  0.13113996176E+04  0.27495784853E+03 0.  0.
         25    2    3    3    0    0  0.32759844027E+02  0.39916701210E+02 -0.75328503234E+03  0.76515228112E+03  0.12390771948E+03 0.  0.
         25    2    3    3    0    0 -0.32759844027E+02 -0.39916701210E+02 -0.52896577721E+03  0.54624733649E+03  0.12615390893E+03 0.  0.
          5    1    4    4  502    0 -0.12885509572E+02  0.67570327741E+02 -0.26074143873E+03  0.26970349167E+03  0.47000000000E+01 0.  1.
         -5    1    4    4    0  502  0.45645353598E+02 -0.27653626531E+02 -0.49254359361E+03  0.49544878945E+03  0.47000000000E+01 0.  1.
          5    1    5    5  503    0  0.16659611016E+02 -0.34560362690E+02 -0.43384211513E+02  0.58105431046E+02  0.47000000000E+01 0.  1.
         -5    1    5    5    0  503 -0.49419455043E+02 -0.53563385202E+01 -0.48558156570E+03  0.48814190544E+03  0.47000000000E+01 0.  1.
<mgrwt>
<rscale>  0 0.27495785E+03</rscale>
<asrwt>0</asrwt>
<pdfrwt beam="1">  1        2 0.19951168E+00 0.27495785E+03</pdfrwt>
<pdfrwt beam="2">  1       -2 0.22422148E-02 0.27495785E+03</pdfrwt>
<totfact> 0.11494840E+04</totfact>
</mgrwt>
</event>
<event>
 9    1  0.2095749E-002  0.2748110E+03  0.7818608E-02  0.1098557E+00
         -2   -1    0    0    0  501 -0.00000000000E+00  0.00000000000E+00  0.72570695925E+02  0.72570695925E+02  0.00000000000E+00 0. -1.
          2   -1    0    0  501    0  0.00000000000E+00 -0.00000000000E+00 -0.26016388430E+03  0.26016388430E+03  0.00000000000E+00 0. -1.
         36    2    1    2    0    0  0.00000000000E+00  0.14210854715E-13 -0.18759318837E+03  0.33273458022E+03  0.27481101971E+03 0.  0.
         25    2    3    3    0    0 -0.25451994940E+02  0.60478670366E+02 -0.11470005585E+03  0.17087949019E+03  0.10834308350E+03 0.  0.
         25    2    3    3    0    0  0.25451994940E+02 -0.60478670366E+02 -0.72893132527E+02  0.16185509003E+03  0.12875631163E+03 0.  0.
          5    1    4    4  502    0 -0.33867256265E+02  0.88649523410E+02 -0.99005291905E+02  0.13722196207E+03  0.47000000000E+01 0.  1.
         -5    1    4    4    0  502  0.84152613255E+01 -0.28170853044E+02 -0.15694763941E+02  0.33657528127E+02  0.47000000000E+01 0.  1.
          5    1    5    5  503    0 -0.17274265990E+02  0.17782408279E+02 -0.67888895365E+02  0.72426558828E+02  0.47000000000E+01 0. -1.
         -5    1    5    5    0  503  0.42726260930E+02 -0.78261078645E+02 -0.50042371615E+01  0.89428531204E+02  0.47000000000E+01 0. -1.
<mgrwt>
<rscale>  0 0.27481102E+03</rscale>
<asrwt>0</asrwt>
<pdfrwt beam="1">  1        2 0.40025213E-01 0.27481102E+03</pdfrwt>
<pdfrwt beam="2">  1       -2 0.11164722E-01 0.27481102E+03</pdfrwt>
<totfact> 0.70424671E+03</totfact>
</mgrwt>
</event>
<event>
 9    1  0.2095749E-002  0.2756315E+03  0.7818608E-02  0.1098099E+00
          2   -1    0    0  501    0  0.00000000000E+00  0.00000000000E+00  0.83975783292E+03  0.83975783292E+03  0.00000000000E+00 0. -1.
         -2   -1    0    0    0  501 -0.00000000000E+00 -0.00000000000E+00 -0.22617458308E+02  0.22617458308E+02  0.00000000000E+00 0. -1.
         36    2    1    2    0    0  0.00000000000E+00  0.71054273576E-14  0.81714037461E+03  0.86237529122E+03  0.27563154953E+03 0.  0.
         25    2    3    3    0    0 -0.39036698002E+02  0.35966277451E+02  0.33178076726E+03  0.35742886614E+03  0.12189946645E+03 0.  0.
         25    2    3    3    0    0  0.39036698002E+02 -0.35966277451E+02  0.48535960735E+03  0.50494642508E+03  0.12876143388E+03 0.  0.
          5    1    4    4  502    0 -0.63254928175E+02  0.17443970900E+02  0.31600505738E+03  0.32277974588E+03  0.47000000000E+01 0.  1.
         -5    1    4    4    0  502  0.24218230173E+02  0.18522306550E+02  0.15775709879E+02  0.34649120261E+02  0.47000000000E+01 0.  1.
          5    1    5    5  503    0  0.36001933639E+02  0.41007742104E+02  0.12594404030E+03  0.13733814265E+03  0.47000000000E+01 0. -1.
         -5    1    5    5    0  503  0.30347643630E+01 -0.76974019555E+02  0.35941556704E+03  0.36760828244E+03  0.47000000000E+01 0. -1.
<mgrwt>
<rscale>  0 0.27563155E+03</rscale>
<asrwt>0</asrwt>
<pdfrwt beam="1">  1        2 0.12919349E+00 0.27563155E+03</pdfrwt>
<pdfrwt beam="2">  1       -2 0.34796096E-02 0.27563155E+03</pdfrwt>
<totfact> 0.11261325E+04</totfact>
</mgrwt>
</event>
<event>
 9    1  0.2095749E-002  0.2753010E+03  0.7818608E-02  0.1098283E+00
         -2   -1    0    0    0  501 -0.00000000000E+00  0.00000000000E+00  0.66545344004E+02  0.66545344004E+02  0.00000000000E+00 0. -1.
          2   -1    0    0  501    0  0.00000000000E+00 -0.00000000000E+00 -0.28473304511E+03  0.28473304511E+03  0.00000000000E+00 0. -1.
         36    2    1    2    0    0 -0.71054273576E-14  0.71054273576E-14 -0.21818770110E+03  0.35127838911E+03  0.27530098755E+03 0.  0.
         25    2    3    3    0    0  0.46133419241E+02 -0.33713183636E+02 -0.75673403535E+02  0.15356953028E+03  0.12079844993E+03 0.  0.
         25    2    3    3    0    0 -0.46133419241E+02  0.33713183636E+02 -0.14251429757E+03  0.19770885883E+03  0.12455358978E+03 0.  0.
          5    1    4    4  502    0  0.75628235934E+02  0.92591640351E+01 -0.23991484976E+02  0.80019019867E+02  0.47000000000E+01 0.  1.
         -5    1    4    4    0  502 -0.29494816693E+02 -0.42972347671E+02 -0.51681918558E+02  0.73550510413E+02  0.47000000000E+01 0.  1.
          5    1    5    5  503    0 -0.62234399090E+02  0.71615268265E+02 -0.10743339256E+03  0.14340812709E+03  0.47000000000E+01 0.  1.
         -5    1    5    5    0  503  0.16100979849E+02 -0.37902084629E+02 -0.35080905006E+02  0.54300731739E+02  0.47000000000E+01 0.  1.
<mgrwt>
<rscale>  0 0.27530099E+03</rscale>
<asrwt>0</asrwt>
<pdfrwt beam="1">  1        2 0.43805084E-01 0.27530099E+03</pdfrwt>
<pdfrwt beam="2">  1       -2 0.10237745E-01 0.27530099E+03</pdfrwt>
<totfact> 0.73406826E+03</totfact>
</mgrwt>
</event>
<event>
 9    1  0.2095749E-002  0.2752773E+03  0.7818608E-02  0.1098297E+00
          2   -1    0    0  501    0  0.00000000000E+00  0.00000000000E+00  0.87016400670E+03  0.87016400670E+03  0.00000000000E+00 0. -1.
         -2   -1    0    0    0  501 -0.00000000000E+00 -0.00000000000E+00 -0.21771061358E+02  0.21771061358E+02  0.00000000000E+00 0. -1.
         36    2    1    2    0    0 -0.14210854715E-13  0.00000000000E+00  0.84839294534E+03  0.89193506806E+03  0.27527727100E+03 0.  0.
         25    2    3    3    0    0  0.32102280193E+02 -0.31907915351E+02  0.31675673778E+03  0.34368421526E+03  0.12544057333E+03 0.  0.
         25    2    3    3    0    0 -0.32102280193E+02  0.31907915351E+02  0.53163620757E+03  0.54825085280E+03  0.12606850893E+03 0.  0.
          5    1    4    4  502    0  0.38805687010E+02  0.40193772444E+02  0.18446668465E+03  0.19279903639E+03  0.47000000000E+01 0.  1.
         -5    1    4    4    0  502 -0.67034068173E+01 -0.72101687795E+02  0.13229005312E+03  0.15088517886E+03  0.47000000000E+01 0.  1.
          5    1    5    5  503    0 -0.33513562529E+02  0.71671068178E+02  0.21601038852E+03  0.23009232677E+03  0.47000000000E+01 0. -1.
         -5    1    5    5    0  503  0.14112823358E+01 -0.39763152827E+02  0.31562581904E+03  0.31815852603E+03  0.47000000000E+01 0. -1.
<mgrwt>
<rscale>  0 0.27527727E+03</rscale>
<asrwt>0</asrwt>
<pdfrwt beam="1">  1        2 0.13387136E+00 0.27527727E+03</pdfrwt>
<pdfrwt beam="2">  1       -2 0.33493947E-02 0.27527727E+03</pdfrwt>
<totfact> 0.11379540E+04</totfact>
</mgrwt>
</event>
<event>
 9    1  0.2095749E-002  0.2719901E+03  0.7818608E-02  0.1100146E+00
         -3   -1    0    0    0  501 -0.00000000000E+00  0.00000000000E+00  0.14581622817E+03  0.14581622817E+03  0.00000000000E+00 0.  1.
          3   -1    0    0  501    0  0.00000000000E+00 -0.00000000000E+00 -0.12683540047E+03  0.12683540047E+03  0.00000000000E+00 0.  1.
         36    2    1    2    0    0 -0.17763568394E-14  0.00000000000E+00  0.18980827701E+02  0.27265162864E+03  0.27199014463E+03 0.  0.
         25    2    3    3    0    0  0.90728567955E+01 -0.37617777364E+02 -0.37706284698E+02  0.13074118787E+03  0.11905494696E+03 0.  0.
         25    2    3    3    0    0 -0.90728567955E+01  0.37617777364E+02  0.56687112399E+02  0.14191044077E+03  0.12420841591E+03 0.  0.
          5    1    4    4  502    0  0.22160877329E+01 -0.74631299175E+02  0.32922127006E+01  0.74884381054E+02  0.47000000000E+01 0. -1.
         -5    1    4    4    0  502  0.68567690627E+01  0.37013521811E+02 -0.40998497399E+02  0.55856806817E+02  0.47000000000E+01 0. -1.
          5    1    5    5  503    0 -0.29551059307E+02  0.10985491890E+02 -0.33085671233E+02  0.45942331016E+02  0.47000000000E+01 0.  1.
         -5    1    5    5    0  503  0.20478202512E+02  0.26632285474E+02  0.89772783633E+02  0.95968109749E+02  0.47000000000E+01 0.  1.
<mgrwt>
<rscale>  0 0.27199014E+03</rscale>
<asrwt>0</asrwt>
<pdfrwt beam="1">  1        3 0.19513138E-01 0.27199014E+03</pdfrwt>
<pdfrwt beam="2">  1       -3 0.22433266E-01 0.27199014E+03</pdfrwt>
<totfact> 0.10886490E+03</totfact>
</mgrwt>
</event>
<event>
 9    1  0.2095749E-002  0.2751679E+03  0.7818608E-02  0.1098358E+00
         -1   -1    0    0    0  501 -0.00000000000E+00  0.00000000000E+00  0.13329610003E+03  0.13329610003E+03  0.00000000000E+00 0. -1.
          1   -1    0    0  501    0  0.00000000000E+00 -0.00000000000E+00 -0.14200971316E+03  0.14200971316E+03  0.00000000000E+00 0. -1.
         36    2    1    2    0    0  0.71054273576E-14 -0.35527136788E-14 -0.87136131289E+01  0.27530581318E+03  0.27516788279E+03 0.  0.
         25    2    3    3    0    0  0.52913724122E+02 -0.19558079777E+02 -0.10635356830E+00  0.13757776820E+03  0.12548007932E+03 0.  0.
         25    2    3    3    0    0 -0.52913724122E+02  0.19558079777E+02 -0.86072595606E+01  0.13772804499E+03  0.12534970592E+03 0.  0.
          5    1    4    4  502    0  0.92845491709E+02 -0.26547048694E+02  0.21591797252E+01  0.96704618205E+02  0.47000000000E+01 0. -1.
         -5    1    4    4    0  502 -0.39931767587E+02  0.69889689175E+01 -0.22655332935E+01  0.40873149991E+02  0.47000000000E+01 0. -1.
          5    1    5    5  503    0 -0.39535726348E+02  0.90383787209E+01 -0.66040914687E+02  0.77641859589E+02  0.47000000000E+01 0. -1.
         -5    1    5    5    0  503 -0.13377997774E+02  0.10519701056E+02  0.57433655126E+02  0.60086185400E+02  0.47000000000E+01 0. -1.
<mgrwt>
<rscale>  0 0.27516788E+03</rscale>
<asrwt>0</asrwt>
<pdfrwt beam="1">  1        1 0.21847648E-01 0.27516788E+03</pdfrwt>
<pdfrwt beam="2">  1       -1 0.20507092E-01 0.27516788E+03</pdfrwt>
<totfact> 0.43781049E+03</totfact>
</mgrwt>
</event>
<event>
 9    1  0.2095749E-002  0.2752843E+03  0.7818608E-02  0.1098293E+00
         -2   -1    0    0    0  501 -0.00000000000E+00  0.00000000000E+00  0.14113141073E+02  0.14113141073E+02  0.00000000000E+00 0. -1.
          2   -1    0    0  501    0  0.00000000000E+00 -0.00000000000E+00 -0.13423914915E+04  0.13423914915E+04  0.00000000000E+00 0. -1.
         36    2    1    2    0    0 -0.71054273576E-14 -0.14210854715E-13 -0.13282783504E+04  0.13565046326E+04  0.27528429301E+03 0.  0.
         25    2    3    3    0    0 -0.18178522725E+02  0.53765149442E+02 -0.59022393092E+03  0.60592704345E+03  0.12474832013E+03 0.  0.
         25    2    3    3    0    0  0.18178522725E+02 -0.53765149442E+02 -0.73805441950E+03  0.75057758911E+03  0.12418229000E+03 0.  0.
          5    1    4    4  502    0 -0.37829722175E+02 -0.31369751388E+02 -0.19804150862E+03  0.20410212718E+03  0.47000000000E+01 0. -1.
         -5    1    4    4    0  502  0.19651199450E+02  0.85134900830E+02 -0.39218242230E+03  0.40182491627E+03  0.47000000000E+01 0. -1.
          5    1    5    5  503    0  0.57576547821E+02 -0.65804725933E+02 -0.37123328984E+03  0.38142045867E+03  0.47000000000E+01 0. -1.
         -5    1    5    5    0  503 -0.39398025096E+02  0.12039576491E+02 -0.36682112966E+03  0.36915713043E+03  0.47000000000E+01 0. -1.
<mgrwt>
<rscale>  0 0.27528429E+03</rscale>
<asrwt>0</asrwt>
<pdfrwt beam="1">  1        2 0.20652181E+00 0.27528429E+03</pdfrwt>
<pdfrwt beam="2">  1       -2 0.21712520E-02 0.27528429E+03</pdfrwt>
<totfact> 0.11375942E+04</totfact>
</mgrwt>
</event>
<event>
 9    1  0.2095749E-002  0.2741683E+03  0.7818608E-02  0.1098917E+00
         -2   -1    0    0    0  501 -0.00000000000E+00  0.00000000000E+00  0.26500134420E+02  0.26500134420E+02  0.00000000000E+00 0. -1.
          2   -1    0    0  501    0  0.00000000000E+00 -0.00000000000E+00 -0.70913105372E+03  0.70913105372E+03  0.00000000000E+00 0. -1.
         36    2    1    2    0    0  0.00000000000E+00 -0.71054273576E-14 -0.68263091930E+03  0.73563118814E+03  0.27416832964E+03 0.  0.
         25    2    3    3    0    0  0.22557678175E+01  0.37559896803E+02 -0.45447895980E+03  0.47284383413E+03  0.12495732168E+03 0.  0.
         25    2    3    3    0    0 -0.22557678175E+01 -0.37559896803E+02 -0.22815195950E+03  0.26278735401E+03  0.12485208235E+03 0.  0.
          5    1    4    4  502    0  0.25995224454E+02  0.56587229829E+02 -0.42711252561E+03  0.43165387269E+03  0.47000000000E+01 0.  1.
         -5    1    4    4    0  502 -0.23739456637E+02 -0.19027333025E+02 -0.27366434188E+02  0.41189961442E+02  0.47000000000E+01 0.  1.
          5    1    5    5  503    0 -0.79520740635E+01 -0.80182198662E+02 -0.10619631161E+03  0.13338728224E+03  0.47000000000E+01 0. -1.
         -5    1    5    5    0  503  0.56963062460E+01  0.42622301859E+02 -0.12195564789E+03  0.12940007177E+03  0.47000000000E+01 0. -1.
<mgrwt>
<rscale>  0 0.27416833E+03</rscale>
<asrwt>0</asrwt>
<pdfrwt beam="1">  1        2 0.10909708E+00 0.27416833E+03</pdfrwt>
<pdfrwt beam="2">  1       -2 0.40769441E-02 0.27416833E+03</pdfrwt>
<totfact> 0.10977747E+04</totfact>
</mgrwt>
</event>
<event>
 9    1  0.2095749E-002  0.2719558E+03  0.7818608E-02  0.1100165E+00
          2   -1    0    0  501    0  0.00000000000E+00  0.00000000000E+00  0.11415448490E+04  0.11415448490E+04  0.00000000000E+00 0. -1.
         -2   -1    0    0    0  501 -0.00000000000E+00 -0.00000000000E+00 -0.16197335783E+02  0.16197335783E+02  0.00000000000E+00 0. -1.
         36    2    1    2    0    0  0.71054273576E-14  0.00000000000E+00  0.11253475133E+04  0.11577421848E+04  0.27195577017E+03 0.  0.
         25    2    3    3    0    0  0.26347391075E+02  0.32881305732E+02  0.43368677062E+03  0.45343688618E+03  0.12548079318E+03 0.  0.
         25    2    3    3    0    0 -0.26347391075E+02 -0.32881305732E+02  0.69166074264E+03  0.70430529865E+03  0.12600002185E+03 0.  0.
          5    1    4    4  502    0  0.68178594738E+02  0.45401940394E+01  0.14547565437E+03  0.16079238215E+03  0.47000000000E+01 0. -1.
         -5    1    4    4    0  502 -0.41831203663E+02  0.28341111693E+02  0.28821111625E+03  0.29264450404E+03  0.47000000000E+01 0. -1.
          5    1    5    5  503    0  0.35771946281E+02 -0.53578084293E+02  0.41273496355E+03  0.41775888189E+03  0.47000000000E+01 0.  1.
         -5    1    5    5    0  503 -0.62119337356E+02  0.20696778561E+02  0.27892577909E+03  0.28654641676E+03  0.47000000000E+01 0.  1.
<mgrwt>
<rscale>  0 0.27195577E+03</rscale>
<asrwt>0</asrwt>
<pdfrwt beam="1">  1        2 0.17562222E+00 0.27195577E+03</pdfrwt>
<pdfrwt beam="2">  1       -2 0.24918987E-02 0.27195577E+03</pdfrwt>
<totfact> 0.12034703E+04</totfact>
</mgrwt>
</event>
<event>
 9    1  0.2095749E-002  0.2757028E+03  0.7818608E-02  0.1098059E+00
          2   -1    0    0  501    0  0.00000000000E+00  0.00000000000E+00  0.11144526163E+04  0.11144526163E+04  0.00000000000E+00 0. -1.
         -2   -1    0    0    0  501 -0.00000000000E+00 -0.00000000000E+00 -0.17051426641E+02  0.17051426641E+02  0.00000000000E+00 0. -1.
         36    2    1    2    0    0 -0.35527136788E-14  0.00000000000E+00  0.10974011897E+04  0.11315040430E+04  0.27570278948E+03 0.  0.
         25    2    3    3    0    0 -0.74150470344E+01 -0.44564481154E+02  0.36080970674E+03  0.38394322419E+03  0.12323870745E+03 0.  0.
         25    2    3    3    0    0  0.74150470344E+01  0.44564481154E+02  0.73659148295E+03  0.74756081879E+03  0.11932807353E+03 0.  0.
          5    1    4    4  502    0 -0.21766445487E+02  0.33423726215E+02  0.55747031118E+02  0.68707678623E+02  0.47000000000E+01 0.  1.
         -5    1    4    4    0  502  0.14351398452E+02 -0.77988207369E+02  0.30506267563E+03  0.31523554556E+03  0.47000000000E+01 0.  1.
          5    1    5    5  503    0 -0.43539188928E+02 -0.11678114593E+02  0.39598356492E+03  0.39856883097E+03  0.47000000000E+01 0.  1.
         -5    1    5    5    0  503  0.50954235962E+02  0.56242595747E+02  0.34060791803E+03  0.34899198782E+03  0.47000000000E+01 0.  1.
<mgrwt>
<rscale>  0 0.27570279E+03</rscale>
<asrwt>0</asrwt>
<pdfrwt beam="1">  1        2 0.17145419E+00 0.27570279E+03</pdfrwt>
<pdfrwt beam="2">  1       -2 0.26232973E-02 0.27570279E+03</pdfrwt>
<totfact> 0.11569566E+04</totfact>
</mgrwt>
</event>
<event>
 9    1  0.2095749E-002  0.2741006E+03  0.7818608E-02  0.1098955E+00
         -1   -1    0    0    0  501 -0.00000000000E+00  0.00000000000E+00  0.27205436053E+02  0.27205436053E+02  0.00000000000E+00 0. -1.
          1   -1    0    0  501    0  0.00000000000E+00 -0.00000000000E+00 -0.69040543460E+03  0.69040543460E+03  0.00000000000E+00 0. -1.
         36    2    1    2    0    0 -0.71054273576E-14  0.00000000000E+00 -0.66319999855E+03  0.71761087065E+03  0.27410057206E+03 0.  0.
         25    2    3    3    0    0  0.22726389699E+02  0.12292523728E+02 -0.22048264081E+03  0.25593035323E+03  0.12735837577E+03 0.  0.
         25    2    3    3    0    0 -0.22726389699E+02 -0.12292523728E+02 -0.44271735774E+03  0.46168051742E+03  0.12838475921E+03 0.  0.
          5    1    4    4  502    0  0.53127666490E+02  0.45838982427E+02 -0.72079223057E+02  0.10070385123E+03  0.47000000000E+01 0.  1.
         -5    1    4    4    0  502 -0.30401276791E+02 -0.33546458698E+02 -0.14840341775E+03  0.15522650199E+03  0.47000000000E+01 0.  1.
          5    1    5    5  503    0 -0.59892389049E+02 -0.49381962073E+02 -0.28282997319E+03  0.29332671235E+03  0.47000000000E+01 0.  1.
         -5    1    5    5    0  503  0.37165999350E+02  0.37089438344E+02 -0.15988738455E+03  0.16835380507E+03  0.47000000000E+01 0.  1.
<mgrwt>
<rscale>  0 0.27410057E+03</rscale>
<asrwt>0</asrwt>
<pdfrwt beam="1">  1        1 0.10621622E+00 0.27410057E+03</pdfrwt>
<pdfrwt beam="2">  1       -1 0.41854515E-02 0.27410057E+03</pdfrwt>
<totfact> 0.65916537E+03</totfact>
</mgrwt>
</event>
<event>
 9    1  0.2095749E-002  0.2747583E+03  0.7818608E-02  0.1098587E+00
          1   -1    0    0  501    0  0.00000000000E+00  0.00000000000E+00  0.53120975602E+02  0.53120975602E+02  0.00000000000E+00 0. -1.
         -1   -1    0    0    0  501 -0.00000000000E+00 -0.00000000000E+00 -0.35528387761E+03  0.35528387761E+03  0.00000000000E+00 0. -1.
         36    2    1    2    0    0  0.00000000000E+00  0.00000000000E+00 -0.30216290201E+03  0.40840485321E+03  0.27475826608E+03 0.  0.
         25    2    3    3    0    0 -0.34155218770E+02  0.34111778599E+02 -0.11638780179E+03  0.18030510285E+03  0.12897138171E+03 0.  0.
         25    2    3    3    0    0  0.34155218770E+02 -0.34111778599E+02 -0.18577510021E+03  0.22809975036E+03  0.12323520539E+03 0.  0.
          5    1    4    4  502    0 -0.71960207344E+02 -0.11515176209E+02 -0.39200440489E+02  0.82883262838E+02  0.47000000000E+01 0. -1.
         -5    1    4    4    0  502  0.37804988575E+02  0.45626954808E+02 -0.77187361304E+02  0.97421840012E+02  0.47000000000E+01 0. -1.
          5    1    5    5  503    0  0.68174671347E+02  0.17299496585E+02 -0.10152404226E+03  0.12359724735E+03  0.47000000000E+01 0.  1.
         -5    1    5    5    0  503 -0.34019452577E+02 -0.51411275183E+02 -0.84251057958E+02  0.10450250302E+03  0.47000000000E+01 0.  1.
<mgrwt>
<rscale>  0 0.27475827E+03</rscale>
<asrwt>0</asrwt>
<pdfrwt beam="1">  1        1 0.81724580E-02 0.27475827E+03</pdfrwt>
<pdfrwt beam="2">  1       -1 0.54659057E-01 0.27475827E+03</pdfrwt>
<totfact> 0.29243869E+03</totfact>
</mgrwt>
</event>
<event>
 9    1  0.2095749E-002  0.2705254E+03  0.7818608E-02  0.1100979E+00
          2   -1    0    0  501    0  0.00000000000E+00  0.00000000000E+00  0.34377237804E+03  0.34377237804E+03  0.00000000000E+00 0. -1.
         -2   -1    0    0    0  501 -0.00000000000E+00 -0.00000000000E+00 -0.53221252033E+02  0.53221252033E+02  0.00000000000E+00 0. -1.
         36    2    1    2    0    0 -0.14210854715E-13  0.00000000000E+00  0.29055112601E+03  0.39699363007E+03  0.27052538789E+03 0.  0.
         25    2    3    3    0    0  0.47810240004E+02 -0.47823271209E+02  0.13180790144E+03  0.18420079438E+03  0.10947020348E+03 0.  0.
         25    2    3    3    0    0 -0.47810240004E+02  0.47823271209E+02  0.15874322457E+03  0.21279283569E+03  0.12453310908E+03 0.  0.
          5    1    4    4  502    0  0.77157745348E+02 -0.67973642554E+01  0.86866107923E+02  0.11647889308E+03  0.47000000000E+01 0.  1.
         -5    1    4    4    0  502 -0.29347505343E+02 -0.41025906954E+02  0.44941793515E+02  0.67721901299E+02  0.47000000000E+01 0.  1.
          5    1    5    5  503    0 -0.86172754431E+02  0.39625347493E+02  0.13973392751E+03  0.16894843079E+03  0.47000000000E+01 0. -1.
         -5    1    5    5    0  503  0.38362514427E+02  0.81979237162E+01  0.19009297062E+02  0.43844404902E+02  0.47000000000E+01 0. -1.
<mgrwt>
<rscale>  0 0.27052539E+03</rscale>
<asrwt>0</asrwt>
<pdfrwt beam="1">  1        2 0.52888057E-01 0.27052539E+03</pdfrwt>
<pdfrwt beam="2">  1       -2 0.81878852E-02 0.27052539E+03</pdfrwt>
<totfact> 0.85214537E+03</totfact>
</mgrwt>
</event>
<event>
 9    1  0.2095749E-002  0.2653823E+03  0.7818608E-02  0.1103952E+00
         -2   -1    0    0    0  501 -0.00000000000E+00  0.00000000000E+00  0.34289575178E+02  0.34289575178E+02  0.00000000000E+00 0. -1.
          2   -1    0    0  501    0  0.00000000000E+00 -0.00000000000E+00 -0.51347810258E+03  0.51347810258E+03  0.00000000000E+00 0. -1.
         36    2    1    2    0    0  0.71054273576E-14 -0.35527136788E-14 -0.47918852740E+03  0.54776767776E+03  0.26538233551E+03 0.  0.
         25    2    3    3    0    0  0.63090423975E+02 -0.29010375416E+02 -0.24349913409E+03  0.28220603364E+03  0.12460503056E+03 0.  0.
         25    2    3    3    0    0 -0.63090423975E+02  0.29010375416E+02 -0.23568939331E+03  0.26556164412E+03  0.10075461889E+03 0.  0.
          5    1    4    4  502    0  0.25057077749E+01 -0.57680036897E+02 -0.47182894532E+02  0.74709977676E+02  0.47000000000E+01 0. -1.
         -5    1    4    4    0  502  0.60584716201E+02  0.28669661481E+02 -0.19631623956E+03  0.20749605597E+03  0.47000000000E+01 0. -1.
          5    1    5    5  503    0 -0.43222674442E+02  0.14794540305E+02 -0.23625500199E+03  0.24067736489E+03  0.47000000000E+01 0.  1.
         -5    1    5    5    0  503 -0.19867749533E+02  0.14215835111E+02  0.56560867304E+00  0.24884279226E+02  0.47000000000E+01 0.  1.
<mgrwt>
<rscale>  0 0.26538234E+03</rscale>
<asrwt>0</asrwt>
<pdfrwt beam="1">  1        2 0.78996617E-01 0.26538234E+03</pdfrwt>
<pdfrwt beam="2">  1       -2 0.52753202E-02 0.26538234E+03</pdfrwt>
<totfact> 0.10812194E+04</totfact>
</mgrwt>
</event>
<event>
 9    1  0.2095749E-002  0.2752385E+03  0.7818608E-02  0.1098318E+00
         -3   -1    0    0    0  501 -0.00000000000E+00  0.00000000000E+00  0.50766567111E+02  0.50766567111E+02  0.00000000000E+00 0. -1.
          3   -1    0    0  501    0  0.00000000000E+00 -0.00000000000E+00 -0.37306163393E+03  0.37306163393E+03  0.00000000000E+00 0. -1.
         36    2    1    2    0    0 -0.17763568394E-14  0.00000000000E+00 -0.32229506682E+03  0.42382820104E+03  0.27523850367E+03 0.  0.
         25    2    3    3    0    0 -0.13961745513E+01 -0.41442082987E+02 -0.20074893174E+03  0.24272183406E+03  0.12997830430E+03 0.  0.
         25    2    3    3    0    0  0.13961745513E+01  0.41442082987E+02 -0.12154613508E+03  0.18110636698E+03  0.12769752411E+03 0.  0.
          5    1    4    4  502    0  0.15629638598E+02 -0.33361431838E+02 -0.21528275640E+03  0.21846287085E+03  0.47000000000E+01 0.  1.
         -5    1    4    4    0  502 -0.17025813150E+02 -0.80806511491E+01  0.14533824663E+02  0.24258963204E+02  0.47000000000E+01 0.  1.
          5    1    5    5  503    0  0.56013860271E+02  0.30220654078E+02 -0.23105078483E+02  0.67873228353E+02  0.47000000000E+01 0.  1.
         -5    1    5    5    0  503 -0.54617685720E+02  0.11221428909E+02 -0.98441056597E+02  0.11323313863E+03  0.47000000000E+01 0.  1.
<mgrwt>
<rscale>  0 0.27523850E+03</rscale>
<asrwt>0</asrwt>
<pdfrwt beam="1">  1        3 0.57394098E-01 0.27523850E+03</pdfrwt>
<pdfrwt beam="2">  1       -3 0.78102410E-02 0.27523850E+03</pdfrwt>
<totfact> 0.85156259E+02</totfact>
</mgrwt>
</event>
<event>
 9    1  0.2095749E-002  0.2743983E+03  0.7818608E-02  0.1098788E+00
         -2   -1    0    0    0  501 -0.00000000000E+00  0.00000000000E+00  0.10343331459E+02  0.10343331459E+02  0.00000000000E+00 0. -1.
          2   -1    0    0  501    0  0.00000000000E+00 -0.00000000000E+00 -0.18198779240E+04  0.18198779240E+04  0.00000000000E+00 0. -1.
         36    2    1    2    0    0  0.71054273576E-14  0.71054273576E-14 -0.18095345926E+04  0.18302212555E+04  0.27439825498E+03 0.  0.
         25    2    3    3    0    0  0.24660316307E+02  0.43931645477E+02 -0.10638985847E+04  0.10720639836E+04  0.12207729423E+03 0.  0.
         25    2    3    3    0    0 -0.24660316307E+02 -0.43931645477E+02 -0.74563600788E+03  0.75815727188E+03  0.12763726723E+03 0.  0.
          5    1    4    4  502    0 -0.41555923158E+02  0.10300399156E+02 -0.65744253007E+03  0.65885185233E+03  0.47000000000E+01 0.  1.
         -5    1    4    4    0  502  0.66216239465E+02  0.33631246321E+02 -0.40645605461E+03  0.41321213127E+03  0.47000000000E+01 0.  1.
          5    1    5    5  503    0 -0.74391942516E+02 -0.43994813944E+02 -0.43458251722E+03  0.44311822241E+03  0.47000000000E+01 0. -1.
         -5    1    5    5    0  503  0.49731626209E+02  0.63168466609E-01 -0.31105349067E+03  0.31503904947E+03  0.47000000000E+01 0. -1.
<mgrwt>
<rscale>  0 0.27439825E+03</rscale>
<asrwt>0</asrwt>
<pdfrwt beam="1">  1        2 0.27998098E+00 0.27439825E+03</pdfrwt>
<pdfrwt beam="2">  1       -2 0.15912831E-02 0.27439825E+03</pdfrwt>
<totfact> 0.99958242E+03</totfact>
</mgrwt>
</event>
<event>
 9    1  0.2095749E-002  0.2799498E+03  0.7818608E-02  0.1095716E+00
         -2   -1    0    0    0  501 -0.00000000000E+00  0.00000000000E+00  0.12005582665E+02  0.12005582665E+02  0.00000000000E+00 0. -1.
          2   -1    0    0  501    0  0.00000000000E+00 -0.00000000000E+00 -0.16319883686E+04  0.16319883686E+04  0.00000000000E+00 0. -1.
         36    2    1    2    0    0 -0.35527136788E-14  0.00000000000E+00 -0.16199827860E+04  0.16439939513E+04  0.27994979027E+03 0.  0.
         25    2    3    3    0    0  0.85895245980E+01 -0.24277337184E+02 -0.11154085675E+04  0.11229061263E+04  0.12695954881E+03 0.  0.
         25    2    3    3    0    0 -0.85895245980E+01  0.24277337184E+02 -0.50457421850E+03  0.52108782502E+03  0.12757041338E+03 0.  0.
          5    1    4    4  502    0  0.46204578558E+02  0.18178317941E+02 -0.85007033645E+03  0.85153213753E+03  0.47000000000E+01 0.  1.
         -5    1    4    4    0  502 -0.37615053960E+02 -0.42455655124E+02 -0.26533823100E+03  0.27137398875E+03  0.47000000000E+01 0.  1.
          5    1    5    5  503    0 -0.16395518571E+02  0.10663232943E+02 -0.43302356485E+01  0.20575677554E+02  0.47000000000E+01 0.  1.
         -5    1    5    5    0  503  0.78059939732E+01  0.13614104240E+02 -0.50024398286E+03  0.50051214746E+03  0.47000000000E+01 0.  1.
<mgrwt>
<rscale>  0 0.27994979E+03</rscale>
<asrwt>0</asrwt>
<pdfrwt beam="1">  1        2 0.25107498E+00 0.27994979E+03</pdfrwt>
<pdfrwt beam="2">  1       -2 0.18470139E-02 0.27994979E+03</pdfrwt>
<totfact> 0.10091060E+04</totfact>
</mgrwt>
</event>
<event>
 9    1  0.2095749E-002  0.2756499E+03  0.7818608E-02  0.1098089E+00
          3   -1    0    0  501    0  0.00000000000E+00  0.00000000000E+00  0.13538333258E+03  0.13538333258E+03  0.00000000000E+00 0. -1.
         -3   -1    0    0    0  501 -0.00000000000E+00 -0.00000000000E+00 -0.14031055601E+03  0.14031055601E+03  0.00000000000E+00 0. -1.
         36    2    1    2    0    0 -0.35527136788E-14  0.00000000000E+00 -0.49272234300E+01  0.27569388859E+03  0.27564985520E+03 0.  0.
         25    2    3    3    0    0  0.27302568510E+02  0.41579572777E+02 -0.36526710196E+02  0.13813025384E+03  0.12357781091E+03 0.  0.
         25    2    3    3    0    0 -0.27302568510E+02 -0.41579572777E+02  0.31599486766E+02  0.13756363474E+03  0.12430178969E+03 0.  0.
          5    1    4    4  502    0  0.51731149539E+02  0.64897602949E+01 -0.67285629403E+02  0.85250658329E+02  0.47000000000E+01 0.  1.
         -5    1    4    4    0  502 -0.24428581030E+02  0.35089812482E+02  0.30758919207E+02  0.52879595516E+02  0.47000000000E+01 0.  1.
          5    1    5    5  503    0 -0.18199519712E+02 -0.67696982246E+02 -0.24853030714E+02  0.74524271607E+02  0.47000000000E+01 0.  1.
         -5    1    5    5    0  503 -0.91030487980E+01  0.26117409469E+02  0.56452517480E+02  0.63039363136E+02  0.47000000000E+01 0.  1.
<mgrwt>
<rscale>  0 0.27564986E+03</rscale>
<asrwt>0</asrwt>
<pdfrwt beam="1">  1        3 0.20828205E-01 0.27564986E+03</pdfrwt>
<pdfrwt beam="2">  1       -3 0.21586239E-01 0.27564986E+03</pdfrwt>
<totfact> 0.10402637E+03</totfact>
</mgrwt>
</event>
<event>
 9    1  0.2095749E-002  0.2751439E+03  0.7818608E-02  0.1098371E+00
          2   -1    0    0  501    0  0.00000000000E+00  0.00000000000E+00  0.51642496865E+02  0.51642496865E+02  0.00000000000E+00 0. -1.
         -2   -1    0    0    0  501 -0.00000000000E+00 -0.00000000000E+00 -0.36648204058E+03  0.36648204058E+03  0.00000000000E+00 0. -1.
         36    2    1    2    0    0  0.00000000000E+00  0.00000000000E+00 -0.31483954371E+03  0.41812453744E+03  0.27514394510E+03 0.  0.
         25    2    3    3    0    0 -0.47546686152E+02 -0.19161432332E+02 -0.21027485348E+03  0.24956484014E+03  0.12425476881E+03 0.  0.
         25    2    3    3    0    0  0.47546686152E+02  0.19161432332E+02 -0.10456469023E+03  0.16855969731E+03  0.12186365028E+03 0.  0.
          5    1    4    4  502    0  0.43467817527E+01 -0.64752474583E+02 -0.10692848391E+03  0.12517015678E+03  0.47000000000E+01 0. -1.
         -5    1    4    4    0  502 -0.51893467905E+02  0.45591042250E+02 -0.10334636957E+03  0.12439468336E+03  0.47000000000E+01 0. -1.
          5    1    5    5  503    0  0.17111948283E+02 -0.49362265830E+02 -0.65402634514E+02  0.83839409965E+02  0.47000000000E+01 0. -1.
         -5    1    5    5    0  503  0.30434737870E+02  0.68523698162E+02 -0.39162055717E+02  0.84720287340E+02  0.47000000000E+01 0. -1.
<mgrwt>
<rscale>  0 0.27514395E+03</rscale>
<asrwt>0</asrwt>
<pdfrwt beam="1">  1        2 0.79449995E-02 0.27514395E+03</pdfrwt>
<pdfrwt beam="2">  1       -2 0.56381853E-01 0.27514395E+03</pdfrwt>
<totfact> 0.25728839E+03</totfact>
</mgrwt>
</event>
<event>
 9    1  0.2095749E-002  0.2737212E+03  0.7818608E-02  0.1099169E+00
         -3   -1    0    0    0  501 -0.00000000000E+00  0.00000000000E+00  0.53284137029E+02  0.53284137029E+02  0.00000000000E+00 0.  1.
          3   -1    0    0  501    0  0.00000000000E+00 -0.00000000000E+00 -0.35152711613E+03  0.35152711613E+03  0.00000000000E+00 0.  1.
         36    2    1    2    0    0  0.00000000000E+00  0.00000000000E+00 -0.29824297910E+03  0.40481125316E+03  0.27372116488E+03 0.  0.
         25    2    3    3    0    0 -0.50777382051E+02  0.16309796533E+02 -0.14803939394E+03  0.20212581637E+03  0.12686540700E+03 0.  0.
         25    2    3    3    0    0  0.50777382051E+02 -0.16309796533E+02 -0.15020358516E+03  0.20268543679E+03  0.12520350355E+03 0.  0.
          5    1    4    4  502    0 -0.46124785427E+02 -0.51412628597E+02 -0.81804802574E+02  0.10716748543E+03  0.47000000000E+01 0.  1.
         -5    1    4    4    0  502 -0.46525966243E+01  0.67722425130E+02 -0.66234591368E+02  0.94958330938E+02  0.47000000000E+01 0.  1.
          5    1    5    5  503    0 -0.10492443586E+02  0.45884534007E+02 -0.39546132765E+02  0.61656049582E+02  0.47000000000E+01 0.  1.
         -5    1    5    5    0  503  0.61269825637E+02 -0.62194330540E+02 -0.11065745239E+03  0.14102938720E+03  0.47000000000E+01 0.  1.
<mgrwt>
<rscale>  0 0.27372116E+03</rscale>
<asrwt>0</asrwt>
<pdfrwt beam="1">  1        3 0.54081097E-01 0.27372116E+03</pdfrwt>
<pdfrwt beam="2">  1       -3 0.81975593E-02 0.27372116E+03</pdfrwt>
<totfact> 0.88805062E+02</totfact>
</mgrwt>
</event>
<event>
 9    1  0.2095749E-002  0.2758701E+03  0.7818608E-02  0.1097966E+00
          2   -1    0    0  501    0  0.00000000000E+00  0.00000000000E+00  0.29169712934E+04  0.29169712934E+04  0.00000000000E+00 0. -1.
         -2   -1    0    0    0  501 -0.00000000000E+00 -0.00000000000E+00 -0.65225442253E+01  0.65225442253E+01  0.00000000000E+00 0. -1.
         36    2    1    2    0    0  0.17763568394E-14  0.00000000000E+00  0.29104487492E+04  0.29234938376E+04  0.27587007279E+03 0.  0.
         25    2    3    3    0    0 -0.10369934787E+02  0.49990341278E+02  0.11527075234E+04  0.11605570315E+04  0.12470532964E+03 0.  0.
         25    2    3    3    0    0  0.10369934787E+02 -0.49990341278E+02  0.17577412258E+04  0.17629368061E+04  0.12524134944E+03 0.  0.
          5    1    4    4  502    0  0.13575382904E+02  0.52386590820E+02  0.11098699160E+04  0.11111984369E+04  0.47000000000E+01 0. -1.
         -5    1    4    4    0  502 -0.23945317690E+02 -0.23962495411E+01  0.42837607418E+02  0.49358594595E+02  0.47000000000E+01 0. -1.
          5    1    5    5  503    0  0.44870174824E+02 -0.43382604164E+02  0.41182725936E+03  0.41655631610E+03  0.47000000000E+01 0.  1.
         -5    1    5    5    0  503 -0.34500240037E+02 -0.66077371146E+01  0.13459139665E+04  0.13463804900E+04  0.47000000000E+01 0.  1.
<mgrwt>
<rscale>  0 0.27587007E+03</rscale>
<asrwt>0</asrwt>
<pdfrwt beam="1">  1        2 0.44876377E+00 0.27587007E+03</pdfrwt>
<pdfrwt beam="2">  1       -2 0.10034707E-02 0.27587007E+03</pdfrwt>
<totfact> 0.49461630E+03</totfact>
</mgrwt>
</event>
<event>
 9    1  0.2095749E-002  0.2750235E+03  0.7818608E-02  0.1098438E+00
          2   -1    0    0  501    0  0.00000000000E+00  0.00000000000E+00  0.41202821679E+03  0.41202821679E+03  0.00000000000E+00 0. -1.
         -2   -1    0    0    0  501 -0.00000000000E+00 -0.00000000000E+00 -0.45893656232E+02  0.45893656232E+02  0.00000000000E+00 0. -1.
         36    2    1    2    0    0  0.35527136788E-14  0.71054273576E-14  0.36613456056E+03  0.45792187302E+03  0.27502349965E+03 0.  0.
         25    2    3    3    0    0  0.23994027038E+02  0.50180903005E+02  0.22708669469E+03  0.26351924298E+03  0.12157379716E+03 0.  0.
         25    2    3    3    0    0 -0.23994027038E+02 -0.50180903005E+02  0.13904786586E+03  0.19440263004E+03  0.12395256030E+03 0.  0.
          5    1    4    4  502    0  0.45202478367E+02  0.80033384869E+02  0.19036752823E+03  0.21144855769E+03  0.47000000000E+01 0. -1.
         -5    1    4    4    0  502 -0.21208451328E+02 -0.29852481864E+02  0.36719166460E+02  0.52070685291E+02  0.47000000000E+01 0. -1.
          5    1    5    5  503    0 -0.56241893128E+02 -0.22496116452E+02  0.13893873031E+03  0.15164196839E+03  0.47000000000E+01 0. -1.
         -5    1    5    5    0  503  0.32247866090E+02 -0.27684786553E+02  0.10913555428E+00  0.42760661646E+02  0.47000000000E+01 0. -1.
<mgrwt>
<rscale>  0 0.27502350E+03</rscale>
<asrwt>0</asrwt>
<pdfrwt beam="1">  1        2 0.63388954E-01 0.27502350E+03</pdfrwt>
<pdfrwt beam="2">  1       -2 0.70605628E-02 0.27502350E+03</pdfrwt>
<totfact> 0.88259617E+03</totfact>
</mgrwt>
</event>
<event>
 9    1  0.2095749E-002  0.2747235E+03  0.7818608E-02  0.1098606E+00
          4   -1    0    0  501    0  0.00000000000E+00  0.00000000000E+00  0.34668724246E+02  0.34668724246E+02  0.00000000000E+00 0. -1.
         -4   -1    0    0    0  501 -0.00000000000E+00 -0.00000000000E+00 -0.54424418540E+03  0.54424418540E+03  0.00000000000E+00 0. -1.
         36    2    1    2    0    0  0.00000000000E+00  0.00000000000E+00 -0.50957546115E+03  0.57891290964E+03  0.27472350890E+03 0.  0.
         25    2    3    3    0    0 -0.44545548229E+02 -0.10607298623E+02 -0.26228668506E+03  0.29496619076E+03  0.12694064709E+03 0.  0.
         25    2    3    3    0    0  0.44545548229E+02  0.10607298623E+02 -0.24728877609E+03  0.28394671888E+03  0.13182253119E+03 0.  0.
          5    1    4    4  502    0  0.27350354405E+02 -0.31980793665E+02 -0.17374519095E+03  0.17883035097E+03  0.47000000000E+01 0. -1.
         -5    1    4    4    0  502 -0.71895902634E+02  0.21373495042E+02 -0.88541494104E+02  0.11613583979E+03  0.47000000000E+01 0. -1.
          5    1    5    5  503    0 -0.21939855215E+02  0.75468234044E+01 -0.20182391426E+03  0.20320751501E+03  0.47000000000E+01 0.  1.
         -5    1    5    5    0  503  0.66485403444E+02  0.30604752184E+01 -0.45464861835E+02  0.80739203868E+02  0.47000000000E+01 0.  1.
<mgrwt>
<rscale>  0 0.27472351E+03</rscale>
<asrwt>0</asrwt>
<pdfrwt beam="1">  1        4 0.53336497E-02 0.27472351E+03</pdfrwt>
<pdfrwt beam="2">  1       -4 0.83729878E-01 0.27472351E+03</pdfrwt>
<totfact> 0.51662500E+02</totfact>
</mgrwt>
</event>
<event>
 9    1  0.2095749E-002  0.2733975E+03  0.7818608E-02  0.1099351E+00
          1   -1    0    0  501    0  0.00000000000E+00  0.00000000000E+00  0.44613859167E+02  0.44613859167E+02  0.00000000000E+00 0.  1.
         -1   -1    0    0    0  501 -0.00000000000E+00 -0.00000000000E+00 -0.41885081499E+03  0.41885081499E+03  0.00000000000E+00 0.  1.
         36    2    1    2    0    0 -0.71054273576E-14  0.00000000000E+00 -0.37423695582E+03  0.46346467415E+03  0.27339752209E+03 0.  0.
         25    2    3    3    0    0 -0.85316009774E+01  0.17914180031E+02 -0.10587548369E+03  0.16636655163E+03  0.12678527278E+03 0.  0.
         25    2    3    3    0    0  0.85316009774E+01 -0.17914180031E+02 -0.26836147213E+03  0.29709812252E+03  0.12591945291E+03 0.  0.
          5    1    4    4  502    0  0.54731963430E+02  0.94112715814E+00 -0.20465635742E+02  0.58629393546E+02  0.47000000000E+01 0. -1.
         -5    1    4    4    0  502 -0.63263564408E+02  0.16973052873E+02 -0.85409847949E+02  0.10773715808E+03  0.47000000000E+01 0. -1.
          5    1    5    5  503    0  0.25282539633E+02  0.65408715063E+01  0.52717696149E+00  0.26539738618E+02  0.47000000000E+01 0. -1.
         -5    1    5    5    0  503 -0.16750938655E+02 -0.24455051537E+02 -0.26888864909E+03  0.27055838391E+03  0.47000000000E+01 0. -1.
<mgrwt>
<rscale>  0 0.27339752E+03</rscale>
<asrwt>0</asrwt>
<pdfrwt beam="1">  1        1 0.68636707E-02 0.27339752E+03</pdfrwt>
<pdfrwt beam="2">  1       -1 0.64438586E-01 0.27339752E+03</pdfrwt>
<totfact> 0.27047869E+03</totfact>
</mgrwt>
</event>
<event>
 9    1  0.2095749E-002  0.2773148E+03  0.7818608E-02  0.1097165E+00
         -3   -1    0    0    0  501 -0.00000000000E+00  0.00000000000E+00  0.69926498406E+02  0.69926498406E+02  0.00000000000E+00 0. -1.
          3   -1    0    0  501    0  0.00000000000E+00 -0.00000000000E+00 -0.27494396786E+03  0.27494396786E+03  0.00000000000E+00 0. -1.
         36    2    1    2    0    0  0.00000000000E+00  0.26645352591E-14 -0.20501746945E+03  0.34487046626E+03  0.27731475929E+03 0.  0.
         25    2    3    3    0    0  0.13510403693E+02  0.72651371814E+01 -0.14341046490E+02  0.11746758718E+03  0.11557532262E+03 0.  0.
         25    2    3    3    0    0 -0.13510403693E+02 -0.72651371814E+01 -0.19067642296E+03  0.22740287908E+03  0.12296039165E+03 0.  0.
          5    1    4    4  502    0 -0.15916332296E+01 -0.48980931635E+02 -0.29121093170E+02  0.57199589401E+02  0.47000000000E+01 0. -1.
         -5    1    4    4    0  502  0.15102036923E+02  0.56246068817E+02  0.14780046681E+02  0.60267997780E+02  0.47000000000E+01 0. -1.
          5    1    5    5  503    0 -0.15397826031E+02  0.98218911672E+00 -0.20742921837E+03  0.20805534931E+03  0.47000000000E+01 0.  1.
         -5    1    5    5    0  503  0.18874223377E+01 -0.82473262981E+01  0.16752795411E+02  0.19347529771E+02  0.47000000000E+01 0.  1.
<mgrwt>
<rscale>  0 0.27731476E+03</rscale>
<asrwt>0</asrwt>
<pdfrwt beam="1">  1        3 0.42299072E-01 0.27731476E+03</pdfrwt>
<pdfrwt beam="2">  1       -3 0.10757923E-01 0.27731476E+03</pdfrwt>
<totfact> 0.92571219E+02</totfact>
</mgrwt>
</event>
<event>
 9    1  0.2095749E-002  0.2759597E+03  0.7818608E-02  0.1097916E+00
         -2   -1    0    0    0  501 -0.00000000000E+00  0.00000000000E+00  0.33847640154E+02  0.33847640154E+02  0.00000000000E+00 0. -1.
          2   -1    0    0  501    0  0.00000000000E+00 -0.00000000000E+00 -0.56247455168E+03  0.56247455168E+03  0.00000000000E+00 0. -1.
         36    2    1    2    0    0 -0.71054273576E-14  0.00000000000E+00 -0.52862691152E+03  0.59632219183E+03  0.27595967982E+03 0.  0.
         25    2    3    3    0    0  0.19125512772E+02  0.53227338881E+02 -0.31794791861E+03  0.34623715635E+03  0.12486134166E+03 0.  0.
         25    2    3    3    0    0 -0.19125512772E+02 -0.53227338881E+02 -0.21067899291E+03  0.25008503548E+03  0.12230270674E+03 0.  0.
          5    1    4    4  502    0 -0.32028247589E+02  0.67706323839E+02 -0.24230923357E+03  0.25366475830E+03  0.47000000000E+01 0. -1.
         -5    1    4    4    0  502  0.51153760362E+02 -0.14478984957E+02 -0.75638685045E+02  0.92572398045E+02  0.47000000000E+01 0. -1.
          5    1    5    5  503    0 -0.50981110292E+02 -0.23812208930E+02 -0.29451259886E+02  0.63683291447E+02  0.47000000000E+01 0. -1.
         -5    1    5    5    0  503  0.31855597520E+02 -0.29415129951E+02 -0.18122773302E+03  0.18640174404E+03  0.47000000000E+01 0. -1.
<mgrwt>
<rscale>  0 0.27595968E+03</rscale>
<asrwt>0</asrwt>
<pdfrwt beam="1">  1        2 0.86534540E-01 0.27595968E+03</pdfrwt>
<pdfrwt beam="2">  1       -2 0.52073297E-02 0.27595968E+03</pdfrwt>
<totfact> 0.99612604E+03</totfact>
</mgrwt>
</event>
<event>
 9    1  0.2095749E-002  0.2760407E+03  0.7818608E-02  0.1097871E+00
         -4   -1    0    0    0  501 -0.00000000000E+00  0.00000000000E+00  0.62777586690E+03  0.62777586690E+03  0.00000000000E+00 0.  1.
          4   -1    0    0  501    0  0.00000000000E+00 -0.00000000000E+00 -0.30344618241E+02  0.30344618241E+02  0.00000000000E+00 0.  1.
         36    2    1    2    0    0  0.00000000000E+00  0.00000000000E+00  0.59743124866E+03  0.65812048514E+03  0.27604071455E+03 0.  0.
         25    2    3    3    0    0 -0.87748113688E+01 -0.21826679424E+02  0.17937108520E+03  0.22146494403E+03  0.12774714862E+03 0.  0.
         25    2    3    3    0    0  0.87748113688E+01  0.21826679424E+02  0.41806016346E+03  0.43665554111E+03  0.12385620719E+03 0.  0.
          5    1    4    4  502    0 -0.37909552074E+02 -0.43082860915E+02  0.17571926619E+03  0.18491245917E+03  0.47000000000E+01 0. -1.
         -5    1    4    4    0  502  0.29134740705E+02  0.21256181491E+02  0.36518190022E+01  0.36552484862E+02  0.47000000000E+01 0. -1.
          5    1    5    5  503    0  0.55459271563E+02 -0.21557738393E+02  0.24523655663E+03  0.25239557364E+03  0.47000000000E+01 0. -1.
         -5    1    5    5    0  503 -0.46684460194E+02  0.43384417817E+02  0.17282360683E+03  0.18425996747E+03  0.47000000000E+01 0. -1.
<mgrwt>
<rscale>  0 0.27604071E+03</rscale>
<asrwt>0</asrwt>
<pdfrwt beam="1">  1        4 0.46684033E-02 0.27604071E+03</pdfrwt>
<pdfrwt beam="2">  1       -4 0.96580893E-01 0.27604071E+03</pdfrwt>
<totfact> 0.46284595E+02</totfact>
</mgrwt>
</event>
<event>
 9    1  0.2095749E-002  0.2752454E+03  0.7818608E-02  0.1098315E+00
         -1   -1    0    0    0  501 -0.00000000000E+00  0.00000000000E+00  0.55991842549E+02  0.55991842549E+02  0.00000000000E+00 0.  1.
          1   -1    0    0  501    0  0.00000000000E+00 -0.00000000000E+00 -0.33826363484E+03  0.33826363484E+03  0.00000000000E+00 0.  1.
         36    2    1    2    0    0 -0.71054273576E-14  0.35527136788E-14 -0.28227179229E+03  0.39425547739E+03  0.27524537549E+03 0.  0.
         25    2    3    3    0    0  0.33413131362E+02 -0.14266974879E+02 -0.12879289995E+03  0.19662307958E+03  0.14405915600E+03 0.  0.
         25    2    3    3    0    0 -0.33413131362E+02  0.14266974879E+02 -0.15347889234E+03  0.19763239781E+03  0.11909160487E+03 0.  0.
          5    1    4    4  502    0 -0.27877608933E+02 -0.59853880235E+02 -0.32853821065E+02  0.73899334352E+02  0.47000000000E+01 0.  1.
         -5    1    4    4    0  502  0.61290740295E+02  0.45586905356E+02 -0.95939078884E+02  0.12272374523E+03  0.47000000000E+01 0.  1.
          5    1    5    5  503    0 -0.77441841688E+02  0.17531250041E+02 -0.89231871767E+02  0.11953660741E+03  0.47000000000E+01 0. -1.
         -5    1    5    5    0  503  0.44028710326E+02 -0.32642751617E+01 -0.64247020573E+02  0.78095790397E+02  0.47000000000E+01 0. -1.
<mgrwt>
<rscale>  0 0.27524538E+03</rscale>
<asrwt>0</asrwt>
<pdfrwt beam="1">  1        1 0.52040560E-01 0.27524538E+03</pdfrwt>
<pdfrwt beam="2">  1       -1 0.86141296E-02 0.27524538E+03</pdfrwt>
<totfact> 0.57395509E+03</totfact>
</mgrwt>
</event>
<event>
 9    1  0.2095749E-002  0.2755444E+03  0.7818608E-02  0.1098148E+00
          1   -1    0    0  501    0  0.00000000000E+00  0.00000000000E+00  0.15305377673E+03  0.15305377673E+03  0.00000000000E+00 0.  1.
         -1   -1    0    0    0  501 -0.00000000000E+00 -0.00000000000E+00 -0.12401642910E+03  0.12401642910E+03  0.00000000000E+00 0.  1.
         36    2    1    2    0    0  0.00000000000E+00  0.00000000000E+00  0.29037347630E+02  0.27707020582E+03  0.27554442726E+03 0.  0.
         25    2    3    3    0    0  0.11635337350E+02  0.44122155263E+02 -0.20774898349E+02  0.13511477133E+03  0.12546816078E+03 0.  0.
         25    2    3    3    0    0 -0.11635337350E+02 -0.44122155263E+02  0.49812245979E+02  0.14195543449E+03  0.12485167148E+03 0.  0.
          5    1    4    4  502    0 -0.31423010805E+02 -0.16544015326E+02 -0.44279411060E+02  0.56954949697E+02  0.47000000000E+01 0. -1.
         -5    1    4    4    0  502  0.43058348155E+02  0.60666170589E+02  0.23504512711E+02  0.78159821633E+02  0.47000000000E+01 0. -1.
          5    1    5    5  503    0 -0.13130896519E+02  0.37283988217E+02 -0.97280404524E+01  0.40978543066E+02  0.47000000000E+01 0.  1.
         -5    1    5    5    0  503  0.14955591691E+01 -0.81406143480E+02  0.59540286431E+02  0.10097689142E+03  0.47000000000E+01 0.  1.
<mgrwt>
<rscale>  0 0.27554443E+03</rscale>
<asrwt>0</asrwt>
<pdfrwt beam="1">  1        1 0.23546735E-01 0.27554443E+03</pdfrwt>
<pdfrwt beam="2">  1       -1 0.19079451E-01 0.27554443E+03</pdfrwt>
<totfact> 0.44729215E+03</totfact>
</mgrwt>
</event>
<event>
 9    1  0.2095749E-002  0.2746723E+03  0.7818608E-02  0.1098635E+00
          1   -1    0    0  501    0  0.00000000000E+00  0.00000000000E+00  0.10762327866E+04  0.10762327866E+04  0.00000000000E+00 0. -1.
         -1   -1    0    0    0  501 -0.00000000000E+00 -0.00000000000E+00 -0.17525224993E+02  0.17525224993E+02  0.00000000000E+00 0. -1.
         36    2    1    2    0    0  0.00000000000E+00  0.00000000000E+00  0.10587075616E+04  0.10937580115E+04  0.27467232645E+03 0.  0.
         25    2    3    3    0    0  0.72101163431E+00  0.48918998804E+02  0.69844645991E+03  0.70970398780E+03  0.11601165730E+03 0.  0.
         25    2    3    3    0    0 -0.72101163431E+00 -0.48918998804E+02  0.36026110165E+03  0.38405402375E+03  0.12375719573E+03 0.  0.
          5    1    4    4  502    0 -0.36210292297E+02  0.10194503128E+02  0.55876161128E+03  0.56004619577E+03  0.47000000000E+01 0.  1.
         -5    1    4    4    0  502  0.36931303932E+02  0.38724495677E+02  0.13968484864E+03  0.14965779203E+03  0.47000000000E+01 0.  1.
          5    1    5    5  503    0  0.29635125631E+02 -0.73934207928E+02  0.14810510336E+03  0.16823114876E+03  0.47000000000E+01 0.  1.
         -5    1    5    5    0  503 -0.30356137265E+02  0.25015209124E+02  0.21215599829E+03  0.21582287499E+03  0.47000000000E+01 0.  1.
<mgrwt>
<rscale>  0 0.27467233E+03</rscale>
<asrwt>0</asrwt>
<pdfrwt beam="1">  1        1 0.16557422E+00 0.27467233E+03</pdfrwt>
<pdfrwt beam="2">  1       -1 0.26961893E-02 0.27467233E+03</pdfrwt>
<totfact> 0.61992022E+03</totfact>
</mgrwt>
</event>
<event>
 9    1  0.2095749E-002  0.2754183E+03  0.7818608E-02  0.1098218E+00
          1   -1    0    0  501    0  0.00000000000E+00  0.00000000000E+00  0.23322788870E+03  0.23322788870E+03  0.00000000000E+00 0. -1.
         -1   -1    0    0    0  501 -0.00000000000E+00 -0.00000000000E+00 -0.81310192996E+02  0.81310192996E+02  0.00000000000E+00 0. -1.
         36    2    1    2    0    0  0.00000000000E+00 -0.71054273576E-14  0.15191769571E+03  0.31453808170E+03  0.27541826114E+03 0.  0.
         25    2    3    3    0    0 -0.30578841503E+02 -0.32696177343E+02  0.45689519536E+02  0.14308081304E+03  0.12798625435E+03 0.  0.
         25    2    3    3    0    0  0.30578841503E+02  0.32696177343E+02  0.10622817617E+03  0.17145726866E+03  0.12692148756E+03 0.  0.
          5    1    4    4  502    0 -0.23398446727E+02 -0.61967502128E+01 -0.43302984199E+02  0.49830968915E+02  0.47000000000E+01 0.  1.
         -5    1    4    4    0  502 -0.71803947758E+01 -0.26499427131E+02  0.88992503736E+02  0.93249844121E+02  0.47000000000E+01 0.  1.
          5    1    5    5  503    0 -0.52972534922E+01 -0.46748432569E+02  0.38168303223E+02  0.60765008131E+02  0.47000000000E+01 0.  1.
         -5    1    5    5    0  503  0.35876094995E+02  0.79444609912E+02  0.68059872949E+02  0.11069226053E+03  0.47000000000E+01 0.  1.
<mgrwt>
<rscale>  0 0.27541826E+03</rscale>
<asrwt>0</asrwt>
<pdfrwt beam="1">  1        1 0.35881213E-01 0.27541826E+03</pdfrwt>
<pdfrwt beam="2">  1       -1 0.12509261E-01 0.27541826E+03</pdfrwt>
<totfact> 0.51396929E+03</totfact>
</mgrwt>
</event>
<event>
 9    1  0.2095749E-002  0.2752473E+03  0.7818608E-02  0.1098313E+00
          2   -1    0    0  501    0  0.00000000000E+00  0.00000000000E+00  0.62852413710E+02  0.62852413710E+02  0.00000000000E+00 0. -1.
         -2   -1    0    0    0  501 -0.00000000000E+00 -0.00000000000E+00 -0.30134502935E+03  0.30134502935E+03  0.00000000000E+00 0. -1.
         36    2    1    2    0    0 -0.22204460493E-14 -0.71054273576E-14 -0.23849261564E+03  0.36419744306E+03  0.27524725215E+03 0.  0.
         25    2    3    3    0    0  0.36211705204E+01  0.47053491320E+02 -0.11230695261E+03  0.17320438392E+03  0.12312498968E+03 0.  0.
         25    2    3    3    0    0 -0.36211705204E+01 -0.47053491320E+02 -0.12618566303E+03  0.19099305914E+03  0.13538235913E+03 0.  0.
          5    1    4    4  502    0 -0.18394910419E+01  0.59079049157E+02 -0.13447986185E+03  0.14697156534E+03  0.47000000000E+01 0.  1.
         -5    1    4    4    0  502  0.54606615624E+01 -0.12025557837E+02  0.22172909244E+02  0.26232818574E+02  0.47000000000E+01 0.  1.
          5    1    5    5  503    0 -0.18260771580E+02 -0.21011846243E+02  0.24452463304E+02  0.37349249295E+02  0.47000000000E+01 0. -1.
         -5    1    5    5    0  503  0.14639601060E+02 -0.26041645076E+02 -0.15063812633E+03  0.15364380984E+03  0.47000000000E+01 0. -1.
<mgrwt>
<rscale>  0 0.27524725E+03</rscale>
<asrwt>0</asrwt>
<pdfrwt beam="1">  1        2 0.96696020E-02 0.27524725E+03</pdfrwt>
<pdfrwt beam="2">  1       -2 0.46360774E-01 0.27524725E+03</pdfrwt>
<totfact> 0.29738245E+03</totfact>
</mgrwt>
</event>
<event>
 9    1  0.2095749E-002  0.2787969E+03  0.7818608E-02  0.1096348E+00
          2   -1    0    0  501    0  0.00000000000E+00  0.00000000000E+00  0.62205820288E+03  0.62205820288E+03  0.00000000000E+00 0. -1.
         -2   -1    0    0    0  501 -0.00000000000E+00 -0.00000000000E+00 -0.31238121180E+02  0.31238121180E+02  0.00000000000E+00 0. -1.
         36    2    1    2    0    0  0.71054273576E-14  0.00000000000E+00  0.59082008170E+03  0.65329632406E+03  0.27879691191E+03 0.  0.
         25    2    3    3    0    0 -0.51189965705E+02 -0.14871598166E+02  0.24321394730E+03  0.27898272141E+03  0.12584418008E+03 0.  0.
         25    2    3    3    0    0  0.51189965705E+02  0.14871598166E+02  0.34760613440E+03  0.37431360265E+03  0.12821494234E+03 0.  0.
          5    1    4    4  502    0 -0.70313568257E+02  0.30702705811E+02  0.92325020428E+02  0.12013597888E+03  0.47000000000E+01 0. -1.
         -5    1    4    4    0  502  0.19123602551E+02 -0.45574303977E+02  0.15088892687E+03  0.15884674252E+03  0.47000000000E+01 0. -1.
          5    1    5    5  503    0  0.18625478267E+02 -0.55934724749E+02  0.17875893847E+03  0.18828820982E+03  0.47000000000E+01 0.  1.
         -5    1    5    5    0  503  0.32564487438E+02  0.70806322914E+02  0.16884719593E+03  0.18602539284E+03  0.47000000000E+01 0.  1.
<mgrwt>
<rscale>  0 0.27879691E+03</rscale>
<asrwt>0</asrwt>
<pdfrwt beam="1">  1        2 0.95701253E-01 0.27879691E+03</pdfrwt>
<pdfrwt beam="2">  1       -2 0.48058653E-02 0.27879691E+03</pdfrwt>
<totfact> 0.10018462E+04</totfact>
</mgrwt>
</event>
<event>
 9    1  0.2095749E-002  0.2758460E+03  0.7818608E-02  0.1097980E+00
          2   -1    0    0  501    0  0.00000000000E+00  0.00000000000E+00  0.20986669278E+03  0.20986669278E+03  0.00000000000E+00 0. -1.
         -2   -1    0    0    0  501 -0.00000000000E+00 -0.00000000000E+00 -0.90642109752E+02  0.90642109752E+02  0.00000000000E+00 0. -1.
         36    2    1    2    0    0  0.00000000000E+00  0.00000000000E+00  0.11922458303E+03  0.30050880253E+03  0.27584604257E+03 0.  0.
         25    2    3    3    0    0  0.26025366743E+02  0.27414997523E+02  0.11309744398E+03  0.17600144973E+03  0.12944719645E+03 0.  0.
         25    2    3    3    0    0 -0.26025366743E+02 -0.27414997523E+02  0.61271390440E+01  0.12450735280E+03  0.11847209488E+03 0.  0.
          5    1    4    4  502    0 -0.40854534439E+02 -0.24760091522E+02  0.55415555998E+02  0.73315271008E+02  0.47000000000E+01 0.  1.
         -5    1    4    4    0  502  0.66879901182E+02  0.52175089045E+02  0.57681887986E+02  0.10268617872E+03  0.47000000000E+01 0.  1.
          5    1    5    5  503    0 -0.72754822998E+02 -0.23368186895E+02  0.99952897134E+01  0.77209664193E+02  0.47000000000E+01 0. -1.
         -5    1    5    5    0  503  0.46729456255E+02 -0.40468106284E+01 -0.38681506694E+01  0.47297688609E+02  0.47000000000E+01 0. -1.
<mgrwt>
<rscale>  0 0.27584604E+03</rscale>
<asrwt>0</asrwt>
<pdfrwt beam="1">  1        2 0.32287183E-01 0.27584604E+03</pdfrwt>
<pdfrwt beam="2">  1       -2 0.13944940E-01 0.27584604E+03</pdfrwt>
<totfact> 0.62003797E+03</totfact>
</mgrwt>
</event>
<event>
 9    1  0.2095749E-002  0.2746964E+03  0.7818608E-02  0.1098621E+00
         -2   -1    0    0    0  501 -0.00000000000E+00  0.00000000000E+00  0.81069812712E+03  0.81069812712E+03  0.00000000000E+00 0.  1.
          2   -1    0    0  501    0  0.00000000000E+00 -0.00000000000E+00 -0.23269491726E+02  0.23269491726E+02  0.00000000000E+00 0.  1.
         36    2    1    2    0    0  0.00000000000E+00  0.00000000000E+00  0.78742863539E+03  0.83396761885E+03  0.27469643872E+03 0.  0.
         25    2    3    3    0    0  0.33764010846E+02  0.48134973596E+02  0.49099693191E+03  0.50848629322E+03  0.11842018044E+03 0.  0.
         25    2    3    3    0    0 -0.33764010846E+02 -0.48134973596E+02  0.29643170348E+03  0.32548132563E+03  0.12086916228E+03 0.  0.
          5    1    4    4  502    0 -0.21037417515E+02  0.43193746399E+02  0.77409419062E+02  0.91228179985E+02  0.47000000000E+01 0.  1.
         -5    1    4    4    0  502  0.54801428361E+02  0.49412271966E+01  0.41358751285E+03  0.41725811324E+03  0.47000000000E+01 0.  1.
          5    1    5    5  503    0 -0.13877687521E+02 -0.37535038451E+01  0.26904477428E+03  0.26946958932E+03  0.47000000000E+01 0.  1.
         -5    1    5    5    0  503 -0.19886323325E+02 -0.44381469751E+02  0.27386929202E+02  0.56011736304E+02  0.47000000000E+01 0.  1.
<mgrwt>
<rscale>  0 0.27469644E+03</rscale>
<asrwt>0</asrwt>
<pdfrwt beam="1">  1        2 0.35799224E-02 0.27469644E+03</pdfrwt>
<pdfrwt beam="2">  1       -2 0.12472277E+00 0.27469644E+03</pdfrwt>
<totfact> 0.12439298E+03</totfact>
</mgrwt>
</event>
<event>
 9    1  0.2095749E-002  0.2754583E+03  0.7818608E-02  0.1098196E+00
         -2   -1    0    0    0  501 -0.00000000000E+00  0.00000000000E+00  0.34466375076E+02  0.34466375076E+02  0.00000000000E+00 0.  1.
          2   -1    0    0  501    0  0.00000000000E+00 -0.00000000000E+00 -0.55037165071E+03  0.55037165071E+03  0.00000000000E+00 0.  1.
         36    2    1    2    0    0 -0.35527136788E-14  0.14210854715E-13 -0.51590527563E+03  0.58483802578E+03  0.27545827811E+03 0.  0.
         25    2    3    3    0    0  0.17186766033E+02 -0.37245082373E+02 -0.32654205678E+03  0.35142036034E+03  0.12322326779E+03 0.  0.
         25    2    3    3    0    0 -0.17186766033E+02  0.37245082373E+02 -0.18936321885E+03  0.23341766545E+03  0.13016449900E+03 0.  0.
          5    1    4    4  502    0 -0.41040030172E+02 -0.48316257554E+02 -0.22444146881E+03  0.23326981747E+03  0.47000000000E+01 0.  1.
         -5    1    4    4    0  502  0.58226796204E+02  0.11071175181E+02 -0.10210058797E+03  0.11815054287E+03  0.47000000000E+01 0.  1.
          5    1    5    5  503    0  0.18849883663E+02  0.78170538670E+02 -0.97307999526E+02  0.12632057632E+03  0.47000000000E+01 0. -1.
         -5    1    5    5    0  503 -0.36036649695E+02 -0.40925456296E+02 -0.92055219327E+02  0.10709708913E+03  0.47000000000E+01 0. -1.
<mgrwt>
<rscale>  0 0.27545828E+03</rscale>
<asrwt>0</asrwt>
<pdfrwt beam="1">  1        2 0.84672564E-01 0.27545828E+03</pdfrwt>
<pdfrwt beam="2">  1       -2 0.53025191E-02 0.27545828E+03</pdfrwt>
<totfact> 0.99330360E+03</totfact>
</mgrwt>
</event>
<event>
 9    1  0.2095749E-002  0.2773686E+03  0.7818608E-02  0.1097135E+00
         -2   -1    0    0    0  501 -0.00000000000E+00  0.00000000000E+00  0.49141348577E+02  0.49141348577E+02  0.00000000000E+00 0. -1.
          2   -1    0    0  501    0  0.00000000000E+00 -0.00000000000E+00 -0.39138811818E+03  0.39138811818E+03  0.00000000000E+00 0. -1.
         36    2    1    2    0    0 -0.71054273576E-14  0.00000000000E+00 -0.34224676960E+03  0.44052946675E+03  0.27736863517E+03 0.  0.
         25    2    3    3    0    0 -0.11257524246E+02  0.18687406323E+02 -0.25835955168E+03  0.28903826670E+03  0.12774001200E+03 0.  0.
         25    2    3    3    0    0  0.11257524246E+02 -0.18687406323E+02 -0.83887217919E+02  0.15149120005E+03  0.12424398318E+03 0.  0.
          5    1    4    4  502    0 -0.53162547004E+02  0.32890675900E+02 -0.63763533634E+02  0.89419970849E+02  0.47000000000E+01 0.  1.
         -5    1    4    4    0  502  0.41905022758E+02 -0.14203269578E+02 -0.19459601805E+03  0.19961829585E+03  0.47000000000E+01 0.  1.
          5    1    5    5  503    0 -0.42961573894E+02 -0.44239588996E+02 -0.23170464238E+02  0.66043913262E+02  0.47000000000E+01 0.  1.
         -5    1    5    5    0  503  0.54219098140E+02  0.25552182673E+02 -0.60716753681E+02  0.85447286792E+02  0.47000000000E+01 0.  1.
<mgrwt>
<rscale>  0 0.27736864E+03</rscale>
<asrwt>0</asrwt>
<pdfrwt beam="1">  1        2 0.60213555E-01 0.27736864E+03</pdfrwt>
<pdfrwt beam="2">  1       -2 0.75602077E-02 0.27736864E+03</pdfrwt>
<totfact> 0.83958007E+03</totfact>
</mgrwt>
</event>
<event>
 9    1  0.2095749E-002  0.2754301E+03  0.7818608E-02  0.1098211E+00
         -2   -1    0    0    0  501 -0.00000000000E+00  0.00000000000E+00  0.65820481515E+02  0.65820481515E+02  0.00000000000E+00 0.  1.
          2   -1    0    0  501    0  0.00000000000E+00 -0.00000000000E+00 -0.28813890869E+03  0.28813890869E+03  0.00000000000E+00 0.  1.
         36    2    1    2    0    0  0.00000000000E+00  0.00000000000E+00 -0.22231842717E+03  0.35395939020E+03  0.27543014877E+03 0.  0.
         25    2    3    3    0    0  0.19106562509E+02 -0.43331888999E+02 -0.65115960029E+02  0.14900050178E+03  0.12537283575E+03 0.  0.
         25    2    3    3    0    0 -0.19106562509E+02  0.43331888999E+02 -0.15720246715E+03  0.20495888843E+03  0.12268992189E+03 0.  0.
          5    1    4    4  502    0 -0.32950564364E+02  0.36842851752E+01  0.19687008847E+02  0.38845617082E+02  0.47000000000E+01 0.  1.
         -5    1    4    4    0  502  0.52057126873E+02 -0.47016174174E+02 -0.84802968876E+02  0.11015488470E+03  0.47000000000E+01 0.  1.
          5    1    5    5  503    0  0.16974041515E+02 -0.75257563822E+00  0.15231586857E+02  0.23297546944E+02  0.47000000000E+01 0. -1.
         -5    1    5    5    0  503 -0.36080604024E+02  0.44084464637E+02 -0.17243405400E+03  0.18166134148E+03  0.47000000000E+01 0. -1.
<mgrwt>
<rscale>  0 0.27543015E+03</rscale>
<asrwt>0</asrwt>
<pdfrwt beam="1">  1        2 0.44329062E-01 0.27543015E+03</pdfrwt>
<pdfrwt beam="2">  1       -2 0.10126228E-01 0.27543015E+03</pdfrwt>
<totfact> 0.73749956E+03</totfact>
</mgrwt>
</event>
<event>
 9    1  0.2095749E-002  0.2761297E+03  0.7818608E-02  0.1097822E+00
         -2   -1    0    0    0  501 -0.00000000000E+00  0.00000000000E+00  0.31089177768E+02  0.31089177768E+02  0.00000000000E+00 0. -1.
          2   -1    0    0  501    0  0.00000000000E+00 -0.00000000000E+00 -0.61313617399E+03  0.61313617399E+03  0.00000000000E+00 0. -1.
         36    2    1    2    0    0  0.00000000000E+00 -0.35527136788E-14 -0.58204699623E+03  0.64422535176E+03  0.27612967612E+03 0.  0.
         25    2    3    3    0    0  0.40659356554E+02  0.30758549115E+02 -0.23306860366E+03  0.26984752195E+03  0.12608504856E+03 0.  0.
         25    2    3    3    0    0 -0.40659356554E+02 -0.30758549115E+02 -0.34897839257E+03  0.37437782982E+03  0.12559287146E+03 0.  0.
          5    1    4    4  502    0  0.49822417693E+02  0.74360276478E+02 -0.17380151677E+03  0.19555250255E+03  0.47000000000E+01 0. -1.
         -5    1    4    4    0  502 -0.91630611386E+01 -0.43601727362E+02 -0.59267086895E+02  0.74295019399E+02  0.47000000000E+01 0. -1.
          5    1    5    5  503    0 -0.79934799387E+02 -0.46094592069E+02 -0.25649397104E+03  0.27262709101E+03  0.47000000000E+01 0.  1.
         -5    1    5    5    0  503  0.39275442832E+02  0.15336042954E+02 -0.92484421522E+02  0.10175073880E+03  0.47000000000E+01 0.  1.
<mgrwt>
<rscale>  0 0.27612968E+03</rscale>
<asrwt>0</asrwt>
<pdfrwt beam="1">  1        2 0.94328645E-01 0.27612968E+03</pdfrwt>
<pdfrwt beam="2">  1       -2 0.47829503E-02 0.27612968E+03</pdfrwt>
<totfact> 0.10259813E+04</totfact>
</mgrwt>
</event>
<event>
 9    1  0.2095749E-002  0.2756576E+03  0.7818608E-02  0.1098085E+00
          2   -1    0    0  501    0  0.00000000000E+00  0.00000000000E+00  0.12855627861E+04  0.12855627861E+04  0.00000000000E+00 0.  1.
         -2   -1    0    0    0  501 -0.00000000000E+00 -0.00000000000E+00 -0.14777012016E+02  0.14777012016E+02  0.00000000000E+00 0.  1.
         36    2    1    2    0    0  0.17763568394E-14  0.00000000000E+00  0.12707857740E+04  0.13003397981E+04  0.27565759004E+03 0.  0.
         25    2    3    3    0    0  0.64086519840E+01  0.41313688385E+02  0.46088616039E+03  0.47982267320E+03  0.12675114678E+03 0.  0.
         25    2    3    3    0    0 -0.64086519840E+01 -0.41313688385E+02  0.80989961365E+03  0.82051712487E+03  0.12475205949E+03 0.  0.
          5    1    4    4  502    0 -0.16442906479E+01 -0.11866266420E+02 -0.26617820685E+01  0.13141044641E+02  0.47000000000E+01 0.  1.
         -5    1    4    4    0  502  0.80529426319E+01  0.53179954805E+02  0.46354794246E+03  0.46668162856E+03  0.47000000000E+01 0.  1.
          5    1    5    5  503    0 -0.51309956570E+02  0.14628797423E+02  0.47365947171E+03  0.47667819176E+03  0.47000000000E+01 0. -1.
         -5    1    5    5    0  503  0.44901304586E+02 -0.55942485808E+02  0.33624014194E+03  0.34383893312E+03  0.47000000000E+01 0. -1.
<mgrwt>
<rscale>  0 0.27565759E+03</rscale>
<asrwt>0</asrwt>
<pdfrwt beam="1">  1        2 0.19777880E+00 0.27565759E+03</pdfrwt>
<pdfrwt beam="2">  1       -2 0.22733875E-02 0.27565759E+03</pdfrwt>
<totfact> 0.11426999E+04</totfact>
</mgrwt>
</event>
<event>
 9    1  0.2095749E-002  0.2750100E+03  0.7818608E-02  0.1098446E+00
          1   -1    0    0  501    0  0.00000000000E+00  0.00000000000E+00  0.52240537107E+03  0.52240537107E+03  0.00000000000E+00 0. -1.
         -1   -1    0    0    0  501 -0.00000000000E+00 -0.00000000000E+00 -0.36193388574E+02  0.36193388574E+02  0.00000000000E+00 0. -1.
         36    2    1    2    0    0  0.35527136788E-14  0.71054273576E-14  0.48621198250E+03  0.55859875965E+03  0.27500996774E+03 0.  0.
         25    2    3    3    0    0 -0.24599328348E+01 -0.45159353399E+02  0.16685203808E+03  0.21372379530E+03  0.12566956512E+03 0.  0.
         25    2    3    3    0    0  0.24599328348E+01  0.45159353399E+02  0.31935994442E+03  0.34487496435E+03  0.12207599463E+03 0.  0.
          5    1    4    4  502    0  0.40909704725E+02 -0.76910819832E+01  0.52787776869E+01  0.42222176360E+02  0.47000000000E+01 0.  1.
         -5    1    4    4    0  502 -0.43369637560E+02 -0.37468271416E+02  0.16157326039E+03  0.17150161894E+03  0.47000000000E+01 0.  1.
          5    1    5    5  503    0  0.20729657938E+02  0.34836803267E+02  0.32074076793E+03  0.32332654050E+03  0.47000000000E+01 0.  1.
         -5    1    5    5    0  503 -0.18269725104E+02  0.10322550132E+02 -0.13808235126E+01  0.21548423844E+02  0.47000000000E+01 0.  1.
<mgrwt>
<rscale>  0 0.27500997E+03</rscale>
<asrwt>0</asrwt>
<pdfrwt beam="1">  1        1 0.80370051E-01 0.27500997E+03</pdfrwt>
<pdfrwt beam="2">  1       -1 0.55682140E-02 0.27500997E+03</pdfrwt>
<totfact> 0.63394716E+03</totfact>
</mgrwt>
</event>
<event>
 9    1  0.2095749E-002  0.2754653E+03  0.7818608E-02  0.1098192E+00
          2   -1    0    0  501    0  0.00000000000E+00  0.00000000000E+00  0.12058978278E+03  0.12058978278E+03  0.00000000000E+00 0.  1.
         -2   -1    0    0    0  501 -0.00000000000E+00 -0.00000000000E+00 -0.15731257343E+03  0.15731257343E+03  0.00000000000E+00 0.  1.
         36    2    1    2    0    0  0.00000000000E+00 -0.53290705182E-14 -0.36722790645E+02  0.27790235621E+03  0.27546534489E+03 0.  0.
         25    2    3    3    0    0 -0.53473938303E+02  0.11129968253E+02  0.59147225114E+01  0.13602732303E+03  0.12443918353E+03 0.  0.
         25    2    3    3    0    0  0.53473938303E+02 -0.11129968253E+02 -0.42637513157E+02  0.14187503317E+03  0.12380318751E+03 0.  0.
          5    1    4    4  502    0 -0.49853106922E+02  0.50827866322E+02 -0.34336763851E+02  0.79182748225E+02  0.47000000000E+01 0.  1.
         -5    1    4    4    0  502 -0.36208313808E+01 -0.39697898069E+02  0.40251486363E+02  0.56844574810E+02  0.47000000000E+01 0.  1.
          5    1    5    5  503    0  0.65264622526E+02 -0.13921697115E+02 -0.78847382876E+02  0.10340350280E+03  0.47000000000E+01 0.  1.
         -5    1    5    5    0  503 -0.11790684224E+02  0.27917288611E+01  0.36209869719E+02  0.38471530378E+02  0.47000000000E+01 0.  1.
<mgrwt>
<rscale>  0 0.27546534E+03</rscale>
<asrwt>0</asrwt>
<pdfrwt beam="1">  1        2 0.18552274E-01 0.27546534E+03</pdfrwt>
<pdfrwt beam="2">  1       -2 0.24201934E-01 0.27546534E+03</pdfrwt>
<totfact> 0.45348815E+03</totfact>
</mgrwt>
</event>
<event>
 9    1  0.2095749E-002  0.2741003E+03  0.7818608E-02  0.1098956E+00
         -2   -1    0    0    0  501 -0.00000000000E+00  0.00000000000E+00  0.20591813691E+02  0.20591813691E+02  0.00000000000E+00 0. -1.
          2   -1    0    0  501    0  0.00000000000E+00 -0.00000000000E+00 -0.91214585476E+03  0.91214585476E+03  0.00000000000E+00 0. -1.
         36    2    1    2    0    0 -0.35527136788E-14  0.00000000000E+00 -0.89155404107E+03  0.93273766845E+03  0.27410025538E+03 0.  0.
         25    2    3    3    0    0 -0.93798914185E+01  0.14154253102E+02 -0.39891299466E+03  0.42037959385E+03  0.13152604445E+03 0.  0.
         25    2    3    3    0    0  0.93798914185E+01 -0.14154253102E+02 -0.49264104640E+03  0.51235807460E+03  0.13974001132E+03 0.  0.
          5    1    4    4  502    0  0.15685857980E+02 -0.42370867351E+02 -0.56988909720E+02  0.72877722054E+02  0.47000000000E+01 0. -1.
         -5    1    4    4    0  502 -0.25065749398E+02  0.56525120454E+02 -0.34192408494E+03  0.34750187179E+03  0.47000000000E+01 0. -1.
          5    1    5    5  503    0 -0.54238049765E+02 -0.33117331125E+02 -0.14470107105E+03  0.15811076379E+03  0.47000000000E+01 0.  1.
         -5    1    5    5    0  503  0.63617941183E+02  0.18963078023E+02 -0.34793997535E+03  0.35424731081E+03  0.47000000000E+01 0.  1.
<mgrwt>
<rscale>  0 0.27410026E+03</rscale>
<asrwt>0</asrwt>
<pdfrwt beam="1">  1        2 0.14033015E+00 0.27410026E+03</pdfrwt>
<pdfrwt beam="2">  1       -2 0.31679709E-02 0.27410026E+03</pdfrwt>
<totfact> 0.11611538E+04</totfact>
</mgrwt>
</event>
<event>
 9    1  0.2095749E-002  0.2745206E+03  0.7818608E-02  0.1098720E+00
          2   -1    0    0  501    0  0.00000000000E+00  0.00000000000E+00  0.11598263752E+04  0.11598263752E+04  0.00000000000E+00 0.  1.
         -2   -1    0    0    0  501 -0.00000000000E+00 -0.00000000000E+00 -0.16244142556E+02  0.16244142556E+02  0.00000000000E+00 0.  1.
         36    2    1    2    0    0  0.71054273576E-14  0.00000000000E+00  0.11435822326E+04  0.11760705177E+04  0.27452056374E+03 0.  0.
         25    2    3    3    0    0  0.40177574429E+02  0.32788898828E+02  0.68080566660E+03  0.69402351192E+03  0.12443042252E+03 0.  0.
         25    2    3    3    0    0 -0.40177574429E+02 -0.32788898828E+02  0.46277656602E+03  0.48204700582E+03  0.12457052774E+03 0.  0.
          5    1    4    4  502    0  0.55884317707E+02  0.10021722555E+02  0.12344092768E+03  0.13595309674E+03  0.47000000000E+01 0. -1.
         -5    1    4    4    0  502 -0.15706743278E+02  0.22767176273E+02  0.55736473892E+03  0.55807041517E+03  0.47000000000E+01 0. -1.
          5    1    5    5  503    0  0.66696305978E+01 -0.70987821710E+02  0.29867290853E+03  0.30710153222E+03  0.47000000000E+01 0.  1.
         -5    1    5    5    0  503 -0.46847205027E+02  0.38198922882E+02  0.16410365750E+03  0.17494547360E+03  0.47000000000E+01 0.  1.
<mgrwt>
<rscale>  0 0.27452056E+03</rscale>
<asrwt>0</asrwt>
<pdfrwt beam="1">  1        2 0.17843476E+00 0.27452056E+03</pdfrwt>
<pdfrwt beam="2">  1       -2 0.24990998E-02 0.27452056E+03</pdfrwt>
<totfact> 0.11699140E+04</totfact>
</mgrwt>
</event>
<event>
 9    1  0.2095749E-002  0.2750820E+03  0.7818608E-02  0.1098406E+00
         -3   -1    0    0    0  501 -0.00000000000E+00  0.00000000000E+00  0.35960530873E+02  0.35960530873E+02  0.00000000000E+00 0. -1.
          3   -1    0    0  501    0  0.00000000000E+00 -0.00000000000E+00 -0.52606357299E+03  0.52606357299E+03  0.00000000000E+00 0. -1.
         36    2    1    2    0    0 -0.71054273576E-14  0.71054273576E-14 -0.49010304212E+03  0.56202410387E+03  0.27508199038E+03 0.  0.
         25    2    3    3    0    0 -0.55073685439E+02  0.49598727184E+01 -0.28017481547E+03  0.31111941194E+03  0.12344897772E+03 0.  0.
         25    2    3    3    0    0  0.55073685439E+02 -0.49598727184E+01 -0.20992822665E+03  0.25090469192E+03  0.12579981288E+03 0.  0.
          5    1    4    4  502    0 -0.52674331366E+02 -0.21485127646E+02 -0.40638021832E+02  0.70069499165E+02  0.47000000000E+01 0.  1.
         -5    1    4    4    0  502 -0.23993540734E+01  0.26445000365E+02 -0.23953679363E+03  0.24104991278E+03  0.47000000000E+01 0.  1.
          5    1    5    5  503    0  0.28669281141E+02 -0.55450292616E+02 -0.47125732134E+02  0.78355518386E+02  0.47000000000E+01 0.  1.
         -5    1    5    5    0  503  0.26404404299E+02  0.50490419898E+02 -0.16280249452E+03  0.17254917354E+03  0.47000000000E+01 0.  1.
<mgrwt>
<rscale>  0 0.27508199E+03</rscale>
<asrwt>0</asrwt>
<pdfrwt beam="1">  1        3 0.80932857E-01 0.27508199E+03</pdfrwt>
<pdfrwt beam="2">  1       -3 0.55323894E-02 0.27508199E+03</pdfrwt>
<totfact> 0.71687421E+02</totfact>
</mgrwt>
</event>
<event>
 9    1  0.2095749E-002  0.2747504E+03  0.7818608E-02  0.1098591E+00
         -1   -1    0    0    0  501 -0.00000000000E+00  0.00000000000E+00  0.87082019282E+01  0.87082019282E+01  0.00000000000E+00 0.  1.
          1   -1    0    0  501    0  0.00000000000E+00 -0.00000000000E+00 -0.21671459214E+04  0.21671459214E+04  0.00000000000E+00 0.  1.
         36    2    1    2    0    0  0.00000000000E+00  0.00000000000E+00 -0.21584377195E+04  0.21758541233E+04  0.27475039066E+03 0.  0.
         25    2    3    3    0    0 -0.10618782564E+01  0.11092302447E+02 -0.15120155076E+04  0.15171349990E+04  0.12403041286E+03 0.  0.
         25    2    3    3    0    0  0.10618782564E+01 -0.11092302447E+02 -0.64642221190E+03  0.65871912433E+03  0.12619446085E+03 0.  0.
          5    1    4    4  502    0  0.18215243066E+02  0.46518998518E+02 -0.28067378692E+03  0.28512396772E+03  0.47000000000E+01 0.  1.
         -5    1    4    4    0  502 -0.19277121323E+02 -0.35426696070E+02 -0.12313417207E+04  0.12320110313E+04  0.47000000000E+01 0.  1.
          5    1    5    5  503    0 -0.29698192489E+02 -0.60911860346E+02 -0.35214719922E+03  0.35863906269E+03  0.47000000000E+01 0.  1.
         -5    1    5    5    0  503  0.30760070745E+02  0.49819557899E+02 -0.29427501269E+03  0.30008006164E+03  0.47000000000E+01 0.  1.
<mgrwt>
<rscale>  0 0.27475039E+03</rscale>
<asrwt>0</asrwt>
<pdfrwt beam="1">  1        1 0.33340719E+00 0.27475039E+03</pdfrwt>
<pdfrwt beam="2">  1       -1 0.13397229E-02 0.27475039E+03</pdfrwt>
<totfact> 0.32311627E+03</totfact>
</mgrwt>
</event>
<event>
 9    1  0.2095749E-002  0.2746815E+03  0.7818608E-02  0.1098630E+00
          2   -1    0    0  501    0  0.00000000000E+00  0.00000000000E+00  0.38613832602E+02  0.38613832602E+02  0.00000000000E+00 0. -1.
         -2   -1    0    0    0  501 -0.00000000000E+00 -0.00000000000E+00 -0.48849021836E+03  0.48849021836E+03  0.00000000000E+00 0. -1.
         36    2    1    2    0    0 -0.71054273576E-14  0.00000000000E+00 -0.44987638576E+03  0.52710405096E+03  0.27468148477E+03 0.  0.
         25    2    3    3    0    0 -0.48459826094E+02  0.15243283815E+02 -0.19903795203E+03  0.24349021626E+03  0.13073127636E+03 0.  0.
         25    2    3    3    0    0  0.48459826094E+02 -0.15243283815E+02 -0.25083843373E+03  0.28361383471E+03  0.12221364471E+03 0.  0.
          5    1    4    4  502    0 -0.70184736171E+02 -0.22333250858E+02 -0.18240662378E+03  0.19677128267E+03  0.47000000000E+01 0.  1.
         -5    1    4    4    0  502  0.21724910077E+02  0.37576534673E+02 -0.16631328245E+02  0.46718933583E+02  0.47000000000E+01 0.  1.
          5    1    5    5  503    0  0.80192728232E+02 -0.19038403420E+02 -0.10156369878E+03  0.13088395385E+03  0.47000000000E+01 0. -1.
         -5    1    5    5    0  503 -0.31732902138E+02  0.37951196058E+01 -0.14927473495E+03  0.15272988085E+03  0.47000000000E+01 0. -1.
<mgrwt>
<rscale>  0 0.27468148E+03</rscale>
<asrwt>0</asrwt>
<pdfrwt beam="1">  1        2 0.59405892E-02 0.27468148E+03</pdfrwt>
<pdfrwt beam="2">  1       -2 0.75152347E-01 0.27468148E+03</pdfrwt>
<totfact> 0.20418352E+03</totfact>
</mgrwt>
</event>
<event>
 9    1  0.2095749E-002  0.2751214E+03  0.7818608E-02  0.1098384E+00
          2   -1    0    0  501    0  0.00000000000E+00  0.00000000000E+00  0.12535991417E+04  0.12535991417E+04  0.00000000000E+00 0.  1.
         -2   -1    0    0    0  501 -0.00000000000E+00 -0.00000000000E+00 -0.15094895778E+02  0.15094895778E+02  0.00000000000E+00 0.  1.
         36    2    1    2    0    0  0.00000000000E+00  0.17763568394E-14  0.12385042460E+04  0.12686940375E+04  0.27512141604E+03 0.  0.
         25    2    3    3    0    0 -0.68640268761E+01  0.15145091512E+02  0.36628493470E+03  0.38642383414E+03  0.12199277659E+03 0.  0.
         25    2    3    3    0    0  0.68640268761E+01 -0.15145091512E+02  0.87221931126E+03  0.88227020338E+03  0.13174860974E+03 0.  0.
          5    1    4    4  502    0  0.26468903980E+02  0.20815055492E+01  0.10697839531E+02  0.29008090490E+02  0.47000000000E+01 0. -1.
         -5    1    4    4    0  502 -0.33332930856E+02  0.13063585963E+02  0.35558709517E+03  0.35741574365E+03  0.47000000000E+01 0. -1.
          5    1    5    5  503    0 -0.41525010217E+02 -0.61445873658E+01  0.10112200239E+03  0.10958937811E+03  0.47000000000E+01 0.  1.
         -5    1    5    5    0  503  0.48389037093E+02 -0.90005041464E+01  0.77109730887E+03  0.77268082526E+03  0.47000000000E+01 0.  1.
<mgrwt>
<rscale>  0 0.27512142E+03</rscale>
<asrwt>0</asrwt>
<pdfrwt beam="1">  1        2 0.19286132E+00 0.27512142E+03</pdfrwt>
<pdfrwt beam="2">  1       -2 0.23222926E-02 0.27512142E+03</pdfrwt>
<totfact> 0.11536963E+04</totfact>
</mgrwt>
</event>
<event>
 9    1  0.2095749E-002  0.2736443E+03  0.7818608E-02  0.1099212E+00
          1   -1    0    0  501    0  0.00000000000E+00  0.00000000000E+00  0.26688875114E+03  0.26688875114E+03  0.00000000000E+00 0. -1.
         -1   -1    0    0    0  501 -0.00000000000E+00 -0.00000000000E+00 -0.70142713398E+02  0.70142713398E+02  0.00000000000E+00 0. -1.
         36    2    1    2    0    0  0.00000000000E+00  0.00000000000E+00  0.19674603774E+03  0.33703146454E+03  0.27364430329E+03 0.  0.
         25    2    3    3    0    0 -0.42633495635E+02  0.26213025928E+02  0.98466603074E+02  0.16995748096E+03  0.12917095547E+03 0.  0.
         25    2    3    3    0    0  0.42633495635E+02 -0.26213025928E+02  0.98279434666E+02  0.16707398357E+03  0.12549952602E+03 0.  0.
          5    1    4    4  502    0 -0.21197854213E+02  0.34240885263E+02 -0.22762146953E+02  0.46497231969E+02  0.47000000000E+01 0.  1.
         -5    1    4    4    0  502 -0.21435641422E+02 -0.80278593356E+01  0.12122875003E+03  0.12346024899E+03  0.47000000000E+01 0.  1.
          5    1    5    5  503    0  0.24506030047E+02  0.26744918724E+02  0.10435029671E+03  0.11057536167E+03  0.47000000000E+01 0.  1.
         -5    1    5    5    0  503  0.18127465588E+02 -0.52957944652E+02 -0.60708620431E+01  0.56498621898E+02  0.47000000000E+01 0.  1.
<mgrwt>
<rscale>  0 0.27364430E+03</rscale>
<asrwt>0</asrwt>
<pdfrwt beam="1">  1        1 0.41059807E-01 0.27364430E+03</pdfrwt>
<pdfrwt beam="2">  1       -1 0.10791187E-01 0.27364430E+03</pdfrwt>
<totfact> 0.54623520E+03</totfact>
</mgrwt>
</event>
<event>
 9    1  0.2095749E-002  0.2745267E+03  0.7818608E-02  0.1098716E+00
         -2   -1    0    0    0  501 -0.00000000000E+00  0.00000000000E+00  0.10931571859E+02  0.10931571859E+02  0.00000000000E+00 0.  1.
          2   -1    0    0  501    0  0.00000000000E+00 -0.00000000000E+00 -0.17235603355E+04  0.17235603355E+04  0.00000000000E+00 0.  1.
         36    2    1    2    0    0  0.71054273576E-14  0.71054273576E-14 -0.17126287636E+04  0.17344919074E+04  0.27452667383E+03 0.  0.
         25    2    3    3    0    0  0.17784668812E+00 -0.53748018643E+02 -0.89269220377E+03  0.90291471979E+03  0.12436534649E+03 0.  0.
         25    2    3    3    0    0 -0.17784668812E+00  0.53748018643E+02 -0.81993655988E+03  0.83157718757E+03  0.12781148435E+03 0.  0.
          5    1    4    4  502    0 -0.48497283204E+02 -0.67904369898E+02 -0.50012677301E+03  0.50706199720E+03  0.47000000000E+01 0. -1.
         -5    1    4    4    0  502  0.48675129892E+02  0.14156351255E+02 -0.39256543076E+03  0.39585272259E+03  0.47000000000E+01 0. -1.
          5    1    5    5  503    0 -0.36415259781E+02  0.67868988119E+02 -0.72176437521E+03  0.72587751999E+03  0.47000000000E+01 0.  1.
         -5    1    5    5    0  503  0.36237413092E+02 -0.14120969476E+02 -0.98172184664E+02  0.10569966759E+03  0.47000000000E+01 0.  1.
<mgrwt>
<rscale>  0 0.27452667E+03</rscale>
<asrwt>0</asrwt>
<pdfrwt beam="1">  1        2 0.26516315E+00 0.27452667E+03</pdfrwt>
<pdfrwt beam="2">  1       -2 0.16817802E-02 0.27452667E+03</pdfrwt>
<totfact> 0.10356874E+04</totfact>
</mgrwt>
</event>
<event>
 9    1  0.2095749E-002  0.2751427E+03  0.7818608E-02  0.1098372E+00
         -2   -1    0    0    0  501 -0.00000000000E+00  0.00000000000E+00  0.21381385156E+02  0.21381385156E+02  0.00000000000E+00 0.  1.
          2   -1    0    0  501    0  0.00000000000E+00 -0.00000000000E+00 -0.88515670039E+03  0.88515670039E+03  0.00000000000E+00 0.  1.
         36    2    1    2    0    0  0.00000000000E+00  0.00000000000E+00 -0.86377531523E+03  0.90653808554E+03  0.27514269995E+03 0.  0.
         25    2    3    3    0    0 -0.71372305932E+01 -0.52534476557E+02 -0.41949282330E+03  0.44159407124E+03  0.12735887744E+03 0.  0.
         25    2    3    3    0    0  0.71372305932E+01  0.52534476557E+02 -0.44428249193E+03  0.46494401430E+03  0.12639300818E+03 0.  0.
          5    1    4    4  502    0 -0.26816874151E+02 -0.90684986189E+02 -0.29522023494E+03  0.31003223797E+03  0.47000000000E+01 0. -1.
         -5    1    4    4    0  502  0.19679643558E+02  0.38150509632E+02 -0.12427258836E+03  0.13156183327E+03  0.47000000000E+01 0. -1.
          5    1    5    5  503    0  0.44415504187E+02  0.55699017849E+02 -0.12920422062E+03  0.14761754038E+03  0.47000000000E+01 0. -1.
         -5    1    5    5    0  503 -0.37278273594E+02 -0.31645412920E+01 -0.31507827131E+03  0.31732647393E+03  0.47000000000E+01 0. -1.
<mgrwt>
<rscale>  0 0.27514270E+03</rscale>
<asrwt>0</asrwt>
<pdfrwt beam="1">  1        2 0.13617800E+00 0.27514270E+03</pdfrwt>
<pdfrwt beam="2">  1       -2 0.32894428E-02 0.27514270E+03</pdfrwt>
<totfact> 0.11429133E+04</totfact>
</mgrwt>
</event>
<event>
 9    1  0.2095749E-002  0.2747189E+03  0.7818608E-02  0.1098609E+00
          1   -1    0    0  501    0  0.00000000000E+00  0.00000000000E+00  0.27446322837E+04  0.27446322837E+04  0.00000000000E+00 0.  1.
         -1   -1    0    0    0  501 -0.00000000000E+00 -0.00000000000E+00 -0.68743724975E+01  0.68743724975E+01  0.00000000000E+00 0.  1.
         36    2    1    2    0    0  0.00000000000E+00 -0.71054273576E-14  0.27377579112E+04  0.27515066562E+04  0.27471894501E+03 0.  0.
         25    2    3    3    0    0 -0.24232525001E+02  0.15044091494E+02  0.13227783897E+04  0.13298484147E+04  0.13394251692E+03 0.  0.
         25    2    3    3    0    0  0.24232525001E+02 -0.15044091494E+02  0.14149795215E+04  0.14216582415E+04  0.13465351618E+03 0.  0.
          5    1    4    4  502    0 -0.65879223745E+01  0.74119661732E+02  0.66320257786E+03  0.66738060675E+03  0.47000000000E+01 0. -1.
         -5    1    4    4    0  502 -0.17644602627E+02 -0.59075570239E+02  0.65957581185E+03  0.66246780796E+03  0.47000000000E+01 0. -1.
          5    1    5    5  503    0 -0.30662375248E+01 -0.70133388276E+02  0.95104453319E+03  0.95364348059E+03  0.47000000000E+01 0.  1.
         -5    1    5    5    0  503  0.27298762526E+02  0.55089296782E+02  0.46393498829E+03  0.46801476089E+03  0.47000000000E+01 0.  1.
<mgrwt>
<rscale>  0 0.27471895E+03</rscale>
<asrwt>0</asrwt>
<pdfrwt beam="1">  1        1 0.42225025E+00 0.27471895E+03</pdfrwt>
<pdfrwt beam="2">  1       -1 0.10575980E-02 0.27471895E+03</pdfrwt>
<totfact> 0.18832672E+03</totfact>
</mgrwt>
</event>
<event>
 9    1  0.2095749E-002  0.2645096E+03  0.7818608E-02  0.1104464E+00
         -1   -1    0    0    0  501 -0.00000000000E+00  0.00000000000E+00  0.15335162100E+02  0.15335162100E+02  0.00000000000E+00 0. -1.
          1   -1    0    0  501    0  0.00000000000E+00 -0.00000000000E+00 -0.11406031704E+04  0.11406031704E+04  0.00000000000E+00 0. -1.
         36    2    1    2    0    0  0.88817841970E-15  0.00000000000E+00 -0.11252680083E+04  0.11559383325E+04  0.26450961804E+03 0.  0.
         25    2    3    3    0    0 -0.54362875620E+01  0.38745090433E+02 -0.52205281550E+03  0.53895945490E+03  0.12809143842E+03 0.  0.
         25    2    3    3    0    0  0.54362875620E+01 -0.38745090433E+02 -0.60321519279E+03  0.61697887759E+03  0.12354606966E+03 0.  0.
          5    1    4    4  502    0 -0.26827273577E+02  0.79452527345E+02 -0.39307643361E+03  0.40194972244E+03  0.47000000000E+01 0. -1.
         -5    1    4    4    0  502  0.21390986015E+02 -0.40707436912E+02 -0.12897638189E+03  0.13700973246E+03  0.47000000000E+01 0. -1.
          5    1    5    5  503    0  0.12813543871E+02 -0.40902042347E+02 -0.60601310970E+03  0.60754517783E+03  0.47000000000E+01 0.  1.
         -5    1    5    5    0  503 -0.73772563091E+01  0.21569519143E+01  0.27979169096E+01  0.94336997643E+01  0.47000000000E+01 0.  1.
<mgrwt>
<rscale>  0 0.26450962E+03</rscale>
<asrwt>0</asrwt>
<pdfrwt beam="1">  1        1 0.17547754E+00 0.26450962E+03</pdfrwt>
<pdfrwt beam="2">  1       -1 0.23592540E-02 0.26450962E+03</pdfrwt>
<totfact> 0.67750418E+03</totfact>
</mgrwt>
</event>
<event>
 9    1  0.2095749E-002  0.2751831E+03  0.7818608E-02  0.1098349E+00
         -1   -1    0    0    0  501 -0.00000000000E+00  0.00000000000E+00  0.12411887823E+03  0.12411887823E+03  0.00000000000E+00 0.  1.
          1   -1    0    0  501    0  0.00000000000E+00 -0.00000000000E+00 -0.15252668674E+03  0.15252668674E+03  0.00000000000E+00 0.  1.
         36    2    1    2    0    0  0.00000000000E+00  0.00000000000E+00 -0.28407808514E+02  0.27664556497E+03  0.27518314816E+03 0.  0.
         25    2    3    3    0    0 -0.37376452129E+01  0.31823295817E+02  0.27656231972E+02  0.13553346368E+03  0.12875465220E+03 0.  0.
         25    2    3    3    0    0  0.37376452129E+01 -0.31823295817E+02 -0.56064040486E+02  0.14111210129E+03  0.12547014125E+03 0.  0.
          5    1    4    4  502    0  0.59096859546E+02  0.35264062847E+02  0.80119093485E+01  0.69442592320E+02  0.47000000000E+01 0. -1.
         -5    1    4    4    0  502 -0.62834504759E+02 -0.34407670294E+01  0.19644322623E+02  0.66090871362E+02  0.47000000000E+01 0. -1.
          5    1    5    5  503    0 -0.28886264806E+02  0.32736274442E+02 -0.52631850202E+02  0.68544012244E+02  0.47000000000E+01 0. -1.
         -5    1    5    5    0  503  0.32623910019E+02 -0.64559570260E+02 -0.34321902843E+01  0.72568089042E+02  0.47000000000E+01 0. -1.
<mgrwt>
<rscale>  0 0.27518315E+03</rscale>
<asrwt>0</asrwt>
<pdfrwt beam="1">  1        1 0.23465644E-01 0.27518315E+03</pdfrwt>
<pdfrwt beam="2">  1       -1 0.19095212E-01 0.27518315E+03</pdfrwt>
<totfact> 0.44864835E+03</totfact>
</mgrwt>
</event>
<event>
 9    1  0.2095749E-002  0.2751466E+03  0.7818608E-02  0.1098370E+00
         -1   -1    0    0    0  501 -0.00000000000E+00  0.00000000000E+00  0.23691155126E+02  0.23691155126E+02  0.00000000000E+00 0. -1.
          1   -1    0    0  501    0  0.00000000000E+00 -0.00000000000E+00 -0.79888077781E+03  0.79888077781E+03  0.00000000000E+00 0. -1.
         36    2    1    2    0    0  0.00000000000E+00  0.14210854715E-13 -0.77518962268E+03  0.82257193293E+03  0.27514656774E+03 0.  0.
         25    2    3    3    0    0 -0.19521846151E+02  0.38976263366E+02 -0.50659081896E+03  0.52407279377E+03  0.12695583377E+03 0.  0.
         25    2    3    3    0    0  0.19521846151E+02 -0.38976263366E+02 -0.26859880372E+03  0.29849913917E+03  0.12270357428E+03 0.  0.
          5    1    4    4  502    0  0.49581922306E+02  0.40104668269E+02 -0.27544829524E+03  0.28277306235E+03  0.47000000000E+01 0.  1.
         -5    1    4    4    0  502 -0.69103768457E+02 -0.11284049025E+01 -0.23114252372E+03  0.24129973142E+03  0.47000000000E+01 0.  1.
          5    1    5    5  503    0  0.54376714644E+02 -0.32635860874E+02 -0.61938389707E+02  0.88771507985E+02  0.47000000000E+01 0. -1.
         -5    1    5    5    0  503 -0.34854868493E+02 -0.63404024918E+01 -0.20666041401E+03  0.20972763118E+03  0.47000000000E+01 0. -1.
<mgrwt>
<rscale>  0 0.27514657E+03</rscale>
<asrwt>0</asrwt>
<pdfrwt beam="1">  1        1 0.12290470E+00 0.27514657E+03</pdfrwt>
<pdfrwt beam="2">  1       -1 0.36447941E-02 0.27514657E+03</pdfrwt>
<totfact> 0.65111808E+03</totfact>
</mgrwt>
</event>
<event>
 9    1  0.2095749E-002  0.2751178E+03  0.7818608E-02  0.1098386E+00
          2   -1    0    0  501    0  0.00000000000E+00  0.00000000000E+00  0.15879228634E+03  0.15879228634E+03  0.00000000000E+00 0.  1.
         -2   -1    0    0    0  501 -0.00000000000E+00 -0.00000000000E+00 -0.11916475857E+03  0.11916475857E+03  0.00000000000E+00 0.  1.
         36    2    1    2    0    0  0.00000000000E+00 -0.17763568394E-14  0.39627527772E+02  0.27795704491E+03  0.27511775271E+03 0.  0.
         25    2    3    3    0    0 -0.33281857153E+02  0.13711170879E+02  0.28843953876E+02  0.13650904929E+03  0.12847983749E+03 0.  0.
         25    2    3    3    0    0  0.33281857153E+02 -0.13711170879E+02  0.10783573896E+02  0.14144799562E+03  0.13636558134E+03 0.  0.
          5    1    4    4  502    0 -0.64789872149E+02 -0.29283624860E+02 -0.77596754587E+01  0.71676779931E+02  0.47000000000E+01 0.  1.
         -5    1    4    4    0  502  0.31508014997E+02  0.42994795739E+02  0.36603629335E+02  0.64832269359E+02  0.47000000000E+01 0.  1.
          5    1    5    5  503    0  0.81985856181E+02 -0.24151933341E+02 -0.12067435594E+02  0.86444835008E+02  0.47000000000E+01 0. -1.
         -5    1    5    5    0  503 -0.48703999028E+02  0.10440762461E+02  0.22851009490E+02  0.55003160608E+02  0.47000000000E+01 0. -1.
<mgrwt>
<rscale>  0 0.27511775E+03</rscale>
<asrwt>0</asrwt>
<pdfrwt beam="1">  1        2 0.24429583E-01 0.27511775E+03</pdfrwt>
<pdfrwt beam="2">  1       -2 0.18333040E-01 0.27511775E+03</pdfrwt>
<totfact> 0.53509473E+03</totfact>
</mgrwt>
</event>
<event>
 9    1  0.2095749E-002  0.2765052E+03  0.7818608E-02  0.1097613E+00
          2   -1    0    0  501    0  0.00000000000E+00  0.00000000000E+00  0.17177942162E+04  0.17177942162E+04  0.00000000000E+00 0.  1.
         -2   -1    0    0    0  501 -0.00000000000E+00 -0.00000000000E+00 -0.11126933873E+02  0.11126933873E+02  0.00000000000E+00 0.  1.
         36    2    1    2    0    0 -0.71054273576E-14  0.71054273576E-14  0.17066672824E+04  0.17289211501E+04  0.27650520901E+03 0.  0.
         25    2    3    3    0    0  0.32823565793E+02 -0.23566154008E+02  0.57119962545E+03  0.58558599041E+03  0.12251199926E+03 0.  0.
         25    2    3    3    0    0 -0.32823565793E+02  0.23566154008E+02  0.11354676569E+04  0.11433351597E+04  0.12765475874E+03 0.  0.
          5    1    4    4  502    0  0.15394504950E+02  0.50247944350E+02  0.25224603184E+03  0.25770525271E+03  0.47000000000E+01 0. -1.
         -5    1    4    4    0  502  0.17429060843E+02 -0.73814098358E+02  0.31895359361E+03  0.32788073770E+03  0.47000000000E+01 0. -1.
          5    1    5    5  503    0 -0.46579097509E+01 -0.50055037455E+02  0.59368707019E+03  0.59583020249E+03  0.47000000000E+01 0.  1.
         -5    1    5    5    0  503 -0.28165656042E+02  0.73621191463E+02  0.54178058672E+03  0.54750495720E+03  0.47000000000E+01 0.  1.
<mgrwt>
<rscale>  0 0.27650521E+03</rscale>
<asrwt>0</asrwt>
<pdfrwt beam="1">  1        2 0.26427582E+00 0.27650521E+03</pdfrwt>
<pdfrwt beam="2">  1       -2 0.17118373E-02 0.27650521E+03</pdfrwt>
<totfact> 0.10163267E+04</totfact>
</mgrwt>
</event>
<event>
 9    1  0.2095749E-002  0.2769936E+03  0.7818608E-02  0.1097342E+00
         -1   -1    0    0    0  501 -0.00000000000E+00  0.00000000000E+00  0.29131439938E+03  0.29131439938E+03  0.00000000000E+00 0. -1.
          1   -1    0    0  501    0  0.00000000000E+00 -0.00000000000E+00 -0.65844202459E+02  0.65844202459E+02  0.00000000000E+00 0. -1.
         36    2    1    2    0    0  0.71054273576E-14  0.00000000000E+00  0.22547019692E+03  0.35715860184E+03  0.27699360492E+03 0.  0.
         25    2    3    3    0    0  0.15976114153E+02  0.12676329060E+02  0.18159713004E+03  0.22156631999E+03  0.12529242184E+03 0.  0.
         25    2    3    3    0    0 -0.15976114153E+02 -0.12676329060E+02  0.43873066880E+02  0.13559228186E+03  0.12666686765E+03 0.  0.
          5    1    4    4  502    0 -0.52559822548E+02  0.93833376151E+01  0.51091290324E+02  0.74047227619E+02  0.47000000000E+01 0. -1.
         -5    1    4    4    0  502  0.68535936701E+02  0.32929914450E+01  0.13050583972E+03  0.14751909237E+03  0.47000000000E+01 0. -1.
          5    1    5    5  503    0 -0.56408347651E+02 -0.17582769119E+02  0.66241602620E+02  0.88888105910E+02  0.47000000000E+01 0.  1.
         -5    1    5    5    0  503  0.40432233498E+02  0.49064400592E+01 -0.22368535739E+02  0.46704175946E+02  0.47000000000E+01 0.  1.
<mgrwt>
<rscale>  0 0.27699360E+03</rscale>
<asrwt>0</asrwt>
<pdfrwt beam="1">  1        1 0.10129877E-01 0.27699360E+03</pdfrwt>
<pdfrwt beam="2">  1       -1 0.44817599E-01 0.27699360E+03</pdfrwt>
<totfact> 0.31571945E+03</totfact>
</mgrwt>
</event>
<event>
 9    1  0.2095749E-002  0.2748377E+03  0.7818608E-02  0.1098542E+00
          1   -1    0    0  501    0  0.00000000000E+00  0.00000000000E+00  0.80532760106E+02  0.80532760106E+02  0.00000000000E+00 0. -1.
         -1   -1    0    0    0  501 -0.00000000000E+00 -0.00000000000E+00 -0.23448765107E+03  0.23448765107E+03  0.00000000000E+00 0. -1.
         36    2    1    2    0    0  0.71054273576E-14  0.00000000000E+00 -0.15395489096E+03  0.31502041117E+03  0.27483768120E+03 0.  0.
         25    2    3    3    0    0 -0.41721615422E+02  0.36940344697E+02 -0.55739348974E+02  0.14822055963E+03  0.12552759462E+03 0.  0.
         25    2    3    3    0    0  0.41721615422E+02 -0.36940344697E+02 -0.98215541986E+02  0.16679985155E+03  0.12276243533E+03 0.  0.
          5    1    4    4  502    0 -0.21780881730E+02  0.13862173132E+02  0.39882882130E+02  0.47742024882E+02  0.47000000000E+01 0.  1.
         -5    1    4    4    0  502 -0.19940733692E+02  0.23078171566E+02 -0.95622231104E+02  0.10047853474E+03  0.47000000000E+01 0.  1.
          5    1    5    5  503    0  0.54334401294E+02 -0.59306329979E+02 -0.11145751335E+03  0.13752939766E+03  0.47000000000E+01 0.  1.
         -5    1    5    5    0  503 -0.12612785872E+02  0.22365985281E+02  0.13241971363E+02  0.29270453885E+02  0.47000000000E+01 0.  1.
<mgrwt>
<rscale>  0 0.27483768E+03</rscale>
<asrwt>0</asrwt>
<pdfrwt beam="1">  1        1 0.12389655E-01 0.27483768E+03</pdfrwt>
<pdfrwt beam="2">  1       -1 0.36075023E-01 0.27483768E+03</pdfrwt>
<totfact> 0.35474094E+03</totfact>
</mgrwt>
</event>
<event>
 9    1  0.2095749E-002  0.2712353E+03  0.7818608E-02  0.1100575E+00
          3   -1    0    0  501    0  0.00000000000E+00  0.00000000000E+00  0.15829092299E+03  0.15829092299E+03  0.00000000000E+00 0. -1.
         -3   -1    0    0    0  501 -0.00000000000E+00 -0.00000000000E+00 -0.11619208955E+03  0.11619208955E+03  0.00000000000E+00 0. -1.
         36    2    1    2    0    0  0.35527136788E-14  0.71054273576E-14  0.42098833441E+02  0.27448301253E+03  0.27123534503E+03 0.  0.
         25    2    3    3    0    0 -0.26980410430E+02  0.38439789483E+02  0.58170376232E+01  0.13573522715E+03  0.12721892155E+03 0.  0.
         25    2    3    3    0    0  0.26980410430E+02 -0.38439789483E+02  0.36281795818E+02  0.13874778538E+03  0.12541538692E+03 0.  0.
          5    1    4    4  502    0 -0.29233272249E+02 -0.32252419157E+02  0.37919584753E+02  0.57920528794E+02  0.47000000000E+01 0.  1.
         -5    1    4    4    0  502  0.22528618192E+01  0.70692208640E+02 -0.32102547130E+02  0.77814698361E+02  0.47000000000E+01 0.  1.
          5    1    5    5  503    0 -0.45207817433E+02 -0.22209136722E+02  0.40036028309E+02  0.64513301526E+02  0.47000000000E+01 0. -1.
         -5    1    5    5    0  503  0.72188227863E+02 -0.16230652762E+02 -0.37542324911E+01  0.74234483852E+02  0.47000000000E+01 0. -1.
<mgrwt>
<rscale>  0 0.27123535E+03</rscale>
<asrwt>0</asrwt>
<pdfrwt beam="1">  1        3 0.24352450E-01 0.27123535E+03</pdfrwt>
<pdfrwt beam="2">  1       -3 0.17875706E-01 0.27123535E+03</pdfrwt>
<totfact> 0.10950645E+03</totfact>
</mgrwt>
</event>
<event>
 9    1  0.2095749E-002  0.2756058E+03  0.7818608E-02  0.1098113E+00
         -2   -1    0    0    0  501 -0.00000000000E+00  0.00000000000E+00  0.92433736535E+01  0.92433736535E+01  0.00000000000E+00 0.  1.
          2   -1    0    0  501    0  0.00000000000E+00 -0.00000000000E+00 -0.20544050301E+04  0.20544050301E+04  0.00000000000E+00 0.  1.
         36    2    1    2    0    0  0.71054273576E-14  0.00000000000E+00 -0.20451616565E+04  0.20636484038E+04  0.27560575705E+03 0.  0.
         25    2    3    3    0    0  0.57968205283E+02  0.17293856227E+02 -0.90227992514E+03  0.91238618956E+03  0.12116148442E+03 0.  0.
         25    2    3    3    0    0 -0.57968205283E+02 -0.17293856227E+02 -0.11428817314E+04  0.11512622142E+04  0.12476635677E+03 0.  0.
          5    1    4    4  502    0  0.84314142969E+02 -0.20641344822E+02 -0.50824964502E+03  0.51563042141E+03  0.47000000000E+01 0.  1.
         -5    1    4    4    0  502 -0.26345937686E+02  0.37935201049E+02 -0.39403028012E+03  0.39675576815E+03  0.47000000000E+01 0.  1.
          5    1    5    5  503    0 -0.81154877518E+02 -0.20453772178E+01 -0.41810591578E+03  0.42594007152E+03  0.47000000000E+01 0.  1.
         -5    1    5    5    0  503  0.23186672236E+02 -0.15248479009E+02 -0.72477581557E+03  0.72532214272E+03  0.47000000000E+01 0.  1.
<mgrwt>
<rscale>  0 0.27560576E+03</rscale>
<asrwt>0</asrwt>
<pdfrwt beam="1">  1        2 0.31606272E+00 0.27560576E+03</pdfrwt>
<pdfrwt beam="2">  1       -2 0.14220556E-02 0.27560576E+03</pdfrwt>
<totfact> 0.88720112E+03</totfact>
</mgrwt>
</event>
<event>
 9    1  0.2095749E-002  0.2746136E+03  0.7818608E-02  0.1098668E+00
         -1   -1    0    0    0  501 -0.00000000000E+00  0.00000000000E+00  0.14844409550E+02  0.14844409550E+02  0.00000000000E+00 0. -1.
          1   -1    0    0  501    0  0.00000000000E+00 -0.00000000000E+00 -0.12700514696E+04  0.12700514696E+04  0.00000000000E+00 0. -1.
         36    2    1    2    0    0 -0.35527136788E-14  0.00000000000E+00 -0.12552070600E+04  0.12848958791E+04  0.27461364980E+03 0.  0.
         25    2    3    3    0    0  0.29359109345E+02 -0.18761018307E+02 -0.82298686508E+03  0.83332569505E+03  0.12613643736E+03 0.  0.
         25    2    3    3    0    0 -0.29359109345E+02  0.18761018307E+02 -0.43222019497E+03  0.45157018409E+03  0.12604523441E+03 0.  0.
          5    1    4    4  502    0  0.85411999306E+01 -0.69292102296E+02 -0.33264168878E+03  0.33992194788E+03  0.47000000000E+01 0.  1.
         -5    1    4    4    0  502  0.20817909414E+02  0.50531083989E+02 -0.49034517630E+03  0.49340374717E+03  0.47000000000E+01 0.  1.
          5    1    5    5  503    0  0.45782526196E+02 -0.31387423034E+01 -0.98564714971E+02  0.10882547701E+03  0.47000000000E+01 0. -1.
         -5    1    5    5    0  503 -0.75141635541E+02  0.21899760610E+02 -0.33365548000E+03  0.34274470709E+03  0.47000000000E+01 0. -1.
<mgrwt>
<rscale>  0 0.27461365E+03</rscale>
<asrwt>0</asrwt>
<pdfrwt beam="1">  1        1 0.19539255E+00 0.27461365E+03</pdfrwt>
<pdfrwt beam="2">  1       -1 0.22837551E-02 0.27461365E+03</pdfrwt>
<totfact> 0.57739085E+03</totfact>
</mgrwt>
</event>
<event>
 9    1  0.2095749E-002  0.2690764E+03  0.7818608E-02  0.1101809E+00
         -1   -1    0    0    0  501 -0.00000000000E+00  0.00000000000E+00  0.22537417140E+02  0.22537417140E+02  0.00000000000E+00 0. -1.
          1   -1    0    0  501    0  0.00000000000E+00 -0.00000000000E+00 -0.80313242375E+03  0.80313242375E+03  0.00000000000E+00 0. -1.
         36    2    1    2    0    0  0.00000000000E+00  0.00000000000E+00 -0.78059500661E+03  0.82566984089E+03  0.26907642374E+03 0.  0.
         25    2    3    3    0    0 -0.48533082286E+02  0.51794947445E+01 -0.37454586163E+03  0.39774650121E+03  0.12464104269E+03 0.  0.
         25    2    3    3    0    0  0.48533082286E+02 -0.51794947445E+01 -0.40604914499E+03  0.42792333968E+03  0.12593724333E+03 0.  0.
          5    1    4    4  502    0 -0.17595541956E+02 -0.10541607184E+02 -0.35868627654E+03  0.35930302470E+03  0.47000000000E+01 0. -1.
         -5    1    4    4    0  502 -0.30937540331E+02  0.15721101928E+02 -0.15859585088E+02  0.38443476517E+02  0.47000000000E+01 0. -1.
          5    1    5    5  503    0  0.53438837708E+02  0.44343633749E+02 -0.13072805405E+03  0.14810125369E+03  0.47000000000E+01 0. -1.
         -5    1    5    5    0  503 -0.49057554215E+01 -0.49523128493E+02 -0.27532109094E+03  0.27982208599E+03  0.47000000000E+01 0. -1.
<mgrwt>
<rscale>  0 0.26907642E+03</rscale>
<asrwt>0</asrwt>
<pdfrwt beam="1">  1        1 0.12355884E+00 0.26907642E+03</pdfrwt>
<pdfrwt beam="2">  1       -1 0.34672949E-02 0.26907642E+03</pdfrwt>
<totfact> 0.69499846E+03</totfact>
</mgrwt>
</event>
<event>
 9    1  0.2095749E-002  0.2748896E+03  0.7818608E-02  0.1098513E+00
          2   -1    0    0  501    0  0.00000000000E+00  0.00000000000E+00  0.21974197722E+02  0.21974197722E+02  0.00000000000E+00 0.  1.
         -2   -1    0    0    0  501 -0.00000000000E+00 -0.00000000000E+00 -0.85969338258E+03  0.85969338258E+03  0.00000000000E+00 0.  1.
         36    2    1    2    0    0  0.71054273576E-14  0.00000000000E+00 -0.83771918486E+03  0.88166758031E+03  0.27488959507E+03 0.  0.
         25    2    3    3    0    0  0.34821887115E+02  0.44332264804E+02 -0.49805736540E+03  0.51535285030E+03  0.11978943008E+03 0.  0.
         25    2    3    3    0    0 -0.34821887115E+02 -0.44332264804E+02 -0.33966181946E+03  0.36631473000E+03  0.12505365366E+03 0.  0.
          5    1    4    4  502    0 -0.37375464219E+02  0.44773891924E+02 -0.26210862538E+03  0.26856032511E+03  0.47000000000E+01 0.  1.
         -5    1    4    4    0  502  0.72197351334E+02 -0.44162712026E+00 -0.23594874002E+03  0.24679252519E+03  0.47000000000E+01 0.  1.
          5    1    5    5  503    0  0.15862339245E+02 -0.95360873363E+01  0.19391221196E+01  0.19193774059E+02  0.47000000000E+01 0. -1.
         -5    1    5    5    0  503 -0.50684226360E+02 -0.34796177468E+02 -0.34160094158E+03  0.34712095594E+03  0.47000000000E+01 0. -1.
<mgrwt>
<rscale>  0 0.27488960E+03</rscale>
<asrwt>0</asrwt>
<pdfrwt beam="1">  1        2 0.33806461E-02 0.27488960E+03</pdfrwt>
<pdfrwt beam="2">  1       -2 0.13226051E+00 0.27488960E+03</pdfrwt>
<totfact> 0.11627368E+03</totfact>
</mgrwt>
</event>
<event>
 9    1  0.2095749E-002  0.2738974E+03  0.7818608E-02  0.1099070E+00
         -2   -1    0    0    0  501 -0.00000000000E+00  0.00000000000E+00  0.28706873098E+03  0.28706873098E+03  0.00000000000E+00 0. -1.
          2   -1    0    0  501    0  0.00000000000E+00 -0.00000000000E+00 -0.65332608940E+02  0.65332608940E+02  0.00000000000E+00 0. -1.
         36    2    1    2    0    0  0.71054273576E-14 -0.71054273576E-14  0.22173612204E+03  0.35240133992E+03  0.27389741978E+03 0.  0.
         25    2    3    3    0    0 -0.11289567631E+02 -0.53410953430E+02  0.11051903513E+03  0.17611007550E+03  0.12577804770E+03 0.  0.
         25    2    3    3    0    0  0.11289567631E+02  0.53410953430E+02  0.11121708691E+03  0.17629126442E+03  0.12541604844E+03 0.  0.
          5    1    4    4  502    0  0.46002557931E+02 -0.61279372654E+02  0.78681130839E+02  0.10992819110E+03  0.47000000000E+01 0. -1.
         -5    1    4    4    0  502 -0.57292125562E+02  0.78684192238E+01  0.31837904289E+02  0.66181884395E+02  0.47000000000E+01 0. -1.
          5    1    5    5  503    0 -0.53981335432E+02  0.97975690082E+01  0.27927717198E+02  0.61741593123E+02  0.47000000000E+01 0.  1.
         -5    1    5    5    0  503  0.65270903063E+02  0.43613384422E+02  0.83289369717E+02  0.11454967130E+03  0.47000000000E+01 0.  1.
<mgrwt>
<rscale>  0 0.27389742E+03</rscale>
<asrwt>0</asrwt>
<pdfrwt beam="1">  1        2 0.10051171E-01 0.27389742E+03</pdfrwt>
<pdfrwt beam="2">  1       -2 0.44164419E-01 0.27389742E+03</pdfrwt>
<totfact> 0.31157310E+03</totfact>
</mgrwt>
</event>
<event>
 9    1  0.2095749E-002  0.2739139E+03  0.7818608E-02  0.1099060E+00
         -4   -1    0    0    0  501 -0.00000000000E+00  0.00000000000E+00  0.44737578372E+03  0.44737578372E+03  0.00000000000E+00 0.  1.
          4   -1    0    0  501    0  0.00000000000E+00 -0.00000000000E+00 -0.41927170449E+02  0.41927170449E+02  0.00000000000E+00 0.  1.
         36    2    1    2    0    0  0.00000000000E+00  0.35527136788E-14  0.40544861327E+03  0.48930295417E+03  0.27391386046E+03 0.  0.
         25    2    3    3    0    0 -0.18794995467E+02  0.31839854658E+02  0.12375435139E+03  0.17952524845E+03  0.12468819970E+03 0.  0.
         25    2    3    3    0    0  0.18794995467E+02 -0.31839854658E+02  0.28169426188E+03  0.30977770572E+03  0.12346473822E+03 0.  0.
          5    1    4    4  502    0 -0.30287179157E+02  0.45243204422E+02  0.14294110023E+03  0.15303107169E+03  0.47000000000E+01 0.  1.
         -5    1    4    4    0  502  0.11492183691E+02 -0.13403349764E+02 -0.19186748843E+02  0.26494176757E+02  0.47000000000E+01 0.  1.
          5    1    5    5  503    0 -0.10183686957E+02 -0.32508367928E+02  0.27807181102E+03  0.28019015605E+03  0.47000000000E+01 0.  1.
         -5    1    5    5    0  503  0.28978682423E+02  0.66851326988E+00  0.36224508610E+01  0.29587549666E+02  0.47000000000E+01 0.  1.
<mgrwt>
<rscale>  0 0.27391386E+03</rscale>
<asrwt>0</asrwt>
<pdfrwt beam="1">  1        4 0.64503342E-02 0.27391386E+03</pdfrwt>
<pdfrwt beam="2">  1       -4 0.68827041E-01 0.27391386E+03</pdfrwt>
<totfact> 0.58386461E+02</totfact>
</mgrwt>
</event>
<event>
 9    1  0.2095749E-002  0.2764961E+03  0.7818608E-02  0.1097618E+00
         -2   -1    0    0    0  501 -0.00000000000E+00  0.00000000000E+00  0.17622277318E+02  0.17622277318E+02  0.00000000000E+00 0.  1.
          2   -1    0    0  501    0  0.00000000000E+00 -0.00000000000E+00 -0.10845659115E+04  0.10845659115E+04  0.00000000000E+00 0.  1.
         36    2    1    2    0    0  0.00000000000E+00  0.71054273576E-14 -0.10669436342E+04  0.11021881888E+04  0.27649608505E+03 0.  0.
         25    2    3    3    0    0 -0.41240405309E+02 -0.48299461567E+02 -0.52665325193E+03  0.54391195205E+03  0.12017884503E+03 0.  0.
         25    2    3    3    0    0  0.41240405309E+02  0.48299461567E+02 -0.54029038225E+03  0.55827623678E+03  0.12539956289E+03 0.  0.
          5    1    4    4  502    0  0.34920120265E+02 -0.27427918633E+02 -0.31134584381E+03  0.31453144513E+03  0.47000000000E+01 0. -1.
         -5    1    4    4    0  502 -0.76160525574E+02 -0.20871542934E+02 -0.21530740812E+03  0.22938050692E+03  0.47000000000E+01 0. -1.
          5    1    5    5  503    0  0.55633326709E+01  0.58782224094E+02 -0.98778741644E+02  0.11517651818E+03  0.47000000000E+01 0. -1.
         -5    1    5    5    0  503  0.35677072638E+02 -0.10482762528E+02 -0.44151164061E+03  0.44309971859E+03  0.47000000000E+01 0. -1.
<mgrwt>
<rscale>  0 0.27649609E+03</rscale>
<asrwt>0</asrwt>
<pdfrwt beam="1">  1        2 0.16685632E+00 0.27649609E+03</pdfrwt>
<pdfrwt beam="2">  1       -2 0.27111191E-02 0.27649609E+03</pdfrwt>
<totfact> 0.11473857E+04</totfact>
</mgrwt>
</event>
<event>
 9    1  0.2095749E-002  0.2749985E+03  0.7818608E-02  0.1098452E+00
          2   -1    0    0  501    0  0.00000000000E+00  0.00000000000E+00  0.59690025402E+02  0.59690025402E+02  0.00000000000E+00 0.  1.
         -2   -1    0    0    0  501 -0.00000000000E+00 -0.00000000000E+00 -0.31673705891E+03  0.31673705891E+03  0.00000000000E+00 0.  1.
         36    2    1    2    0    0  0.00000000000E+00  0.00000000000E+00 -0.25704703351E+03  0.37642708432E+03  0.27499849521E+03 0.  0.
         25    2    3    3    0    0  0.99222695074E+01 -0.50810697624E+02 -0.18606358523E+03  0.22657598160E+03  0.11847716770E+03 0.  0.
         25    2    3    3    0    0 -0.99222695074E+01  0.50810697624E+02 -0.70983448279E+02  0.14985110271E+03  0.12139408811E+03 0.  0.
          5    1    4    4  502    0  0.59492144232E+02 -0.35611993981E+02 -0.14307866076E+03  0.15906326573E+03  0.47000000000E+01 0.  1.
         -5    1    4    4    0  502 -0.49569874725E+02 -0.15198703642E+02 -0.42984924471E+02  0.67512715872E+02  0.47000000000E+01 0.  1.
          5    1    5    5  503    0 -0.84847697812E+01 -0.39920199330E+02 -0.23503826582E+02  0.47330048561E+02  0.47000000000E+01 0. -1.
         -5    1    5    5    0  503 -0.14374997262E+01  0.90730896953E+02 -0.47479621697E+02  0.10252105415E+03  0.47000000000E+01 0. -1.
<mgrwt>
<rscale>  0 0.27499850E+03</rscale>
<asrwt>0</asrwt>
<pdfrwt beam="1">  1        2 0.91830810E-02 0.27499850E+03</pdfrwt>
<pdfrwt beam="2">  1       -2 0.48728778E-01 0.27499850E+03</pdfrwt>
<totfact> 0.28748079E+03</totfact>
</mgrwt>
</event>
<event>
 9    1  0.2095749E-002  0.2730643E+03  0.7818608E-02  0.1099539E+00
          3   -1    0    0  501    0  0.00000000000E+00  0.00000000000E+00  0.22416858154E+03  0.22416858154E+03  0.00000000000E+00 0.  1.
         -3   -1    0    0    0  501 -0.00000000000E+00 -0.00000000000E+00 -0.83156317555E+02  0.83156317555E+02  0.00000000000E+00 0.  1.
         36    2    1    2    0    0  0.88817841970E-15  0.71054273576E-14  0.14101226398E+03  0.30732489909E+03  0.27306434225E+03 0.  0.
         25    2    3    3    0    0  0.21898188405E+01  0.34410396472E+02  0.14607744970E+02  0.12796740612E+03  0.12236584542E+03 0.  0.
         25    2    3    3    0    0 -0.21898188405E+01 -0.34410396472E+02  0.12640451901E+03  0.17935749297E+03  0.12248321177E+03 0.  0.
          5    1    4    4  502    0 -0.11423092160E+02 -0.23197324208E+02 -0.39625014680E+02  0.47548235228E+02  0.47000000000E+01 0.  1.
         -5    1    4    4    0  502  0.13612911000E+02  0.57607720680E+02  0.54232759650E+02  0.80419170893E+02  0.47000000000E+01 0.  1.
          5    1    5    5  503    0  0.78699296251E+01 -0.52929304865E+02  0.14258963530E+03  0.15237237676E+03  0.47000000000E+01 0. -1.
         -5    1    5    5    0  503 -0.10059748466E+02  0.18518908393E+02 -0.16185116290E+02  0.26985116205E+02  0.47000000000E+01 0. -1.
<mgrwt>
<rscale>  0 0.27306434E+03</rscale>
<asrwt>0</asrwt>
<pdfrwt beam="1">  1        3 0.34487474E-01 0.27306434E+03</pdfrwt>
<pdfrwt beam="2">  1       -3 0.12793280E-01 0.27306434E+03</pdfrwt>
<totfact> 0.10230748E+03</totfact>
</mgrwt>
</event>
<event>
 9    1  0.2095749E-002  0.2751646E+03  0.7818608E-02  0.1098360E+00
          2   -1    0    0  501    0  0.00000000000E+00  0.00000000000E+00  0.45530802722E+02  0.45530802722E+02  0.00000000000E+00 0. -1.
         -2   -1    0    0    0  501 -0.00000000000E+00 -0.00000000000E+00 -0.41573811068E+03  0.41573811068E+03  0.00000000000E+00 0. -1.
         36    2    1    2    0    0  0.35527136788E-14 -0.71054273576E-14 -0.37020730796E+03  0.46126891340E+03  0.27516460456E+03 0.  0.
         25    2    3    3    0    0  0.10940523035E+02 -0.37126442043E+02 -0.13035550901E+03  0.18678321499E+03  0.12805211020E+03 0.  0.
         25    2    3    3    0    0 -0.10940523035E+02  0.37126442043E+02 -0.23985179894E+03  0.27448569841E+03  0.12773192802E+03 0.  0.
          5    1    4    4  502    0  0.38470025564E+02  0.33135543378E+02 -0.83484976796E+02  0.97825040008E+02  0.47000000000E+01 0.  1.
         -5    1    4    4    0  502 -0.27529502529E+02 -0.70261985422E+02 -0.46870532218E+02  0.88958174977E+02  0.47000000000E+01 0.  1.
          5    1    5    5  503    0  0.28336003220E+02  0.59439981678E+02 -0.60747140549E+02  0.89712572058E+02  0.47000000000E+01 0. -1.
         -5    1    5    5    0  503 -0.39276526255E+02 -0.22313539635E+02 -0.17910465839E+03  0.18477312636E+03  0.47000000000E+01 0. -1.
<mgrwt>
<rscale>  0 0.27516460E+03</rscale>
<asrwt>0</asrwt>
<pdfrwt beam="1">  1        2 0.70047391E-02 0.27516460E+03</pdfrwt>
<pdfrwt beam="2">  1       -2 0.63959708E-01 0.27516460E+03</pdfrwt>
<totfact> 0.23278874E+03</totfact>
</mgrwt>
</event>
<event>
 9    1  0.2095749E-002  0.2751029E+03  0.7818608E-02  0.1098394E+00
         -2   -1    0    0    0  501 -0.00000000000E+00  0.00000000000E+00  0.11321079100E+03  0.11321079100E+03  0.00000000000E+00 0. -1.
          2   -1    0    0  501    0  0.00000000000E+00 -0.00000000000E+00 -0.16712541045E+03  0.16712541045E+03  0.00000000000E+00 0. -1.
         36    2    1    2    0    0  0.00000000000E+00 -0.35527136788E-14 -0.53914619450E+02  0.28033620145E+03  0.27510288921E+03 0.  0.
         25    2    3    3    0    0 -0.32203600996E+02 -0.23744796291E+02 -0.31598503689E+01  0.13478584718E+03  0.12867149132E+03 0.  0.
         25    2    3    3    0    0  0.32203600996E+02  0.23744796291E+02 -0.50754769082E+02  0.14555035427E+03  0.13041461489E+03 0.  0.
          5    1    4    4  502    0 -0.29535840379E+02 -0.75271321476E+02 -0.13053822474E+02  0.82040416776E+02  0.47000000000E+01 0. -1.
         -5    1    4    4    0  502 -0.26677606175E+01  0.51526525186E+02  0.98939721050E+01  0.52745430403E+02  0.47000000000E+01 0. -1.
          5    1    5    5  503    0 -0.12782657307E+02  0.50022663927E+02  0.21686391070E+02  0.56196554981E+02  0.47000000000E+01 0. -1.
         -5    1    5    5    0  503  0.44986258303E+02 -0.26277867636E+02 -0.72441160151E+02  0.89353799291E+02  0.47000000000E+01 0. -1.
<mgrwt>
<rscale>  0 0.27510289E+03</rscale>
<asrwt>0</asrwt>
<pdfrwt beam="1">  1        2 0.25711602E-01 0.27510289E+03</pdfrwt>
<pdfrwt beam="2">  1       -2 0.17417045E-01 0.27510289E+03</pdfrwt>
<totfact> 0.55097753E+03</totfact>
</mgrwt>
</event>
<event>
 9    1  0.2095749E-002  0.2751971E+03  0.7818608E-02  0.1098341E+00
          1   -1    0    0  501    0  0.00000000000E+00  0.00000000000E+00  0.83999516916E+02  0.83999516916E+02  0.00000000000E+00 0.  1.
         -1   -1    0    0    0  501 -0.00000000000E+00 -0.00000000000E+00 -0.22539840186E+03  0.22539840186E+03  0.00000000000E+00 0.  1.
         36    2    1    2    0    0  0.00000000000E+00  0.00000000000E+00 -0.14139888494E+03  0.30939791878E+03  0.27519707026E+03 0.  0.
         25    2    3    3    0    0  0.24231348542E+02 -0.35569067365E+02 -0.10711398693E+03  0.16815532471E+03  0.12227219728E+03 0.  0.
         25    2    3    3    0    0 -0.24231348542E+02  0.35569067365E+02 -0.34284898017E+02  0.14124259407E+03  0.13008343223E+03 0.  0.
          5    1    4    4  502    0 -0.32731823239E+01 -0.28133055093E+01  0.26773396533E+02  0.27523320518E+02  0.47000000000E+01 0.  1.
         -5    1    4    4    0  502  0.27504530866E+02 -0.32755761856E+02 -0.13388738346E+03  0.14063200419E+03  0.47000000000E+01 0.  1.
          5    1    5    5  503    0 -0.66352700436E+02 -0.14207270590E+02 -0.33594877100E+02  0.75863253029E+02  0.47000000000E+01 0.  1.
         -5    1    5    5    0  503  0.42121351894E+02  0.49776337955E+02 -0.69002091717E+00  0.65379341037E+02  0.47000000000E+01 0.  1.
<mgrwt>
<rscale>  0 0.27519707E+03</rscale>
<asrwt>0</asrwt>
<pdfrwt beam="1">  1        1 0.12923002E-01 0.27519707E+03</pdfrwt>
<pdfrwt beam="2">  1       -1 0.34676678E-01 0.27519707E+03</pdfrwt>
<totfact> 0.35936816E+03</totfact>
</mgrwt>
</event>
<event>
 9    1  0.2095749E-002  0.2740661E+03  0.7818608E-02  0.1098975E+00
          1   -1    0    0  501    0  0.00000000000E+00  0.00000000000E+00  0.50670542526E+03  0.50670542526E+03  0.00000000000E+00 0. -1.
         -1   -1    0    0    0  501 -0.00000000000E+00 -0.00000000000E+00 -0.37059110687E+02  0.37059110687E+02  0.00000000000E+00 0. -1.
         36    2    1    2    0    0 -0.71054273576E-14  0.35527136788E-14  0.46964631457E+03  0.54376453594E+03  0.27406606824E+03 0.  0.
         25    2    3    3    0    0 -0.40789918722E+02 -0.23315948741E+02  0.14027726177E+03  0.18820983687E+03  0.11635197287E+03 0.  0.
         25    2    3    3    0    0  0.40789918722E+02  0.23315948741E+02  0.32936905280E+03  0.35555469907E+03  0.12541020753E+03 0.  0.
          5    1    4    4  502    0  0.21640734396E+02  0.14716550968E+02  0.10229544622E+03  0.10569459104E+03  0.47000000000E+01 0.  1.
         -5    1    4    4    0  502 -0.62430653118E+02 -0.38032499709E+02  0.37981815554E+02  0.82515245837E+02  0.47000000000E+01 0.  1.
          5    1    5    5  503    0 -0.10830915812E+02  0.22956869243E+01  0.28200315487E+03  0.28225954063E+03  0.47000000000E+01 0. -1.
         -5    1    5    5    0  503  0.51620834534E+02  0.21020261817E+02  0.47365897924E+02  0.73295158442E+02  0.47000000000E+01 0. -1.
<mgrwt>
<rscale>  0 0.27406607E+03</rscale>
<asrwt>0</asrwt>
<pdfrwt beam="1">  1        1 0.77954676E-01 0.27406607E+03</pdfrwt>
<pdfrwt beam="2">  1       -1 0.57014020E-02 0.27406607E+03</pdfrwt>
<totfact> 0.63719680E+03</totfact>
</mgrwt>
</event>
<event>
 9    1  0.2095749E-002  0.2768316E+03  0.7818608E-02  0.1097432E+00
          4   -1    0    0  501    0  0.00000000000E+00  0.00000000000E+00  0.83545726996E+01  0.83545726996E+01  0.00000000000E+00 0. -1.
         -4   -1    0    0    0  501 -0.00000000000E+00 -0.00000000000E+00 -0.22932272662E+04  0.22932272662E+04  0.00000000000E+00 0. -1.
         36    2    1    2    0    0  0.14210854715E-13  0.71054273576E-14 -0.22848726935E+04  0.23015818389E+04  0.27683160161E+03 0.  0.
         25    2    3    3    0    0  0.39315704667E+02  0.19455507386E+02 -0.71607138759E+03  0.72755203906E+03  0.12103510243E+03 0.  0.
         25    2    3    3    0    0 -0.39315704667E+02 -0.19455507386E+02 -0.15688013059E+04  0.15740297999E+04  0.12044929200E+03 0.  0.
          5    1    4    4  502    0  0.55310075627E+02  0.61807820807E+02 -0.47908724045E+03  0.48623665549E+03  0.47000000000E+01 0. -1.
         -5    1    4    4    0  502 -0.15994370960E+02 -0.42352313420E+02 -0.23698414714E+03  0.24131538358E+03  0.47000000000E+01 0. -1.
          5    1    5    5  503    0 -0.81021117079E+02 -0.93507652980E+01 -0.11838946301E+04  0.11867099239E+04  0.47000000000E+01 0.  1.
         -5    1    5    5    0  503  0.41705412412E+02 -0.10104742089E+02 -0.38490667581E+03  0.38731987597E+03  0.47000000000E+01 0.  1.
<mgrwt>
<rscale>  0 0.27683160E+03</rscale>
<asrwt>0</asrwt>
<pdfrwt beam="1">  1        4 0.12853192E-02 0.27683160E+03</pdfrwt>
<pdfrwt beam="2">  1       -4 0.35280412E+00 0.27683160E+03</pdfrwt>
<totfact> 0.65052602E+01</totfact>
</mgrwt>
</event>
<event>
 9    1  0.2095749E-002  0.2759492E+03  0.7818608E-02  0.1097922E+00
         -2   -1    0    0    0  501 -0.00000000000E+00  0.00000000000E+00  0.44553937671E+02  0.44553937671E+02  0.00000000000E+00 0. -1.
          2   -1    0    0  501    0  0.00000000000E+00 -0.00000000000E+00 -0.42727968862E+03  0.42727968862E+03  0.00000000000E+00 0. -1.
         36    2    1    2    0    0  0.14210854715E-13 -0.35527136788E-14 -0.38272575095E+03  0.47183362629E+03  0.27594921717E+03 0.  0.
         25    2    3    3    0    0  0.68960164116E+02 -0.73129228141E+01 -0.19865466211E+03  0.24246007111E+03  0.12047501082E+03 0.  0.
         25    2    3    3    0    0 -0.68960164116E+02  0.73129228141E+01 -0.18407108884E+03  0.22937355517E+03  0.11798762220E+03 0.  0.
          5    1    4    4  502    0  0.12557867053E+02 -0.19305909475E+02  0.10285985261E+02  0.25657545837E+02  0.47000000000E+01 0. -1.
         -5    1    4    4    0  502  0.56402297063E+02  0.11992986661E+02 -0.20894064737E+03  0.21680252528E+03  0.47000000000E+01 0. -1.
          5    1    5    5  503    0 -0.40633236457E+01 -0.22054263903E+02  0.81544124428E+01  0.24320476920E+02  0.47000000000E+01 0.  1.
         -5    1    5    5    0  503 -0.64896840470E+02  0.29367186717E+02 -0.19222550128E+03  0.20505307825E+03  0.47000000000E+01 0.  1.
<mgrwt>
<rscale>  0 0.27594922E+03</rscale>
<asrwt>0</asrwt>
<pdfrwt beam="1">  1        2 0.65735336E-01 0.27594922E+03</pdfrwt>
<pdfrwt beam="2">  1       -2 0.68544520E-02 0.27594922E+03</pdfrwt>
<totfact> 0.88817203E+03</totfact>
</mgrwt>
</event>
<event>
 9    1  0.2095749E-002  0.2749758E+03  0.7818608E-02  0.1098465E+00
          4   -1    0    0  501    0  0.00000000000E+00  0.00000000000E+00  0.22426918704E+03  0.22426918704E+03  0.00000000000E+00 0. -1.
         -4   -1    0    0    0  501 -0.00000000000E+00 -0.00000000000E+00 -0.84286739899E+02  0.84286739899E+02  0.00000000000E+00 0. -1.
         36    2    1    2    0    0  0.14210854715E-13 -0.17763568394E-14  0.13998244714E+03  0.30855592694E+03  0.27497577083E+03 0.  0.
         25    2    3    3    0    0 -0.50836080322E+02  0.15906602695E+02  0.75276345486E+02  0.15471668280E+03  0.12423122262E+03 0.  0.
         25    2    3    3    0    0  0.50836080322E+02 -0.15906602695E+02  0.64706101659E+02  0.15383924415E+03  0.12900506337E+03 0.  0.
          5    1    4    4  502    0 -0.67859664349E+02 -0.26161709446E+01 -0.71137371866E+01  0.68443214804E+02  0.47000000000E+01 0.  1.
         -5    1    4    4    0  502  0.17023584028E+02  0.18522773639E+02  0.82390082672E+02  0.86273467991E+02  0.47000000000E+01 0.  1.
          5    1    5    5  503    0 -0.11209159267E+02 -0.65632838146E+01  0.86237346850E+02  0.87336658613E+02  0.47000000000E+01 0.  1.
         -5    1    5    5    0  503  0.62045239588E+02 -0.93433188799E+01 -0.21531245191E+02  0.66502585534E+02  0.47000000000E+01 0.  1.
<mgrwt>
<rscale>  0 0.27497577E+03</rscale>
<asrwt>0</asrwt>
<pdfrwt beam="1">  1        4 0.34502952E-01 0.27497577E+03</pdfrwt>
<pdfrwt beam="2">  1       -4 0.12967191E-01 0.27497577E+03</pdfrwt>
<totfact> 0.74071542E+02</totfact>
</mgrwt>
</event>
<event>
 9    1  0.2095749E-002  0.2753799E+03  0.7818608E-02  0.1098239E+00
          1   -1    0    0  501    0  0.00000000000E+00  0.00000000000E+00  0.11582716574E+04  0.11582716574E+04  0.00000000000E+00 0.  1.
         -1   -1    0    0    0  501 -0.00000000000E+00 -0.00000000000E+00 -0.16367940690E+02  0.16367940690E+02  0.00000000000E+00 0.  1.
         36    2    1    2    0    0  0.35527136788E-14  0.00000000000E+00  0.11419037167E+04  0.11746395981E+04  0.27537989608E+03 0.  0.
         25    2    3    3    0    0  0.11223180516E+02  0.14619047368E+02  0.68977542968E+03  0.70133088520E+03  0.12543998892E+03 0.  0.
         25    2    3    3    0    0 -0.11223180516E+02 -0.14619047368E+02  0.45212828703E+03  0.47330871289E+03  0.13878571049E+03 0.  0.
          5    1    4    4  502    0 -0.15722156693E+02  0.65240902928E+02  0.30948392250E+03  0.31671114586E+03  0.47000000000E+01 0.  1.
         -5    1    4    4    0  502  0.26945337209E+02 -0.50621855561E+02  0.38029150718E+03  0.38461973934E+03  0.47000000000E+01 0.  1.
          5    1    5    5  503    0 -0.43696047257E+02 -0.65009570223E+02  0.28849825276E+03  0.29897979967E+03  0.47000000000E+01 0. -1.
         -5    1    5    5    0  503  0.32472866741E+02  0.50390522855E+02  0.16363003427E+03  0.17432891322E+03  0.47000000000E+01 0. -1.
<mgrwt>
<rscale>  0 0.27537990E+03</rscale>
<asrwt>0</asrwt>
<pdfrwt beam="1">  1        1 0.17819558E+00 0.27537990E+03</pdfrwt>
<pdfrwt beam="2">  1       -1 0.25181456E-02 0.27537990E+03</pdfrwt>
<totfact> 0.59864414E+03</totfact>
</mgrwt>
</event>
<event>
 9    1  0.2095749E-002  0.2740965E+03  0.7818608E-02  0.1098958E+00
          1   -1    0    0  501    0  0.00000000000E+00  0.00000000000E+00  0.80725538558E+02  0.80725538558E+02  0.00000000000E+00 0.  1.
         -1   -1    0    0    0  501 -0.00000000000E+00 -0.00000000000E+00 -0.23266769045E+03  0.23266769045E+03  0.00000000000E+00 0.  1.
         36    2    1    2    0    0 -0.71054273576E-14  0.17763568394E-14 -0.15194215189E+03  0.31339322900E+03  0.27409651305E+03 0.  0.
         25    2    3    3    0    0  0.13328797327E+02 -0.15447472633E+02 -0.22327911406E+02  0.12929063082E+03  0.12570302439E+03 0.  0.
         25    2    3    3    0    0 -0.13328797327E+02  0.15447472633E+02 -0.12961424048E+03  0.18410259818E+03  0.12914191447E+03 0.  0.
          5    1    4    4  502    0  0.32598564984E+02  0.13468097898E+02  0.42595998136E+02  0.55502839182E+02  0.47000000000E+01 0.  1.
         -5    1    4    4    0  502 -0.19269767658E+02 -0.28915570532E+02 -0.64923909542E+02  0.73787791639E+02  0.47000000000E+01 0.  1.
          5    1    5    5  503    0  0.43246272892E+02  0.24100187663E+02 -0.11433034630E+03  0.12467789398E+03  0.47000000000E+01 0.  1.
         -5    1    5    5    0  503 -0.56575070219E+02 -0.86527150296E+01 -0.15283894188E+02  0.59424704199E+02  0.47000000000E+01 0.  1.
<mgrwt>
<rscale>  0 0.27409651E+03</rscale>
<asrwt>0</asrwt>
<pdfrwt beam="1">  1        1 0.12419313E-01 0.27409651E+03</pdfrwt>
<pdfrwt beam="2">  1       -1 0.35795030E-01 0.27409651E+03</pdfrwt>
<totfact> 0.35842885E+03</totfact>
</mgrwt>
</event>
<event>
 9    1  0.2095749E-002  0.2772269E+03  0.7818608E-02  0.1097213E+00
         -2   -1    0    0    0  501 -0.00000000000E+00  0.00000000000E+00  0.39236010462E+02  0.39236010462E+02  0.00000000000E+00 0. -1.
          2   -1    0    0  501    0  0.00000000000E+00 -0.00000000000E+00 -0.48969512675E+03  0.48969512675E+03  0.00000000000E+00 0. -1.
         36    2    1    2    0    0  0.17763568394E-14  0.00000000000E+00 -0.45045911628E+03  0.52893113721E+03  0.27722686101E+03 0.  0.
         25    2    3    3    0    0 -0.12764458842E+02  0.56317627724E+02 -0.25178158765E+03  0.28730946963E+03  0.12577025427E+03 0.  0.
         25    2    3    3    0    0  0.12764458842E+02 -0.56317627724E+02 -0.19867752864E+03  0.24162166758E+03  0.12479448408E+03 0.  0.
          5    1    4    4  502    0  0.33876516114E+01  0.83283553109E+02 -0.23880912080E+03  0.25298124946E+03  0.47000000000E+01 0.  1.
         -5    1    4    4    0  502 -0.16152110453E+02 -0.26965925385E+02 -0.12972466850E+02  0.34328220171E+02  0.47000000000E+01 0.  1.
          5    1    5    5  503    0 -0.18087193975E+02  0.32477445248E+02 -0.92121275227E+02  0.99450240749E+02  0.47000000000E+01 0.  1.
         -5    1    5    5    0  503  0.30851652816E+02 -0.88795072972E+02 -0.10655625341E+03  0.14217142683E+03  0.47000000000E+01 0.  1.
<mgrwt>
<rscale>  0 0.27722686E+03</rscale>
<asrwt>0</asrwt>
<pdfrwt beam="1">  1        2 0.75337715E-01 0.27722686E+03</pdfrwt>
<pdfrwt beam="2">  1       -2 0.60363090E-02 0.27722686E+03</pdfrwt>
<totfact> 0.92950766E+03</totfact>
</mgrwt>
</event>
<event>
 9    1  0.2095749E-002  0.2744838E+03  0.7818608E-02  0.1098741E+00
          2   -1    0    0  501    0  0.00000000000E+00  0.00000000000E+00  0.16242494092E+03  0.16242494092E+03  0.00000000000E+00 0. -1.
         -2   -1    0    0    0  501 -0.00000000000E+00 -0.00000000000E+00 -0.11596331994E+03  0.11596331994E+03  0.00000000000E+00 0. -1.
         36    2    1    2    0    0  0.00000000000E+00 -0.35527136788E-14  0.46461620976E+02  0.27838826086E+03  0.27448377286E+03 0.  0.
         25    2    3    3    0    0  0.29659779902E+02 -0.33795988665E+01 -0.50455049521E+02  0.13579107496E+03  0.12248420218E+03 0.  0.
         25    2    3    3    0    0 -0.29659779902E+02  0.33795988665E+01  0.96916670497E+02  0.14259718591E+03  0.10024964926E+03 0.  0.
          5    1    4    4  502    0 -0.14874468184E+02 -0.55057727776E+02 -0.17211910043E+02  0.59757368072E+02  0.47000000000E+01 0. -1.
         -5    1    4    4    0  502  0.44534248086E+02  0.51678128909E+02 -0.33243139478E+02  0.76033706884E+02  0.47000000000E+01 0. -1.
          5    1    5    5  503    0  0.82146632757E+01  0.24649227530E+02 -0.91019540840E+01  0.27928492239E+02  0.47000000000E+01 0. -1.
         -5    1    5    5    0  503 -0.37874443177E+02 -0.21269628664E+02  0.10601862458E+03  0.11466869367E+03  0.47000000000E+01 0. -1.
<mgrwt>
<rscale>  0 0.27448377E+03</rscale>
<asrwt>0</asrwt>
<pdfrwt beam="1">  1        2 0.24988453E-01 0.27448377E+03</pdfrwt>
<pdfrwt beam="2">  1       -2 0.17840511E-01 0.27448377E+03</pdfrwt>
<totfact> 0.54622174E+03</totfact>
</mgrwt>
</event>
<event>
 9    1  0.2095749E-002  0.2744575E+03  0.7818608E-02  0.1098755E+00
         -2   -1    0    0    0  501 -0.00000000000E+00  0.00000000000E+00  0.13294677317E+02  0.13294677317E+02  0.00000000000E+00 0. -1.
          2   -1    0    0  501    0  0.00000000000E+00 -0.00000000000E+00 -0.14164868124E+04  0.14164868124E+04  0.00000000000E+00 0. -1.
         36    2    1    2    0    0 -0.71054273576E-14  0.00000000000E+00 -0.14031921351E+04  0.14297814897E+04  0.27445753839E+03 0.  0.
         25    2    3    3    0    0 -0.54468033818E+02 -0.63478601777E+01 -0.85938250523E+03  0.86898558088E+03  0.11657867489E+03 0.  0.
         25    2    3    3    0    0  0.54468033818E+02  0.63478601777E+01 -0.54380962984E+03  0.56079590883E+03  0.12552320827E+03 0.  0.
          5    1    4    4  502    0 -0.78416405532E+02  0.18547490266E+02 -0.38752573378E+03  0.39584267885E+03  0.47000000000E+01 0. -1.
         -5    1    4    4    0  502  0.23948371714E+02 -0.24895350444E+02 -0.47185677145E+03  0.47314290203E+03  0.47000000000E+01 0. -1.
          5    1    5    5  503    0  0.49890697416E+02  0.61250585559E+02 -0.37135951738E+03  0.37969816574E+03  0.47000000000E+01 0. -1.
         -5    1    5    5    0  503  0.45773364022E+01 -0.54902725382E+02 -0.17245011246E+03  0.18109774308E+03  0.47000000000E+01 0. -1.
<mgrwt>
<rscale>  0 0.27445754E+03</rscale>
<asrwt>0</asrwt>
<pdfrwt beam="1">  1        2 0.21792089E+00 0.27445754E+03</pdfrwt>
<pdfrwt beam="2">  1       -2 0.20453364E-02 0.27445754E+03</pdfrwt>
<totfact> 0.11318634E+04</totfact>
</mgrwt>
</event>
<event>
 9    1  0.2095749E-002  0.2702739E+03  0.7818608E-02  0.1101123E+00
         -2   -1    0    0    0  501 -0.00000000000E+00  0.00000000000E+00  0.64094298360E+02  0.64094298360E+02  0.00000000000E+00 0. -1.
          2   -1    0    0  501    0  0.00000000000E+00 -0.00000000000E+00 -0.28492394295E+03  0.28492394295E+03  0.00000000000E+00 0. -1.
         36    2    1    2    0    0  0.17763568394E-14  0.00000000000E+00 -0.22082964459E+03  0.34901824131E+03  0.27027393666E+03 0.  0.
         25    2    3    3    0    0  0.16952119287E+01 -0.29887023091E+02 -0.15773497725E+03  0.20133301155E+03  0.12148477517E+03 0.  0.
         25    2    3    3    0    0 -0.16952119287E+01  0.29887023091E+02 -0.63094667347E+02  0.14768522977E+03  0.13013025071E+03 0.  0.
          5    1    4    4  502    0  0.15774656431E+02 -0.57350982480E+02 -0.15926745035E+03  0.17007699938E+03  0.47000000000E+01 0. -1.
         -5    1    4    4    0  502 -0.14079444502E+02  0.27463959390E+02  0.15324731025E+01  0.31256012168E+02  0.47000000000E+01 0. -1.
          5    1    5    5  503    0  0.34672237457E+02 -0.73102806838E+00  0.28003126618E+02  0.44821463080E+02  0.47000000000E+01 0.  1.
         -5    1    5    5    0  503 -0.36367449386E+02  0.30618051159E+02 -0.91097793965E+02  0.10286376669E+03  0.47000000000E+01 0.  1.
<mgrwt>
<rscale>  0 0.27027394E+03</rscale>
<asrwt>0</asrwt>
<pdfrwt beam="1">  1        2 0.43834453E-01 0.27027394E+03</pdfrwt>
<pdfrwt beam="2">  1       -2 0.98606612E-02 0.27027394E+03</pdfrwt>
<totfact> 0.77807879E+03</totfact>
</mgrwt>
</event>
<event>
 9    1  0.2095749E-002  0.2748770E+03  0.7818608E-02  0.1098520E+00
         -1   -1    0    0    0  501 -0.00000000000E+00  0.00000000000E+00  0.46569964366E+02  0.46569964366E+02  0.00000000000E+00 0. -1.
          1   -1    0    0  501    0  0.00000000000E+00 -0.00000000000E+00 -0.40561218310E+03  0.40561218310E+03  0.00000000000E+00 0. -1.
         36    2    1    2    0    0  0.71054273576E-14  0.17763568394E-14 -0.35904221873E+03  0.45218214747E+03  0.27487702642E+03 0.  0.
         25    2    3    3    0    0 -0.40027029402E+02 -0.12285453604E+02 -0.10479799611E+03  0.16752529145E+03  0.12381037046E+03 0.  0.
         25    2    3    3    0    0  0.40027029402E+02  0.12285453604E+02 -0.25424422263E+03  0.28465685602E+03  0.12098059963E+03 0.  0.
          5    1    4    4  502    0  0.38536353374E+02 -0.87338957277E+01 -0.71842209461E+02  0.82126271839E+02  0.47000000000E+01 0. -1.
         -5    1    4    4    0  502 -0.78563382776E+02 -0.35515578766E+01 -0.32955786648E+02  0.85399019609E+02  0.47000000000E+01 0. -1.
          5    1    5    5  503    0  0.22863485337E+02  0.65847711054E+02 -0.16337903855E+03  0.17768922379E+03  0.47000000000E+01 0.  1.
         -5    1    5    5    0  503  0.17163544065E+02 -0.53562257450E+02 -0.90865184074E+02  0.10696763223E+03  0.47000000000E+01 0.  1.
<mgrwt>
<rscale>  0 0.27487703E+03</rscale>
<asrwt>0</asrwt>
<pdfrwt beam="1">  1        1 0.62401872E-01 0.27487703E+03</pdfrwt>
<pdfrwt beam="2">  1       -1 0.71646101E-02 0.27487703E+03</pdfrwt>
<totfact> 0.60328408E+03</totfact>
</mgrwt>
</event>
<event>
 9    1  0.2095749E-002  0.2739445E+03  0.7818608E-02  0.1099043E+00
          1   -1    0    0  501    0  0.00000000000E+00  0.00000000000E+00  0.13216577069E+03  0.13216577069E+03  0.00000000000E+00 0. -1.
         -1   -1    0    0    0  501 -0.00000000000E+00 -0.00000000000E+00 -0.14195355482E+03  0.14195355482E+03  0.00000000000E+00 0. -1.
         36    2    1    2    0    0 -0.71054273576E-14  0.00000000000E+00 -0.97877841319E+01  0.27411932551E+03  0.27394452705E+03 0.  0.
         25    2    3    3    0    0 -0.54990471484E+02  0.59330150264E+00  0.29046501974E+02  0.13844614867E+03  0.12369047192E+03 0.  0.
         25    2    3    3    0    0  0.54990471484E+02 -0.59330150264E+00 -0.38834286105E+02  0.13567317684E+03  0.11779136291E+03 0.  0.
          5    1    4    4  502    0 -0.10978209758E+02 -0.37289029798E+02  0.60631410463E+02  0.72175139539E+02  0.47000000000E+01 0. -1.
         -5    1    4    4    0  502 -0.44012261727E+02  0.37882331301E+02 -0.31584908490E+02  0.66271009132E+02  0.47000000000E+01 0. -1.
          5    1    5    5  503    0 -0.29097581561E+02 -0.24839181887E+02  0.27992591686E+01  0.38646863540E+02  0.47000000000E+01 0. -1.
         -5    1    5    5    0  503  0.84088053046E+02  0.24245880385E+02 -0.41633545274E+02  0.97026313301E+02  0.47000000000E+01 0. -1.
<mgrwt>
<rscale>  0 0.27394453E+03</rscale>
<asrwt>0</asrwt>
<pdfrwt beam="1">  1        1 0.20333196E-01 0.27394453E+03</pdfrwt>
<pdfrwt beam="2">  1       -1 0.21839008E-01 0.27394453E+03</pdfrwt>
<totfact> 0.43314479E+03</totfact>
</mgrwt>
</event>
<event>
 9    1  0.2095749E-002  0.2756698E+03  0.7818608E-02  0.1098078E+00
          1   -1    0    0  501    0  0.00000000000E+00  0.00000000000E+00  0.84154775593E+03  0.84154775593E+03  0.00000000000E+00 0. -1.
         -1   -1    0    0    0  501 -0.00000000000E+00 -0.00000000000E+00 -0.22575616855E+02  0.22575616855E+02  0.00000000000E+00 0. -1.
         36    2    1    2    0    0  0.71054273576E-14  0.00000000000E+00  0.81897213907E+03  0.86412337278E+03  0.27566980033E+03 0.  0.
         25    2    3    3    0    0  0.34448603874E+02  0.27927129435E+02  0.32236684292E+03  0.34854705387E+03  0.12489209933E+03 0.  0.
         25    2    3    3    0    0 -0.34448603874E+02 -0.27927129435E+02  0.49660529615E+03  0.51557631892E+03  0.13128400358E+03 0.  0.
          5    1    4    4  502    0 -0.19713684367E+02 -0.32232287221E+02  0.18631009721E+03  0.19016070049E+03  0.47000000000E+01 0.  1.
         -5    1    4    4    0  502  0.54162288241E+02  0.60159416656E+02  0.13605674572E+03  0.15838635337E+03  0.47000000000E+01 0.  1.
          5    1    5    5  503    0 -0.17806654734E+02 -0.23350427306E+02  0.14404608169E+02  0.33043942632E+02  0.47000000000E+01 0.  1.
         -5    1    5    5    0  503 -0.16641949140E+02 -0.45767021288E+01  0.48220068798E+03  0.48253237629E+03  0.47000000000E+01 0.  1.
<mgrwt>
<rscale>  0 0.27566980E+03</rscale>
<asrwt>0</asrwt>
<pdfrwt beam="1">  1        1 0.12946886E+00 0.27566980E+03</pdfrwt>
<pdfrwt beam="2">  1       -1 0.34731725E-02 0.27566980E+03</pdfrwt>
<totfact> 0.64497298E+03</totfact>
</mgrwt>
</event>
<event>
 9    1  0.2095749E-002  0.2724873E+03  0.7818608E-02  0.1099864E+00
         -1   -1    0    0    0  501 -0.00000000000E+00  0.00000000000E+00  0.13322395725E+02  0.13322395725E+02  0.00000000000E+00 0. -1.
          1   -1    0    0  501    0  0.00000000000E+00 -0.00000000000E+00 -0.13933182310E+04  0.13933182310E+04  0.00000000000E+00 0. -1.
         36    2    1    2    0    0  0.35527136788E-14  0.00000000000E+00 -0.13799958353E+04  0.14066406267E+04  0.27248733434E+03 0.  0.
         25    2    3    3    0    0  0.38914756190E+01  0.71455652633E+01 -0.95311881730E+03  0.96161932584E+03  0.12731867598E+03 0.  0.
         25    2    3    3    0    0 -0.38914756190E+01 -0.71455652633E+01 -0.42687701797E+03  0.44502130088E+03  0.12551401149E+03 0.  0.
          5    1    4    4  502    0  0.30230773461E+02 -0.53056123666E+02 -0.41880546132E+03  0.42325991584E+03  0.47000000000E+01 0. -1.
         -5    1    4    4    0  502 -0.26339297842E+02  0.60201688929E+02 -0.53431335597E+03  0.53835941000E+03  0.47000000000E+01 0. -1.
          5    1    5    5  503    0  0.24409555135E+02 -0.32315488596E+02 -0.38941238051E+03  0.39154081432E+03  0.47000000000E+01 0.  1.
         -5    1    5    5    0  503 -0.28301030754E+02  0.25169923333E+02 -0.37464637454E+02  0.53480486553E+02  0.47000000000E+01 0.  1.
<mgrwt>
<rscale>  0 0.27248733E+03</rscale>
<asrwt>0</asrwt>
<pdfrwt beam="1">  1        1 0.21435662E+00 0.27248733E+03</pdfrwt>
<pdfrwt beam="2">  1       -1 0.20495996E-02 0.27248733E+03</pdfrwt>
<totfact> 0.55775956E+03</totfact>
</mgrwt>
</event>
<event>
 9    1  0.2095749E-002  0.2757372E+03  0.7818608E-02  0.1098040E+00
         -2   -1    0    0    0  501 -0.00000000000E+00  0.00000000000E+00  0.13229681893E+02  0.13229681893E+02  0.00000000000E+00 0.  1.
          2   -1    0    0  501    0  0.00000000000E+00 -0.00000000000E+00 -0.14367503352E+04  0.14367503352E+04  0.00000000000E+00 0.  1.
         36    2    1    2    0    0  0.00000000000E+00 -0.17763568394E-14 -0.14235206533E+04  0.14499800171E+04  0.27573719296E+03 0.  0.
         25    2    3    3    0    0  0.10856505562E+02 -0.14420023908E+02 -0.10021470533E+04  0.10102006443E+04  0.12601914369E+03 0.  0.
         25    2    3    3    0    0 -0.10856505562E+02  0.14420023908E+02 -0.42137360008E+03  0.43977937283E+03  0.12459689049E+03 0.  0.
          5    1    4    4  502    0 -0.41337715209E+02  0.22895092022E+02 -0.20352683742E+03  0.20899343408E+03  0.47000000000E+01 0. -1.
         -5    1    4    4    0  502  0.52194220771E+02 -0.37315115930E+02 -0.79862021584E+03  0.80120721021E+03  0.47000000000E+01 0. -1.
          5    1    5    5  503    0  0.51176396516E+02 -0.13494129543E+02 -0.24474506978E+03  0.25044631016E+03  0.47000000000E+01 0.  1.
         -5    1    5    5    0  503 -0.62032902078E+02  0.27914153451E+02 -0.17662853030E+03  0.18933306267E+03  0.47000000000E+01 0.  1.
<mgrwt>
<rscale>  0 0.27573719E+03</rscale>
<asrwt>0</asrwt>
<pdfrwt beam="1">  1        2 0.22103846E+00 0.27573719E+03</pdfrwt>
<pdfrwt beam="2">  1       -2 0.20353361E-02 0.27573719E+03</pdfrwt>
<totfact> 0.11117712E+04</totfact>
</mgrwt>
</event>
<event>
 9    1  0.2095749E-002  0.2748872E+03  0.7818608E-02  0.1098515E+00
         -3   -1    0    0    0  501 -0.00000000000E+00  0.00000000000E+00  0.79833753909E+03  0.79833753909E+03  0.00000000000E+00 0.  1.
          3   -1    0    0  501    0  0.00000000000E+00 -0.00000000000E+00 -0.23662600449E+02  0.23662600449E+02  0.00000000000E+00 0.  1.
         36    2    1    2    0    0  0.14210854715E-13  0.35527136788E-14  0.77467493864E+03  0.82200013954E+03  0.27488719294E+03 0.  0.
         25    2    3    3    0    0 -0.55939828505E+02 -0.27222094446E+02  0.39146135173E+03  0.41437153364E+03  0.12079516197E+03 0.  0.
         25    2    3    3    0    0  0.55939828505E+02  0.27222094446E+02  0.38321358692E+03  0.40762860590E+03  0.12425023265E+03 0.  0.
          5    1    4    4  502    0  0.13173356576E+02 -0.24244152123E+02  0.15349659607E+02  0.31922065812E+02  0.47000000000E+01 0.  1.
         -5    1    4    4    0  502 -0.69113185081E+02 -0.29779423228E+01  0.37611169212E+03  0.38244946783E+03  0.47000000000E+01 0.  1.
          5    1    5    5  503    0  0.51250912968E+01 -0.44086523194E+02  0.75903919352E+02  0.88053296708E+02  0.47000000000E+01 0. -1.
         -5    1    5    5    0  503  0.50814737208E+02  0.71308617640E+02  0.30730966757E+03  0.31957530919E+03  0.47000000000E+01 0. -1.
<mgrwt>
<rscale>  0 0.27488719E+03</rscale>
<asrwt>0</asrwt>
<pdfrwt beam="1">  1        3 0.36404007E-02 0.27488719E+03</pdfrwt>
<pdfrwt beam="2">  1       -3 0.12282114E+00 0.27488719E+03</pdfrwt>
<totfact> 0.53388974E+02</totfact>
</mgrwt>
</event>
<event>
 9    1  0.2095749E-002  0.2749836E+03  0.7818608E-02  0.1098461E+00
         -2   -1    0    0    0  501 -0.00000000000E+00  0.00000000000E+00  0.26275135489E+02  0.26275135489E+02  0.00000000000E+00 0. -1.
          2   -1    0    0  501    0  0.00000000000E+00 -0.00000000000E+00 -0.71946317161E+03  0.71946317161E+03  0.00000000000E+00 0. -1.
         36    2    1    2    0    0 -0.35527136788E-14  0.17763568394E-14 -0.69318803612E+03  0.74573830709E+03  0.27498357997E+03 0.  0.
         25    2    3    3    0    0  0.14891792579E+02 -0.12459140855E+02 -0.30722863157E+03  0.34010619819E+03  0.14458837545E+03 0.  0.
         25    2    3    3    0    0 -0.14891792579E+02  0.12459140855E+02 -0.38595940455E+03  0.40563210891E+03  0.12327104339E+03 0.  0.
          5    1    4    4  502    0 -0.17902499054E+02 -0.94490149509E+01  0.86288466445E+01  0.22501785492E+02  0.47000000000E+01 0. -1.
         -5    1    4    4    0  502  0.32794291632E+02 -0.30101259039E+01 -0.31585747821E+03  0.31760441269E+03  0.47000000000E+01 0. -1.
          5    1    5    5  503    0 -0.25897866517E+02  0.46874663258E+02 -0.73535269138E+02  0.91090391112E+02  0.47000000000E+01 0.  1.
         -5    1    5    5    0  503  0.11006073938E+02 -0.34415522403E+02 -0.31242413541E+03  0.31454171780E+03  0.47000000000E+01 0.  1.
<mgrwt>
<rscale>  0 0.27498358E+03</rscale>
<asrwt>0</asrwt>
<pdfrwt beam="1">  1        2 0.11068664E+00 0.27498358E+03</pdfrwt>
<pdfrwt beam="2">  1       -2 0.40423286E-02 0.27498358E+03</pdfrwt>
<totfact> 0.10925977E+04</totfact>
</mgrwt>
</event>
<event>
 9    1  0.2095749E-002  0.2747500E+03  0.7818608E-02  0.1098591E+00
         -1   -1    0    0    0  501 -0.00000000000E+00  0.00000000000E+00  0.59726263863E+03  0.59726263863E+03  0.00000000000E+00 0.  1.
          1   -1    0    0  501    0  0.00000000000E+00 -0.00000000000E+00 -0.31597303281E+02  0.31597303281E+02  0.00000000000E+00 0.  1.
         36    2    1    2    0    0 -0.35527136788E-14  0.00000000000E+00  0.56566533535E+03  0.62885994191E+03  0.27474998621E+03 0.  0.
         25    2    3    3    0    0 -0.25477924786E+02 -0.39665242284E+02  0.36592496106E+03  0.38888190545E+03  0.12290485411E+03 0.  0.
         25    2    3    3    0    0  0.25477924786E+02  0.39665242284E+02  0.19974037429E+03  0.23997803646E+03  0.12438160943E+03 0.  0.
          5    1    4    4  502    0 -0.34225239024E+02  0.29726607101E+02  0.24419155279E+03  0.24840821768E+03  0.47000000000E+01 0. -1.
         -5    1    4    4    0  502  0.87473142382E+01 -0.69391849385E+02  0.12173340826E+03  0.14047368777E+03  0.47000000000E+01 0. -1.
          5    1    5    5  503    0 -0.10815286844E+02  0.78630869312E+02  0.11622643884E+03  0.14082066298E+03  0.47000000000E+01 0.  1.
         -5    1    5    5    0  503  0.36293211630E+02 -0.38965627028E+02  0.83513935454E+02  0.99157373479E+02  0.47000000000E+01 0.  1.
<mgrwt>
<rscale>  0 0.27474999E+03</rscale>
<asrwt>0</asrwt>
<pdfrwt beam="1">  1        1 0.48611240E-02 0.27474999E+03</pdfrwt>
<pdfrwt beam="2">  1       -1 0.91886551E-01 0.27474999E+03</pdfrwt>
<totfact> 0.20999879E+03</totfact>
</mgrwt>
</event>
<event>
 9    1  0.2095749E-002  0.2709558E+03  0.7818608E-02  0.1100734E+00
         -1   -1    0    0    0  501 -0.00000000000E+00  0.00000000000E+00  0.23943563935E+02  0.23943563935E+02  0.00000000000E+00 0. -1.
          1   -1    0    0  501    0  0.00000000000E+00 -0.00000000000E+00 -0.76656331831E+03  0.76656331831E+03  0.00000000000E+00 0. -1.
         36    2    1    2    0    0  0.00000000000E+00  0.71054273576E-14 -0.74261975437E+03  0.79050688224E+03  0.27095577367E+03 0.  0.
         25    2    3    3    0    0  0.22706754624E+02  0.43284323576E+02 -0.36819620076E+03  0.39181174766E+03  0.12473521548E+03 0.  0.
         25    2    3    3    0    0 -0.22706754624E+02 -0.43284323576E+02 -0.37442355362E+03  0.39869513458E+03  0.12796750940E+03 0.  0.
          5    1    4    4  502    0 -0.50724421871E+02  0.26733639984E+02 -0.18361371154E+03  0.19241553873E+03  0.47000000000E+01 0. -1.
         -5    1    4    4    0  502  0.73431176495E+02  0.16550683592E+02 -0.18458248922E+03  0.19939620893E+03  0.47000000000E+01 0. -1.
          5    1    5    5  503    0 -0.70128335771E+02 -0.80561720095E+00 -0.23629538308E+03  0.24652835651E+03  0.47000000000E+01 0.  1.
         -5    1    5    5    0  503  0.47421581147E+02 -0.42478706375E+02 -0.13812817053E+03  0.15216677807E+03  0.47000000000E+01 0.  1.
<mgrwt>
<rscale>  0 0.27095577E+03</rscale>
<asrwt>0</asrwt>
<pdfrwt beam="1">  1        1 0.11793281E+00 0.27095577E+03</pdfrwt>
<pdfrwt beam="2">  1       -1 0.36836253E-02 0.27095577E+03</pdfrwt>
<totfact> 0.68235566E+03</totfact>
</mgrwt>
</event>
<event>
 9    1  0.2095749E-002  0.2744835E+03  0.7818608E-02  0.1098741E+00
          1   -1    0    0  501    0  0.00000000000E+00  0.00000000000E+00  0.34841707327E+03  0.34841707327E+03  0.00000000000E+00 0.  1.
         -1   -1    0    0    0  501 -0.00000000000E+00 -0.00000000000E+00 -0.54059631205E+02  0.54059631205E+02  0.00000000000E+00 0.  1.
         36    2    1    2    0    0  0.00000000000E+00  0.00000000000E+00  0.29435744206E+03  0.40247670447E+03  0.27448350396E+03 0.  0.
         25    2    3    3    0    0  0.32107405655E+02 -0.33161809404E+02  0.15044222181E+03  0.20207709235E+03  0.12677420103E+03 0.  0.
         25    2    3    3    0    0 -0.32107405655E+02  0.33161809404E+02  0.14391522025E+03  0.20039961213E+03  0.13159719914E+03 0.  0.
          5    1    4    4  502    0  0.55011456367E+02 -0.54015410961E+02  0.39417369121E+02  0.86716457154E+02  0.47000000000E+01 0.  1.
         -5    1    4    4    0  502 -0.22904050712E+02  0.20853601557E+02  0.11102485269E+03  0.11536063519E+03  0.47000000000E+01 0.  1.
          5    1    5    5  503    0  0.37651992288E+02  0.38630375351E+02  0.19449327896E+02  0.57535595753E+02  0.47000000000E+01 0.  1.
         -5    1    5    5    0  503 -0.69759397944E+02 -0.54685659473E+01  0.12446589236E+03  0.14286401638E+03  0.47000000000E+01 0.  1.
<mgrwt>
<rscale>  0 0.27448350E+03</rscale>
<asrwt>0</asrwt>
<pdfrwt beam="1">  1        1 0.53602625E-01 0.27448350E+03</pdfrwt>
<pdfrwt beam="2">  1       -1 0.83168666E-02 0.27448350E+03</pdfrwt>
<totfact> 0.58335465E+03</totfact>
</mgrwt>
</event>
<event>
 9    1  0.2095749E-002  0.2718254E+03  0.7818608E-02  0.1100239E+00
          1   -1    0    0  501    0  0.00000000000E+00  0.00000000000E+00  0.51860839720E+03  0.51860839720E+03  0.00000000000E+00 0. -1.
         -1   -1    0    0    0  501 -0.00000000000E+00 -0.00000000000E+00 -0.35618903180E+02  0.35618903180E+02  0.00000000000E+00 0. -1.
         36    2    1    2    0    0  0.00000000000E+00  0.17763568394E-14  0.48298949402E+03  0.55422730038E+03  0.27182540196E+03 0.  0.
         25    2    3    3    0    0  0.51575795817E+02 -0.12219407587E+02  0.28962938875E+03  0.31883820413E+03  0.12232432689E+03 0.  0.
         25    2    3    3    0    0 -0.51575795817E+02  0.12219407587E+02  0.19336010527E+03  0.23538909625E+03  0.12333093565E+03 0.  0.
          5    1    4    4  502    0  0.69804566289E+02  0.91086171792E+01  0.28008159786E+03  0.28883115455E+03  0.47000000000E+01 0.  1.
         -5    1    4    4    0  502 -0.18228770472E+02 -0.21328024766E+02  0.95477908918E+01  0.30007049576E+02  0.47000000000E+01 0.  1.
          5    1    5    5  503    0  0.30049313523E+02 -0.29489989723E+02  0.65106344231E+02  0.77675908724E+02  0.47000000000E+01 0. -1.
         -5    1    5    5    0  503 -0.81625109340E+02  0.41709397310E+02  0.12825376103E+03  0.15771318752E+03  0.47000000000E+01 0. -1.
<mgrwt>
<rscale>  0 0.27182540E+03</rscale>
<asrwt>0</asrwt>
<pdfrwt beam="1">  1        1 0.79785902E-01 0.27182540E+03</pdfrwt>
<pdfrwt beam="2">  1       -1 0.54798316E-02 0.27182540E+03</pdfrwt>
<totfact> 0.65552253E+03</totfact>
</mgrwt>
</event>
<event>
 9    1  0.2095749E-002  0.2752996E+03  0.7818608E-02  0.1098284E+00
         -1   -1    0    0    0  501 -0.00000000000E+00  0.00000000000E+00  0.86595586537E+02  0.86595586537E+02  0.00000000000E+00 0.  1.
          1   -1    0    0  501    0  0.00000000000E+00 -0.00000000000E+00 -0.21880413143E+03  0.21880413143E+03  0.00000000000E+00 0.  1.
         36    2    1    2    0    0 -0.17763568394E-14 -0.14210854715E-13 -0.13220854489E+03  0.30539971796E+03  0.27529963384E+03 0.  0.
         25    2    3    3    0    0  0.82509082871E+01  0.39121557877E+02 -0.10487322087E+03  0.16857457457E+03  0.12577925489E+03 0.  0.
         25    2    3    3    0    0 -0.82509082871E+01 -0.39121557877E+02 -0.27335324026E+02  0.13682514339E+03  0.12796611327E+03 0.  0.
          5    1    4    4  502    0 -0.74691783644E+01  0.32525457377E+02  0.22148425539E+02  0.40327865762E+02  0.47000000000E+01 0. -1.
         -5    1    4    4    0  502  0.15720086651E+02  0.65961004999E+01 -0.12702164640E+03  0.12824670881E+03  0.47000000000E+01 0. -1.
          5    1    5    5  503    0 -0.35586486752E+02  0.17076059613E+02  0.31612645198E+02  0.50788179606E+02  0.47000000000E+01 0. -1.
         -5    1    5    5    0  503  0.27335578465E+02 -0.56197617491E+02 -0.58947969223E+02  0.86036963784E+02  0.47000000000E+01 0. -1.
<mgrwt>
<rscale>  0 0.27529963E+03</rscale>
<asrwt>0</asrwt>
<pdfrwt beam="1">  1        1 0.33662174E-01 0.27529963E+03</pdfrwt>
<pdfrwt beam="2">  1       -1 0.13322398E-01 0.27529963E+03</pdfrwt>
<totfact> 0.50448014E+03</totfact>
</mgrwt>
</event>
<event>
 9    1  0.2095749E-002  0.2753695E+03  0.7818608E-02  0.1098245E+00
          2   -1    0    0  501    0  0.00000000000E+00  0.00000000000E+00  0.35136621662E+04  0.35136621662E+04  0.00000000000E+00 0. -1.
         -2   -1    0    0    0  501 -0.00000000000E+00 -0.00000000000E+00 -0.53952526711E+01  0.53952526711E+01  0.00000000000E+00 0. -1.
         36    2    1    2    0    0  0.35527136788E-14 -0.71054273576E-14  0.35082669135E+04  0.35190574189E+04  0.27536953490E+03 0.  0.
         25    2    3    3    0    0 -0.17466763793E+02 -0.32967928220E+02  0.23394740478E+04  0.23430454455E+04  0.12381909040E+03 0.  0.
         25    2    3    3    0    0  0.17466763793E+02  0.32967928220E+02  0.11687928657E+04  0.11760119734E+04  0.12464119079E+03 0.  0.
          5    1    4    4  502    0  0.29293760135E+02  0.35075231379E+02  0.72376507154E+03  0.72522159718E+03  0.47000000000E+01 0. -1.
         -5    1    4    4    0  502 -0.46760523929E+02 -0.68043159599E+02  0.16157089762E+04  0.16178238483E+04  0.47000000000E+01 0. -1.
          5    1    5    5  503    0 -0.16943621236E+02 -0.34312920613E+02  0.70721777779E+03  0.70826798462E+03  0.47000000000E+01 0.  1.
         -5    1    5    5    0  503  0.34410385029E+02  0.67280848833E+02  0.46157508796E+03  0.46774398878E+03  0.47000000000E+01 0.  1.
<mgrwt>
<rscale>  0 0.27536953E+03</rscale>
<asrwt>0</asrwt>
<pdfrwt beam="1">  1        2 0.54056158E+00 0.27536953E+03</pdfrwt>
<pdfrwt beam="2">  1       -2 0.83004168E-03 0.27536953E+03</pdfrwt>
<totfact> 0.27749079E+03</totfact>
</mgrwt>
</event>
<event>
 9    1  0.2095749E-002  0.2751063E+03  0.7818608E-02  0.1098392E+00
          1   -1    0    0  501    0  0.00000000000E+00  0.00000000000E+00  0.27356931580E+02  0.27356931580E+02  0.00000000000E+00 0. -1.
         -1   -1    0    0    0  501 -0.00000000000E+00 -0.00000000000E+00 -0.69162975338E+03  0.69162975338E+03  0.00000000000E+00 0. -1.
         36    2    1    2    0    0  0.17763568394E-14 -0.71054273576E-14 -0.66427282180E+03  0.71898668496E+03  0.27510629103E+03 0.  0.
         25    2    3    3    0    0  0.46723568797E+01  0.32209439786E+02 -0.45775161040E+03  0.47598920760E+03  0.12637210926E+03 0.  0.
         25    2    3    3    0    0 -0.46723568797E+01 -0.32209439786E+02 -0.20652121140E+03  0.24299747736E+03  0.12384459744E+03 0.  0.
          5    1    4    4  502    0 -0.67920357179E+01  0.78893291737E+02 -0.33031854630E+03  0.33970975149E+03  0.47000000000E+01 0.  1.
         -5    1    4    4    0  502  0.11464392598E+02 -0.46683851951E+02 -0.12743306410E+03  0.13627945611E+03  0.47000000000E+01 0.  1.
          5    1    5    5  503    0  0.53019844345E+02 -0.38881149740E+02 -0.79662043770E+02  0.10339719008E+03  0.47000000000E+01 0. -1.
         -5    1    5    5    0  503 -0.57692201224E+02  0.66717099548E+01 -0.12685916763E+03  0.13960028728E+03  0.47000000000E+01 0. -1.
<mgrwt>
<rscale>  0 0.27510629E+03</rscale>
<asrwt>0</asrwt>
<pdfrwt beam="1">  1        1 0.42087584E-02 0.27510629E+03</pdfrwt>
<pdfrwt beam="2">  1       -1 0.10640459E+00 0.27510629E+03</pdfrwt>
<totfact> 0.18527148E+03</totfact>
</mgrwt>
</event>
<event>
 9    1  0.2095749E-002  0.2759466E+03  0.7818608E-02  0.1097924E+00
          2   -1    0    0  501    0  0.00000000000E+00  0.00000000000E+00  0.34504105795E+04  0.34504105795E+04  0.00000000000E+00 0.  1.
         -2   -1    0    0    0  501 -0.00000000000E+00 -0.00000000000E+00 -0.55172075273E+01  0.55172075273E+01  0.00000000000E+00 0.  1.
         36    2    1    2    0    0  0.17763568394E-14  0.00000000000E+00  0.34448933720E+04  0.34559277870E+04  0.27594659789E+03 0.  0.
         25    2    3    3    0    0 -0.24739069212E+01 -0.51238436907E+02  0.19049738493E+04  0.19096132836E+04  0.12274375102E+03 0.  0.
         25    2    3    3    0    0  0.24739069212E+01  0.51238436907E+02  0.15399195226E+04  0.15463145035E+04  0.13078574021E+03 0.  0.
          5    1    4    4  502    0 -0.11928946168E+02 -0.35334579233E+02  0.15349813082E+03  0.15803353572E+03  0.47000000000E+01 0. -1.
         -5    1    4    4    0  502  0.94550392469E+01 -0.15903857674E+02  0.17514757185E+04  0.17515797478E+04  0.47000000000E+01 0. -1.
          5    1    5    5  503    0 -0.26833176801E+02  0.58767035348E+02  0.14476117934E+04  0.14490602397E+04  0.47000000000E+01 0.  1.
         -5    1    5    5    0  503  0.29307083722E+02 -0.75285984417E+01  0.92307729208E+02  0.97254263775E+02  0.47000000000E+01 0.  1.
<mgrwt>
<rscale>  0 0.27594660E+03</rscale>
<asrwt>0</asrwt>
<pdfrwt beam="1">  1        2 0.53083067E+00 0.27594660E+03</pdfrwt>
<pdfrwt beam="2">  1       -2 0.84880391E-03 0.27594660E+03</pdfrwt>
<totfact> 0.29570832E+03</totfact>
</mgrwt>
</event>
<event>
 9    1  0.2095749E-002  0.2731837E+03  0.7818608E-02  0.1099471E+00
         -2   -1    0    0    0  501 -0.00000000000E+00  0.00000000000E+00  0.18917476583E+02  0.18917476583E+02  0.00000000000E+00 0.  1.
          2   -1    0    0  501    0  0.00000000000E+00 -0.00000000000E+00 -0.98624862356E+03  0.98624862356E+03  0.00000000000E+00 0.  1.
         36    2    1    2    0    0 -0.14210854715E-13 -0.35527136788E-14 -0.96733114698E+03  0.10051661001E+04  0.27318371285E+03 0.  0.
         25    2    3    3    0    0 -0.41980286948E+02 -0.93835063011E+01 -0.56033854665E+03  0.57738105654E+03  0.13243565571E+03 0.  0.
         25    2    3    3    0    0  0.41980286948E+02  0.93835063011E+01 -0.40699260032E+03  0.42778504360E+03  0.12452578901E+03 0.  0.
          5    1    4    4  502    0 -0.72460110966E+02  0.33001180392E+02 -0.24334245711E+03  0.25608043077E+03  0.47000000000E+01 0. -1.
         -5    1    4    4    0  502  0.30479824018E+02 -0.42384686694E+02 -0.31699608954E+03  0.32130062577E+03  0.47000000000E+01 0. -1.
          5    1    5    5  503    0  0.47437779687E+02  0.20316819777E+02 -0.55062172366E+02  0.75611169367E+02  0.47000000000E+01 0.  1.
         -5    1    5    5    0  503 -0.54574927394E+01 -0.10933313475E+02 -0.35193042796E+03  0.35217387423E+03  0.47000000000E+01 0.  1.
<mgrwt>
<rscale>  0 0.27318371E+03</rscale>
<asrwt>0</asrwt>
<pdfrwt beam="1">  1        2 0.15173063E+00 0.27318371E+03</pdfrwt>
<pdfrwt beam="2">  1       -2 0.29103797E-02 0.27318371E+03</pdfrwt>
<totfact> 0.11833290E+04</totfact>
</mgrwt>
</event>
<event>
 9    1  0.2095749E-002  0.2745895E+03  0.7818608E-02  0.1098681E+00
          2   -1    0    0  501    0  0.00000000000E+00  0.00000000000E+00  0.56610902021E+03  0.56610902021E+03  0.00000000000E+00 0. -1.
         -2   -1    0    0    0  501 -0.00000000000E+00 -0.00000000000E+00 -0.33297209401E+02  0.33297209401E+02  0.00000000000E+00 0. -1.
         36    2    1    2    0    0 -0.71054273576E-14  0.71054273576E-14  0.53281181081E+03  0.59940622961E+03  0.27458951611E+03 0.  0.
         25    2    3    3    0    0 -0.34634797865E+02  0.32870791850E+02  0.20350589777E+03  0.24258748496E+03  0.12310149980E+03 0.  0.
         25    2    3    3    0    0  0.34634797865E+02 -0.32870791850E+02  0.32930591303E+03  0.35681874464E+03  0.12883001976E+03 0.  0.
          5    1    4    4  502    0 -0.44308376598E+02  0.74434379449E+02  0.15642907301E+03  0.17887384930E+03  0.47000000000E+01 0.  1.
         -5    1    4    4    0  502  0.96735787336E+01 -0.41563587599E+02  0.47076824764E+02  0.63713635664E+02  0.47000000000E+01 0.  1.
          5    1    5    5  503    0  0.68659374805E+00 -0.49260515679E+02  0.31051882865E+03  0.31443775658E+03  0.47000000000E+01 0.  1.
         -5    1    5    5    0  503  0.33948204117E+02  0.16389723829E+02  0.18787084384E+02  0.42380988068E+02  0.47000000000E+01 0.  1.
<mgrwt>
<rscale>  0 0.27458952E+03</rscale>
<asrwt>0</asrwt>
<pdfrwt beam="1">  1        2 0.87093688E-01 0.27458952E+03</pdfrwt>
<pdfrwt beam="2">  1       -2 0.51226480E-02 0.27458952E+03</pdfrwt>
<totfact> 0.10136025E+04</totfact>
</mgrwt>
</event>
<event>
 9    1  0.2095749E-002  0.2795189E+03  0.7818608E-02  0.1095952E+00
         -2   -1    0    0    0  501 -0.00000000000E+00  0.00000000000E+00  0.24978954336E+02  0.24978954336E+02  0.00000000000E+00 0. -1.
          2   -1    0    0  501    0  0.00000000000E+00 -0.00000000000E+00 -0.78196625750E+03  0.78196625750E+03  0.00000000000E+00 0. -1.
         36    2    1    2    0    0  0.00000000000E+00  0.00000000000E+00 -0.75698730316E+03  0.80694521183E+03  0.27951886833E+03 0.  0.
         25    2    3    3    0    0  0.40524345600E+01 -0.39156798485E+02 -0.54216853682E+03  0.55480322806E+03  0.11095144189E+03 0.  0.
         25    2    3    3    0    0 -0.40524345600E+01  0.39156798485E+02 -0.21481876634E+03  0.25214198377E+03  0.12601111266E+03 0.  0.
          5    1    4    4  502    0  0.53497254681E+02 -0.40918944645E+02 -0.33750576095E+03  0.34419259865E+03  0.47000000000E+01 0. -1.
         -5    1    4    4    0  502 -0.49444820121E+02  0.17621461591E+01 -0.20466277586E+03  0.21061062941E+03  0.47000000000E+01 0. -1.
          5    1    5    5  503    0  0.20339374793E+02  0.77760887903E+02 -0.16942297081E+03  0.18758112616E+03  0.47000000000E+01 0.  1.
         -5    1    5    5    0  503 -0.24391809353E+02 -0.38604089417E+02 -0.45395795533E+02  0.64560857610E+02  0.47000000000E+01 0.  1.
<mgrwt>
<rscale>  0 0.27951887E+03</rscale>
<asrwt>0</asrwt>
<pdfrwt beam="1">  1        2 0.12030249E+00 0.27951887E+03</pdfrwt>
<pdfrwt beam="2">  1       -2 0.38429164E-02 0.27951887E+03</pdfrwt>
<totfact> 0.10635965E+04</totfact>
</mgrwt>
</event>
<event>
 9    1  0.2095749E-002  0.2759010E+03  0.7818608E-02  0.1097949E+00
          2   -1    0    0  501    0  0.00000000000E+00  0.00000000000E+00  0.16330922916E+04  0.16330922916E+04  0.00000000000E+00 0. -1.
         -2   -1    0    0    0  501 -0.00000000000E+00 -0.00000000000E+00 -0.11652952723E+02  0.11652952723E+02  0.00000000000E+00 0. -1.
         36    2    1    2    0    0  0.00000000000E+00  0.00000000000E+00  0.16214393389E+04  0.16447452443E+04  0.27590104941E+03 0.  0.
         25    2    3    3    0    0 -0.48525022976E+02 -0.33286757173E+02  0.90889417005E+03  0.91943314345E+03  0.12572194265E+03 0.  0.
         25    2    3    3    0    0  0.48525022976E+02  0.33286757173E+02  0.71254516883E+03  0.72531210088E+03  0.12204236968E+03 0.  0.
          5    1    4    4  502    0 -0.68562886204E+02 -0.42347554426E+02  0.31715471564E+03  0.32726654027E+03  0.47000000000E+01 0. -1.
         -5    1    4    4    0  502  0.20037863229E+02  0.90607972525E+01  0.59173945442E+03  0.59216660318E+03  0.47000000000E+01 0. -1.
          5    1    5    5  503    0  0.56323540880E+02  0.70888869315E+02  0.38709487414E+03  0.39757025119E+03  0.47000000000E+01 0. -1.
         -5    1    5    5    0  503 -0.77985179042E+01 -0.37602112142E+02  0.32545029469E+03  0.32774184968E+03  0.47000000000E+01 0. -1.
<mgrwt>
<rscale>  0 0.27590105E+03</rscale>
<asrwt>0</asrwt>
<pdfrwt beam="1">  1        2 0.25124479E+00 0.27590105E+03</pdfrwt>
<pdfrwt beam="2">  1       -2 0.17927633E-02 0.27590105E+03</pdfrwt>
<totfact> 0.10525900E+04</totfact>
</mgrwt>
</event>
<event>
 9    1  0.2095749E-002  0.2750898E+03  0.7818608E-02  0.1098401E+00
         -2   -1    0    0    0  501 -0.00000000000E+00  0.00000000000E+00  0.11396873751E+02  0.11396873751E+02  0.00000000000E+00 0.  1.
          2   -1    0    0  501    0  0.00000000000E+00 -0.00000000000E+00 -0.16599814406E+04  0.16599814406E+04  0.00000000000E+00 0.  1.
         36    2    1    2    0    0 -0.35527136788E-14  0.35527136788E-14 -0.16485845669E+04  0.16713783144E+04  0.27508979558E+03 0.  0.
         25    2    3    3    0    0  0.26693521309E+02 -0.11127010551E+02 -0.11460238093E+04  0.11528504145E+04  0.12188991832E+03 0.  0.
         25    2    3    3    0    0 -0.26693521309E+02  0.11127010551E+02 -0.50256075758E+03  0.51852789992E+03  0.12436845861E+03 0.  0.
          5    1    4    4  502    0  0.60838340058E+01 -0.65997025117E+02 -0.59550522051E+03  0.59920044895E+03  0.47000000000E+01 0. -1.
         -5    1    4    4    0  502  0.20609687303E+02  0.54870014566E+02 -0.55051858880E+03  0.55364996553E+03  0.47000000000E+01 0. -1.
          5    1    5    5  503    0  0.40244694919E+02  0.14438473521E+02 -0.81632502805E+02  0.92271666837E+02  0.47000000000E+01 0.  1.
         -5    1    5    5    0  503 -0.66938216228E+02 -0.33114629692E+01 -0.42092825477E+03  0.42625623308E+03  0.47000000000E+01 0.  1.
<mgrwt>
<rscale>  0 0.27508980E+03</rscale>
<asrwt>0</asrwt>
<pdfrwt beam="1">  1        2 0.25538182E+00 0.27508980E+03</pdfrwt>
<pdfrwt beam="2">  1       -2 0.17533648E-02 0.27508980E+03</pdfrwt>
<totfact> 0.10524334E+04</totfact>
</mgrwt>
</event>
<event>
 9    1  0.2095749E-002  0.2756125E+03  0.7818608E-02  0.1098110E+00
          1   -1    0    0  501    0  0.00000000000E+00  0.00000000000E+00  0.32313589046E+03  0.32313589046E+03  0.00000000000E+00 0.  1.
         -1   -1    0    0    0  501 -0.00000000000E+00 -0.00000000000E+00 -0.58769595346E+02  0.58769595346E+02  0.00000000000E+00 0.  1.
         36    2    1    2    0    0 -0.71054273576E-14  0.00000000000E+00  0.26436629511E+03  0.38190548581E+03  0.27561252166E+03 0.  0.
         25    2    3    3    0    0 -0.36578552632E+02 -0.23838673238E+02  0.16795152793E+03  0.21557419450E+03  0.12789935398E+03 0.  0.
         25    2    3    3    0    0  0.36578552632E+02  0.23838673238E+02  0.96414767188E+02  0.16633129130E+03  0.12831219069E+03 0.  0.
          5    1    4    4  502    0  0.94726773431E+01  0.16203990443E+02 -0.13817871226E+02  0.23776553315E+02  0.47000000000E+01 0. -1.
         -5    1    4    4    0  502 -0.46051229975E+02 -0.40042663682E+02  0.18176939915E+03  0.19179764119E+03  0.47000000000E+01 0. -1.
          5    1    5    5  503    0 -0.58481382898E+01 -0.75788803313E+00  0.11382894796E+03  0.11407845769E+03  0.47000000000E+01 0.  1.
         -5    1    5    5    0  503  0.42426690922E+02  0.24596561271E+02 -0.17414180769E+02  0.52252833615E+02  0.47000000000E+01 0.  1.
<mgrwt>
<rscale>  0 0.27561252E+03</rscale>
<asrwt>0</asrwt>
<pdfrwt beam="1">  1        1 0.49713213E-01 0.27561252E+03</pdfrwt>
<pdfrwt beam="2">  1       -1 0.90414764E-02 0.27561252E+03</pdfrwt>
<totfact> 0.56457757E+03</totfact>
</mgrwt>
</event>
<event>
 9    1  0.2095749E-002  0.2749232E+03  0.7818608E-02  0.1098495E+00
          1   -1    0    0  501    0  0.00000000000E+00  0.00000000000E+00  0.50419117051E+03  0.50419117051E+03  0.00000000000E+00 0.  1.
         -1   -1    0    0    0  501 -0.00000000000E+00 -0.00000000000E+00 -0.37477226910E+02  0.37477226910E+02  0.00000000000E+00 0.  1.
         36    2    1    2    0    0  0.00000000000E+00  0.00000000000E+00  0.46671394359E+03  0.54166839742E+03  0.27492316675E+03 0.  0.
         25    2    3    3    0    0  0.52652153542E+00 -0.10448355109E+02  0.13062956794E+03  0.18195735561E+03  0.12623371139E+03 0.  0.
         25    2    3    3    0    0 -0.52652153542E+00  0.10448355109E+02  0.33608437565E+03  0.35971104180E+03  0.12778842157E+03 0.  0.
          5    1    4    4  502    0  0.87937083808E+01  0.49485808144E+02  0.17226759571E+02  0.53338782889E+02  0.47000000000E+01 0.  1.
         -5    1    4    4    0  502 -0.82671868454E+01 -0.59934163253E+02  0.11340280837E+03  0.12861857272E+03  0.47000000000E+01 0.  1.
          5    1    5    5  503    0  0.44537042817E+02  0.49285797635E+02  0.20814848319E+03  0.21854180169E+03  0.47000000000E+01 0.  1.
         -5    1    5    5    0  503 -0.45063564352E+02 -0.38837442527E+02  0.12793589247E+03  0.14116924012E+03  0.47000000000E+01 0.  1.
<mgrwt>
<rscale>  0 0.27492317E+03</rscale>
<asrwt>0</asrwt>
<pdfrwt beam="1">  1        1 0.77567867E-01 0.27492317E+03</pdfrwt>
<pdfrwt beam="2">  1       -1 0.57657276E-02 0.27492317E+03</pdfrwt>
<totfact> 0.63074818E+03</totfact>
</mgrwt>
</event>
<event>
 9    1  0.2095749E-002  0.2739058E+03  0.7818608E-02  0.1099065E+00
          2   -1    0    0  501    0  0.00000000000E+00  0.00000000000E+00  0.51020452197E+03  0.51020452197E+03  0.00000000000E+00 0. -1.
         -2   -1    0    0    0  501 -0.00000000000E+00 -0.00000000000E+00 -0.36761909606E+02  0.36761909606E+02  0.00000000000E+00 0. -1.
         36    2    1    2    0    0  0.71054273576E-14  0.00000000000E+00  0.47344261236E+03  0.54696643158E+03  0.27390576859E+03 0.  0.
         25    2    3    3    0    0 -0.16613335285E+02 -0.26225215702E+02  0.14011352405E+03  0.19155009087E+03  0.12686951108E+03 0.  0.
         25    2    3    3    0    0  0.16613335285E+02  0.26225215702E+02  0.33332908831E+03  0.35541634071E+03  0.11936804128E+03 0.  0.
          5    1    4    4  502    0 -0.55004379320E+02 -0.10546643959E+00  0.13343443680E+03  0.14440336489E+03  0.47000000000E+01 0.  1.
         -5    1    4    4    0  502  0.38391044035E+02 -0.26119749263E+02  0.66790872501E+01  0.47146725975E+02  0.47000000000E+01 0.  1.
          5    1    5    5  503    0 -0.39319067773E+02  0.39292816607E+02  0.23419968937E+03  0.24075194501E+03  0.47000000000E+01 0.  1.
         -5    1    5    5    0  503  0.55932403058E+02 -0.13067600905E+02  0.99129398943E+02  0.11466439569E+03  0.47000000000E+01 0.  1.
<mgrwt>
<rscale>  0 0.27390577E+03</rscale>
<asrwt>0</asrwt>
<pdfrwt beam="1">  1        2 0.78492999E-01 0.27390577E+03</pdfrwt>
<pdfrwt beam="2">  1       -2 0.56556788E-02 0.27390577E+03</pdfrwt>
<totfact> 0.98050455E+03</totfact>
</mgrwt>
</event>
<event>
 9    1  0.2095749E-002  0.2743604E+03  0.7818608E-02  0.1098810E+00
          2   -1    0    0  501    0  0.00000000000E+00  0.00000000000E+00  0.16557878796E+04  0.16557878796E+04  0.00000000000E+00 0. -1.
         -2   -1    0    0    0  501 -0.00000000000E+00 -0.00000000000E+00 -0.11365228864E+02  0.11365228864E+02  0.00000000000E+00 0. -1.
         36    2    1    2    0    0  0.35527136788E-14 -0.71054273576E-14  0.16444226508E+04  0.16671531085E+04  0.27436040678E+03 0.  0.
         25    2    3    3    0    0  0.19632245216E+02 -0.10127542773E+01  0.11540586580E+04  0.11610824263E+04  0.12599430108E+03 0.  0.
         25    2    3    3    0    0 -0.19632245216E+02  0.10127542773E+01  0.49036399279E+03  0.50607068219E+03  0.12354852982E+03 0.  0.
          5    1    4    4  502    0  0.42897391551E+02 -0.31079608078E+02  0.10269741865E+04  0.10283502312E+04  0.47000000000E+01 0. -1.
         -5    1    4    4    0  502 -0.23265146335E+02  0.30066853801E+02  0.12708447148E+03  0.13273219512E+03  0.47000000000E+01 0. -1.
          5    1    5    5  503    0  0.28595130509E+02 -0.48066782961E+02  0.22264608731E+03  0.22961155744E+03  0.47000000000E+01 0.  1.
         -5    1    5    5    0  503 -0.48227375725E+02  0.49079537238E+02  0.26771790548E+03  0.27645912475E+03  0.47000000000E+01 0.  1.
<mgrwt>
<rscale>  0 0.27436041E+03</rscale>
<asrwt>0</asrwt>
<pdfrwt beam="1">  1        2 0.25473641E+00 0.27436041E+03</pdfrwt>
<pdfrwt beam="2">  1       -2 0.17484981E-02 0.27436041E+03</pdfrwt>
<totfact> 0.10620854E+04</totfact>
</mgrwt>
</event>
<event>
 9    1  0.2095749E-002  0.2753182E+03  0.7818608E-02  0.1098274E+00
          1   -1    0    0  501    0  0.00000000000E+00  0.00000000000E+00  0.75657497725E+03  0.75657497725E+03  0.00000000000E+00 0. -1.
         -1   -1    0    0    0  501 -0.00000000000E+00 -0.00000000000E+00 -0.25047125515E+02  0.25047125515E+02  0.00000000000E+00 0. -1.
         36    2    1    2    0    0 -0.35527136788E-14 -0.71054273576E-14  0.73152785174E+03  0.78162210277E+03  0.27531820439E+03 0.  0.
         25    2    3    3    0    0  0.27085600956E+02 -0.10625940529E+02  0.21635707458E+03  0.25050515783E+03  0.12286541413E+03 0.  0.
         25    2    3    3    0    0 -0.27085600956E+02  0.10625940529E+02  0.51517077716E+03  0.53111694493E+03  0.12584807971E+03 0.  0.
          5    1    4    4  502    0  0.47337491305E+02 -0.56779765053E+02  0.10867594510E+03  0.13151931738E+03  0.47000000000E+01 0.  1.
         -5    1    4    4    0  502 -0.20251890349E+02  0.46153824524E+02  0.10768112948E+03  0.11898584045E+03  0.47000000000E+01 0.  1.
          5    1    5    5  503    0  0.30494172194E+01 -0.54665924895E+02  0.27186849294E+03  0.27736659810E+03  0.47000000000E+01 0. -1.
         -5    1    5    5    0  503 -0.30135018176E+02  0.65291865424E+02  0.24330228422E+03  0.25375034683E+03  0.47000000000E+01 0. -1.
<mgrwt>
<rscale>  0 0.27531820E+03</rscale>
<asrwt>0</asrwt>
<pdfrwt beam="1">  1        1 0.11639613E+00 0.27531820E+03</pdfrwt>
<pdfrwt beam="2">  1       -1 0.38534045E-02 0.27531820E+03</pdfrwt>
<totfact> 0.65122449E+03</totfact>
</mgrwt>
</event>
<event>
 9    1  0.2095749E-002  0.2743656E+03  0.7818608E-02  0.1098807E+00
         -2   -1    0    0    0  501 -0.00000000000E+00  0.00000000000E+00  0.30721680500E+02  0.30721680500E+02  0.00000000000E+00 0.  1.
          2   -1    0    0  501    0  0.00000000000E+00 -0.00000000000E+00 -0.61256799036E+03  0.61256799036E+03  0.00000000000E+00 0.  1.
         36    2    1    2    0    0  0.00000000000E+00 -0.71054273576E-14 -0.58184630986E+03  0.64328967086E+03  0.27436558155E+03 0.  0.
         25    2    3    3    0    0 -0.28469786834E+02 -0.58224688507E+02 -0.31187193668E+03  0.33843337487E+03  0.11433460205E+03 0.  0.
         25    2    3    3    0    0  0.28469786834E+02  0.58224688507E+02 -0.26997437318E+03  0.30485629599E+03  0.12589899092E+03 0.  0.
          5    1    4    4  502    0 -0.63778656643E+02 -0.13688205139E+02 -0.10377812691E+03  0.12266651388E+03  0.47000000000E+01 0. -1.
         -5    1    4    4    0  502  0.35308869809E+02 -0.44536483368E+02 -0.20809380977E+03  0.21576686099E+03  0.47000000000E+01 0. -1.
          5    1    5    5  503    0 -0.47200052013E+00 -0.36163219354E+02 -0.11852469457E+03  0.12400884824E+03  0.47000000000E+01 0.  1.
         -5    1    5    5    0  503  0.28941787354E+02  0.94387907861E+02 -0.15144967862E+03  0.18084744775E+03  0.47000000000E+01 0.  1.
<mgrwt>
<rscale>  0 0.27436558E+03</rscale>
<asrwt>0</asrwt>
<pdfrwt beam="1">  1        2 0.94241232E-01 0.27436558E+03</pdfrwt>
<pdfrwt beam="2">  1       -2 0.47264122E-02 0.27436558E+03</pdfrwt>
<totfact> 0.10455246E+04</totfact>
</mgrwt>
</event>
<event>
 9    1  0.2095749E-002  0.2748930E+03  0.7818608E-02  0.1098511E+00
         -2   -1    0    0    0  501 -0.00000000000E+00  0.00000000000E+00  0.20230169940E+03  0.20230169940E+03  0.00000000000E+00 0.  1.
          2   -1    0    0  501    0  0.00000000000E+00 -0.00000000000E+00 -0.93383017780E+02  0.93383017780E+02  0.00000000000E+00 0.  1.
         36    2    1    2    0    0 -0.71054273576E-14 -0.35527136788E-14  0.10891868162E+03  0.29568471718E+03  0.27489302059E+03 0.  0.
         25    2    3    3    0    0 -0.66416849616E+01  0.14544320849E+02  0.17779615244E+02  0.14593470364E+03  0.14396240398E+03 0.  0.
         25    2    3    3    0    0  0.66416849616E+01 -0.14544320849E+02  0.91139066375E+02  0.14975001354E+03  0.11774161494E+03 0.  0.
          5    1    4    4  502    0 -0.61538517524E+02  0.32628032696E+02 -0.24698309259E+02  0.74051834122E+02  0.47000000000E+01 0.  1.
         -5    1    4    4    0  502  0.54896832562E+02 -0.18083711847E+02  0.42477924504E+02  0.71882869515E+02  0.47000000000E+01 0.  1.
          5    1    5    5  503    0 -0.53388539303E+02  0.83216878050E+01  0.45729035172E+02  0.70942379961E+02  0.47000000000E+01 0. -1.
         -5    1    5    5    0  503  0.60030224264E+02 -0.22866008654E+02  0.45410031203E+02  0.78807633582E+02  0.47000000000E+01 0. -1.
<mgrwt>
<rscale>  0 0.27489302E+03</rscale>
<asrwt>0</asrwt>
<pdfrwt beam="1">  1        2 0.14366618E-01 0.27489302E+03</pdfrwt>
<pdfrwt beam="2">  1       -2 0.31123338E-01 0.27489302E+03</pdfrwt>
<totfact> 0.39017092E+03</totfact>
</mgrwt>
</event>
<event>
 9    1  0.2095749E-002  0.2742969E+03  0.7818608E-02  0.1098845E+00
         -3   -1    0    0    0  501 -0.00000000000E+00  0.00000000000E+00  0.78218115796E+03  0.78218115796E+03  0.00000000000E+00 0. -1.
          3   -1    0    0  501    0  0.00000000000E+00 -0.00000000000E+00 -0.24047743676E+02  0.24047743676E+02  0.00000000000E+00 0. -1.
         36    2    1    2    0    0 -0.71054273576E-14  0.00000000000E+00  0.75813341428E+03  0.80622890164E+03  0.27429686105E+03 0.  0.
         25    2    3    3    0    0  0.24759494975E+02  0.23111519113E+02  0.25309796384E+03  0.28481444836E+03  0.12614878433E+03 0.  0.
         25    2    3    3    0    0 -0.24759494975E+02 -0.23111519113E+02  0.50503545044E+03  0.52141445327E+03  0.12516010136E+03 0.  0.
          5    1    4    4  502    0  0.65179504340E+02  0.27662158130E+02  0.22293898998E+03  0.23396035141E+03  0.47000000000E+01 0. -1.
         -5    1    4    4    0  502 -0.40420009364E+02 -0.45506390168E+01  0.30158973861E+02  0.50854096952E+02  0.47000000000E+01 0. -1.
          5    1    5    5  503    0 -0.50030333353E+02  0.13572231999E+02  0.89992783283E+02  0.10396167938E+03  0.47000000000E+01 0.  1.
         -5    1    5    5    0  503  0.25270838377E+02 -0.36683751112E+02  0.41504266716E+03  0.41745277389E+03  0.47000000000E+01 0.  1.
<mgrwt>
<rscale>  0 0.27429686E+03</rscale>
<asrwt>0</asrwt>
<pdfrwt beam="1">  1        3 0.36996535E-02 0.27429686E+03</pdfrwt>
<pdfrwt beam="2">  1       -3 0.12033554E+00 0.27429686E+03</pdfrwt>
<totfact> 0.54659761E+02</totfact>
</mgrwt>
</event>
<event>
 9    1  0.2095749E-002  0.2751271E+03  0.7818608E-02  0.1098381E+00
          1   -1    0    0  501    0  0.00000000000E+00  0.00000000000E+00  0.35861196469E+03  0.35861196469E+03  0.00000000000E+00 0.  1.
         -1   -1    0    0    0  501 -0.00000000000E+00 -0.00000000000E+00 -0.52769369786E+02  0.52769369786E+02  0.00000000000E+00 0.  1.
         36    2    1    2    0    0  0.00000000000E+00 -0.14210854715E-13  0.30584259491E+03  0.41138133448E+03  0.27512707882E+03 0.  0.
         25    2    3    3    0    0  0.24959245782E+02 -0.38664944390E+02  0.19181488502E+03  0.23586094552E+03  0.12930388095E+03 0.  0.
         25    2    3    3    0    0 -0.24959245782E+02  0.38664944390E+02  0.11402770989E+03  0.17552038897E+03  0.12524833909E+03 0.  0.
          5    1    4    4  502    0  0.39494662140E+01  0.39771285464E+02  0.12268047121E+03  0.12911212742E+03  0.47000000000E+01 0. -1.
         -5    1    4    4    0  502  0.21009779568E+02 -0.78436229854E+02  0.69134413808E+02  0.10674881809E+03  0.47000000000E+01 0. -1.
          5    1    5    5  503    0 -0.40725663035E+02 -0.15912245859E+02 -0.42926166999E+01  0.44184791004E+02  0.47000000000E+01 0. -1.
         -5    1    5    5    0  503  0.15766417253E+02  0.54577190249E+02  0.11832032659E+03  0.13133559796E+03  0.47000000000E+01 0. -1.
<mgrwt>
<rscale>  0 0.27512708E+03</rscale>
<asrwt>0</asrwt>
<pdfrwt beam="1">  1        1 0.55171070E-01 0.27512708E+03</pdfrwt>
<pdfrwt beam="2">  1       -1 0.81183648E-02 0.27512708E+03</pdfrwt>
<totfact> 0.58359931E+03</totfact>
</mgrwt>
</event>
<event>
 9    1  0.2095749E-002  0.2762833E+03  0.7818608E-02  0.1097736E+00
          1   -1    0    0  501    0  0.00000000000E+00  0.00000000000E+00  0.42969156784E+02  0.42969156784E+02  0.00000000000E+00 0.  1.
         -1   -1    0    0    0  501 -0.00000000000E+00 -0.00000000000E+00 -0.44411206857E+03  0.44411206857E+03  0.00000000000E+00 0.  1.
         36    2    1    2    0    0 -0.35527136788E-14  0.71054273576E-14 -0.40114291178E+03  0.48708122535E+03  0.27628334082E+03 0.  0.
         25    2    3    3    0    0  0.19888799945E+02  0.54759767833E+02 -0.17278141313E+03  0.22051892514E+03  0.12402009146E+03 0.  0.
         25    2    3    3    0    0 -0.19888799945E+02 -0.54759767833E+02 -0.22836149865E+03  0.26656230021E+03  0.12454834117E+03 0.  0.
          5    1    4    4  502    0  0.89948593912E+01  0.94036227578E+02 -0.10528063238E+03  0.14152675064E+03  0.47000000000E+01 0.  1.
         -5    1    4    4    0  502  0.10893940554E+02 -0.39276459744E+02 -0.67500780748E+02  0.78992174501E+02  0.47000000000E+01 0.  1.
          5    1    5    5  503    0 -0.38406637050E+02 -0.50814443629E+02 -0.36203011587E+02  0.73416111984E+02  0.47000000000E+01 0. -1.
         -5    1    5    5    0  503  0.18517837104E+02 -0.39453242041E+01 -0.19215848707E+03  0.19314618823E+03  0.47000000000E+01 0. -1.
<mgrwt>
<rscale>  0 0.27628334E+03</rscale>
<asrwt>0</asrwt>
<pdfrwt beam="1">  1        1 0.66106394E-02 0.27628334E+03</pdfrwt>
<pdfrwt beam="2">  1       -1 0.68324935E-01 0.27628334E+03</pdfrwt>
<totfact> 0.25377751E+03</totfact>
</mgrwt>
</event>
<event>
 9    1  0.2095749E-002  0.2700804E+03  0.7818608E-02  0.1101234E+00
          3   -1    0    0  501    0  0.00000000000E+00  0.00000000000E+00  0.39511254464E+03  0.39511254464E+03  0.00000000000E+00 0.  1.
         -3   -1    0    0    0  501 -0.00000000000E+00 -0.00000000000E+00 -0.46153566163E+02  0.46153566163E+02  0.00000000000E+00 0.  1.
         36    2    1    2    0    0  0.71054273576E-14  0.71054273576E-14  0.34895897848E+03  0.44126611080E+03  0.27008038041E+03 0.  0.
         25    2    3    3    0    0 -0.25516811932E+02 -0.30626507213E+02  0.14249060897E+03  0.19504698021E+03  0.12708524781E+03 0.  0.
         25    2    3    3    0    0  0.25516811932E+02  0.30626507213E+02  0.20646836951E+03  0.24621913059E+03  0.12808427704E+03 0.  0.
          5    1    4    4  502    0 -0.69895085630E+02 -0.13485263703E+02  0.12541221862E+03  0.14428267363E+03  0.47000000000E+01 0.  1.
         -5    1    4    4    0  502  0.44378273698E+02 -0.17141243510E+02  0.17078390351E+02  0.50764306579E+02  0.47000000000E+01 0.  1.
          5    1    5    5  503    0  0.40436959855E+02 -0.38438610518E+02  0.52528425906E+02  0.76772391060E+02  0.47000000000E+01 0.  1.
         -5    1    5    5    0  503 -0.14920147923E+02  0.69065117731E+02  0.15393994360E+03  0.16944673953E+03  0.47000000000E+01 0.  1.
<mgrwt>
<rscale>  0 0.27008038E+03</rscale>
<asrwt>0</asrwt>
<pdfrwt beam="1">  1        3 0.60786543E-01 0.27008038E+03</pdfrwt>
<pdfrwt beam="2">  1       -3 0.71005489E-02 0.27008038E+03</pdfrwt>
<totfact> 0.88160337E+02</totfact>
</mgrwt>
</event>
<event>
 9    1  0.2095749E-002  0.2745013E+03  0.7818608E-02  0.1098731E+00
          2   -1    0    0  501    0  0.00000000000E+00  0.00000000000E+00  0.57389033164E+03  0.57389033164E+03  0.00000000000E+00 0. -1.
         -2   -1    0    0    0  501 -0.00000000000E+00 -0.00000000000E+00 -0.32824629558E+02  0.32824629558E+02  0.00000000000E+00 0. -1.
         36    2    1    2    0    0  0.00000000000E+00 -0.14210854715E-13  0.54106570209E+03  0.60671496120E+03  0.27450127536E+03 0.  0.
         25    2    3    3    0    0 -0.81380908844E+01  0.45226116545E+02  0.31627047315E+03  0.34352604834E+03  0.12598215573E+03 0.  0.
         25    2    3    3    0    0  0.81380908844E+01 -0.45226116545E+02  0.22479522893E+03  0.26318891286E+03  0.12893362152E+03 0.  0.
          5    1    4    4  502    0 -0.10467590864E+02  0.38941564344E+02  0.16787025956E+02  0.43930742453E+02  0.47000000000E+01 0. -1.
         -5    1    4    4    0  502  0.23294999797E+01  0.62845522009E+01  0.29948344720E+03  0.29959530589E+03  0.47000000000E+01 0. -1.
          5    1    5    5  503    0 -0.65825215721E+01 -0.88289432844E+02  0.17061267884E+03  0.19227358041E+03  0.47000000000E+01 0.  1.
         -5    1    5    5    0  503  0.14720612457E+02  0.43063316299E+02  0.54182550094E+02  0.70915332450E+02  0.47000000000E+01 0.  1.
<mgrwt>
<rscale>  0 0.27450128E+03</rscale>
<asrwt>0</asrwt>
<pdfrwt beam="1">  1        2 0.88290813E-01 0.27450128E+03</pdfrwt>
<pdfrwt beam="2">  1       -2 0.50499434E-02 0.27450128E+03</pdfrwt>
<totfact> 0.10197674E+04</totfact>
</mgrwt>
</event>
<event>
 9    1  0.2095749E-002  0.2750116E+03  0.7818608E-02  0.1098445E+00
         -4   -1    0    0    0  501 -0.00000000000E+00  0.00000000000E+00  0.12067618122E+03  0.12067618122E+03  0.00000000000E+00 0. -1.
          4   -1    0    0  501    0  0.00000000000E+00 -0.00000000000E+00 -0.15668253378E+03  0.15668253378E+03  0.00000000000E+00 0. -1.
         36    2    1    2    0    0  0.00000000000E+00  0.00000000000E+00 -0.36006352562E+02  0.27735871500E+03  0.27501163495E+03 0.  0.
         25    2    3    3    0    0 -0.52594145943E+02 -0.48289123162E+01 -0.31602336357E+02  0.14102604287E+03  0.12688646312E+03 0.  0.
         25    2    3    3    0    0  0.52594145943E+02  0.48289123162E+01 -0.44040162048E+01  0.13633267212E+03  0.12560947237E+03 0.  0.
          5    1    4    4  502    0  0.28339344751E+02 -0.26863934543E+02 -0.40609766007E+02  0.56533463853E+02  0.47000000000E+01 0. -1.
         -5    1    4    4    0  502 -0.80933490694E+02  0.22035022227E+02  0.90074296491E+01  0.84492579020E+02  0.47000000000E+01 0. -1.
          5    1    5    5  503    0 -0.34184803314E+02  0.25211805684E+02 -0.17371470634E+02  0.46131268305E+02  0.47000000000E+01 0. -1.
         -5    1    5    5    0  503  0.86778949258E+02 -0.20382893367E+02  0.12967454429E+02  0.90201403818E+02  0.47000000000E+01 0. -1.
<mgrwt>
<rscale>  0 0.27501163E+03</rscale>
<asrwt>0</asrwt>
<pdfrwt beam="1">  1        4 0.24105005E-01 0.27501163E+03</pdfrwt>
<pdfrwt beam="2">  1       -4 0.18565566E-01 0.27501163E+03</pdfrwt>
<totfact> 0.77576963E+02</totfact>
</mgrwt>
</event>
<event>
 9    1  0.2095749E-002  0.2747366E+03  0.7818608E-02  0.1098599E+00
         -1   -1    0    0    0  501 -0.00000000000E+00  0.00000000000E+00  0.10530272639E+03  0.10530272639E+03  0.00000000000E+00 0. -1.
          1   -1    0    0  501    0  0.00000000000E+00 -0.00000000000E+00 -0.17919806313E+03  0.17919806313E+03  0.00000000000E+00 0. -1.
         36    2    1    2    0    0  0.14210854715E-13  0.00000000000E+00 -0.73895336735E+02  0.28450078952E+03  0.27473656190E+03 0.  0.
         25    2    3    3    0    0 -0.36929028082E+02  0.52590559120E+02 -0.53374974568E+02  0.13970956117E+03  0.11198372002E+03 0.  0.
         25    2    3    3    0    0  0.36929028082E+02 -0.52590559120E+02 -0.20520362167E+02  0.14479122834E+03  0.12811672224E+03 0.  0.
          5    1    4    4  502    0 -0.67006116031E+02  0.65903305795E+02 -0.49302741142E+02  0.10623518995E+03  0.47000000000E+01 0. -1.
         -5    1    4    4    0  502  0.30077087949E+02 -0.13312746676E+02 -0.40722334263E+01  0.33474371221E+02  0.47000000000E+01 0. -1.
          5    1    5    5  503    0  0.74597249611E+02 -0.67361352504E+02 -0.36015949228E+01  0.10068447222E+03  0.47000000000E+01 0.  1.
         -5    1    5    5    0  503 -0.37668221528E+02  0.14770793385E+02 -0.16918767244E+02  0.44106756119E+02  0.47000000000E+01 0.  1.
<mgrwt>
<rscale>  0 0.27473656E+03</rscale>
<asrwt>0</asrwt>
<pdfrwt beam="1">  1        1 0.27568932E-01 0.27473656E+03</pdfrwt>
<pdfrwt beam="2">  1       -1 0.16200420E-01 0.27473656E+03</pdfrwt>
<totfact> 0.47601239E+03</totfact>
</mgrwt>
</event>
<event>
 9    1  0.2095749E-002  0.2746116E+03  0.7818608E-02  0.1098669E+00
         -2   -1    0    0    0  501 -0.00000000000E+00  0.00000000000E+00  0.12717509787E+02  0.12717509787E+02  0.00000000000E+00 0. -1.
          2   -1    0    0  501    0  0.00000000000E+00 -0.00000000000E+00 -0.14824346813E+04  0.14824346813E+04  0.00000000000E+00 0. -1.
         36    2    1    2    0    0  0.00000000000E+00  0.35527136788E-14 -0.14697171715E+04  0.14951521911E+04  0.27461156252E+03 0.  0.
         25    2    3    3    0    0 -0.35737404906E+02 -0.26418447417E+02 -0.83506667947E+03  0.84574386979E+03  0.12637736210E+03 0.  0.
         25    2    3    3    0    0  0.35737404906E+02  0.26418447417E+02 -0.63465049201E+03  0.64940832127E+03  0.13028746772E+03 0.  0.
          5    1    4    4  502    0 -0.17280186737E+02 -0.10702944454E+02 -0.15965590625E+02  0.26270667248E+02  0.47000000000E+01 0.  1.
         -5    1    4    4    0  502 -0.18457218169E+02 -0.15715502962E+02 -0.81910108884E+03  0.81947320254E+03  0.47000000000E+01 0.  1.
          5    1    5    5  503    0  0.23942893373E+02  0.40841231212E+02 -0.62687825932E+03  0.62868092887E+03  0.47000000000E+01 0.  1.
         -5    1    5    5    0  503  0.11794511533E+02 -0.14422783795E+02 -0.77722326895E+01  0.20727392399E+02  0.47000000000E+01 0.  1.
<mgrwt>
<rscale>  0 0.27461156E+03</rscale>
<asrwt>0</asrwt>
<pdfrwt beam="1">  1        2 0.22806698E+00 0.27461156E+03</pdfrwt>
<pdfrwt beam="2">  1       -2 0.19565390E-02 0.27461156E+03</pdfrwt>
<totfact> 0.11133154E+04</totfact>
</mgrwt>
</event>
<event>
 9    1  0.2095749E-002  0.2749656E+03  0.7818608E-02  0.1098471E+00
         -1   -1    0    0    0  501 -0.00000000000E+00  0.00000000000E+00  0.96220771524E+02  0.96220771524E+02  0.00000000000E+00 0. -1.
          1   -1    0    0  501    0  0.00000000000E+00 -0.00000000000E+00 -0.19643911772E+03  0.19643911772E+03  0.00000000000E+00 0. -1.
         36    2    1    2    0    0  0.14210854715E-13  0.00000000000E+00 -0.10021834619E+03  0.29265988924E+03  0.27496562305E+03 0.  0.
         25    2    3    3    0    0 -0.50668465054E+02 -0.76840533726E+01 -0.10882905402E+03  0.16143654571E+03  0.10766455900E+03 0.  0.
         25    2    3    3    0    0  0.50668465054E+02  0.76840533726E+01  0.86107078251E+01  0.13122334354E+03  0.12049515995E+03 0.  0.
          5    1    4    4  502    0  0.18571016387E+02  0.30286253734E+02 -0.15371689197E+02  0.38993828277E+02  0.47000000000E+01 0.  1.
         -5    1    4    4    0  502 -0.69239481441E+02 -0.37970307107E+02 -0.93457364822E+02  0.12244271743E+03  0.47000000000E+01 0.  1.
          5    1    5    5  503    0 -0.32579308786E+02  0.28760557864E+02  0.11406553414E+02  0.45174998732E+02  0.47000000000E+01 0. -1.
         -5    1    5    5    0  503  0.83247773840E+02 -0.21076504491E+02 -0.27958455889E+01  0.86048344804E+02  0.47000000000E+01 0. -1.
<mgrwt>
<rscale>  0 0.27496562E+03</rscale>
<asrwt>0</asrwt>
<pdfrwt beam="1">  1        1 0.30221402E-01 0.27496562E+03</pdfrwt>
<pdfrwt beam="2">  1       -1 0.14803196E-01 0.27496562E+03</pdfrwt>
<totfact> 0.48923778E+03</totfact>
</mgrwt>
</event>
<event>
 9    1  0.2095749E-002  0.2754095E+03  0.7818608E-02  0.1098223E+00
         -1   -1    0    0    0  501 -0.00000000000E+00  0.00000000000E+00  0.13383272794E+02  0.13383272794E+02  0.00000000000E+00 0.  1.
          1   -1    0    0  501    0  0.00000000000E+00 -0.00000000000E+00 -0.14168881030E+04  0.14168881030E+04  0.00000000000E+00 0.  1.
         36    2    1    2    0    0  0.17763568394E-14  0.71054273576E-14 -0.14035048302E+04  0.14302713758E+04  0.27540951328E+03 0.  0.
         25    2    3    3    0    0  0.24915926831E+01  0.46134636360E+02 -0.49066499018E+03  0.50794144514E+03  0.12295432648E+03 0.  0.
         25    2    3    3    0    0 -0.24915926831E+01 -0.46134636360E+02 -0.91283984001E+03  0.92232993064E+03  0.12361761496E+03 0.  0.
          5    1    4    4  502    0  0.64037057638E+01  0.36465691285E+02 -0.32079268185E+02  0.49213042333E+02  0.47000000000E+01 0. -1.
         -5    1    4    4    0  502 -0.39121130806E+01  0.96689450752E+01 -0.45858572200E+03  0.45872840281E+03  0.47000000000E+01 0. -1.
          5    1    5    5  503    0  0.35096350654E+02  0.17901066263E+02 -0.57629008604E+03  0.57765435623E+03  0.47000000000E+01 0. -1.
         -5    1    5    5    0  503 -0.37587943337E+02 -0.64035702622E+02 -0.33654975397E+03  0.34467557440E+03  0.47000000000E+01 0. -1.
<mgrwt>
<rscale>  0 0.27540951E+03</rscale>
<asrwt>0</asrwt>
<pdfrwt beam="1">  1        1 0.21798280E+00 0.27540951E+03</pdfrwt>
<pdfrwt beam="2">  1       -1 0.20589649E-02 0.27540951E+03</pdfrwt>
<totfact> 0.53429661E+03</totfact>
</mgrwt>
</event>
<event>
 9    1  0.2095749E-002  0.2729832E+03  0.7818608E-02  0.1099584E+00
         -2   -1    0    0    0  501 -0.00000000000E+00  0.00000000000E+00  0.11122245168E+02  0.11122245168E+02  0.00000000000E+00 0.  1.
          2   -1    0    0  501    0  0.00000000000E+00 -0.00000000000E+00 -0.16750174345E+04  0.16750174345E+04  0.00000000000E+00 0.  1.
         36    2    1    2    0    0 -0.35527136788E-14  0.00000000000E+00 -0.16638951893E+04  0.16861396796E+04  0.27298318312E+03 0.  0.
         25    2    3    3    0    0 -0.21287584383E+02 -0.24208853799E+02 -0.97065817286E+03  0.97902231684E+03  0.12356447097E+03 0.  0.
         25    2    3    3    0    0  0.21287584383E+02  0.24208853799E+02 -0.69323701645E+03  0.70711736281E+03  0.13563986859E+03 0.  0.
          5    1    4    4  502    0 -0.73059360484E+02 -0.16410873018E+02 -0.59034258197E+03  0.59509111991E+03  0.47000000000E+01 0.  1.
         -5    1    4    4    0  502  0.51771776101E+02 -0.77979807816E+01 -0.38031559088E+03  0.38393119693E+03  0.47000000000E+01 0.  1.
          5    1    5    5  503    0 -0.30599023829E+01  0.58534247662E+01  0.41095527235E+01  0.90886746930E+01  0.47000000000E+01 0. -1.
         -5    1    5    5    0  503  0.24347486766E+02  0.18355429033E+02 -0.69734656918E+03  0.69802868811E+03  0.47000000000E+01 0. -1.
<mgrwt>
<rscale>  0 0.27298318E+03</rscale>
<asrwt>0</asrwt>
<pdfrwt beam="1">  1        2 0.25769502E+00 0.27298318E+03</pdfrwt>
<pdfrwt beam="2">  1       -2 0.17111144E-02 0.27298318E+03</pdfrwt>
<totfact> 0.10708809E+04</totfact>
</mgrwt>
</event>
<event>
 9    1  0.2095749E-002  0.2765247E+03  0.7818608E-02  0.1097602E+00
          2   -1    0    0  501    0  0.00000000000E+00  0.00000000000E+00  0.65998706423E+03  0.65998706423E+03  0.00000000000E+00 0.  1.
         -2   -1    0    0    0  501 -0.00000000000E+00 -0.00000000000E+00 -0.28964934880E+02  0.28964934880E+02  0.00000000000E+00 0.  1.
         36    2    1    2    0    0  0.00000000000E+00  0.00000000000E+00  0.63102212935E+03  0.68895199911E+03  0.27652473551E+03 0.  0.
         25    2    3    3    0    0  0.31789308887E+02 -0.42502341387E+02  0.27281615778E+03  0.30478537471E+03  0.12509380284E+03 0.  0.
         25    2    3    3    0    0 -0.31789308887E+02  0.42502341387E+02  0.35820597157E+03  0.38416662440E+03  0.12827886830E+03 0.  0.
          5    1    4    4  502    0  0.74060288419E+02 -0.10739608345E+02  0.20741842425E+03  0.22055556720E+03  0.47000000000E+01 0.  1.
         -5    1    4    4    0  502 -0.42270979533E+02 -0.31762733043E+02  0.65397733536E+02  0.84229807507E+02  0.47000000000E+01 0.  1.
          5    1    5    5  503    0 -0.78090536119E+02  0.40140563918E+01  0.20939723322E+03  0.22356997956E+03  0.47000000000E+01 0.  1.
         -5    1    5    5    0  503  0.46301227233E+02  0.38488284996E+02  0.14880873835E+03  0.16059664484E+03  0.47000000000E+01 0.  1.
<mgrwt>
<rscale>  0 0.27652474E+03</rscale>
<asrwt>0</asrwt>
<pdfrwt beam="1">  1        2 0.10153646E+00 0.27652474E+03</pdfrwt>
<pdfrwt beam="2">  1       -2 0.44561443E-02 0.27652474E+03</pdfrwt>
<totfact> 0.10470601E+04</totfact>
</mgrwt>
</event>
<event>
 9    1  0.2095749E-002  0.2743659E+03  0.7818608E-02  0.1098807E+00
          1   -1    0    0  501    0  0.00000000000E+00  0.00000000000E+00  0.22001250165E+04  0.22001250165E+04  0.00000000000E+00 0. -1.
         -1   -1    0    0    0  501 -0.00000000000E+00 -0.00000000000E+00 -0.85536811143E+01  0.85536811143E+01  0.00000000000E+00 0. -1.
         36    2    1    2    0    0  0.00000000000E+00  0.00000000000E+00  0.21915713354E+04  0.22086786977E+04  0.27436594397E+03 0.  0.
         25    2    3    3    0    0 -0.34620943083E+02 -0.37035120798E+02  0.94667284205E+03  0.95647049808E+03  0.12679169516E+03 0.  0.
         25    2    3    3    0    0  0.34620943083E+02  0.37035120798E+02  0.12448984934E+04  0.12522081996E+04  0.12523141133E+03 0.  0.
          5    1    4    4  502    0 -0.31508704316E+02 -0.92480770287E+01  0.54188410495E+02  0.63535810441E+02  0.47000000000E+01 0.  1.
         -5    1    4    4    0  502 -0.31122387667E+01 -0.27787043769E+02  0.89248443155E+03  0.89293468764E+03  0.47000000000E+01 0.  1.
          5    1    5    5  503    0  0.63520004989E+02  0.35685997782E+02  0.11618085134E+04  0.11641002505E+04  0.47000000000E+01 0.  1.
         -5    1    5    5    0  503 -0.28899061906E+02  0.13491230156E+01  0.83089980008E+02  0.88107949072E+02  0.47000000000E+01 0.  1.
<mgrwt>
<rscale>  0 0.27436594E+03</rscale>
<asrwt>0</asrwt>
<pdfrwt beam="1">  1        1 0.33848032E+00 0.27436594E+03</pdfrwt>
<pdfrwt beam="2">  1       -1 0.13159527E-02 0.27436594E+03</pdfrwt>
<totfact> 0.31560137E+03</totfact>
</mgrwt>
</event>
<event>
 9    1  0.2095749E-002  0.2806001E+03  0.7818608E-02  0.1095362E+00
          2   -1    0    0  501    0  0.00000000000E+00  0.00000000000E+00  0.20833322035E+03  0.20833322035E+03  0.00000000000E+00 0.  1.
         -2   -1    0    0    0  501 -0.00000000000E+00 -0.00000000000E+00 -0.94483774986E+02  0.94483774986E+02  0.00000000000E+00 0.  1.
         36    2    1    2    0    0  0.35527136788E-14  0.14210854715E-13  0.11384944537E+03  0.30281699534E+03  0.28060013624E+03 0.  0.
         25    2    3    3    0    0 -0.13857941798E+02 -0.48342760970E+02  0.12624958352E+02  0.13450530083E+03  0.12410971472E+03 0.  0.
         25    2    3    3    0    0  0.13857941798E+02  0.48342760970E+02  0.10122448702E+03  0.16831169451E+03  0.12471312942E+03 0.  0.
          5    1    4    4  502    0 -0.21353052935E+02  0.39522323557E+02 -0.84309161993E+00  0.45174857304E+02  0.47000000000E+01 0.  1.
         -5    1    4    4    0  502  0.74951111373E+01 -0.87865084527E+02  0.13468049972E+02  0.89330443522E+02  0.47000000000E+01 0.  1.
          5    1    5    5  503    0  0.56783617218E+02  0.10599027517E+02  0.75091329601E+01  0.58439675277E+02  0.47000000000E+01 0. -1.
         -5    1    5    5    0  503 -0.42925675421E+02  0.37743733453E+02  0.93715354056E+02  0.10987201924E+03  0.47000000000E+01 0. -1.
<mgrwt>
<rscale>  0 0.28060014E+03</rscale>
<asrwt>0</asrwt>
<pdfrwt beam="1">  1        2 0.32051265E-01 0.28060014E+03</pdfrwt>
<pdfrwt beam="2">  1       -2 0.14535965E-01 0.28060014E+03</pdfrwt>
<totfact> 0.58416761E+03</totfact>
</mgrwt>
</event>
<event>
 9    1  0.2095749E-002  0.2772573E+03  0.7818608E-02  0.1097196E+00
         -1   -1    0    0    0  501 -0.00000000000E+00  0.00000000000E+00  0.75269510324E+01  0.75269510324E+01  0.00000000000E+00 0. -1.
          1   -1    0    0  501    0  0.00000000000E+00 -0.00000000000E+00 -0.25532123793E+04  0.25532123793E+04  0.00000000000E+00 0. -1.
         36    2    1    2    0    0  0.00000000000E+00  0.44408920985E-15 -0.25456854282E+04  0.25607393303E+04  0.27725731409E+03 0.  0.
         25    2    3    3    0    0 -0.66808632759E+02  0.13465044412E+01 -0.12889302625E+04  0.12969021995E+04  0.12707827057E+03 0.  0.
         25    2    3    3    0    0  0.66808632759E+02 -0.13465044412E+01 -0.12567551657E+04  0.12638371308E+04  0.11569589553E+03 0.  0.
          5    1    4    4  502    0  0.28248194642E+02  0.43867595627E+01 -0.98562953126E+02  0.10273241888E+03  0.47000000000E+01 0.  1.
         -5    1    4    4    0  502 -0.95056827401E+02 -0.30402551215E+01 -0.11903673094E+04  0.11941697806E+04  0.47000000000E+01 0.  1.
          5    1    5    5  503    0 -0.75897619959E+01 -0.47047220995E+01 -0.86382157023E+03  0.86388050915E+03  0.47000000000E+01 0.  1.
         -5    1    5    5    0  503  0.74398394755E+02  0.33582176583E+01 -0.39293359545E+03  0.39995662165E+03  0.47000000000E+01 0.  1.
<mgrwt>
<rscale>  0 0.27725731E+03</rscale>
<asrwt>0</asrwt>
<pdfrwt beam="1">  1        1 0.39280186E+00 0.27725731E+03</pdfrwt>
<pdfrwt beam="2">  1       -1 0.11579926E-02 0.27725731E+03</pdfrwt>
<totfact> 0.22218660E+03</totfact>
</mgrwt>
</event>
<event>
 9    1  0.2095749E-002  0.2748270E+03  0.7818608E-02  0.1098548E+00
         -2   -1    0    0    0  501 -0.00000000000E+00  0.00000000000E+00  0.11819045964E+03  0.11819045964E+03  0.00000000000E+00 0.  1.
          2   -1    0    0  501    0  0.00000000000E+00 -0.00000000000E+00 -0.15976306640E+03  0.15976306640E+03  0.00000000000E+00 0.  1.
         36    2    1    2    0    0 -0.71054273576E-14  0.00000000000E+00 -0.41572606763E+02  0.27795352605E+03  0.27482700196E+03 0.  0.
         25    2    3    3    0    0 -0.52535241466E+02 -0.31935125001E+02 -0.56499190212E+02  0.15012656815E+03  0.12476387364E+03 0.  0.
         25    2    3    3    0    0  0.52535241466E+02  0.31935125001E+02  0.14926583449E+02  0.12782695789E+03  0.11107260898E+03 0.  0.
          5    1    4    4  502    0 -0.92942778915E+02 -0.15227815799E+02 -0.30855789822E+02  0.99219031904E+02  0.47000000000E+01 0. -1.
         -5    1    4    4    0  502  0.40407537449E+02 -0.16707309201E+02 -0.25643400389E+02  0.50907536249E+02  0.47000000000E+01 0. -1.
          5    1    5    5  503    0  0.20275193994E+02  0.49792032477E+02  0.52274928749E+02  0.75133801750E+02  0.47000000000E+01 0. -1.
         -5    1    5    5    0  503  0.32260047472E+02 -0.17856907476E+02 -0.37348345300E+02  0.52693156142E+02  0.47000000000E+01 0. -1.
<mgrwt>
<rscale>  0 0.27482700E+03</rscale>
<asrwt>0</asrwt>
<pdfrwt beam="1">  1        2 0.24578933E-01 0.27482700E+03</pdfrwt>
<pdfrwt beam="2">  1       -2 0.18183148E-01 0.27482700E+03</pdfrwt>
<totfact> 0.53885993E+03</totfact>
</mgrwt>
</event>
<event>
 9    1  0.2095749E-002  0.2756402E+03  0.7818608E-02  0.1098094E+00
         -1   -1    0    0    0  501 -0.00000000000E+00  0.00000000000E+00  0.22879066080E+02  0.22879066080E+02  0.00000000000E+00 0.  1.
          1   -1    0    0  501    0  0.00000000000E+00 -0.00000000000E+00 -0.83020785875E+03  0.83020785875E+03  0.00000000000E+00 0.  1.
         36    2    1    2    0    0  0.00000000000E+00  0.35527136788E-14 -0.80732879267E+03  0.85308692483E+03  0.27564020360E+03 0.  0.
         25    2    3    3    0    0  0.94682774085E+01 -0.30359027215E+02 -0.23819065521E+03  0.26992483467E+03  0.12293620026E+03 0.  0.
         25    2    3    3    0    0 -0.94682774085E+01  0.30359027215E+02 -0.56913813747E+03  0.58316209016E+03  0.12307918212E+03 0.  0.
          5    1    4    4  502    0  0.44942539207E+02  0.14267673441E+02 -0.18782256107E+03  0.19370803489E+03  0.47000000000E+01 0. -1.
         -5    1    4    4    0  502 -0.35474261799E+02 -0.44626700655E+02 -0.50368094137E+02  0.76216799779E+02  0.47000000000E+01 0. -1.
          5    1    5    5  503    0 -0.22171144646E+02  0.66516824088E+02 -0.49101664095E+03  0.49601963593E+03  0.47000000000E+01 0. -1.
         -5    1    5    5    0  503  0.12702867237E+02 -0.36157796873E+02 -0.78121496518E+02  0.87142454229E+02  0.47000000000E+01 0. -1.
<mgrwt>
<rscale>  0 0.27564020E+03</rscale>
<asrwt>0</asrwt>
<pdfrwt beam="1">  1        1 0.12772427E+00 0.27564020E+03</pdfrwt>
<pdfrwt beam="2">  1       -1 0.35198568E-02 0.27564020E+03</pdfrwt>
<totfact> 0.64595753E+03</totfact>
</mgrwt>
</event>
<event>
 9    1  0.2095749E-002  0.2752386E+03  0.7818608E-02  0.1098318E+00
          3   -1    0    0  501    0  0.00000000000E+00  0.00000000000E+00  0.61354115283E+03  0.61354115283E+03  0.00000000000E+00 0. -1.
         -3   -1    0    0    0  501 -0.00000000000E+00 -0.00000000000E+00 -0.30868464069E+02  0.30868464069E+02  0.00000000000E+00 0. -1.
         36    2    1    2    0    0  0.71054273576E-14 -0.35527136788E-14  0.58267268876E+03  0.64440961690E+03  0.27523860944E+03 0.  0.
         25    2    3    3    0    0  0.38644710110E+02 -0.15578554737E+02  0.35073954387E+03  0.37800077402E+03  0.13464862622E+03 0.  0.
         25    2    3    3    0    0 -0.38644710110E+02  0.15578554737E+02  0.23193314489E+03  0.26640884287E+03  0.12427623616E+03 0.  0.
          5    1    4    4  502    0  0.69336132911E+02  0.23362659941E+02  0.29163745437E+03  0.30071216803E+03  0.47000000000E+01 0. -1.
         -5    1    4    4    0  502 -0.30691422800E+02 -0.38941214678E+02  0.59102089491E+02  0.77288605993E+02  0.47000000000E+01 0. -1.
          5    1    5    5  503    0 -0.54647018903E+02  0.20046536151E+02  0.24024886377E+03  0.24724434640E+03  0.47000000000E+01 0. -1.
         -5    1    5    5    0  503  0.16002308793E+02 -0.44679814134E+01 -0.83157188751E+01  0.19164496472E+02  0.47000000000E+01 0. -1.
<mgrwt>
<rscale>  0 0.27523861E+03</rscale>
<asrwt>0</asrwt>
<pdfrwt beam="1">  1        3 0.94390937E-01 0.27523861E+03</pdfrwt>
<pdfrwt beam="2">  1       -3 0.47489949E-02 0.27523861E+03</pdfrwt>
<totfact> 0.64944741E+02</totfact>
</mgrwt>
</event>
<event>
 9    1  0.2095749E-002  0.2770277E+03  0.7818608E-02  0.1097323E+00
         -2   -1    0    0    0  501 -0.00000000000E+00  0.00000000000E+00  0.35800109187E+03  0.35800109187E+03  0.00000000000E+00 0. -1.
          2   -1    0    0  501    0  0.00000000000E+00 -0.00000000000E+00 -0.53592263379E+02  0.53592263379E+02  0.00000000000E+00 0. -1.
         36    2    1    2    0    0  0.00000000000E+00  0.00000000000E+00  0.30440882850E+03  0.41159335525E+03  0.27702771562E+03 0.  0.
         25    2    3    3    0    0 -0.17680487055E+02  0.28918913223E+02  0.94020910682E+02  0.15766209827E+03  0.12193646879E+03 0.  0.
         25    2    3    3    0    0  0.17680487055E+02 -0.28918913223E+02  0.21038791781E+03  0.25393125699E+03  0.13809092710E+03 0.  0.
          5    1    4    4  502    0  0.28720054974E+02 -0.17364945592E+02  0.84788823036E+02  0.91310554729E+02  0.47000000000E+01 0.  1.
         -5    1    4    4    0  502 -0.46400542030E+02  0.46283858815E+02  0.92320876458E+01  0.66351543537E+02  0.47000000000E+01 0.  1.
          5    1    5    5  503    0  0.16201161467E+02 -0.52096447432E+02  0.14542626588E+02  0.56657704296E+02  0.47000000000E+01 0. -1.
         -5    1    5    5    0  503  0.14793255884E+01  0.23177534210E+02  0.19584529123E+03  0.19727355269E+03  0.47000000000E+01 0. -1.
<mgrwt>
<rscale>  0 0.27702772E+03</rscale>
<asrwt>0</asrwt>
<pdfrwt beam="1">  1        2 0.82449638E-02 0.27702772E+03</pdfrwt>
<pdfrwt beam="2">  1       -2 0.55077090E-01 0.27702772E+03</pdfrwt>
<totfact> 0.25752157E+03</totfact>
</mgrwt>
</event>
<event>
 9    1  0.2095749E-002  0.2752059E+03  0.7818608E-02  0.1098337E+00
          2   -1    0    0  501    0  0.00000000000E+00  0.00000000000E+00  0.17252982360E+04  0.17252982360E+04  0.00000000000E+00 0.  1.
         -2   -1    0    0    0  501 -0.00000000000E+00 -0.00000000000E+00 -0.10974663381E+02  0.10974663381E+02  0.00000000000E+00 0.  1.
         36    2    1    2    0    0  0.00000000000E+00  0.00000000000E+00  0.17143235726E+04  0.17362728994E+04  0.27520586747E+03 0.  0.
         25    2    3    3    0    0  0.21084769805E+01  0.79446109579E+02  0.77691033298E+03  0.78675991766E+03  0.95317220615E+02 0.  0.
         25    2    3    3    0    0 -0.21084769805E+01 -0.79446109579E+02  0.93741323965E+03  0.94951298173E+03  0.12851144152E+03 0.  0.
          5    1    4    4  502    0  0.24625190806E+02  0.92265450468E+02  0.66214535631E+03  0.66901261292E+03  0.47000000000E+01 0.  1.
         -5    1    4    4    0  502 -0.22516713826E+02 -0.12819340889E+02  0.11476497668E+03  0.11774730474E+03  0.47000000000E+01 0.  1.
          5    1    5    5  503    0 -0.31670954263E+02 -0.52429890222E+02  0.16528421996E+03  0.17633180683E+03  0.47000000000E+01 0.  1.
         -5    1    5    5    0  503  0.29562477283E+02 -0.27016219357E+02  0.77212901969E+03  0.77318117490E+03  0.47000000000E+01 0.  1.
<mgrwt>
<rscale>  0 0.27520587E+03</rscale>
<asrwt>0</asrwt>
<pdfrwt beam="1">  1        2 0.26543028E+00 0.27520587E+03</pdfrwt>
<pdfrwt beam="2">  1       -2 0.16884111E-02 0.27520587E+03</pdfrwt>
<totfact> 0.10276071E+04</totfact>
</mgrwt>
</event>
<event>
 9    1  0.2095749E-002  0.2757118E+03  0.7818608E-02  0.1098054E+00
         -2   -1    0    0    0  501 -0.00000000000E+00  0.00000000000E+00  0.16400503131E+03  0.16400503131E+03  0.00000000000E+00 0. -1.
          2   -1    0    0  501    0  0.00000000000E+00 -0.00000000000E+00 -0.11587602939E+03  0.11587602939E+03  0.00000000000E+00 0. -1.
         36    2    1    2    0    0 -0.14210854715E-13  0.00000000000E+00  0.48129001927E+02  0.27988106070E+03  0.27571181932E+03 0.  0.
         25    2    3    3    0    0 -0.53970234304E+02 -0.30373271546E+01  0.44248866778E+02  0.13727657754E+03  0.11817311446E+03 0.  0.
         25    2    3    3    0    0  0.53970234304E+02  0.30373271546E+01  0.38801351485E+01  0.14260448317E+03  0.13190516147E+03 0.  0.
          5    1    4    4  502    0 -0.47515149158E+02  0.35890000271E+02 -0.18912731089E+02  0.62654312830E+02  0.47000000000E+01 0. -1.
         -5    1    4    4    0  502 -0.64550851461E+01 -0.38927327425E+02  0.63161597868E+02  0.74622264706E+02  0.47000000000E+01 0. -1.
          5    1    5    5  503    0  0.24782380407E+02  0.24275453013E+02 -0.59777378102E+02  0.69274013384E+02  0.47000000000E+01 0.  1.
         -5    1    5    5    0  503  0.29187853897E+02 -0.21238125858E+02  0.63657513251E+02  0.73330469781E+02  0.47000000000E+01 0.  1.
<mgrwt>
<rscale>  0 0.27571182E+03</rscale>
<asrwt>0</asrwt>
<pdfrwt beam="1">  1        2 0.17827081E-01 0.27571182E+03</pdfrwt>
<pdfrwt beam="2">  1       -2 0.25231543E-01 0.27571182E+03</pdfrwt>
<totfact> 0.44133835E+03</totfact>
</mgrwt>
</event>
<event>
 9    1  0.2095749E-002  0.2790333E+03  0.7818608E-02  0.1096218E+00
         -1   -1    0    0    0  501 -0.00000000000E+00  0.00000000000E+00  0.81498472145E+02  0.81498472145E+02  0.00000000000E+00 0.  1.
          1   -1    0    0  501    0  0.00000000000E+00 -0.00000000000E+00 -0.23883758153E+03  0.23883758153E+03  0.00000000000E+00 0.  1.
         36    2    1    2    0    0  0.00000000000E+00 -0.71054273576E-14 -0.15733910938E+03  0.32033605367E+03  0.27903331690E+03 0.  0.
         25    2    3    3    0    0 -0.11130920663E+02 -0.45964973806E+02  0.81285736252E+01  0.10669071104E+03  0.95289862529E+02 0.  0.
         25    2    3    3    0    0  0.11130920663E+02  0.45964973806E+02 -0.16546768301E+03  0.21364534263E+03  0.12660214097E+03 0.  0.
          5    1    4    4  502    0 -0.42361672344E+02  0.73430869700E+01 -0.44090564274E+01  0.43473693064E+02  0.47000000000E+01 0.  1.
         -5    1    4    4    0  502  0.31230751681E+02 -0.53308060776E+02  0.12537630053E+02  0.63217017974E+02  0.47000000000E+01 0.  1.
          5    1    5    5  503    0 -0.54128495704E+01  0.71146191408E+02 -0.34908754542E+02  0.79572549513E+02  0.47000000000E+01 0. -1.
         -5    1    5    5    0  503  0.16543770233E+02 -0.25181217602E+02 -0.13055892847E+03  0.13407279312E+03  0.47000000000E+01 0. -1.
<mgrwt>
<rscale>  0 0.27903332E+03</rscale>
<asrwt>0</asrwt>
<pdfrwt beam="1">  1        1 0.36744243E-01 0.27903332E+03</pdfrwt>
<pdfrwt beam="2">  1       -1 0.12538227E-01 0.27903332E+03</pdfrwt>
<totfact> 0.49725082E+03</totfact>
</mgrwt>
</event>
<event>
 9    1  0.2095749E-002  0.2752916E+03  0.7818608E-02  0.1098289E+00
         -1   -1    0    0    0  501 -0.00000000000E+00  0.00000000000E+00  0.85375305005E+02  0.85375305005E+02  0.00000000000E+00 0. -1.
          1   -1    0    0  501    0  0.00000000000E+00 -0.00000000000E+00 -0.22191865464E+03  0.22191865464E+03  0.00000000000E+00 0. -1.
         36    2    1    2    0    0  0.00000000000E+00  0.00000000000E+00 -0.13654334963E+03  0.30729395964E+03  0.27529164772E+03 0.  0.
         25    2    3    3    0    0  0.68796945181E+01  0.46609950307E+02 -0.28111582611E+02  0.13547757258E+03  0.12387127968E+03 0.  0.
         25    2    3    3    0    0 -0.68796945181E+01 -0.46609950307E+02 -0.10843176702E+03  0.17181638707E+03  0.12467399528E+03 0.  0.
          5    1    4    4  502    0 -0.58209799215E+02  0.16846391240E+02 -0.11650972032E+02  0.61887129290E+02  0.47000000000E+01 0. -1.
         -5    1    4    4    0  502  0.65089493733E+02  0.29763559066E+02 -0.16460610579E+02  0.73590443288E+02  0.47000000000E+01 0. -1.
          5    1    5    5  503    0  0.57690514316E+02 -0.29406838195E+02 -0.65662214515E+02  0.92339449802E+02  0.47000000000E+01 0.  1.
         -5    1    5    5    0  503 -0.64570208834E+02 -0.17203112112E+02 -0.42769552508E+02  0.79476937264E+02  0.47000000000E+01 0.  1.
<mgrwt>
<rscale>  0 0.27529165E+03</rscale>
<asrwt>0</asrwt>
<pdfrwt beam="1">  1        1 0.34141332E-01 0.27529165E+03</pdfrwt>
<pdfrwt beam="2">  1       -1 0.13134662E-01 0.27529165E+03</pdfrwt>
<totfact> 0.50677747E+03</totfact>
</mgrwt>
</event>
<event>
 9    1  0.2095749E-002  0.2743616E+03  0.7818608E-02  0.1098809E+00
          2   -1    0    0  501    0  0.00000000000E+00  0.00000000000E+00  0.13199414878E+04  0.13199414878E+04  0.00000000000E+00 0. -1.
         -2   -1    0    0    0  501 -0.00000000000E+00 -0.00000000000E+00 -0.14257129981E+02  0.14257129981E+02  0.00000000000E+00 0. -1.
         36    2    1    2    0    0 -0.71054273576E-14  0.00000000000E+00  0.13056843579E+04  0.13341986178E+04  0.27436163988E+03 0.  0.
         25    2    3    3    0    0 -0.33198359934E+02 -0.38903566768E+02  0.76278204326E+03  0.77481977150E+03  0.12606987816E+03 0.  0.
         25    2    3    3    0    0  0.33198359934E+02  0.38903566768E+02  0.54290231460E+03  0.55937884633E+03  0.12468420872E+03 0.  0.
          5    1    4    4  502    0  0.35037648864E+02  0.24286640237E+02  0.23200785429E+03  0.23593900098E+03  0.47000000000E+01 0. -1.
         -5    1    4    4    0  502 -0.68236008799E+02 -0.63190207005E+02  0.53077418897E+03  0.53888077052E+03  0.47000000000E+01 0. -1.
          5    1    5    5  503    0 -0.21229117833E+02 -0.29643969316E+02  0.27634093934E+03  0.27877561787E+03  0.47000000000E+01 0. -1.
         -5    1    5    5    0  503  0.54427477767E+02  0.68547536084E+02  0.26656137526E+03  0.28060322846E+03  0.47000000000E+01 0. -1.
<mgrwt>
<rscale>  0 0.27436164E+03</rscale>
<asrwt>0</asrwt>
<pdfrwt beam="1">  1        2 0.20306783E+00 0.27436164E+03</pdfrwt>
<pdfrwt beam="2">  1       -2 0.21934056E-02 0.27436164E+03</pdfrwt>
<totfact> 0.11529252E+04</totfact>
</mgrwt>
</event>
<event>
 9    1  0.2095749E-002  0.2741800E+03  0.7818608E-02  0.1098911E+00
          2   -1    0    0  501    0  0.00000000000E+00  0.00000000000E+00  0.14584348274E+04  0.14584348274E+04  0.00000000000E+00 0. -1.
         -2   -1    0    0    0  501 -0.00000000000E+00 -0.00000000000E+00 -0.12886191922E+02  0.12886191922E+02  0.00000000000E+00 0. -1.
         36    2    1    2    0    0  0.28421709430E-13  0.71054273576E-14  0.14455486355E+04  0.14713210193E+04  0.27418002182E+03 0.  0.
         25    2    3    3    0    0 -0.56561640952E+02 -0.25825562249E+02  0.84573653135E+03  0.85582091802E+03  0.11529520532E+03 0.  0.
         25    2    3    3    0    0  0.56561640952E+02  0.25825562249E+02  0.59981210413E+03  0.61550010130E+03  0.12328680201E+03 0.  0.
          5    1    4    4  502    0  0.28988935013E+02 -0.74385788334E+01  0.42375841823E+03  0.42483994378E+03  0.47000000000E+01 0. -1.
         -5    1    4    4    0  502 -0.85550575965E+02 -0.18386983415E+02  0.42197811312E+03  0.43098097424E+03  0.47000000000E+01 0. -1.
          5    1    5    5  503    0 -0.21395768066E+02  0.82193724673E+01  0.21829805759E+02  0.31999490532E+02  0.47000000000E+01 0. -1.
         -5    1    5    5    0  503  0.77957409018E+02  0.17606189782E+02  0.57798229837E+03  0.58350061077E+03  0.47000000000E+01 0. -1.
<mgrwt>
<rscale>  0 0.27418002E+03</rscale>
<asrwt>0</asrwt>
<pdfrwt beam="1">  1        2 0.22437446E+00 0.27418002E+03</pdfrwt>
<pdfrwt beam="2">  1       -2 0.19824922E-02 0.27418002E+03</pdfrwt>
<totfact> 0.11248202E+04</totfact>
</mgrwt>
</event>
<event>
 9    1  0.2095749E-002  0.2808247E+03  0.7818608E-02  0.1095239E+00
          2   -1    0    0  501    0  0.00000000000E+00  0.00000000000E+00  0.23778140395E+03  0.23778140395E+03  0.00000000000E+00 0. -1.
         -2   -1    0    0    0  501 -0.00000000000E+00 -0.00000000000E+00 -0.82914906398E+02  0.82914906398E+02  0.00000000000E+00 0. -1.
         36    2    1    2    0    0  0.00000000000E+00  0.14210854715E-13  0.15486649755E+03  0.32069631035E+03  0.28082466310E+03 0.  0.
         25    2    3    3    0    0 -0.69800663179E+01  0.59024043417E+02  0.39307167497E+02  0.14222764005E+03  0.12308976055E+03 0.  0.
         25    2    3    3    0    0  0.69800663179E+01 -0.59024043417E+02  0.11555933006E+03  0.17846867030E+03  0.12232967133E+03 0.  0.
          5    1    4    4  502    0 -0.57942664233E+02  0.43321378055E+02  0.49427979334E+02  0.87745708021E+02  0.47000000000E+01 0.  1.
         -5    1    4    4    0  502  0.50962597915E+02  0.15702665362E+02 -0.10120811837E+02  0.54481932032E+02  0.47000000000E+01 0.  1.
          5    1    5    5  503    0  0.36448600671E+02 -0.86761972522E+02  0.70209959743E+02  0.11750603735E+03  0.47000000000E+01 0.  1.
         -5    1    5    5    0  503 -0.29468534353E+02  0.27737929105E+02  0.45349370312E+02  0.60962632946E+02  0.47000000000E+01 0.  1.
<mgrwt>
<rscale>  0 0.28082466E+03</rscale>
<asrwt>0</asrwt>
<pdfrwt beam="1">  1        2 0.36581754E-01 0.28082466E+03</pdfrwt>
<pdfrwt beam="2">  1       -2 0.12756140E-01 0.28082466E+03</pdfrwt>
<totfact> 0.62645157E+03</totfact>
</mgrwt>
</event>
<event>
 9    1  0.2095749E-002  0.2749396E+03  0.7818608E-02  0.1098485E+00
          2   -1    0    0  501    0  0.00000000000E+00  0.00000000000E+00  0.19635933727E+04  0.19635933727E+04  0.00000000000E+00 0. -1.
         -2   -1    0    0    0  501 -0.00000000000E+00 -0.00000000000E+00 -0.96241613421E+01  0.96241613421E+01  0.00000000000E+00 0. -1.
         36    2    1    2    0    0 -0.71054273576E-14 -0.35527136788E-14  0.19539692113E+04  0.19732175340E+04  0.27493955284E+03 0.  0.
         25    2    3    3    0    0 -0.30140656444E+02 -0.55865521637E+01  0.13026678965E+04  0.13088841541E+04  0.12367057590E+03 0.  0.
         25    2    3    3    0    0  0.30140656444E+02  0.55865521637E+01  0.65130131480E+03  0.66433337997E+03  0.12730187876E+03 0.  0.
          5    1    4    4  502    0  0.29201961824E+02 -0.46416583532E+02  0.52858146126E+03  0.53143927686E+03  0.47000000000E+01 0. -1.
         -5    1    4    4    0  502 -0.59342618268E+02  0.40830031368E+02  0.77408643528E+03  0.77744487720E+03  0.47000000000E+01 0. -1.
          5    1    5    5  503    0 -0.36149499805E+02 -0.33408557565E+01  0.46308470332E+03  0.46452931027E+03  0.47000000000E+01 0.  1.
         -5    1    5    5    0  503  0.66290156249E+02  0.89274079202E+01  0.18821661149E+03  0.19980406970E+03  0.47000000000E+01 0.  1.
<mgrwt>
<rscale>  0 0.27493955E+03</rscale>
<asrwt>0</asrwt>
<pdfrwt beam="1">  1        2 0.30209097E+00 0.27493955E+03</pdfrwt>
<pdfrwt beam="2">  1       -2 0.14806418E-02 0.27493955E+03</pdfrwt>
<totfact> 0.93364204E+03</totfact>
</mgrwt>
</event>
<event>
 9    1  0.2095749E-002  0.2758113E+03  0.7818608E-02  0.1097999E+00
         -3   -1    0    0    0  501 -0.00000000000E+00  0.00000000000E+00  0.26289798933E+03  0.26289798933E+03  0.00000000000E+00 0. -1.
          3   -1    0    0  501    0  0.00000000000E+00 -0.00000000000E+00 -0.72339728962E+02  0.72339728962E+02  0.00000000000E+00 0. -1.
         36    2    1    2    0    0 -0.71054273576E-14  0.00000000000E+00  0.19055826037E+03  0.33523771829E+03  0.27581130718E+03 0.  0.
         25    2    3    3    0    0 -0.42577028109E+02  0.51993669811E+02  0.41876449599E+02  0.15099470384E+03  0.12856756408E+03 0.  0.
         25    2    3    3    0    0  0.42577028109E+02 -0.51993669811E+02  0.14868181077E+03  0.18424301445E+03  0.85574894087E+02 0.  0.
          5    1    4    4  502    0  0.30600499521E+02  0.53409622557E+02 -0.80725820326E+01  0.62259416422E+02  0.47000000000E+01 0. -1.
         -5    1    4    4    0  502 -0.73177527630E+02 -0.14159527461E+01  0.49949031631E+02  0.88735287417E+02  0.47000000000E+01 0. -1.
          5    1    5    5  503    0  0.61980860906E+02 -0.53858278657E+02  0.14004535014E+03  0.16241037958E+03  0.47000000000E+01 0. -1.
         -5    1    5    5    0  503 -0.19403832797E+02  0.18646088464E+01  0.86364606265E+01  0.21832634874E+02  0.47000000000E+01 0. -1.
<mgrwt>
<rscale>  0 0.27581131E+03</rscale>
<asrwt>0</asrwt>
<pdfrwt beam="1">  1        3 0.11129189E-01 0.27581131E+03</pdfrwt>
<pdfrwt beam="2">  1       -3 0.40445844E-01 0.27581131E+03</pdfrwt>
<totfact> 0.95359781E+02</totfact>
</mgrwt>
</event>
<event>
 9    1  0.2095749E-002  0.2718347E+03  0.7818608E-02  0.1100234E+00
          1   -1    0    0  501    0  0.00000000000E+00  0.00000000000E+00  0.64933482609E+02  0.64933482609E+02  0.00000000000E+00 0. -1.
         -1   -1    0    0    0  501 -0.00000000000E+00 -0.00000000000E+00 -0.28449914137E+03  0.28449914137E+03  0.00000000000E+00 0. -1.
         36    2    1    2    0    0  0.00000000000E+00  0.00000000000E+00 -0.21956565876E+03  0.34943262397E+03  0.27183465598E+03 0.  0.
         25    2    3    3    0    0 -0.17186602857E+01  0.31734853639E+02 -0.15152736644E+03  0.20330227353E+03  0.13176197067E+03 0.  0.
         25    2    3    3    0    0  0.17186602857E+01 -0.31734853639E+02 -0.68038292318E+02  0.14613035044E+03  0.12535874668E+03 0.  0.
          5    1    4    4  502    0  0.34749755108E+02  0.53501741474E+02 -0.23197524348E+02  0.68045550602E+02  0.47000000000E+01 0. -1.
         -5    1    4    4    0  502 -0.36468415393E+02 -0.21766887835E+02 -0.12832984209E+03  0.13525672293E+03  0.47000000000E+01 0. -1.
          5    1    5    5  503    0 -0.57049030091E+02 -0.29481321502E+02 -0.13504801360E+02  0.65789131410E+02  0.47000000000E+01 0.  1.
         -5    1    5    5    0  503  0.58767690377E+02 -0.22535321372E+01 -0.54533490958E+02  0.80341219031E+02  0.47000000000E+01 0.  1.
<mgrwt>
<rscale>  0 0.27183466E+03</rscale>
<asrwt>0</asrwt>
<pdfrwt beam="1">  1        1 0.99897665E-02 0.27183466E+03</pdfrwt>
<pdfrwt beam="2">  1       -1 0.43769099E-01 0.27183466E+03</pdfrwt>
<totfact> 0.33557075E+03</totfact>
</mgrwt>
</event>
<event>
 9    1  0.2095749E-002  0.2751260E+03  0.7818608E-02  0.1098381E+00
          2   -1    0    0  501    0  0.00000000000E+00  0.00000000000E+00  0.87409972138E+02  0.87409972138E+02  0.00000000000E+00 0.  1.
         -2   -1    0    0    0  501 -0.00000000000E+00 -0.00000000000E+00 -0.21649223664E+03  0.21649223664E+03  0.00000000000E+00 0.  1.
         36    2    1    2    0    0  0.00000000000E+00 -0.35527136788E-14 -0.12908226450E+03  0.30390220878E+03  0.27512601021E+03 0.  0.
         25    2    3    3    0    0  0.25439450026E+02 -0.27830339628E+02 -0.31773192523E+02  0.13901087446E+03  0.12997228179E+03 0.  0.
         25    2    3    3    0    0 -0.25439450026E+02  0.27830339628E+02 -0.97309071982E+02  0.16489133432E+03  0.12766519973E+03 0.  0.
          5    1    4    4  502    0 -0.11780837521E+02  0.80971830162E+01  0.44361395231E+02  0.46844166044E+02  0.47000000000E+01 0.  1.
         -5    1    4    4    0  502  0.37220287547E+02 -0.35927522644E+02 -0.76134587754E+02  0.92166708419E+02  0.47000000000E+01 0.  1.
          5    1    5    5  503    0 -0.76017435887E+02  0.35821301024E+01 -0.48295381534E+02  0.90255282905E+02  0.47000000000E+01 0. -1.
         -5    1    5    5    0  503  0.50577985861E+02  0.24248209526E+02 -0.49013690448E+02  0.74636051411E+02  0.47000000000E+01 0. -1.
<mgrwt>
<rscale>  0 0.27512601E+03</rscale>
<asrwt>0</asrwt>
<pdfrwt beam="1">  1        2 0.13447688E-01 0.27512601E+03</pdfrwt>
<pdfrwt beam="2">  1       -2 0.33306498E-01 0.27512601E+03</pdfrwt>
<totfact> 0.37282125E+03</totfact>
</mgrwt>
</event>
<event>
 9    1  0.2095749E-002  0.2745384E+03  0.7818608E-02  0.1098710E+00
         -2   -1    0    0    0  501 -0.00000000000E+00  0.00000000000E+00  0.18990261584E+02  0.18990261584E+02  0.00000000000E+00 0. -1.
          2   -1    0    0  501    0  0.00000000000E+00 -0.00000000000E+00 -0.99223627867E+03  0.99223627867E+03  0.00000000000E+00 0. -1.
         36    2    1    2    0    0  0.00000000000E+00  0.00000000000E+00 -0.97324601709E+03  0.10112265403E+04  0.27453835058E+03 0.  0.
         25    2    3    3    0    0 -0.22991199091E+02 -0.40195716423E+02 -0.35195324573E+03  0.37620099438E+03  0.12454641760E+03 0.  0.
         25    2    3    3    0    0  0.22991199091E+02  0.40195716423E+02 -0.62129277135E+03  0.63502554587E+03  0.12291641599E+03 0.  0.
          5    1    4    4  502    0 -0.57534085372E+02  0.21811632632E+02 -0.16761551921E+03  0.17861402683E+03  0.47000000000E+01 0. -1.
         -5    1    4    4    0  502  0.34542886281E+02 -0.62007349055E+02 -0.18433772652E+03  0.19758696756E+03  0.47000000000E+01 0. -1.
          5    1    5    5  503    0 -0.33384401269E+02  0.55607843181E+02 -0.21798876458E+03  0.22748173982E+03  0.47000000000E+01 0.  1.
         -5    1    5    5    0  503  0.56375600360E+02 -0.15412126758E+02 -0.40330400678E+03  0.40754380605E+03  0.47000000000E+01 0.  1.
<mgrwt>
<rscale>  0 0.27453835E+03</rscale>
<asrwt>0</asrwt>
<pdfrwt beam="1">  1        2 0.15265177E+00 0.27453835E+03</pdfrwt>
<pdfrwt beam="2">  1       -2 0.29215781E-02 0.27453835E+03</pdfrwt>
<totfact> 0.11668333E+04</totfact>
</mgrwt>
</event>
<event>
 9    1  0.2095749E-002  0.2802944E+03  0.7818608E-02  0.1095528E+00
          2   -1    0    0  501    0  0.00000000000E+00  0.00000000000E+00  0.10740847863E+03  0.10740847863E+03  0.00000000000E+00 0.  1.
         -2   -1    0    0    0  501 -0.00000000000E+00 -0.00000000000E+00 -0.18286493035E+03  0.18286493035E+03  0.00000000000E+00 0.  1.
         36    2    1    2    0    0  0.00000000000E+00 -0.71054273576E-14 -0.75456451720E+02  0.29027340898E+03  0.28029444492E+03 0.  0.
         25    2    3    3    0    0 -0.11167241481E+02 -0.32698843747E+02 -0.90237723241E+02  0.16049228197E+03  0.12814446618E+03 0.  0.
         25    2    3    3    0    0  0.11167241481E+02  0.32698843747E+02  0.14781271521E+02  0.12978112701E+03  0.12422050264E+03 0.  0.
          5    1    4    4  502    0  0.28825616351E+02 -0.69647882747E+02 -0.36629569408E+02  0.83937828684E+02  0.47000000000E+01 0. -1.
         -5    1    4    4    0  502 -0.39992857833E+02  0.36949038999E+02 -0.53608153833E+02  0.76554453287E+02  0.47000000000E+01 0. -1.
          5    1    5    5  503    0  0.47077663098E+02  0.41208996481E+02  0.48709476571E+02  0.79430415217E+02  0.47000000000E+01 0.  1.
         -5    1    5    5    0  503 -0.35910421617E+02 -0.85101527337E+01 -0.33928205049E+02  0.50350711794E+02  0.47000000000E+01 0.  1.
<mgrwt>
<rscale>  0 0.28029444E+03</rscale>
<asrwt>0</asrwt>
<pdfrwt beam="1">  1        2 0.16524381E-01 0.28029444E+03</pdfrwt>
<pdfrwt beam="2">  1       -2 0.28133066E-01 0.28029444E+03</pdfrwt>
<totfact> 0.39738479E+03</totfact>
</mgrwt>
</event>
<event>
 9    1  0.2095749E-002  0.2749712E+03  0.7818608E-02  0.1098468E+00
          2   -1    0    0  501    0  0.00000000000E+00  0.00000000000E+00  0.39200814198E+03  0.39200814198E+03  0.00000000000E+00 0.  1.
         -2   -1    0    0    0  501 -0.00000000000E+00 -0.00000000000E+00 -0.48219133669E+02  0.48219133669E+02  0.00000000000E+00 0.  1.
         36    2    1    2    0    0  0.35527136788E-14 -0.35527136788E-14  0.34378900831E+03  0.44022727565E+03  0.27497122029E+03 0.  0.
         25    2    3    3    0    0  0.31044910938E+02  0.23898394593E+02  0.20648252609E+03  0.25373451715E+03  0.14216628241E+03 0.  0.
         25    2    3    3    0    0 -0.31044910938E+02 -0.23898394593E+02  0.13730648222E+03  0.18649275849E+03  0.11996482465E+03 0.  0.
          5    1    4    4  502    0 -0.16510096784E+02  0.32815226395E+01  0.20059864160E+03  0.20135852776E+03  0.47000000000E+01 0. -1.
         -5    1    4    4    0  502  0.47555007722E+02  0.20616871954E+02  0.58838844900E+01  0.52375989397E+02  0.47000000000E+01 0. -1.
          5    1    5    5  503    0  0.14717901283E+02 -0.15957590870E+02 -0.15256858272E+02  0.26946670460E+02  0.47000000000E+01 0. -1.
         -5    1    5    5    0  503 -0.45762812221E+02 -0.79408037232E+01  0.15256334049E+03  0.15954608803E+03  0.47000000000E+01 0. -1.
<mgrwt>
<rscale>  0 0.27497122E+03</rscale>
<asrwt>0</asrwt>
<pdfrwt beam="1">  1        2 0.60308943E-01 0.27497122E+03</pdfrwt>
<pdfrwt beam="2">  1       -2 0.74183285E-02 0.27497122E+03</pdfrwt>
<totfact> 0.86291759E+03</totfact>
</mgrwt>
</event>
<event>
 9    1  0.2095749E-002  0.2845669E+03  0.7818608E-02  0.1093220E+00
         -2   -1    0    0    0  501 -0.00000000000E+00  0.00000000000E+00  0.44856721413E+02  0.44856721413E+02  0.00000000000E+00 0. -1.
          2   -1    0    0  501    0  0.00000000000E+00 -0.00000000000E+00 -0.45131644868E+03  0.45131644868E+03  0.00000000000E+00 0. -1.
         36    2    1    2    0    0  0.14210854715E-13  0.53290705182E-14 -0.40645972726E+03  0.49617317009E+03  0.28456687233E+03 0.  0.
         25    2    3    3    0    0 -0.47849353391E+02  0.35764738925E+00 -0.22974049923E+03  0.26667456210E+03  0.12666860918E+03 0.  0.
         25    2    3    3    0    0  0.47849353391E+02 -0.35764738925E+00 -0.17671922803E+03  0.22949860799E+03  0.13838438128E+03 0.  0.
          5    1    4    4  502    0 -0.56730652860E+02 -0.13103262761E+02 -0.28970501039E+02  0.65203085811E+02  0.47000000000E+01 0. -1.
         -5    1    4    4    0  502  0.88812994689E+01  0.13460910150E+02 -0.20076999819E+03  0.20147147628E+03  0.47000000000E+01 0. -1.
          5    1    5    5  503    0  0.29112327483E+01 -0.41226074884E+02  0.10200908752E+01  0.41607632855E+02  0.47000000000E+01 0.  1.
         -5    1    5    5    0  503  0.44938120643E+02  0.40868427494E+02 -0.17773931891E+03  0.18789097514E+03  0.47000000000E+01 0.  1.
<mgrwt>
<rscale>  0 0.28456687E+03</rscale>
<asrwt>0</asrwt>
<pdfrwt beam="1">  1        2 0.69433300E-01 0.28456687E+03</pdfrwt>
<pdfrwt beam="2">  1       -2 0.69010341E-02 0.28456687E+03</pdfrwt>
<totfact> 0.82855365E+03</totfact>
</mgrwt>
</event>
<event>
 9    1  0.2095749E-002  0.2757940E+03  0.7818608E-02  0.1098009E+00
          1   -1    0    0  501    0  0.00000000000E+00  0.00000000000E+00  0.12413944754E+04  0.12413944754E+04  0.00000000000E+00 0. -1.
         -1   -1    0    0    0  501 -0.00000000000E+00 -0.00000000000E+00 -0.15317924718E+02  0.15317924718E+02  0.00000000000E+00 0. -1.
         36    2    1    2    0    0  0.71054273576E-14  0.35527136788E-14  0.12260765507E+04  0.12567124002E+04  0.27579403272E+03 0.  0.
         25    2    3    3    0    0  0.10666690737E+02  0.14379076593E+02  0.30055618801E+03  0.32244712477E+03  0.11540186301E+03 0.  0.
         25    2    3    3    0    0 -0.10666690737E+02 -0.14379076593E+02  0.92552036271E+03  0.93426527539E+03  0.12626609549E+03 0.  0.
          5    1    4    4  502    0  0.54061390225E+02 -0.22551977260E+02  0.13299034422E+03  0.14539514175E+03  0.47000000000E+01 0. -1.
         -5    1    4    4    0  502 -0.43394699488E+02  0.36931053853E+02  0.16756584380E+03  0.17705198302E+03  0.47000000000E+01 0. -1.
          5    1    5    5  503    0  0.70305052157E+01 -0.59260300971E+02  0.25237912603E+03  0.25938104120E+03  0.47000000000E+01 0. -1.
         -5    1    5    5    0  503 -0.17697195952E+02  0.44881224378E+02  0.67314123667E+03  0.67488423419E+03  0.47000000000E+01 0. -1.
<mgrwt>
<rscale>  0 0.27579403E+03</rscale>
<asrwt>0</asrwt>
<pdfrwt beam="1">  1        1 0.19098369E+00 0.27579403E+03</pdfrwt>
<pdfrwt beam="2">  1       -1 0.23566048E-02 0.27579403E+03</pdfrwt>
<totfact> 0.57713371E+03</totfact>
</mgrwt>
</event>
<event>
 9    1  0.2095749E-002  0.2745850E+03  0.7818608E-02  0.1098684E+00
         -1   -1    0    0    0  501 -0.00000000000E+00  0.00000000000E+00  0.10378897645E+02  0.10378897645E+02  0.00000000000E+00 0.  1.
          1   -1    0    0  501    0  0.00000000000E+00 -0.00000000000E+00 -0.18161110266E+04  0.18161110266E+04  0.00000000000E+00 0.  1.
         36    2    1    2    0    0  0.00000000000E+00  0.00000000000E+00 -0.18057321289E+04  0.18264899242E+04  0.27458499928E+03 0.  0.
         25    2    3    3    0    0  0.27874864876E+02  0.10058206957E+02 -0.12149693324E+04  0.12218360444E+04  0.12591530934E+03 0.  0.
         25    2    3    3    0    0 -0.27874864876E+02 -0.10058206957E+02 -0.59076279651E+03  0.60465387979E+03  0.12540915831E+03 0.  0.
          5    1    4    4  502    0  0.14247091768E+01  0.35366549549E+02 -0.11098747768E+04  0.11104489780E+04  0.47000000000E+01 0. -1.
         -5    1    4    4    0  502  0.26450155700E+02 -0.25308342593E+02 -0.10509455566E+03  0.11138706645E+03  0.47000000000E+01 0. -1.
          5    1    5    5  503    0 -0.52703843425E+02  0.15099086474E+02 -0.53898087751E+03  0.54178238606E+03  0.47000000000E+01 0. -1.
         -5    1    5    5    0  503  0.24828978549E+02 -0.25157293431E+02 -0.51781918999E+02  0.62871493729E+02  0.47000000000E+01 0. -1.
<mgrwt>
<rscale>  0 0.27458500E+03</rscale>
<asrwt>0</asrwt>
<pdfrwt beam="1">  1        1 0.27940167E+00 0.27458500E+03</pdfrwt>
<pdfrwt beam="2">  1       -1 0.15967536E-02 0.27458500E+03</pdfrwt>
<totfact> 0.42322853E+03</totfact>
</mgrwt>
</event>
<event>
 9    1  0.2095749E-002  0.2732702E+03  0.7818608E-02  0.1099422E+00
          2   -1    0    0  501    0  0.00000000000E+00  0.00000000000E+00  0.27609929937E+04  0.27609929937E+04  0.00000000000E+00 0.  1.
         -2   -1    0    0    0  501 -0.00000000000E+00 -0.00000000000E+00 -0.67617509121E+01  0.67617509121E+01  0.00000000000E+00 0.  1.
         36    2    1    2    0    0 -0.17763568394E-14 -0.71054273576E-14  0.27542312428E+04  0.27677547446E+04  0.27327017322E+03 0.  0.
         25    2    3    3    0    0  0.22019197390E+00  0.18746708360E+02  0.18990589288E+04  0.19036344012E+04  0.13056657578E+03 0.  0.
         25    2    3    3    0    0 -0.22019197390E+00 -0.18746708360E+02  0.85517231398E+03  0.86412034343E+03  0.12260829408E+03 0.  0.
          5    1    4    4  502    0  0.11341420762E+02  0.26541135831E+02  0.18774820192E+04  0.18777097439E+04  0.47000000000E+01 0. -1.
         -5    1    4    4    0  502 -0.11121228788E+02 -0.77944274714E+01  0.21576909578E+02  0.25924657303E+02  0.47000000000E+01 0. -1.
          5    1    5    5  503    0 -0.29856721549E+02  0.32538203876E+02  0.14965402316E+03  0.15610437272E+03  0.47000000000E+01 0.  1.
         -5    1    5    5    0  503  0.29636529575E+02 -0.51284912236E+02  0.70551829082E+03  0.70801597071E+03  0.47000000000E+01 0.  1.
<mgrwt>
<rscale>  0 0.27327017E+03</rscale>
<asrwt>0</asrwt>
<pdfrwt beam="1">  1        2 0.42476725E+00 0.27327017E+03</pdfrwt>
<pdfrwt beam="2">  1       -2 0.10402716E-02 0.27327017E+03</pdfrwt>
<totfact> 0.57736420E+03</totfact>
</mgrwt>
</event>
<event>
 9    1  0.2095749E-002  0.2754070E+03  0.7818608E-02  0.1098224E+00
          2   -1    0    0  501    0  0.00000000000E+00  0.00000000000E+00  0.63549384577E+03  0.63549384577E+03  0.00000000000E+00 0.  1.
         -2   -1    0    0    0  501 -0.00000000000E+00 -0.00000000000E+00 -0.29838617044E+02  0.29838617044E+02  0.00000000000E+00 0.  1.
         36    2    1    2    0    0  0.00000000000E+00  0.00000000000E+00  0.60565522873E+03  0.66533246282E+03  0.27540702604E+03 0.  0.
         25    2    3    3    0    0 -0.94141621081E+01  0.32825713930E+02  0.40787913353E+03  0.42803167814E+03  0.12521811361E+03 0.  0.
         25    2    3    3    0    0  0.94141621081E+01 -0.32825713930E+02  0.19777609519E+03  0.23730078468E+03  0.12661012848E+03 0.  0.
          5    1    4    4  502    0 -0.62713291932E+02  0.30716340945E+02  0.29363413150E+03  0.30186013942E+03  0.47000000000E+01 0. -1.
         -5    1    4    4    0  502  0.53299129824E+02  0.21093729854E+01  0.11424500203E+03  0.12617153872E+03  0.47000000000E+01 0. -1.
          5    1    5    5  503    0 -0.37704672700E+02 -0.60978508924E+02  0.14065536174E+03  0.15794315965E+03  0.47000000000E+01 0.  1.
         -5    1    5    5    0  503  0.47118834808E+02  0.28152794994E+02  0.57120733457E+02  0.79357625029E+02  0.47000000000E+01 0.  1.
<mgrwt>
<rscale>  0 0.27540703E+03</rscale>
<asrwt>0</asrwt>
<pdfrwt beam="1">  1        2 0.97768274E-01 0.27540703E+03</pdfrwt>
<pdfrwt beam="2">  1       -2 0.45905569E-02 0.27540703E+03</pdfrwt>
<totfact> 0.10467834E+04</totfact>
</mgrwt>
</event>
<event>
 9    1  0.2095749E-002  0.2747736E+03  0.7818608E-02  0.1098578E+00
         -2   -1    0    0    0  501 -0.00000000000E+00  0.00000000000E+00  0.24327549194E+02  0.24327549194E+02  0.00000000000E+00 0. -1.
          2   -1    0    0  501    0  0.00000000000E+00 -0.00000000000E+00 -0.77587494106E+03  0.77587494106E+03  0.00000000000E+00 0. -1.
         36    2    1    2    0    0  0.71054273576E-14  0.71054273576E-14 -0.75154739186E+03  0.80020249025E+03  0.27477362171E+03 0.  0.
         25    2    3    3    0    0 -0.35957214870E+02  0.51021802036E+02 -0.43041959499E+03  0.45162476098E+03  0.12168710450E+03 0.  0.
         25    2    3    3    0    0  0.35957214870E+02 -0.51021802036E+02 -0.32112779688E+03  0.34857772926E+03  0.12036289224E+03 0.  0.
          5    1    4    4  502    0 -0.14804278687E+02 -0.13470276225E+02 -0.32814256925E+03  0.32878602581E+03  0.47000000000E+01 0.  1.
         -5    1    4    4    0  502 -0.21152936183E+02  0.64492078261E+02 -0.10227702573E+03  0.12283873518E+03  0.47000000000E+01 0.  1.
          5    1    5    5  503    0  0.29571593234E+02 -0.90112393597E+02 -0.24205996157E+03  0.26001891778E+03  0.47000000000E+01 0. -1.
         -5    1    5    5    0  503  0.63856216361E+01  0.39090591561E+02 -0.79067835307E+02  0.88558811489E+02  0.47000000000E+01 0. -1.
<mgrwt>
<rscale>  0 0.27477362E+03</rscale>
<asrwt>0</asrwt>
<pdfrwt beam="1">  1        2 0.11936536E+00 0.27477362E+03</pdfrwt>
<pdfrwt beam="2">  1       -2 0.37427004E-02 0.27477362E+03</pdfrwt>
<totfact> 0.11169307E+04</totfact>
</mgrwt>
</event>
<event>
 9    1  0.2095749E-002  0.2738290E+03  0.7818608E-02  0.1099108E+00
          2   -1    0    0  501    0  0.00000000000E+00  0.00000000000E+00  0.23406846972E+04  0.23406846972E+04  0.00000000000E+00 0. -1.
         -2   -1    0    0    0  501 -0.00000000000E+00 -0.00000000000E+00 -0.80085907415E+01  0.80085907415E+01  0.00000000000E+00 0. -1.
         36    2    1    2    0    0  0.35527136788E-14  0.35527136788E-14  0.23326761065E+04  0.23486932880E+04  0.27382904006E+03 0.  0.
         25    2    3    3    0    0 -0.75915000429E+01 -0.10179261726E+02  0.16252412058E+04  0.16300511193E+04  0.12448464194E+03 0.  0.
         25    2    3    3    0    0  0.75915000429E+01  0.10179261726E+02  0.70743490065E+03  0.71864216869E+03  0.12578227108E+03 0.  0.
          5    1    4    4  502    0  0.24533140002E+02  0.39392806454E+02  0.31138767424E+03  0.31486194090E+03  0.47000000000E+01 0. -1.
         -5    1    4    4    0  502 -0.32124640045E+02 -0.49572068180E+02  0.13138535316E+04  0.13151891784E+04  0.47000000000E+01 0. -1.
          5    1    5    5  503    0 -0.50834938331E+02 -0.15648842443E+02  0.19354015631E+03  0.20077091256E+03  0.47000000000E+01 0. -1.
         -5    1    5    5    0  503  0.58426438373E+02  0.25828104169E+02  0.51389474434E+03  0.51787125613E+03  0.47000000000E+01 0. -1.
<mgrwt>
<rscale>  0 0.27382904E+03</rscale>
<asrwt>0</asrwt>
<pdfrwt beam="1">  1        2 0.36010479E+00 0.27382904E+03</pdfrwt>
<pdfrwt beam="2">  1       -2 0.12320928E-02 0.27382904E+03</pdfrwt>
<totfact> 0.77009779E+03</totfact>
</mgrwt>
</event>
<event>
 9    1  0.2095749E-002  0.2766977E+03  0.7818608E-02  0.1097506E+00
          2   -1    0    0  501    0  0.00000000000E+00  0.00000000000E+00  0.14243429778E+02  0.14243429778E+02  0.00000000000E+00 0. -1.
         -2   -1    0    0    0  501 -0.00000000000E+00 -0.00000000000E+00 -0.13438057663E+04  0.13438057663E+04  0.00000000000E+00 0. -1.
         36    2    1    2    0    0  0.00000000000E+00 -0.71054273576E-14 -0.13295623365E+04  0.13580491960E+04  0.27669769112E+03 0.  0.
         25    2    3    3    0    0  0.54879506146E+02 -0.32000120631E+01 -0.63093822359E+03  0.64609648320E+03  0.12781088897E+03 0.  0.
         25    2    3    3    0    0 -0.54879506146E+02  0.32000120631E+01 -0.69862411289E+03  0.71195271284E+03  0.12561454509E+03 0.  0.
          5    1    4    4  502    0  0.41423355907E+02 -0.64166746620E+02 -0.34800759462E+03  0.35632098128E+03  0.47000000000E+01 0.  1.
         -5    1    4    4    0  502  0.13456150238E+02  0.60966734557E+02 -0.28293062898E+03  0.28977550192E+03  0.47000000000E+01 0.  1.
          5    1    5    5  503    0  0.59872106736E+01  0.55732506638E+02 -0.26336291597E+03  0.26930294186E+03  0.47000000000E+01 0.  1.
         -5    1    5    5    0  503 -0.60866716819E+02 -0.52532494575E+02 -0.43526119692E+03  0.44264977098E+03  0.47000000000E+01 0.  1.
<mgrwt>
<rscale>  0 0.27669769E+03</rscale>
<asrwt>0</asrwt>
<pdfrwt beam="1">  1        2 0.21912964E-02 0.27669769E+03</pdfrwt>
<pdfrwt beam="2">  1       -2 0.20673940E+00 0.27669769E+03</pdfrwt>
<totfact> 0.63137500E+02</totfact>
</mgrwt>
</event>
<event>
 9    1  0.2095749E-002  0.2742496E+03  0.7818608E-02  0.1098872E+00
          1   -1    0    0  501    0  0.00000000000E+00  0.00000000000E+00  0.47469738828E+03  0.47469738828E+03  0.00000000000E+00 0.  1.
         -1   -1    0    0    0  501 -0.00000000000E+00 -0.00000000000E+00 -0.39610928071E+02  0.39610928071E+02  0.00000000000E+00 0.  1.
         36    2    1    2    0    0  0.00000000000E+00  0.00000000000E+00  0.43508646021E+03  0.51430831636E+03  0.27424955134E+03 0.  0.
         25    2    3    3    0    0 -0.38773048225E+02 -0.13373679472E+02  0.15071010508E+03  0.20094895700E+03  0.12643078334E+03 0.  0.
         25    2    3    3    0    0  0.38773048225E+02  0.13373679472E+02  0.28437635513E+03  0.31335935935E+03  0.12506787022E+03 0.  0.
          5    1    4    4  502    0 -0.44593042714E+02  0.15620070591E+02  0.16210097435E+03  0.16891223150E+03  0.47000000000E+01 0. -1.
         -5    1    4    4    0  502  0.58199944889E+01 -0.28993750063E+02 -0.11390869271E+02  0.32036725508E+02  0.47000000000E+01 0. -1.
          5    1    5    5  503    0  0.58203148601E+02  0.42779998955E+02  0.26088817590E+03  0.27074427998E+03  0.47000000000E+01 0.  1.
         -5    1    5    5    0  503 -0.19430100376E+02 -0.29406319483E+02  0.23488179238E+02  0.42615079374E+02  0.47000000000E+01 0.  1.
<mgrwt>
<rscale>  0 0.27424955E+03</rscale>
<asrwt>0</asrwt>
<pdfrwt beam="1">  1        1 0.73030363E-01 0.27424955E+03</pdfrwt>
<pdfrwt beam="2">  1       -1 0.60939893E-02 0.27424955E+03</pdfrwt>
<totfact> 0.62835497E+03</totfact>
</mgrwt>
</event>
<event>
 9    1  0.2095749E-002  0.2743315E+03  0.7818608E-02  0.1098826E+00
          2   -1    0    0  501    0  0.00000000000E+00  0.00000000000E+00  0.13084772353E+03  0.13084772353E+03  0.00000000000E+00 0.  1.
         -2   -1    0    0    0  501 -0.00000000000E+00 -0.00000000000E+00 -0.14378886698E+03  0.14378886698E+03  0.00000000000E+00 0.  1.
         36    2    1    2    0    0  0.00000000000E+00 -0.71054273576E-14 -0.12941143452E+02  0.27463659051E+03  0.27433152143E+03 0.  0.
         25    2    3    3    0    0 -0.37765352951E+02 -0.28207778782E+02 -0.15320716964E+02  0.13183760993E+03  0.12216599509E+03 0.  0.
         25    2    3    3    0    0  0.37765352951E+02  0.28207778782E+02  0.23795735127E+01  0.14279898058E+03  0.13477383210E+03 0.  0.
          5    1    4    4  502    0 -0.82560760919E+02 -0.17146447150E+02 -0.72850376265E+01  0.84766984532E+02  0.47000000000E+01 0.  1.
         -5    1    4    4    0  502  0.44795407968E+02 -0.11061331632E+02 -0.80356793378E+01  0.47070625394E+02  0.47000000000E+01 0.  1.
          5    1    5    5  503    0 -0.38799677508E+02 -0.19678288769E+02  0.23879452100E+02  0.49849455926E+02  0.47000000000E+01 0.  1.
         -5    1    5    5    0  503  0.76565030458E+02  0.47886067550E+02 -0.21499878587E+02  0.92949524656E+02  0.47000000000E+01 0.  1.
<mgrwt>
<rscale>  0 0.27433152E+03</rscale>
<asrwt>0</asrwt>
<pdfrwt beam="1">  1        2 0.20130419E-01 0.27433152E+03</pdfrwt>
<pdfrwt beam="2">  1       -2 0.22121364E-01 0.27433152E+03</pdfrwt>
<totfact> 0.48289965E+03</totfact>
</mgrwt>
</event>
<event>
 9    1  0.2095749E-002  0.2744775E+03  0.7818608E-02  0.1098744E+00
          1   -1    0    0  501    0  0.00000000000E+00  0.00000000000E+00  0.16422808889E+03  0.16422808889E+03  0.00000000000E+00 0.  1.
         -1   -1    0    0    0  501 -0.00000000000E+00 -0.00000000000E+00 -0.11468488186E+03  0.11468488186E+03  0.00000000000E+00 0.  1.
         36    2    1    2    0    0  0.35527136788E-14 -0.35527136788E-14  0.49543207025E+02  0.27891297075E+03  0.27447753258E+03 0.  0.
         25    2    3    3    0    0  0.42990077517E+01  0.15276932299E+02  0.91170237550E+02  0.15157284492E+03  0.12004352949E+03 0.  0.
         25    2    3    3    0    0 -0.42990077517E+01 -0.15276932299E+02 -0.41627030525E+02  0.12734012584E+03  0.11929305030E+03 0.  0.
          5    1    4    4  502    0  0.12796406853E+02 -0.50512757632E+02  0.54837194725E+02  0.75792444460E+02  0.47000000000E+01 0.  1.
         -5    1    4    4    0  502 -0.84973991014E+01  0.65789689930E+02  0.36333042826E+02  0.75780400458E+02  0.47000000000E+01 0.  1.
          5    1    5    5  503    0 -0.49309188951E+02 -0.35650961232E+02 -0.47539572657E+02  0.77359473370E+02  0.47000000000E+01 0.  1.
         -5    1    5    5    0  503  0.45010181199E+02  0.20374028933E+02  0.59125421315E+01  0.49980652467E+02  0.47000000000E+01 0.  1.
<mgrwt>
<rscale>  0 0.27447753E+03</rscale>
<asrwt>0</asrwt>
<pdfrwt beam="1">  1        1 0.25265860E-01 0.27447753E+03</pdfrwt>
<pdfrwt beam="2">  1       -1 0.17643828E-01 0.27447753E+03</pdfrwt>
<totfact> 0.46379884E+03</totfact>
</mgrwt>
</event>
<event>
 9    1  0.2095749E-002  0.2777735E+03  0.7818608E-02  0.1096911E+00
         -2   -1    0    0    0  501 -0.00000000000E+00  0.00000000000E+00  0.34934051411E+03  0.34934051411E+03  0.00000000000E+00 0.  1.
          2   -1    0    0  501    0  0.00000000000E+00 -0.00000000000E+00 -0.55216988065E+02  0.55216988065E+02  0.00000000000E+00 0.  1.
         36    2    1    2    0    0  0.00000000000E+00  0.00000000000E+00  0.29412352605E+03  0.40455750218E+03  0.27777351204E+03 0.  0.
         25    2    3    3    0    0  0.43372506448E+01 -0.21469806458E+02  0.99409264099E+02  0.16281962003E+03  0.12707581416E+03 0.  0.
         25    2    3    3    0    0 -0.43372506448E+01  0.21469806458E+02  0.19471426195E+03  0.24173788215E+03  0.14157611213E+03 0.  0.
          5    1    4    4  502    0  0.53192625143E+01 -0.32815260165E+02 -0.22418222897E+02  0.40370813359E+02  0.47000000000E+01 0. -1.
         -5    1    4    4    0  502 -0.98201186954E+00  0.11345453707E+02  0.12182748700E+03  0.12244880667E+03  0.47000000000E+01 0. -1.
          5    1    5    5  503    0  0.19030826089E+02  0.30701519412E+02  0.20920659497E+03  0.21235405580E+03  0.47000000000E+01 0. -1.
         -5    1    5    5    0  503 -0.23368076734E+02 -0.92317129542E+01 -0.14492333023E+02  0.29383826346E+02  0.47000000000E+01 0. -1.
<mgrwt>
<rscale>  0 0.27777351E+03</rscale>
<asrwt>0</asrwt>
<pdfrwt beam="1">  1        2 0.84949215E-02 0.27777351E+03</pdfrwt>
<pdfrwt beam="2">  1       -2 0.53744693E-01 0.27777351E+03</pdfrwt>
<totfact> 0.26062783E+03</totfact>
</mgrwt>
</event>
<event>
 9    1  0.2095749E-002  0.2748488E+03  0.7818608E-02  0.1098536E+00
          2   -1    0    0  501    0  0.00000000000E+00  0.00000000000E+00  0.16963880527E+04  0.16963880527E+04  0.00000000000E+00 0. -1.
         -2   -1    0    0    0  501 -0.00000000000E+00 -0.00000000000E+00 -0.11132754131E+02  0.11132754131E+02  0.00000000000E+00 0. -1.
         36    2    1    2    0    0 -0.35527136788E-14  0.00000000000E+00  0.16852552985E+04  0.17075208068E+04  0.27484883919E+03 0.  0.
         25    2    3    3    0    0 -0.29113442562E+02  0.50906086777E+02  0.77301098711E+03  0.78552959899E+03  0.12677437635E+03 0.  0.
         25    2    3    3    0    0  0.29113442562E+02 -0.50906086777E+02  0.91224431142E+03  0.92199120779E+03  0.12016272852E+03 0.  0.
          5    1    4    4  502    0  0.15697461080E+01  0.55306931770E+02  0.73101924246E+03  0.73312518961E+03  0.47000000000E+01 0. -1.
         -5    1    4    4    0  502 -0.30683188670E+02 -0.44008449929E+01  0.41991744649E+02  0.52404409378E+02  0.47000000000E+01 0. -1.
          5    1    5    5  503    0  0.56941622171E+02  0.11844911851E+02  0.28008682980E+03  0.28610028399E+03  0.47000000000E+01 0. -1.
         -5    1    5    5    0  503 -0.27828179609E+02 -0.62750998628E+02  0.63215748161E+03  0.63589092380E+03  0.47000000000E+01 0. -1.
<mgrwt>
<rscale>  0 0.27484884E+03</rscale>
<asrwt>0</asrwt>
<pdfrwt beam="1">  1        2 0.26098257E+00 0.27484884E+03</pdfrwt>
<pdfrwt beam="2">  1       -2 0.17127327E-02 0.27484884E+03</pdfrwt>
<totfact> 0.10421488E+04</totfact>
</mgrwt>
</event>
<event>
 9    1  0.2095749E-002  0.2748822E+03  0.7818608E-02  0.1098517E+00
          4   -1    0    0  501    0  0.00000000000E+00  0.00000000000E+00  0.32882149284E+02  0.32882149284E+02  0.00000000000E+00 0.  1.
         -4   -1    0    0    0  501 -0.00000000000E+00 -0.00000000000E+00 -0.57447748784E+03  0.57447748784E+03  0.00000000000E+00 0.  1.
         36    2    1    2    0    0  0.00000000000E+00  0.35527136788E-14 -0.54159533855E+03  0.60735963712E+03  0.27488218942E+03 0.  0.
         25    2    3    3    0    0 -0.15145748160E+02 -0.27922276410E+02 -0.23477211973E+03  0.26552525870E+03  0.11990274225E+03 0.  0.
         25    2    3    3    0    0  0.15145748160E+02  0.27922276410E+02 -0.30682321882E+03  0.34183437842E+03  0.14731329693E+03 0.  0.
          5    1    4    4  502    0 -0.54946412583E+02 -0.50201050627E+02 -0.11283666708E+03  0.13525330746E+03  0.47000000000E+01 0. -1.
         -5    1    4    4    0  502  0.39800664424E+02  0.22278774217E+02 -0.12193545265E+03  0.13027195125E+03  0.47000000000E+01 0. -1.
          5    1    5    5  503    0  0.51449452489E+02  0.20431803832E+02 -0.31256768026E+02  0.63746218058E+02  0.47000000000E+01 0.  1.
         -5    1    5    5    0  503 -0.36303704329E+02  0.74904725779E+01 -0.27556645080E+03  0.27808816036E+03  0.47000000000E+01 0.  1.
<mgrwt>
<rscale>  0 0.27488219E+03</rscale>
<asrwt>0</asrwt>
<pdfrwt beam="1">  1        4 0.50587922E-02 0.27488219E+03</pdfrwt>
<pdfrwt beam="2">  1       -4 0.88381152E-01 0.27488219E+03</pdfrwt>
<totfact> 0.49812194E+02</totfact>
</mgrwt>
</event>
<event>
 9    1  0.2095749E-002  0.2751544E+03  0.7818608E-02  0.1098365E+00
         -1   -1    0    0    0  501 -0.00000000000E+00  0.00000000000E+00  0.45333081298E+03  0.45333081298E+03  0.00000000000E+00 0.  1.
          1   -1    0    0  501    0  0.00000000000E+00 -0.00000000000E+00 -0.41752050127E+02  0.41752050127E+02  0.00000000000E+00 0.  1.
         36    2    1    2    0    0 -0.35527136788E-14  0.71054273576E-14  0.41157876286E+03  0.49508286311E+03  0.27515443538E+03 0.  0.
         25    2    3    3    0    0  0.21611183990E+02 -0.32994556493E+02  0.11710877981E+03  0.17424948213E+03  0.12285247935E+03 0.  0.
         25    2    3    3    0    0 -0.21611183990E+02  0.32994556493E+02  0.29446998305E+03  0.32083338098E+03  0.12110245003E+03 0.  0.
          5    1    4    4  502    0 -0.15387367744E+02 -0.66214602026E+02  0.10087239474E+03  0.12173115718E+03  0.47000000000E+01 0. -1.
         -5    1    4    4    0  502  0.36998551735E+02  0.33220045533E+02  0.16236385070E+02  0.52518324952E+02  0.47000000000E+01 0. -1.
          5    1    5    5  503    0 -0.34384503341E+02  0.21513157309E+02  0.29954716649E+03  0.30231722571E+03  0.47000000000E+01 0. -1.
         -5    1    5    5    0  503  0.12773319350E+02  0.11481399184E+02 -0.50771834410E+01  0.18516155274E+02  0.47000000000E+01 0. -1.
<mgrwt>
<rscale>  0 0.27515444E+03</rscale>
<asrwt>0</asrwt>
<pdfrwt beam="1">  1        1 0.64233927E-02 0.27515444E+03</pdfrwt>
<pdfrwt beam="2">  1       -1 0.69743198E-01 0.27515444E+03</pdfrwt>
<totfact> 0.25337654E+03</totfact>
</mgrwt>
</event>
<event>
 9    1  0.2095749E-002  0.2787406E+03  0.7818608E-02  0.1096379E+00
         -1   -1    0    0    0  501 -0.00000000000E+00  0.00000000000E+00  0.15000141594E+02  0.15000141594E+02  0.00000000000E+00 0.  1.
          1   -1    0    0  501    0  0.00000000000E+00 -0.00000000000E+00 -0.12949260289E+04  0.12949260289E+04  0.00000000000E+00 0.  1.
         36    2    1    2    0    0  0.71054273576E-14  0.71054273576E-14 -0.12799258873E+04  0.13099261705E+04  0.27874055168E+03 0.  0.
         25    2    3    3    0    0  0.38793805017E+02  0.35853796007E+02 -0.68116176250E+03  0.69545396498E+03  0.12994005048E+03 0.  0.
         25    2    3    3    0    0 -0.38793805017E+02 -0.35853796007E+02 -0.59876412483E+03  0.61447220554E+03  0.12754277792E+03 0.  0.
          5    1    4    4  502    0 -0.25282109814E+02 -0.44874206238E+01 -0.47600219177E+03  0.47671742006E+03  0.47000000000E+01 0.  1.
         -5    1    4    4    0  502  0.64075914831E+02  0.40341216631E+02 -0.20515957073E+03  0.21873654492E+03  0.47000000000E+01 0.  1.
          5    1    5    5  503    0  0.20118628581E+02 -0.13887693755E+02 -0.47426832638E+03  0.47492121732E+03  0.47000000000E+01 0. -1.
         -5    1    5    5    0  503 -0.58912433598E+02 -0.21966102252E+02 -0.12449579845E+03  0.13955098821E+03  0.47000000000E+01 0. -1.
<mgrwt>
<rscale>  0 0.27874055E+03</rscale>
<asrwt>0</asrwt>
<pdfrwt beam="1">  1        1 0.19921933E+00 0.27874055E+03</pdfrwt>
<pdfrwt beam="2">  1       -1 0.23077148E-02 0.27874055E+03</pdfrwt>
<totfact> 0.54680922E+03</totfact>
</mgrwt>
</event>
<event>
 9    1  0.2095749E-002  0.2740243E+03  0.7818608E-02  0.1098998E+00
         -2   -1    0    0    0  501 -0.00000000000E+00  0.00000000000E+00  0.44157836195E+03  0.44157836195E+03  0.00000000000E+00 0. -1.
          2   -1    0    0  501    0  0.00000000000E+00 -0.00000000000E+00 -0.42511897095E+02  0.42511897095E+02  0.00000000000E+00 0. -1.
         36    2    1    2    0    0  0.00000000000E+00  0.00000000000E+00  0.39906646485E+03  0.48409025904E+03  0.27402433383E+03 0.  0.
         25    2    3    3    0    0 -0.14549468275E+02 -0.52750274524E+02  0.16912533713E+03  0.21690987773E+03  0.12430702679E+03 0.  0.
         25    2    3    3    0    0  0.14549468275E+02  0.52750274524E+02  0.22994112773E+03  0.26718038132E+03  0.12457188868E+03 0.  0.
          5    1    4    4  502    0 -0.11991863063E+02  0.35685811598E+02  0.91737027621E+02  0.99272625461E+02  0.47000000000E+01 0. -1.
         -5    1    4    4    0  502 -0.25576052120E+01 -0.88436086122E+02  0.77388309507E+02  0.11763725227E+03  0.47000000000E+01 0. -1.
          5    1    5    5  503    0  0.18737220591E+02  0.19390613773E+02  0.23158051159E+03  0.23319241559E+03  0.47000000000E+01 0. -1.
         -5    1    5    5    0  503 -0.41877523163E+01  0.33359660751E+02 -0.16393838657E+01  0.33987965728E+02  0.47000000000E+01 0. -1.
<mgrwt>
<rscale>  0 0.27402433E+03</rscale>
<asrwt>0</asrwt>
<pdfrwt beam="1">  1        2 0.65402922E-02 0.27402433E+03</pdfrwt>
<pdfrwt beam="2">  1       -2 0.67935130E-01 0.27402433E+03</pdfrwt>
<totfact> 0.22388570E+03</totfact>
</mgrwt>
</event>
<event>
 9    1  0.2095749E-002  0.2743607E+03  0.7818608E-02  0.1098810E+00
          2   -1    0    0  501    0  0.00000000000E+00  0.00000000000E+00  0.53884091784E+03  0.53884091784E+03  0.00000000000E+00 0. -1.
         -2   -1    0    0    0  501 -0.00000000000E+00 -0.00000000000E+00 -0.34923931629E+02  0.34923931629E+02  0.00000000000E+00 0. -1.
         36    2    1    2    0    0  0.00000000000E+00  0.00000000000E+00  0.50391698621E+03  0.57376484947E+03  0.27436066317E+03 0.  0.
         25    2    3    3    0    0  0.99478215788E+01  0.13884682731E+02  0.36426549791E+03  0.38542045989E+03  0.12477112790E+03 0.  0.
         25    2    3    3    0    0 -0.99478215788E+01 -0.13884682731E+02  0.13965148830E+03  0.18834438958E+03  0.12521712078E+03 0.  0.
          5    1    4    4  502    0 -0.28090790155E+02  0.12764623101E+02  0.16042023647E+02  0.35092230153E+02  0.47000000000E+01 0.  1.
         -5    1    4    4    0  502  0.38038611734E+02  0.11200596297E+01  0.34822347427E+03  0.35032822973E+03  0.47000000000E+01 0.  1.
          5    1    5    5  503    0 -0.27787892738E+02 -0.46145122919E+02  0.11990451716E+02  0.55384115813E+02  0.47000000000E+01 0. -1.
         -5    1    5    5    0  503  0.17840071160E+02  0.32260440189E+02  0.12766103658E+03  0.13296027377E+03  0.47000000000E+01 0. -1.
<mgrwt>
<rscale>  0 0.27436066E+03</rscale>
<asrwt>0</asrwt>
<pdfrwt beam="1">  1        2 0.82898597E-01 0.27436066E+03</pdfrwt>
<pdfrwt beam="2">  1       -2 0.53729129E-02 0.27436066E+03</pdfrwt>
<totfact> 0.99708390E+03</totfact>
</mgrwt>
</event>
<event>
 9    1  0.2095749E-002  0.2749896E+03  0.7818608E-02  0.1098457E+00
         -1   -1    0    0    0  501 -0.00000000000E+00  0.00000000000E+00  0.19843158543E+02  0.19843158543E+02  0.00000000000E+00 0. -1.
          1   -1    0    0  501    0  0.00000000000E+00 -0.00000000000E+00 -0.95271231599E+03  0.95271231599E+03  0.00000000000E+00 0. -1.
         36    2    1    2    0    0  0.00000000000E+00 -0.35527136788E-14 -0.93286915745E+03  0.97255547454E+03  0.27498961095E+03 0.  0.
         25    2    3    3    0    0 -0.23339056556E+02  0.14005310684E+02 -0.65576482515E+03  0.66777432259E+03  0.12310231399E+03 0.  0.
         25    2    3    3    0    0  0.23339056556E+02 -0.14005310684E+02 -0.27710433230E+03  0.30478115195E+03  0.12395111664E+03 0.  0.
          5    1    4    4  502    0  0.46109705679E+02 -0.16157004114E+02 -0.21528392038E+03  0.22080853723E+03  0.47000000000E+01 0.  1.
         -5    1    4    4    0  502 -0.69448762235E+02  0.30162314798E+02 -0.44048090477E+03  0.44696578535E+03  0.47000000000E+01 0.  1.
          5    1    5    5  503    0  0.30408852562E+01 -0.39516104398E+02 -0.26751496974E+03  0.27047572631E+03  0.47000000000E+01 0. -1.
         -5    1    5    5    0  503  0.20298171300E+02  0.25510793714E+02 -0.95893625625E+01  0.34305425641E+02  0.47000000000E+01 0. -1.
<mgrwt>
<rscale>  0 0.27498961E+03</rscale>
<asrwt>0</asrwt>
<pdfrwt beam="1">  1        1 0.14657115E+00 0.27498961E+03</pdfrwt>
<pdfrwt beam="2">  1       -1 0.30527932E-02 0.27498961E+03</pdfrwt>
<totfact> 0.63798985E+03</totfact>
</mgrwt>
</event>
<event>
 9    1  0.2095749E-002  0.2748939E+03  0.7818608E-02  0.1098511E+00
         -2   -1    0    0    0  501 -0.00000000000E+00  0.00000000000E+00  0.62161267962E+02  0.62161267962E+02  0.00000000000E+00 0. -1.
          2   -1    0    0  501    0  0.00000000000E+00 -0.00000000000E+00 -0.30391383853E+03  0.30391383853E+03  0.00000000000E+00 0. -1.
         36    2    1    2    0    0  0.00000000000E+00  0.00000000000E+00 -0.24175257057E+03  0.36607510649E+03  0.27489393994E+03 0.  0.
         25    2    3    3    0    0  0.83139316275E+01  0.51671012895E+02 -0.84823005467E+02  0.15874978175E+03  0.12356187081E+03 0.  0.
         25    2    3    3    0    0 -0.83139316275E+01 -0.51671012895E+02 -0.15692956510E+03  0.20732532474E+03  0.12497154413E+03 0.  0.
          5    1    4    4  502    0  0.26880345141E+01  0.78930076308E+02 -0.99350559951E+02  0.12700317413E+03  0.47000000000E+01 0. -1.
         -5    1    4    4    0  502  0.56258971134E+01 -0.27259063414E+02  0.14527554483E+02  0.31746607626E+02  0.47000000000E+01 0. -1.
          5    1    5    5  503    0 -0.61389163871E+02 -0.53581371596E+02 -0.85652256325E+02  0.11831310932E+03  0.47000000000E+01 0.  1.
         -5    1    5    5    0  503  0.53075232243E+02  0.19103587011E+01 -0.71277308776E+02  0.89012215422E+02  0.47000000000E+01 0.  1.
<mgrwt>
<rscale>  0 0.27489394E+03</rscale>
<asrwt>0</asrwt>
<pdfrwt beam="1">  1        2 0.46755976E-01 0.27489394E+03</pdfrwt>
<pdfrwt beam="2">  1       -2 0.95632719E-02 0.27489394E+03</pdfrwt>
<totfact> 0.76254908E+03</totfact>
</mgrwt>
</event>
<event>
 9    1  0.2095749E-002  0.2752917E+03  0.7818608E-02  0.1098289E+00
         -1   -1    0    0    0  501 -0.00000000000E+00  0.00000000000E+00  0.51966335666E+02  0.51966335666E+02  0.00000000000E+00 0. -1.
          1   -1    0    0  501    0  0.00000000000E+00 -0.00000000000E+00 -0.36458949280E+03  0.36458949280E+03  0.00000000000E+00 0. -1.
         36    2    1    2    0    0 -0.35527136788E-14 -0.14210854715E-13 -0.31262315714E+03  0.41655582847E+03  0.27529169957E+03 0.  0.
         25    2    3    3    0    0 -0.25745338374E+02 -0.52881816814E+02 -0.18898045612E+03  0.22902516651E+03  0.11523716892E+03 0.  0.
         25    2    3    3    0    0  0.25745338374E+02  0.52881816814E+02 -0.12364270102E+03  0.18753066196E+03  0.12814414799E+03 0.  0.
          5    1    4    4  502    0 -0.21043330520E+02 -0.75900886777E+02 -0.18927537024E+03  0.20506345884E+03  0.47000000000E+01 0. -1.
         -5    1    4    4    0  502 -0.47020078539E+01  0.23019069963E+02  0.29491412231E+00  0.23961707664E+02  0.47000000000E+01 0. -1.
          5    1    5    5  503    0  0.66968254729E+02  0.66521106711E+02 -0.66278525383E+02  0.11543282768E+03  0.47000000000E+01 0. -1.
         -5    1    5    5    0  503 -0.41222916355E+02 -0.13639289898E+02 -0.57364175636E+02  0.72097834282E+02  0.47000000000E+01 0. -1.
<mgrwt>
<rscale>  0 0.27529170E+03</rscale>
<asrwt>0</asrwt>
<pdfrwt beam="1">  1        1 0.56090690E-01 0.27529170E+03</pdfrwt>
<pdfrwt beam="2">  1       -1 0.79948210E-02 0.27529170E+03</pdfrwt>
<totfact> 0.58502041E+03</totfact>
</mgrwt>
</event>
<event>
 9    1  0.2095749E-002  0.2748429E+03  0.7818608E-02  0.1098539E+00
         -2   -1    0    0    0  501 -0.00000000000E+00  0.00000000000E+00  0.54870317606E+01  0.54870317606E+01  0.00000000000E+00 0. -1.
          2   -1    0    0  501    0  0.00000000000E+00 -0.00000000000E+00 -0.34416885944E+04  0.34416885944E+04  0.00000000000E+00 0. -1.
         36    2    1    2    0    0  0.00000000000E+00  0.00000000000E+00 -0.34362015626E+04  0.34471756262E+04  0.27484289787E+03 0.  0.
         25    2    3    3    0    0 -0.36443338416E+02 -0.86963228646E+01 -0.16517702719E+04  0.16569823949E+04  0.12586454180E+03 0.  0.
         25    2    3    3    0    0  0.36443338416E+02  0.86963228646E+01 -0.17844312908E+04  0.17901932313E+04  0.13853891506E+03 0.  0.
          5    1    4    4  502    0 -0.57699548113E+02 -0.20314238070E+01 -0.33198284958E+03  0.33699861565E+03  0.47000000000E+01 0.  1.
         -5    1    4    4    0  502  0.21256209696E+02 -0.66648990575E+01 -0.13197874223E+04  0.13199837792E+04  0.47000000000E+01 0.  1.
          5    1    5    5  503    0  0.57433549307E+02 -0.65170070323E+01 -0.30143426887E+03  0.30696220030E+03  0.47000000000E+01 0.  1.
         -5    1    5    5    0  503 -0.20990210891E+02  0.15213329897E+02 -0.14829970219E+04  0.14832310310E+04  0.47000000000E+01 0.  1.
<mgrwt>
<rscale>  0 0.27484290E+03</rscale>
<asrwt>0</asrwt>
<pdfrwt beam="1">  1        2 0.52949251E+00 0.27484290E+03</pdfrwt>
<pdfrwt beam="2">  1       -2 0.84415562E-03 0.27484290E+03</pdfrwt>
<totfact> 0.30204393E+03</totfact>
</mgrwt>
</event>
<event>
 9    1  0.2095749E-002  0.2761664E+03  0.7818608E-02  0.1097801E+00
          4   -1    0    0  501    0  0.00000000000E+00  0.00000000000E+00  0.10351230844E+03  0.10351230844E+03  0.00000000000E+00 0.  1.
         -4   -1    0    0    0  501 -0.00000000000E+00 -0.00000000000E+00 -0.18420000580E+03  0.18420000580E+03  0.00000000000E+00 0.  1.
         36    2    1    2    0    0  0.71054273576E-14  0.71054273576E-14 -0.80687697359E+02  0.28771231425E+03  0.27616638330E+03 0.  0.
         25    2    3    3    0    0  0.31706625632E+02  0.25387940110E+02 -0.82166470670E+02  0.15536413259E+03  0.12544651123E+03 0.  0.
         25    2    3    3    0    0 -0.31706625632E+02 -0.25387940110E+02  0.14787733113E+01  0.13234818166E+03  0.12595235927E+03 0.  0.
          5    1    4    4  502    0  0.44900785073E+02  0.28211862373E+02 -0.11104373185E+03  0.12314540211E+03  0.47000000000E+01 0.  1.
         -5    1    4    4    0  502 -0.13194159441E+02 -0.28239222626E+01  0.28877261178E+02  0.32218730476E+02  0.47000000000E+01 0.  1.
          5    1    5    5  503    0 -0.38290423718E+02 -0.59381351744E+02 -0.37393601377E+02  0.80079166500E+02  0.47000000000E+01 0. -1.
         -5    1    5    5    0  503  0.65837980858E+01  0.33993411634E+02  0.38872374688E+02  0.52269015159E+02  0.47000000000E+01 0. -1.
<mgrwt>
<rscale>  0 0.27616638E+03</rscale>
<asrwt>0</asrwt>
<pdfrwt beam="1">  1        4 0.15924971E-01 0.27616638E+03</pdfrwt>
<pdfrwt beam="2">  1       -4 0.28338462E-01 0.27616638E+03</pdfrwt>
<totfact> 0.75390930E+02</totfact>
</mgrwt>
</event>
<event>
 9    1  0.2095749E-002  0.2749889E+03  0.7818608E-02  0.1098458E+00
          2   -1    0    0  501    0  0.00000000000E+00  0.00000000000E+00  0.20187131250E+04  0.20187131250E+04  0.00000000000E+00 0. -1.
         -2   -1    0    0    0  501 -0.00000000000E+00 -0.00000000000E+00 -0.93647430307E+01  0.93647430307E+01  0.00000000000E+00 0. -1.
         36    2    1    2    0    0 -0.71054273576E-14  0.00000000000E+00  0.20093483820E+04  0.20280778680E+04  0.27498894282E+03 0.  0.
         25    2    3    3    0    0 -0.33059109350E+02  0.31420356405E+02  0.82324741057E+03  0.83463490801E+03  0.12961090673E+03 0.  0.
         25    2    3    3    0    0  0.33059109350E+02 -0.31420356405E+02  0.11861009714E+04  0.11934429600E+04  0.12405821606E+03 0.  0.
          5    1    4    4  502    0  0.19565742615E+02  0.55478298084E+02  0.63254085201E+03  0.63528787121E+03  0.47000000000E+01 0.  1.
         -5    1    4    4    0  502 -0.52624851965E+02 -0.24057941679E+02  0.19070655856E+03  0.19934703680E+03  0.47000000000E+01 0.  1.
          5    1    5    5  503    0 -0.27779726764E+02 -0.22853593421E+02  0.11534551012E+03  0.12091599008E+03  0.47000000000E+01 0. -1.
         -5    1    5    5    0  503  0.60838836114E+02 -0.85667629837E+01  0.10707554613E+04  0.10725269699E+04  0.47000000000E+01 0. -1.
<mgrwt>
<rscale>  0 0.27498894E+03</rscale>
<asrwt>0</asrwt>
<pdfrwt beam="1">  1        2 0.31057090E+00 0.27498894E+03</pdfrwt>
<pdfrwt beam="2">  1       -2 0.14407313E-02 0.27498894E+03</pdfrwt>
<totfact> 0.90895134E+03</totfact>
</mgrwt>
</event>
<event>
 9    1  0.2095749E-002  0.2761753E+03  0.7818608E-02  0.1097796E+00
         -2   -1    0    0    0  501 -0.00000000000E+00  0.00000000000E+00  0.21137178550E+02  0.21137178550E+02  0.00000000000E+00 0. -1.
          2   -1    0    0  501    0  0.00000000000E+00 -0.00000000000E+00 -0.90211684421E+03  0.90211684421E+03  0.00000000000E+00 0. -1.
         36    2    1    2    0    0  0.00000000000E+00  0.71054273576E-14 -0.88097966566E+03  0.92325402276E+03  0.27617534147E+03 0.  0.
         25    2    3    3    0    0 -0.25618148115E+02  0.73669792499E+01 -0.59245484718E+03  0.61054364628E+03  0.14508699516E+03 0.  0.
         25    2    3    3    0    0  0.25618148115E+02 -0.73669792499E+01 -0.28852481848E+03  0.31271037649E+03  0.11760377029E+03 0.  0.
          5    1    4    4  502    0 -0.59594191840E+02  0.41801939594E+02 -0.50711204032E+03  0.51233151503E+03  0.47000000000E+01 0. -1.
         -5    1    4    4    0  502  0.33976043725E+02 -0.34434960344E+02 -0.85342806862E+02  0.98212131248E+02  0.47000000000E+01 0. -1.
          5    1    5    5  503    0 -0.11376520242E+02  0.42767707639E+02 -0.19650581745E+03  0.20148232756E+03  0.47000000000E+01 0.  1.
         -5    1    5    5    0  503  0.36994668357E+02 -0.50134686889E+02 -0.92019001035E+02  0.11122804893E+03  0.47000000000E+01 0.  1.
<mgrwt>
<rscale>  0 0.27617534E+03</rscale>
<asrwt>0</asrwt>
<pdfrwt beam="1">  1        2 0.13878716E+00 0.27617534E+03</pdfrwt>
<pdfrwt beam="2">  1       -2 0.32518748E-02 0.27617534E+03</pdfrwt>
<totfact> 0.11337442E+04</totfact>
</mgrwt>
</event>
<event>
 9    1  0.2095749E-002  0.2757693E+03  0.7818608E-02  0.1098022E+00
         -2   -1    0    0    0  501 -0.00000000000E+00  0.00000000000E+00  0.19216365256E+02  0.19216365256E+02  0.00000000000E+00 0. -1.
          2   -1    0    0  501    0  0.00000000000E+00 -0.00000000000E+00 -0.98937425416E+03  0.98937425416E+03  0.00000000000E+00 0. -1.
         36    2    1    2    0    0 -0.14210854715E-13 -0.35527136788E-14 -0.97015788891E+03  0.10085906194E+04  0.27576930245E+03 0.  0.
         25    2    3    3    0    0 -0.42504436491E+02 -0.15832523532E+02 -0.34665633363E+03  0.37094937546E+03  0.12399810316E+03 0.  0.
         25    2    3    3    0    0  0.42504436491E+02  0.15832523532E+02 -0.62350155528E+03  0.63764124396E+03  0.12559805189E+03 0.  0.
          5    1    4    4  502    0 -0.68680597486E+02  0.29616235336E+02 -0.15462068027E+03  0.17182488363E+03  0.47000000000E+01 0.  1.
         -5    1    4    4    0  502  0.26176160995E+02 -0.45448758868E+02 -0.19203565336E+03  0.19912449183E+03  0.47000000000E+01 0.  1.
          5    1    5    5  503    0  0.43122772653E+02 -0.44967884639E+02 -0.19351533657E+03  0.20335181252E+03  0.47000000000E+01 0. -1.
         -5    1    5    5    0  503 -0.61833616143E+00  0.60800408171E+02 -0.42998621871E+03  0.43428943143E+03  0.47000000000E+01 0. -1.
<mgrwt>
<rscale>  0 0.27576930E+03</rscale>
<asrwt>0</asrwt>
<pdfrwt beam="1">  1        2 0.15221144E+00 0.27576930E+03</pdfrwt>
<pdfrwt beam="2">  1       -2 0.29563635E-02 0.27576930E+03</pdfrwt>
<totfact> 0.11512925E+04</totfact>
</mgrwt>
</event>
<event>
 9    1  0.2095749E-002  0.2770960E+03  0.7818608E-02  0.1097286E+00
          1   -1    0    0  501    0  0.00000000000E+00  0.00000000000E+00  0.34093571160E+03  0.34093571160E+03  0.00000000000E+00 0. -1.
         -1   -1    0    0    0  501 -0.00000000000E+00 -0.00000000000E+00 -0.56302559419E+02  0.56302559419E+02  0.00000000000E+00 0. -1.
         36    2    1    2    0    0  0.00000000000E+00 -0.71054273576E-14  0.28463315218E+03  0.39723827101E+03  0.27709603505E+03 0.  0.
         25    2    3    3    0    0  0.27594259764E+02 -0.11679159611E+02  0.69949375759E+02  0.14674319210E+03  0.12547032843E+03 0.  0.
         25    2    3    3    0    0 -0.27594259764E+02  0.11679159611E+02  0.21468377642E+03  0.25049507892E+03  0.12554208363E+03 0.  0.
          5    1    4    4  502    0  0.47370138720E+02 -0.57999069146E+02  0.25041035302E+02  0.79100983010E+02  0.47000000000E+01 0. -1.
         -5    1    4    4    0  502 -0.19775878956E+02  0.46319909534E+02  0.44908340457E+02  0.67642209088E+02  0.47000000000E+01 0. -1.
          5    1    5    5  503    0 -0.47969188825E+02 -0.44820854413E+02  0.13871311201E+03  0.15353621563E+03  0.47000000000E+01 0. -1.
         -5    1    5    5    0  503  0.20374929061E+02  0.56500014025E+02  0.75970664409E+02  0.96958863286E+02  0.47000000000E+01 0. -1.
<mgrwt>
<rscale>  0 0.27709604E+03</rscale>
<asrwt>0</asrwt>
<pdfrwt beam="1">  1        1 0.52451647E-01 0.27709604E+03</pdfrwt>
<pdfrwt beam="2">  1       -1 0.86619324E-02 0.27709604E+03</pdfrwt>
<totfact> 0.56358746E+03</totfact>
</mgrwt>
</event>
<event>
 9    1  0.2095749E-002  0.2748132E+03  0.7818608E-02  0.1098556E+00
         -2   -1    0    0    0  501 -0.00000000000E+00  0.00000000000E+00  0.82440094293E+02  0.82440094293E+02  0.00000000000E+00 0.  1.
          2   -1    0    0  501    0  0.00000000000E+00 -0.00000000000E+00 -0.22902181691E+03  0.22902181691E+03  0.00000000000E+00 0.  1.
         36    2    1    2    0    0  0.00000000000E+00 -0.71054273576E-14 -0.14658172262E+03  0.31146191120E+03  0.27481324700E+03 0.  0.
         25    2    3    3    0    0  0.12453345280E+02  0.13216182981E+02 -0.58135761717E+01  0.12348278049E+03  0.12200182830E+03 0.  0.
         25    2    3    3    0    0 -0.12453345280E+02 -0.13216182981E+02 -0.14076814644E+03  0.18797913071E+03  0.12325067637E+03 0.  0.
          5    1    4    4  502    0 -0.31890922882E+01 -0.48843120771E+02 -0.26754744042E+02  0.55979702438E+02  0.47000000000E+01 0. -1.
         -5    1    4    4    0  502  0.15642437569E+02  0.62059303752E+02  0.20941167870E+02  0.67503078056E+02  0.47000000000E+01 0. -1.
          5    1    5    5  503    0  0.15684703531E+02 -0.56129312795E+02 -0.29788911673E+02  0.65619958384E+02  0.47000000000E+01 0. -1.
         -5    1    5    5    0  503 -0.28138048811E+02  0.42913129813E+02 -0.11097923477E+03  0.12235917232E+03  0.47000000000E+01 0. -1.
<mgrwt>
<rscale>  0 0.27481325E+03</rscale>
<asrwt>0</asrwt>
<pdfrwt beam="1">  1        2 0.35234126E-01 0.27481325E+03</pdfrwt>
<pdfrwt beam="2">  1       -2 0.12683091E-01 0.27481325E+03</pdfrwt>
<totfact> 0.65807622E+03</totfact>
</mgrwt>
</event>
<event>
 9    1  0.2095749E-002  0.2753232E+03  0.7818608E-02  0.1098271E+00
          2   -1    0    0  501    0  0.00000000000E+00  0.00000000000E+00  0.10141863466E+03  0.10141863466E+03  0.00000000000E+00 0. -1.
         -2   -1    0    0    0  501 -0.00000000000E+00 -0.00000000000E+00 -0.18685629296E+03  0.18685629296E+03  0.00000000000E+00 0. -1.
         36    2    1    2    0    0  0.35527136788E-14  0.00000000000E+00 -0.85437658302E+02  0.28827492762E+03  0.27532315638E+03 0.  0.
         25    2    3    3    0    0 -0.23602032794E+02  0.42480105457E+02 -0.78443064662E+02  0.15399984982E+03  0.12329243301E+03 0.  0.
         25    2    3    3    0    0  0.23602032794E+02 -0.42480105457E+02 -0.69945936401E+01  0.13427507781E+03  0.12497702536E+03 0.  0.
          5    1    4    4  502    0 -0.56064717004E+02 -0.57979391502E+00  0.28470826280E+01  0.56336351792E+02  0.47000000000E+01 0. -1.
         -5    1    4    4    0  502  0.32462684210E+02  0.43059899372E+02 -0.81290147290E+02  0.97663498025E+02  0.47000000000E+01 0. -1.
          5    1    5    5  503    0  0.14778535824E+02  0.13967941139E+02  0.49542608000E+02  0.53759357401E+02  0.47000000000E+01 0.  1.
         -5    1    5    5    0  503  0.88234969701E+01 -0.56448046596E+02 -0.56537201640E+02  0.80515720406E+02  0.47000000000E+01 0.  1.
<mgrwt>
<rscale>  0 0.27532316E+03</rscale>
<asrwt>0</asrwt>
<pdfrwt beam="1">  1        2 0.15602867E-01 0.27532316E+03</pdfrwt>
<pdfrwt beam="2">  1       -2 0.28747122E-01 0.27532316E+03</pdfrwt>
<totfact> 0.40868089E+03</totfact>
</mgrwt>
</event>
<event>
 9    1  0.2095749E-002  0.2751941E+03  0.7818608E-02  0.1098343E+00
         -4   -1    0    0    0  501 -0.00000000000E+00  0.00000000000E+00  0.78131423499E+02  0.78131423499E+02  0.00000000000E+00 0.  1.
          4   -1    0    0  501    0  0.00000000000E+00 -0.00000000000E+00 -0.24232173507E+03  0.24232173507E+03  0.00000000000E+00 0.  1.
         36    2    1    2    0    0 -0.71054273576E-14  0.71054273576E-14 -0.16419031157E+03  0.32045315857E+03  0.27519405594E+03 0.  0.
         25    2    3    3    0    0  0.37073515547E+02 -0.18467427963E+02 -0.41150967986E+02  0.13715382080E+03  0.12410591019E+03 0.  0.
         25    2    3    3    0    0 -0.37073515547E+02  0.18467427963E+02 -0.12303934359E+03  0.18329933777E+03  0.12940044708E+03 0.  0.
          5    1    4    4  502    0 -0.42741296956E+02  0.12837175071E+02 -0.16648014513E+02  0.47862907522E+02  0.47000000000E+01 0. -1.
         -5    1    4    4    0  502  0.79814812502E+02 -0.31304603035E+02 -0.24502953473E+02  0.89290913282E+02  0.47000000000E+01 0. -1.
          5    1    5    5  503    0  0.37868245665E+02 -0.12980341150E+02 -0.60275378397E+01  0.40754318772E+02  0.47000000000E+01 0. -1.
         -5    1    5    5    0  503 -0.74941761212E+02  0.31447769113E+02 -0.11701180575E+03  0.14254501899E+03  0.47000000000E+01 0. -1.
<mgrwt>
<rscale>  0 0.27519406E+03</rscale>
<asrwt>0</asrwt>
<pdfrwt beam="1">  1        4 0.37280266E-01 0.27519406E+03</pdfrwt>
<pdfrwt beam="2">  1       -4 0.12020219E-01 0.27519406E+03</pdfrwt>
<totfact> 0.72609787E+02</totfact>
</mgrwt>
</event>
<event>
 9    1  0.2095749E-002  0.2758194E+03  0.7818608E-02  0.1097994E+00
         -2   -1    0    0    0  501 -0.00000000000E+00  0.00000000000E+00  0.44591841328E+02  0.44591841328E+02  0.00000000000E+00 0.  1.
          2   -1    0    0  501    0  0.00000000000E+00 -0.00000000000E+00 -0.42651484744E+03  0.42651484744E+03  0.00000000000E+00 0.  1.
         36    2    1    2    0    0  0.00000000000E+00  0.00000000000E+00 -0.38192300611E+03  0.47110668876E+03  0.27581937859E+03 0.  0.
         25    2    3    3    0    0 -0.59273967796E+02  0.24724824269E+02 -0.55845973547E+02  0.11584161863E+03  0.78586179771E+02 0.  0.
         25    2    3    3    0    0  0.59273967796E+02 -0.24724824269E+02 -0.32607703256E+03  0.35526507014E+03  0.12554807328E+03 0.  0.
          5    1    4    4  502    0  0.18314169784E+02  0.80435967128E+01 -0.19858653216E+02  0.28575590467E+02  0.47000000000E+01 0. -1.
         -5    1    4    4    0  502 -0.77588137581E+02  0.16681227556E+02 -0.35987320331E+02  0.87266028159E+02  0.47000000000E+01 0. -1.
          5    1    5    5  503    0  0.63524211419E+02  0.23365584092E+02 -0.28090504594E+03  0.28898271711E+03  0.47000000000E+01 0.  1.
         -5    1    5    5    0  503 -0.42502436224E+01 -0.48090408362E+02 -0.45171986623E+02  0.66282353027E+02  0.47000000000E+01 0.  1.
<mgrwt>
<rscale>  0 0.27581938E+03</rscale>
<asrwt>0</asrwt>
<pdfrwt beam="1">  1        2 0.65617669E-01 0.27581938E+03</pdfrwt>
<pdfrwt beam="2">  1       -2 0.68602833E-02 0.27581938E+03</pdfrwt>
<totfact> 0.88872911E+03</totfact>
</mgrwt>
</event>
<event>
 9    1  0.2095749E-002  0.2751118E+03  0.7818608E-02  0.1098389E+00
          2   -1    0    0  501    0  0.00000000000E+00  0.00000000000E+00  0.58464023354E+03  0.58464023354E+03  0.00000000000E+00 0.  1.
         -2   -1    0    0    0  501 -0.00000000000E+00 -0.00000000000E+00 -0.32364552304E+02  0.32364552304E+02  0.00000000000E+00 0.  1.
         36    2    1    2    0    0 -0.35527136788E-14  0.00000000000E+00  0.55227568123E+03  0.61700478584E+03  0.27511175487E+03 0.  0.
         25    2    3    3    0    0  0.31402932713E+02  0.30510753629E+02  0.30841323645E+03  0.33637013475E+03  0.12692160125E+03 0.  0.
         25    2    3    3    0    0 -0.31402932713E+02 -0.30510753629E+02  0.24386244478E+03  0.28063465109E+03  0.13179478422E+03 0.  0.
          5    1    4    4  502    0 -0.76479274770E+00  0.37458766320E+02  0.14289299823E+02  0.40373483520E+02  0.47000000000E+01 0.  1.
         -5    1    4    4    0  502  0.32167725460E+02 -0.69480126905E+01  0.29412393663E+03  0.29599665123E+03  0.47000000000E+01 0.  1.
          5    1    5    5  503    0  0.36676766380E+02 -0.49220221799E+02  0.15674388145E+03  0.16839996971E+03  0.47000000000E+01 0.  1.
         -5    1    5    5    0  503 -0.68079699093E+02  0.18709468170E+02  0.87118563328E+02  0.11223468138E+03  0.47000000000E+01 0.  1.
<mgrwt>
<rscale>  0 0.27511175E+03</rscale>
<asrwt>0</asrwt>
<pdfrwt beam="1">  1        2 0.89944643E-01 0.27511175E+03</pdfrwt>
<pdfrwt beam="2">  1       -2 0.49791623E-02 0.27511175E+03</pdfrwt>
<totfact> 0.10199346E+04</totfact>
</mgrwt>
</event>
<event>
 9    1  0.2095749E-002  0.2752668E+03  0.7818608E-02  0.1098303E+00
          2   -1    0    0  501    0  0.00000000000E+00  0.00000000000E+00  0.51027613968E+02  0.51027613968E+02  0.00000000000E+00 0. -1.
         -2   -1    0    0    0  501 -0.00000000000E+00 -0.00000000000E+00 -0.37122956256E+03  0.37122956256E+03  0.00000000000E+00 0. -1.
         36    2    1    2    0    0  0.00000000000E+00  0.00000000000E+00 -0.32020194859E+03  0.42225717652E+03  0.27526684371E+03 0.  0.
         25    2    3    3    0    0  0.37834401805E+02  0.39945557063E+01 -0.86846531306E+02  0.15599523775E+03  0.12387411258E+03 0.  0.
         25    2    3    3    0    0 -0.37834401805E+02 -0.39945557063E+01 -0.23335541728E+03  0.26626193877E+03  0.12244701233E+03 0.  0.
          5    1    4    4  502    0  0.68132272760E+02  0.31703668341E+02 -0.20850428754E+02  0.78127841113E+02  0.47000000000E+01 0. -1.
         -5    1    4    4    0  502 -0.30297870955E+02 -0.27709112635E+02 -0.65996102551E+02  0.77867396639E+02  0.47000000000E+01 0. -1.
          5    1    5    5  503    0 -0.20152478934E+02 -0.62221172977E+02 -0.14181068978E+03  0.15623686668E+03  0.47000000000E+01 0. -1.
         -5    1    5    5    0  503 -0.17681922872E+02  0.58226617271E+02 -0.91544727500E+02  0.11002507209E+03  0.47000000000E+01 0. -1.
<mgrwt>
<rscale>  0 0.27526684E+03</rscale>
<asrwt>0</asrwt>
<pdfrwt beam="1">  1        2 0.78504024E-02 0.27526684E+03</pdfrwt>
<pdfrwt beam="2">  1       -2 0.57112239E-01 0.27526684E+03</pdfrwt>
<totfact> 0.25444818E+03</totfact>
</mgrwt>
</event>
<event>
 8    1  0.2095749E-002  0.3087568E+03  0.7818608E-02  0.1080943E+00
          1   -1    0    0  501    0  0.00000000000E+00  0.00000000000E+00  0.14031148195E+04  0.14031148195E+04  0.00000000000E+00 0.  1.
         -1   -1    0    0    0  501 -0.00000000000E+00 -0.00000000000E+00 -0.16985564997E+02  0.16985564997E+02  0.00000000000E+00 0.  1.
         25    2    1    2    0    0  0.21081435630E+02 -0.79212712953E+02  0.60366616979E+03  0.62285465418E+03  0.12967650082E+03 0.  0.
         25    2    1    2    0    0 -0.21081435630E+02  0.79212712953E+02  0.78246308473E+03  0.79724573033E+03  0.12896974354E+03 0.  0.
          5    1    3    3  502    0 -0.27838359226E+02 -0.60848293624E+01  0.39881453516E+03  0.39985887866E+03  0.47000000000E+01 0.  1.
         -5    1    3    3    0  502  0.48919794856E+02 -0.73127883591E+02  0.20485163463E+03  0.22299577552E+03  0.47000000000E+01 0.  1.
          5    1    4    4  503    0  0.11408068045E+02  0.10157105741E+03  0.67434163523E+03  0.68205978823E+03  0.47000000000E+01 0.  1.
         -5    1    4    4    0  503 -0.32489503675E+02 -0.22358344452E+02  0.10812144951E+03  0.11518594211E+03  0.47000000000E+01 0.  1.
<mgrwt>
<rscale>  0 0.30875685E+03</rscale>
<asrwt>0</asrwt>
<pdfrwt beam="1">  1        1 0.21586373E+00 0.30875685E+03</pdfrwt>
<pdfrwt beam="2">  1       -1 0.26131649E-02 0.30875685E+03</pdfrwt>
<totfact> 0.38483413E+03</totfact>
</mgrwt>
</event>
<event>
 9    1  0.2095749E-002  0.2732072E+03  0.7818608E-02  0.1099458E+00
          4   -1    0    0  501    0  0.00000000000E+00  0.00000000000E+00  0.50444368851E+03  0.50444368851E+03  0.00000000000E+00 0.  1.
         -4   -1    0    0    0  501 -0.00000000000E+00 -0.00000000000E+00 -0.36992316940E+02  0.36992316940E+02  0.00000000000E+00 0.  1.
         36    2    1    2    0    0 -0.35527136788E-14 -0.71054273576E-14  0.46745137157E+03  0.54143600545E+03  0.27320718002E+03 0.  0.
         25    2    3    3    0    0 -0.30381663757E+02  0.22898592445E+02  0.21135274141E+03  0.25826941022E+03  0.14347723138E+03 0.  0.
         25    2    3    3    0    0  0.30381663757E+02 -0.22898592445E+02  0.25609863016E+03  0.28316659523E+03  0.11467092594E+03 0.  0.
          5    1    4    4  502    0 -0.38686881930E+02 -0.55613575291E+02  0.11566458023E+03  0.13412654364E+03  0.47000000000E+01 0.  1.
         -5    1    4    4    0  502  0.83052181728E+01  0.78512167736E+02  0.95688161185E+02  0.12414286658E+03  0.47000000000E+01 0.  1.
          5    1    5    5  503    0 -0.40018625566E+02 -0.27314088460E+02  0.12644797185E+03  0.13549438883E+03  0.47000000000E+01 0.  1.
         -5    1    5    5    0  503  0.70400289323E+02  0.44154960151E+01  0.12965065831E+03  0.14767220640E+03  0.47000000000E+01 0.  1.
<mgrwt>
<rscale>  0 0.27320718E+03</rscale>
<asrwt>0</asrwt>
<pdfrwt beam="1">  1        4 0.77606716E-01 0.27320718E+03</pdfrwt>
<pdfrwt beam="2">  1       -4 0.56911260E-02 0.27320718E+03</pdfrwt>
<totfact> 0.55049835E+02</totfact>
</mgrwt>
</event>
<event>
 9    1  0.2095749E-002  0.2743955E+03  0.7818608E-02  0.1098790E+00
         -4   -1    0    0    0  501 -0.00000000000E+00  0.00000000000E+00  0.32180128672E+03  0.32180128672E+03  0.00000000000E+00 0.  1.
          4   -1    0    0  501    0  0.00000000000E+00 -0.00000000000E+00 -0.58493294923E+02  0.58493294923E+02  0.00000000000E+00 0.  1.
         36    2    1    2    0    0  0.71054273576E-14 -0.35527136788E-14  0.26330799180E+03  0.38029458164E+03  0.27439546330E+03 0.  0.
         25    2    3    3    0    0 -0.52283326955E+02 -0.30273741069E+01  0.12249553914E+03  0.18318656163E+03  0.12573562734E+03 0.  0.
         25    2    3    3    0    0  0.52283326955E+02  0.30273741069E+01  0.14081245266E+03  0.19710802001E+03  0.12759589906E+03 0.  0.
          5    1    4    4  502    0 -0.26497693729E+02 -0.62237228808E+02  0.41532904369E+02  0.79515234817E+02  0.47000000000E+01 0.  1.
         -5    1    4    4    0  502 -0.25785633225E+02  0.59209854701E+02  0.80962634768E+02  0.10367132681E+03  0.47000000000E+01 0.  1.
          5    1    5    5  503    0 -0.37338703160E+02  0.22356885008E+02  0.63283754697E+02  0.76947596905E+02  0.47000000000E+01 0.  1.
         -5    1    5    5    0  503  0.89622030115E+02 -0.19329510901E+02  0.77528697962E+02  0.12016042311E+03  0.47000000000E+01 0.  1.
<mgrwt>
<rscale>  0 0.27439546E+03</rscale>
<asrwt>0</asrwt>
<pdfrwt beam="1">  1        4 0.89989686E-02 0.27439546E+03</pdfrwt>
<pdfrwt beam="2">  1       -4 0.49507889E-01 0.27439546E+03</pdfrwt>
<totfact> 0.67258557E+02</totfact>
</mgrwt>
</event>
<event>
 9    1  0.2095749E-002  0.2761429E+03  0.7818608E-02  0.1097814E+00
          2   -1    0    0  501    0  0.00000000000E+00  0.00000000000E+00  0.44094833443E+04  0.44094833443E+04  0.00000000000E+00 0. -1.
         -2   -1    0    0    0  501 -0.00000000000E+00 -0.00000000000E+00 -0.43233467734E+01  0.43233467734E+01  0.00000000000E+00 0. -1.
         36    2    1    2    0    0  0.17763568394E-14  0.14210854715E-13  0.44051599975E+04  0.44138066910E+04  0.27614290205E+03 0.  0.
         25    2    3    3    0    0  0.14459679620E+02 -0.51531822870E+02  0.20241649279E+04  0.20287504248E+04  0.12537950320E+03 0.  0.
         25    2    3    3    0    0 -0.14459679620E+02  0.51531822870E+02  0.23809950696E+04  0.23850562662E+04  0.12841830258E+03 0.  0.
          5    1    4    4  502    0  0.28969851258E+02  0.36240167821E+02  0.78897872213E+03  0.79035568956E+03  0.47000000000E+01 0.  1.
         -5    1    4    4    0  502 -0.14510171637E+02 -0.87771990692E+02  0.12351862058E+04  0.12383947353E+04  0.47000000000E+01 0.  1.
          5    1    5    5  503    0 -0.51921295917E+02  0.39331906017E+02  0.58685553083E+03  0.59047804690E+03  0.47000000000E+01 0. -1.
         -5    1    5    5    0  503  0.37461616296E+02  0.12199916853E+02  0.17941395388E+04  0.17945782193E+04  0.47000000000E+01 0. -1.
<mgrwt>
<rscale>  0 0.27614290E+03</rscale>
<asrwt>0</asrwt>
<pdfrwt beam="1">  1        2 0.67837846E+00 0.27614290E+03</pdfrwt>
<pdfrwt beam="2">  1       -2 0.66513380E-03 0.27614290E+03</pdfrwt>
<totfact> 0.78999072E+02</totfact>
</mgrwt>
</event>
<event>
 9    1  0.2095749E-002  0.2746432E+03  0.7818608E-02  0.1098651E+00
          3   -1    0    0  501    0  0.00000000000E+00  0.00000000000E+00  0.58601658530E+03  0.58601658530E+03  0.00000000000E+00 0. -1.
         -3   -1    0    0    0  501 -0.00000000000E+00 -0.00000000000E+00 -0.32178638786E+02  0.32178638786E+02  0.00000000000E+00 0. -1.
         36    2    1    2    0    0  0.71054273576E-14  0.00000000000E+00  0.55383794652E+03  0.61819522409E+03  0.27464315772E+03 0.  0.
         25    2    3    3    0    0 -0.44255877970E+02 -0.26104804191E+02  0.38157627905E+03  0.39813449266E+03  0.10134384033E+03 0.  0.
         25    2    3    3    0    0  0.44255877970E+02  0.26104804191E+02  0.17226166747E+03  0.22006073143E+03  0.12693541627E+03 0.  0.
          5    1    4    4  502    0  0.30469624270E+02 -0.17051367894E+02  0.16740672446E+03  0.17107381022E+03  0.47000000000E+01 0. -1.
         -5    1    4    4    0  502 -0.74725502239E+02 -0.90534362969E+01  0.21416955459E+03  0.22706068243E+03  0.47000000000E+01 0. -1.
          5    1    5    5  503    0 -0.27947904614E+02  0.52140501809E+02  0.86144504501E+02  0.10460727966E+03  0.47000000000E+01 0.  1.
         -5    1    5    5    0  503  0.72203782584E+02 -0.26035697618E+02  0.86117162969E+02  0.11545345178E+03  0.47000000000E+01 0.  1.
<mgrwt>
<rscale>  0 0.27464316E+03</rscale>
<asrwt>0</asrwt>
<pdfrwt beam="1">  1        3 0.90156390E-01 0.27464316E+03</pdfrwt>
<pdfrwt beam="2">  1       -3 0.49505602E-02 0.27464316E+03</pdfrwt>
<totfact> 0.67389272E+02</totfact>
</mgrwt>
</event>
<event>
 9    1  0.2095749E-002  0.2749321E+03  0.7818608E-02  0.1098490E+00
          1   -1    0    0  501    0  0.00000000000E+00  0.00000000000E+00  0.51898638046E+03  0.51898638046E+03  0.00000000000E+00 0. -1.
         -1   -1    0    0    0  501 -0.00000000000E+00 -0.00000000000E+00 -0.36411192198E+02  0.36411192198E+02  0.00000000000E+00 0. -1.
         36    2    1    2    0    0 -0.71054273576E-14 -0.35527136788E-14  0.48257518827E+03  0.55539757266E+03  0.27493208505E+03 0.  0.
         25    2    3    3    0    0 -0.33749385800E+02 -0.12218424581E+02  0.20160994432E+03  0.24591403845E+03  0.13615738582E+03 0.  0.
         25    2    3    3    0    0  0.33749385800E+02  0.12218424581E+02  0.28096524394E+03  0.30948353422E+03  0.12470075663E+03 0.  0.
          5    1    4    4  502    0 -0.44212078066E+01 -0.38585512849E+02  0.20244273349E+03  0.20618811611E+03  0.47000000000E+01 0.  1.
         -5    1    4    4    0  502 -0.29328177994E+02  0.26367088268E+02 -0.83278916625E+00  0.39725922342E+02  0.47000000000E+01 0.  1.
          5    1    5    5  503    0  0.17506924572E+02 -0.28724995131E+02  0.10699539486E+02  0.35611625889E+02  0.47000000000E+01 0. -1.
         -5    1    5    5    0  503  0.16242461228E+02  0.40943419712E+02  0.27026570446E+03  0.27387190833E+03  0.47000000000E+01 0. -1.
<mgrwt>
<rscale>  0 0.27493209E+03</rscale>
<asrwt>0</asrwt>
<pdfrwt beam="1">  1        1 0.79844053E-01 0.27493209E+03</pdfrwt>
<pdfrwt beam="2">  1       -1 0.56017223E-02 0.27493209E+03</pdfrwt>
<totfact> 0.63379884E+03</totfact>
</mgrwt>
</event>
<event>
 9    1  0.2095749E-002  0.2745333E+03  0.7818608E-02  0.1098713E+00
          2   -1    0    0  501    0  0.00000000000E+00  0.00000000000E+00  0.13091242822E+03  0.13091242822E+03  0.00000000000E+00 0. -1.
         -2   -1    0    0    0  501 -0.00000000000E+00 -0.00000000000E+00 -0.14392931941E+03  0.14392931941E+03  0.00000000000E+00 0. -1.
         36    2    1    2    0    0 -0.71054273576E-14 -0.35527136788E-14 -0.13016891181E+02  0.27484174763E+03  0.27453332545E+03 0.  0.
         25    2    3    3    0    0 -0.93142183131E+01 -0.16531031175E+02 -0.32397072737E+02  0.13253790780E+03  0.12710899664E+03 0.  0.
         25    2    3    3    0    0  0.93142183131E+01  0.16531031175E+02  0.19380181556E+02  0.14230383983E+03  0.13969524594E+03 0.  0.
          5    1    4    4  502    0  0.46155560872E+02 -0.45086995625E+02 -0.25713891348E+02  0.69616572611E+02  0.47000000000E+01 0.  1.
         -5    1    4    4    0  502 -0.55469779185E+02  0.28555964449E+02 -0.66831813892E+01  0.62921335189E+02  0.47000000000E+01 0.  1.
          5    1    5    5  503    0  0.21254102661E+02  0.10310061474E+02  0.78176602394E+02  0.81802844751E+02  0.47000000000E+01 0. -1.
         -5    1    5    5    0  503 -0.11939884347E+02  0.62209697012E+01 -0.58796420838E+02  0.60500995080E+02  0.47000000000E+01 0. -1.
<mgrwt>
<rscale>  0 0.27453333E+03</rscale>
<asrwt>0</asrwt>
<pdfrwt beam="1">  1        2 0.20140373E-01 0.27453333E+03</pdfrwt>
<pdfrwt beam="2">  1       -2 0.22142972E-01 0.27453333E+03</pdfrwt>
<totfact> 0.48182249E+03</totfact>
</mgrwt>
</event>
<event>
 9    1  0.2095749E-002  0.2746505E+03  0.7818608E-02  0.1098647E+00
         -2   -1    0    0    0  501 -0.00000000000E+00  0.00000000000E+00  0.56309317183E+02  0.56309317183E+02  0.00000000000E+00 0.  1.
          2   -1    0    0  501    0  0.00000000000E+00 -0.00000000000E+00 -0.33490409808E+03  0.33490409808E+03  0.00000000000E+00 0.  1.
         36    2    1    2    0    0  0.00000000000E+00  0.35527136788E-14 -0.27859478090E+03  0.39121341526E+03  0.27465047668E+03 0.  0.
         25    2    3    3    0    0 -0.15289663930E+02 -0.19944791779E+02 -0.20254471091E+03  0.23986433632E+03  0.12601179062E+03 0.  0.
         25    2    3    3    0    0  0.15289663930E+02  0.19944791779E+02 -0.76050069983E+02  0.15134907895E+03  0.12841869806E+03 0.  0.
          5    1    4    4  502    0 -0.70020908876E+02 -0.15266861970E+02 -0.13263488528E+03  0.15083138780E+03  0.47000000000E+01 0.  1.
         -5    1    4    4    0  502  0.54731244946E+02 -0.46779298092E+01 -0.69909825639E+02  0.89032948516E+02  0.47000000000E+01 0.  1.
          5    1    5    5  503    0 -0.36243048814E+02 -0.99424110326E+01 -0.82956678475E+02  0.91193808058E+02  0.47000000000E+01 0. -1.
         -5    1    5    5    0  503  0.51532712744E+02  0.29887202812E+02  0.69066084917E+01  0.60155270887E+02  0.47000000000E+01 0. -1.
<mgrwt>
<rscale>  0 0.27465048E+03</rscale>
<asrwt>0</asrwt>
<pdfrwt beam="1">  1        2 0.51523708E-01 0.27465048E+03</pdfrwt>
<pdfrwt beam="2">  1       -2 0.86629718E-02 0.27465048E+03</pdfrwt>
<totfact> 0.80279328E+03</totfact>
</mgrwt>
</event>
<event>
 9    1  0.2095749E-002  0.2707323E+03  0.7818608E-02  0.1100861E+00
          2   -1    0    0  501    0  0.00000000000E+00  0.00000000000E+00  0.17060744866E+03  0.17060744866E+03  0.00000000000E+00 0.  1.
         -2   -1    0    0    0  501 -0.00000000000E+00 -0.00000000000E+00 -0.10740441491E+03  0.10740441491E+03  0.00000000000E+00 0.  1.
         36    2    1    2    0    0  0.71054273576E-14  0.35527136788E-14  0.63203033752E+02  0.27801186357E+03  0.27073228993E+03 0.  0.
         25    2    3    3    0    0 -0.54524262033E+02 -0.45195399905E+01  0.13852750130E+02  0.13255134345E+03  0.11993597697E+03 0.  0.
         25    2    3    3    0    0  0.54524262033E+02  0.45195399905E+01  0.49350283622E+02  0.14546052011E+03  0.12541926099E+03 0.  0.
          5    1    4    4  502    0  0.20436096107E+02  0.28052407755E+02  0.33386245919E+02  0.48387012943E+02  0.47000000000E+01 0. -1.
         -5    1    4    4    0  502 -0.74960358140E+02 -0.32571947746E+02 -0.19533495789E+02  0.84164330510E+02  0.47000000000E+01 0. -1.
          5    1    5    5  503    0 -0.15985844754E+01 -0.49798417905E+02  0.44660007630E+02  0.67074914682E+02  0.47000000000E+01 0. -1.
         -5    1    5    5    0  503  0.56122846508E+02  0.54317957895E+02  0.46902759919E+01  0.78385605432E+02  0.47000000000E+01 0. -1.
<mgrwt>
<rscale>  0 0.27073229E+03</rscale>
<asrwt>0</asrwt>
<pdfrwt beam="1">  1        2 0.26247300E-01 0.27073229E+03</pdfrwt>
<pdfrwt beam="2">  1       -2 0.16523756E-01 0.27073229E+03</pdfrwt>
<totfact> 0.58777649E+03</totfact>
</mgrwt>
</event>
<event>
 9    1  0.2095749E-002  0.2750115E+03  0.7818608E-02  0.1098445E+00
         -2   -1    0    0    0  501 -0.00000000000E+00  0.00000000000E+00  0.11034156603E+02  0.11034156603E+02  0.00000000000E+00 0.  1.
          2   -1    0    0  501    0  0.00000000000E+00 -0.00000000000E+00 -0.17135732128E+04  0.17135732128E+04  0.00000000000E+00 0.  1.
         36    2    1    2    0    0  0.00000000000E+00 -0.71054273576E-14 -0.17025390562E+04  0.17246073694E+04  0.27501152835E+03 0.  0.
         25    2    3    3    0    0 -0.64717593224E+01 -0.34246888207E+02 -0.66544967444E+03  0.67898245178E+03  0.13030413497E+03 0.  0.
         25    2    3    3    0    0  0.64717593224E+01  0.34246888207E+02 -0.10370893817E+04  0.10456249176E+04  0.12869479238E+03 0.  0.
          5    1    4    4  502    0  0.60019726710E+02 -0.16516946936E+02 -0.39353755772E+03  0.39845837482E+03  0.47000000000E+01 0.  1.
         -5    1    4    4    0  502 -0.66491486032E+02 -0.17729941271E+02 -0.27191211672E+03  0.28052407696E+03  0.47000000000E+01 0.  1.
          5    1    5    5  503    0 -0.37039407872E+02 -0.34603410981E+02 -0.45710142582E+03  0.45992729563E+03  0.47000000000E+01 0.  1.
         -5    1    5    5    0  503  0.43511167194E+02  0.68850299188E+02 -0.57998795593E+03  0.58569762198E+03  0.47000000000E+01 0.  1.
<mgrwt>
<rscale>  0 0.27501153E+03</rscale>
<asrwt>0</asrwt>
<pdfrwt beam="1">  1        2 0.26362645E+00 0.27501153E+03</pdfrwt>
<pdfrwt beam="2">  1       -2 0.16975638E-02 0.27501153E+03</pdfrwt>
<totfact> 0.10340702E+04</totfact>
</mgrwt>
</event>
<event>
 9    1  0.2095749E-002  0.2764410E+03  0.7818608E-02  0.1097649E+00
         -2   -1    0    0    0  501 -0.00000000000E+00  0.00000000000E+00  0.18967711740E+02  0.18967711740E+02  0.00000000000E+00 0.  1.
          2   -1    0    0  501    0  0.00000000000E+00 -0.00000000000E+00 -0.10072330357E+04  0.10072330357E+04  0.00000000000E+00 0.  1.
         36    2    1    2    0    0 -0.14210854715E-13  0.00000000000E+00 -0.98826532391E+03  0.10262007474E+04  0.27644099461E+03 0.  0.
         25    2    3    3    0    0  0.35799743677E+02  0.41914155366E+02 -0.37050211612E+03  0.39344076560E+03  0.12035530698E+03 0.  0.
         25    2    3    3    0    0 -0.35799743677E+02 -0.41914155366E+02 -0.61776320779E+03  0.63275998180E+03  0.12536106091E+03 0.  0.
          5    1    4    4  502    0  0.23103874027E+02 -0.41567229283E+02 -0.13071990184E+03  0.13918119946E+03  0.47000000000E+01 0. -1.
         -5    1    4    4    0  502  0.12695869650E+02  0.83481384650E+02 -0.23978221428E+03  0.25425956614E+03  0.47000000000E+01 0. -1.
          5    1    5    5  503    0  0.33104753257E+02  0.80347883058E+01 -0.65698410231E+02  0.74154255564E+02  0.47000000000E+01 0.  1.
         -5    1    5    5    0  503 -0.68904496933E+02 -0.49948943672E+02 -0.55206479756E+03  0.55860572623E+03  0.47000000000E+01 0.  1.
<mgrwt>
<rscale>  0 0.27644099E+03</rscale>
<asrwt>0</asrwt>
<pdfrwt beam="1">  1        2 0.15495892E+00 0.27644099E+03</pdfrwt>
<pdfrwt beam="2">  1       -2 0.29181096E-02 0.27644099E+03</pdfrwt>
<totfact> 0.11446742E+04</totfact>
</mgrwt>
</event>
<event>
 9    1  0.2095749E-002  0.2778864E+03  0.7818608E-02  0.1096849E+00
          1   -1    0    0  501    0  0.00000000000E+00  0.00000000000E+00  0.64353424108E+02  0.64353424108E+02  0.00000000000E+00 0. -1.
         -1   -1    0    0    0  501 -0.00000000000E+00 -0.00000000000E+00 -0.29998740406E+03  0.29998740406E+03  0.00000000000E+00 0. -1.
         36    2    1    2    0    0 -0.62172489379E-14  0.00000000000E+00 -0.23563397995E+03  0.36434082817E+03  0.27788642745E+03 0.  0.
         25    2    3    3    0    0 -0.41221639556E+00 -0.64594165968E+02 -0.72711976175E+02  0.15325829050E+03  0.11844195173E+03 0.  0.
         25    2    3    3    0    0  0.41221639556E+00  0.64594165968E+02 -0.16292200378E+03  0.21108253767E+03  0.11764217863E+03 0.  0.
          5    1    4    4  502    0 -0.71258548623E+01 -0.96931704608E+02 -0.36254141451E+02  0.10384115725E+03  0.47000000000E+01 0.  1.
         -5    1    4    4    0  502  0.67136384668E+01  0.32337538640E+02 -0.36457834723E+02  0.49417133258E+02  0.47000000000E+01 0.  1.
          5    1    5    5  503    0  0.48776640155E+02  0.50426679156E+02 -0.46955466490E+02  0.84551265093E+02  0.47000000000E+01 0.  1.
         -5    1    5    5    0  503 -0.48364423759E+02  0.14167486812E+02 -0.11596653729E+03  0.12653127257E+03  0.47000000000E+01 0.  1.
<mgrwt>
<rscale>  0 0.27788643E+03</rscale>
<asrwt>0</asrwt>
<pdfrwt beam="1">  1        1 0.99005267E-02 0.27788643E+03</pdfrwt>
<pdfrwt beam="2">  1       -1 0.46151909E-01 0.27788643E+03</pdfrwt>
<totfact> 0.30872170E+03</totfact>
</mgrwt>
</event>
<event>
 9    1  0.2095749E-002  0.2745695E+03  0.7818608E-02  0.1098692E+00
          2   -1    0    0  501    0  0.00000000000E+00  0.00000000000E+00  0.20527259866E+02  0.20527259866E+02  0.00000000000E+00 0.  1.
         -2   -1    0    0    0  501 -0.00000000000E+00 -0.00000000000E+00 -0.91815023652E+03  0.91815023652E+03  0.00000000000E+00 0.  1.
         36    2    1    2    0    0 -0.71054273576E-14  0.00000000000E+00 -0.89762297666E+03  0.93867749639E+03  0.27456954311E+03 0.  0.
         25    2    3    3    0    0  0.58632799728E+02  0.19107806324E+00 -0.46607625887E+03  0.48620358171E+03  0.12541531832E+03 0.  0.
         25    2    3    3    0    0 -0.58632799728E+02 -0.19107806324E+00 -0.43154671779E+03  0.45247391468E+03  0.12272828573E+03 0.  0.
          5    1    4    4  502    0 -0.27228930664E+01  0.47268525295E+02 -0.85749261699E+02  0.98065047352E+02  0.47000000000E+01 0. -1.
         -5    1    4    4    0  502  0.61355692795E+02 -0.47077447232E+02 -0.38032699717E+03  0.38813853436E+03  0.47000000000E+01 0. -1.
          5    1    5    5  503    0  0.10782335335E+02  0.13085782860E+02 -0.31906162150E+03  0.31954640475E+03  0.47000000000E+01 0.  1.
         -5    1    5    5    0  503 -0.69415135064E+02 -0.13276860924E+02 -0.11248509628E+03  0.13292750994E+03  0.47000000000E+01 0.  1.
<mgrwt>
<rscale>  0 0.27456954E+03</rscale>
<asrwt>0</asrwt>
<pdfrwt beam="1">  1        2 0.31580398E-02 0.27456954E+03</pdfrwt>
<pdfrwt beam="2">  1       -2 0.14125389E+00 0.27456954E+03</pdfrwt>
<totfact> 0.10808983E+03</totfact>
</mgrwt>
</event>
<event>
 9    1  0.2095749E-002  0.2784224E+03  0.7818608E-02  0.1096554E+00
          2   -1    0    0  501    0  0.00000000000E+00  0.00000000000E+00  0.14858866733E+03  0.14858866733E+03  0.00000000000E+00 0.  1.
         -2   -1    0    0    0  501 -0.00000000000E+00 -0.00000000000E+00 -0.13042557152E+03  0.13042557152E+03  0.00000000000E+00 0.  1.
         36    2    1    2    0    0  0.35527136788E-14 -0.35527136788E-14  0.18163095809E+02  0.27901423885E+03  0.27842242624E+03 0.  0.
         25    2    3    3    0    0  0.20469987939E+02 -0.20026040615E+02  0.67171942204E+02  0.14601516270E+03  0.12644483070E+03 0.  0.
         25    2    3    3    0    0 -0.20469987939E+02  0.20026040615E+02 -0.49008846396E+02  0.13299907615E+03  0.12027811323E+03 0.  0.
          5    1    4    4  502    0 -0.10909893083E+02 -0.58617908810E+02  0.74480388740E+02  0.95522266028E+02  0.47000000000E+01 0.  1.
         -5    1    4    4    0  502  0.31379881023E+02  0.38591868195E+02 -0.73084465356E+01  0.50492896674E+02  0.47000000000E+01 0.  1.
          5    1    5    5  503    0 -0.49478044995E+02  0.43502189333E+02 -0.64502044226E+02  0.92320751311E+02  0.47000000000E+01 0.  1.
         -5    1    5    5    0  503  0.29008057055E+02 -0.23476148719E+02  0.15493197830E+02  0.40678324840E+02  0.47000000000E+01 0.  1.
<mgrwt>
<rscale>  0 0.27842243E+03</rscale>
<asrwt>0</asrwt>
<pdfrwt beam="1">  1        2 0.22859795E-01 0.27842243E+03</pdfrwt>
<pdfrwt beam="2">  1       -2 0.20065473E-01 0.27842243E+03</pdfrwt>
<totfact> 0.49467140E+03</totfact>
</mgrwt>
</event>
<event>
 9    1  0.2095749E-002  0.2762966E+03  0.7818608E-02  0.1097729E+00
         -1   -1    0    0    0  501 -0.00000000000E+00  0.00000000000E+00  0.19643278819E+02  0.19643278819E+02  0.00000000000E+00 0. -1.
          1   -1    0    0  501    0  0.00000000000E+00 -0.00000000000E+00 -0.97157643856E+03  0.97157643856E+03  0.00000000000E+00 0. -1.
         36    2    1    2    0    0  0.00000000000E+00  0.71054273576E-14 -0.95193315974E+03  0.99121971738E+03  0.27629655718E+03 0.  0.
         25    2    3    3    0    0  0.37579136045E+02 -0.50276837197E+02 -0.34784680060E+03  0.37020814103E+03  0.11007597001E+03 0.  0.
         25    2    3    3    0    0 -0.37579136045E+02  0.50276837197E+02 -0.60408635914E+03  0.62101157635E+03  0.12959589821E+03 0.  0.
          5    1    4    4  502    0  0.43402147809E+02  0.22996233606E+02 -0.18521917546E+03  0.19167891421E+03  0.47000000000E+01 0. -1.
         -5    1    4    4    0  502 -0.58230117644E+01 -0.73273070803E+02 -0.16262762514E+03  0.17852922682E+03  0.47000000000E+01 0. -1.
          5    1    5    5  503    0 -0.31277415773E+02  0.72326637725E+02 -0.58635521209E+03  0.59164511661E+03  0.47000000000E+01 0. -1.
         -5    1    5    5    0  503 -0.63017202723E+01 -0.22049800528E+02 -0.17731147044E+02  0.29366459732E+02  0.47000000000E+01 0. -1.
<mgrwt>
<rscale>  0 0.27629656E+03</rscale>
<asrwt>0</asrwt>
<pdfrwt beam="1">  1        1 0.14947328E+00 0.27629656E+03</pdfrwt>
<pdfrwt beam="2">  1       -1 0.30220433E-02 0.27629656E+03</pdfrwt>
<totfact> 0.62659159E+03</totfact>
</mgrwt>
</event>
<event>
 9    1  0.2095749E-002  0.2743343E+03  0.7818608E-02  0.1098824E+00
          2   -1    0    0  501    0  0.00000000000E+00  0.00000000000E+00  0.73593267353E+03  0.73593267353E+03  0.00000000000E+00 0.  1.
         -2   -1    0    0    0  501 -0.00000000000E+00 -0.00000000000E+00 -0.25565963340E+02  0.25565963340E+02  0.00000000000E+00 0.  1.
         36    2    1    2    0    0 -0.35527136788E-14 -0.35527136788E-14  0.71036671019E+03  0.76149863687E+03  0.27433430520E+03 0.  0.
         25    2    3    3    0    0  0.27114309200E+02 -0.21700892078E+02  0.23491259037E+03  0.26889316515E+03  0.12614870063E+03 0.  0.
         25    2    3    3    0    0 -0.27114309200E+02  0.21700892078E+02  0.47545411982E+03  0.49260547172E+03  0.12408632574E+03 0.  0.
          5    1    4    4  502    0 -0.14737641137E+01  0.30138985945E+02  0.19491587398E+03  0.19729373631E+03  0.47000000000E+01 0.  1.
         -5    1    4    4    0  502  0.28588073314E+02 -0.51839878023E+02  0.39996716386E+02  0.71599428845E+02  0.47000000000E+01 0.  1.
          5    1    5    5  503    0  0.40291992579E+02  0.20326071725E+02  0.85062380978E+02  0.96406911139E+02  0.47000000000E+01 0. -1.
         -5    1    5    5    0  503 -0.67406301779E+02  0.13748203528E+01  0.39039173884E+03  0.39619856058E+03  0.47000000000E+01 0. -1.
<mgrwt>
<rscale>  0 0.27433431E+03</rscale>
<asrwt>0</asrwt>
<pdfrwt beam="1">  1        2 0.11322040E+00 0.27433431E+03</pdfrwt>
<pdfrwt beam="2">  1       -2 0.39332257E-02 0.27433431E+03</pdfrwt>
<totfact> 0.11071653E+04</totfact>
</mgrwt>
</event>
<event>
 9    1  0.2095749E-002  0.2746907E+03  0.7818608E-02  0.1098625E+00
          4   -1    0    0  501    0  0.00000000000E+00  0.00000000000E+00  0.11171289195E+03  0.11171289195E+03  0.00000000000E+00 0. -1.
         -4   -1    0    0    0  501 -0.00000000000E+00 -0.00000000000E+00 -0.16885910086E+03  0.16885910086E+03  0.00000000000E+00 0. -1.
         36    2    1    2    0    0 -0.14210854715E-13  0.00000000000E+00 -0.57146208913E+02  0.28057199280E+03  0.27469065137E+03 0.  0.
         25    2    3    3    0    0 -0.32822268265E+02 -0.33742559947E+02 -0.58086446475E+02  0.14526060282E+03  0.12454214476E+03 0.  0.
         25    2    3    3    0    0  0.32822268265E+02  0.33742559947E+02  0.94023756157E+00  0.13531138998E+03  0.12685592839E+03 0.  0.
          5    1    4    4  502    0  0.36745702252E+02  0.21946688553E+02 -0.11361626723E+02  0.44531790153E+02  0.47000000000E+01 0. -1.
         -5    1    4    4    0  502 -0.69567970517E+02 -0.55689248500E+02 -0.46724819751E+02  0.10072881267E+03  0.47000000000E+01 0. -1.
          5    1    5    5  503    0  0.51304736884E+02  0.62925532206E+02 -0.31956221286E+02  0.87378994667E+02  0.47000000000E+01 0.  1.
         -5    1    5    5    0  503 -0.18482468619E+02 -0.29182972259E+02  0.32896458848E+02  0.47932395317E+02  0.47000000000E+01 0.  1.
<mgrwt>
<rscale>  0 0.27469065E+03</rscale>
<asrwt>0</asrwt>
<pdfrwt beam="1">  1        4 0.17186599E-01 0.27469065E+03</pdfrwt>
<pdfrwt beam="2">  1       -4 0.25978323E-01 0.27469065E+03</pdfrwt>
<totfact> 0.77479805E+02</totfact>
</mgrwt>
</event>
<event>
 9    1  0.2095749E-002  0.2752494E+03  0.7818608E-02  0.1098312E+00
         -2   -1    0    0    0  501 -0.00000000000E+00  0.00000000000E+00  0.23573758133E+02  0.23573758133E+02  0.00000000000E+00 0. -1.
          2   -1    0    0  501    0  0.00000000000E+00 -0.00000000000E+00 -0.80345912913E+03  0.80345912913E+03  0.00000000000E+00 0. -1.
         36    2    1    2    0    0 -0.35527136788E-14  0.00000000000E+00 -0.77988537100E+03  0.82703288726E+03  0.27524935008E+03 0.  0.
         25    2    3    3    0    0 -0.22657511110E+00 -0.58383654310E+02 -0.24356751364E+03  0.27355003602E+03  0.10998084414E+03 0.  0.
         25    2    3    3    0    0  0.22657511110E+00  0.58383654310E+02 -0.53631785736E+03  0.55348285125E+03  0.12368395238E+03 0.  0.
          5    1    4    4  502    0 -0.29010297849E+02 -0.79922791061E+02 -0.19633486381E+03  0.21400635192E+03  0.47000000000E+01 0. -1.
         -5    1    4    4    0  502  0.28783722738E+02  0.21539136750E+02 -0.47232649825E+02  0.59543684099E+02  0.47000000000E+01 0. -1.
          5    1    5    5  503    0  0.21732263010E+02 -0.17591591798E+02 -0.34898530526E+03  0.35013510056E+03  0.47000000000E+01 0. -1.
         -5    1    5    5    0  503 -0.21505687899E+02  0.75975246108E+02 -0.18733255210E+03  0.20334775068E+03  0.47000000000E+01 0. -1.
<mgrwt>
<rscale>  0 0.27524935E+03</rscale>
<asrwt>0</asrwt>
<pdfrwt beam="1">  1        2 0.12360911E+00 0.27524935E+03</pdfrwt>
<pdfrwt beam="2">  1       -2 0.36267316E-02 0.27524935E+03</pdfrwt>
<totfact> 0.11202935E+04</totfact>
</mgrwt>
</event>
<event>
 9    1  0.2095749E-002  0.2752974E+03  0.7818608E-02  0.1098285E+00
          1   -1    0    0  501    0  0.00000000000E+00  0.00000000000E+00  0.66963845813E+01  0.66963845813E+01  0.00000000000E+00 0.  1.
         -1   -1    0    0    0  501 -0.00000000000E+00 -0.00000000000E+00 -0.28294614464E+04  0.28294614464E+04  0.00000000000E+00 0.  1.
         36    2    1    2    0    0 -0.35527136788E-14  0.00000000000E+00 -0.28227650618E+04  0.28361578310E+04  0.27529738105E+03 0.  0.
         25    2    3    3    0    0 -0.30083175945E+01  0.10319603794E+02 -0.20423269701E+04  0.20462334246E+04  0.12592152646E+03 0.  0.
         25    2    3    3    0    0  0.30083175945E+01 -0.10319603794E+02 -0.78043809169E+03  0.78992440638E+03  0.12157881659E+03 0.  0.
          5    1    4    4  502    0  0.29388809271E+02 -0.10881851377E+02 -0.14144407079E+03  0.14495044657E+03  0.47000000000E+01 0. -1.
         -5    1    4    4    0  502 -0.32397126866E+02  0.21201455171E+02 -0.19008828993E+04  0.19012829780E+04  0.47000000000E+01 0. -1.
          5    1    5    5  503    0  0.53899605026E+02  0.60978031363E+01 -0.57560121194E+03  0.57817055945E+03  0.47000000000E+01 0. -1.
         -5    1    5    5    0  503 -0.50891287431E+02 -0.16417406930E+02 -0.20483687975E+03  0.21175384693E+03  0.47000000000E+01 0. -1.
<mgrwt>
<rscale>  0 0.27529738E+03</rscale>
<asrwt>0</asrwt>
<pdfrwt beam="1">  1        1 0.10302113E-02 0.27529738E+03</pdfrwt>
<pdfrwt beam="2">  1       -1 0.43530249E+00 0.27529738E+03</pdfrwt>
<totfact> 0.78708117E+01</totfact>
</mgrwt>
</event>
<event>
 9    1  0.2095749E-002  0.2757265E+03  0.7818608E-02  0.1098046E+00
         -2   -1    0    0    0  501 -0.00000000000E+00  0.00000000000E+00  0.70261689319E+01  0.70261689319E+01  0.00000000000E+00 0. -1.
          2   -1    0    0  501    0  0.00000000000E+00 -0.00000000000E+00 -0.27050695472E+04  0.27050695472E+04  0.00000000000E+00 0. -1.
         36    2    1    2    0    0 -0.35527136788E-14  0.71054273576E-14 -0.26980433782E+04  0.27120957161E+04  0.27572649935E+03 0.  0.
         25    2    3    3    0    0 -0.14945744788E+02 -0.86848222237E+01 -0.18835181519E+04  0.18876666581E+04  0.12387890185E+03 0.  0.
         25    2    3    3    0    0  0.14945744788E+02  0.86848222237E+01 -0.81452522639E+03  0.82442905801E+03  0.12622648626E+03 0.  0.
          5    1    4    4  502    0 -0.43447535211E+02 -0.54821602584E+02 -0.11459364716E+04  0.11480790842E+04  0.47000000000E+01 0. -1.
         -5    1    4    4    0  502  0.28501790423E+02  0.46136780360E+02 -0.73758168021E+03  0.73958757395E+03  0.47000000000E+01 0. -1.
          5    1    5    5  503    0  0.85031502226E+01  0.33087159567E+02 -0.58062213315E+02  0.67530543512E+02  0.47000000000E+01 0.  1.
         -5    1    5    5    0  503  0.64425945655E+01 -0.24402337343E+02 -0.75646301308E+03  0.75689851450E+03  0.47000000000E+01 0.  1.
<mgrwt>
<rscale>  0 0.27572650E+03</rscale>
<asrwt>0</asrwt>
<pdfrwt beam="1">  1        2 0.41616457E+00 0.27572650E+03</pdfrwt>
<pdfrwt beam="2">  1       -2 0.10809490E-02 0.27572650E+03</pdfrwt>
<totfact> 0.58726732E+03</totfact>
</mgrwt>
</event>
<event>
 9    1  0.2095749E-002  0.2750990E+03  0.7818608E-02  0.1098396E+00
         -1   -1    0    0    0  501 -0.00000000000E+00  0.00000000000E+00  0.11126957805E+02  0.11126957805E+02  0.00000000000E+00 0. -1.
          1   -1    0    0  501    0  0.00000000000E+00 -0.00000000000E+00 -0.17003632207E+04  0.17003632207E+04  0.00000000000E+00 0. -1.
         36    2    1    2    0    0  0.00000000000E+00 -0.88817841970E-15 -0.16892362629E+04  0.17114901785E+04  0.27509903533E+03 0.  0.
         25    2    3    3    0    0  0.66970945139E+02 -0.41398271520E+01 -0.10110304586E+04  0.10207648596E+04  0.12359637841E+03 0.  0.
         25    2    3    3    0    0 -0.66970945139E+02  0.41398271520E+01 -0.67820580430E+03  0.69072531889E+03  0.11241044217E+03 0.  0.
          5    1    4    4  502    0 -0.27207118288E+02  0.33015758439E+01 -0.75377605140E+02  0.80343021135E+02  0.47000000000E+01 0. -1.
         -5    1    4    4    0  502  0.94178063427E+02 -0.74414029959E+01 -0.93565285342E+03  0.94042183844E+03  0.47000000000E+01 0. -1.
          5    1    5    5  503    0 -0.17236177521E+02  0.15589341262E+02 -0.21452281738E+02  0.31975049153E+02  0.47000000000E+01 0.  1.
         -5    1    5    5    0  503 -0.49734767618E+02 -0.11449514110E+02 -0.65675352256E+03  0.65875026974E+03  0.47000000000E+01 0.  1.
<mgrwt>
<rscale>  0 0.27509904E+03</rscale>
<asrwt>0</asrwt>
<pdfrwt beam="1">  1        1 0.26159430E+00 0.27509904E+03</pdfrwt>
<pdfrwt beam="2">  1       -1 0.17118399E-02 0.27509904E+03</pdfrwt>
<totfact> 0.45485255E+03</totfact>
</mgrwt>
</event>
<event>
 9    1  0.2095749E-002  0.2753081E+03  0.7818608E-02  0.1098279E+00
         -3   -1    0    0    0  501 -0.00000000000E+00  0.00000000000E+00  0.11186853394E+03  0.11186853394E+03  0.00000000000E+00 0. -1.
          3   -1    0    0  501    0  0.00000000000E+00 -0.00000000000E+00 -0.16938309941E+03  0.16938309941E+03  0.00000000000E+00 0. -1.
         36    2    1    2    0    0  0.71054273576E-14 -0.71054273576E-14 -0.57514565476E+02  0.28125163335E+03  0.27530811106E+03 0.  0.
         25    2    3    3    0    0  0.41430450882E+02  0.29308985364E+02 -0.31125746536E+02  0.14001638952E+03  0.12672915352E+03 0.  0.
         25    2    3    3    0    0 -0.41430450882E+02 -0.29308985364E+02 -0.26388818940E+02  0.14123524383E+03  0.12913375024E+03 0.  0.
          5    1    4    4  502    0  0.29216535816E+02  0.40430530410E+02 -0.76530191457E+02  0.91472367186E+02  0.47000000000E+01 0. -1.
         -5    1    4    4    0  502  0.12213915066E+02 -0.11121545045E+02  0.45404444921E+02  0.48544022330E+02  0.47000000000E+01 0. -1.
          5    1    5    5  503    0 -0.82187790772E+02 -0.18805626907E+02 -0.44177149149E+02  0.95300551217E+02  0.47000000000E+01 0.  1.
         -5    1    5    5    0  503  0.40757339890E+02 -0.10503358458E+02  0.17788330209E+02  0.45934692613E+02  0.47000000000E+01 0.  1.
<mgrwt>
<rscale>  0 0.27530811E+03</rscale>
<asrwt>0</asrwt>
<pdfrwt beam="1">  1        3 0.26058938E-01 0.27530811E+03</pdfrwt>
<pdfrwt beam="2">  1       -3 0.17210544E-01 0.27530811E+03</pdfrwt>
<totfact> 0.10358726E+03</totfact>
</mgrwt>
</event>
<event>
 9    1  0.2095749E-002  0.2746975E+03  0.7818608E-02  0.1098621E+00
         -2   -1    0    0    0  501 -0.00000000000E+00  0.00000000000E+00  0.14356635318E+02  0.14356635318E+02  0.00000000000E+00 0.  1.
          2   -1    0    0  501    0  0.00000000000E+00 -0.00000000000E+00 -0.13140040749E+04  0.13140040749E+04  0.00000000000E+00 0.  1.
         36    2    1    2    0    0  0.71054273576E-14  0.00000000000E+00 -0.12996474396E+04  0.13283607102E+04  0.27469748677E+03 0.  0.
         25    2    3    3    0    0  0.34026727773E+02 -0.28662696365E+01 -0.28940010107E+03  0.30891265411E+03  0.10251134408E+03 0.  0.
         25    2    3    3    0    0 -0.34026727773E+02  0.28662696365E+01 -0.10102473385E+04  0.10194480561E+04  0.13232014370E+03 0.  0.
          5    1    4    4  502    0 -0.67509251187E+01  0.31118077131E+02 -0.21500276330E+03  0.21739868431E+03  0.47000000000E+01 0. -1.
         -5    1    4    4    0  502  0.40777652892E+02 -0.33984346767E+02 -0.74397337773E+02  0.91513969798E+02  0.47000000000E+01 0. -1.
          5    1    5    5  503    0 -0.24820709849E+02  0.28797800411E+02 -0.96832069905E+03  0.96907814295E+03  0.47000000000E+01 0. -1.
         -5    1    5    5    0  503 -0.92060179245E+01 -0.25931530774E+02 -0.41926639449E+02  0.50369913141E+02  0.47000000000E+01 0. -1.
<mgrwt>
<rscale>  0 0.27469749E+03</rscale>
<asrwt>0</asrwt>
<pdfrwt beam="1">  1        2 0.20215447E+00 0.27469749E+03</pdfrwt>
<pdfrwt beam="2">  1       -2 0.22087132E-02 0.27469749E+03</pdfrwt>
<totfact> 0.11498352E+04</totfact>
</mgrwt>
</event>
<event>
 8    1  0.2095749E-002  0.2925971E+03  0.7818608E-02  0.1089001E+00
          3   -1    0    0  501    0  0.00000000000E+00  0.00000000000E+00  0.14439096614E+02  0.14439096614E+02  0.00000000000E+00 0. -1.
         -3   -1    0    0    0  501 -0.00000000000E+00 -0.00000000000E+00 -0.14823134288E+04  0.14823134288E+04  0.00000000000E+00 0. -1.
         25    2    1    2    0    0  0.53869981396E+02 -0.33243918782E+02 -0.47001907526E+03  0.48993628937E+03  0.12293292277E+03 0.  0.
         25    2    1    2    0    0 -0.53869981396E+02  0.33243918782E+02 -0.99785525696E+03  0.10068162361E+04  0.11813842034E+03 0.  0.
          5    1    3    3  502    0 -0.28152537872E+02  0.19279968919E+02 -0.19786331014E+03  0.20083889586E+03  0.47000000000E+01 0. -1.
         -5    1    3    3    0  502  0.82022519268E+02 -0.52523887700E+02 -0.27215576512E+03  0.28909739351E+03  0.47000000000E+01 0. -1.
          5    1    4    4  503    0 -0.73457318889E+02  0.61880010960E+02 -0.81369198735E+03  0.81935453483E+03  0.47000000000E+01 0.  1.
         -5    1    4    4    0  503  0.19587337493E+02 -0.28636092179E+02 -0.18416326961E+03  0.18746170126E+03  0.47000000000E+01 0.  1.
<mgrwt>
<rscale>  0 0.29259711E+03</rscale>
<asrwt>0</asrwt>
<pdfrwt beam="1">  1        3 0.22213995E-02 0.29259711E+03</pdfrwt>
<pdfrwt beam="2">  1       -3 0.22804822E+00 0.29259711E+03</pdfrwt>
<totfact> 0.22437763E+02</totfact>
</mgrwt>
</event>
<event>
 9    1  0.2095749E-002  0.2749980E+03  0.7818608E-02  0.1098453E+00
         -1   -1    0    0    0  501 -0.00000000000E+00  0.00000000000E+00  0.88203447906E+03  0.88203447906E+03  0.00000000000E+00 0.  1.
          1   -1    0    0  501    0  0.00000000000E+00 -0.00000000000E+00 -0.21434501276E+02  0.21434501276E+02  0.00000000000E+00 0.  1.
         36    2    1    2    0    0  0.00000000000E+00  0.00000000000E+00  0.86059997779E+03  0.90346898034E+03  0.27499795757E+03 0.  0.
         25    2    3    3    0    0  0.51110878472E+01 -0.43877050240E+02  0.46910651378E+03  0.48695189198E+03  0.12292235385E+03 0.  0.
         25    2    3    3    0    0 -0.51110878472E+01  0.43877050240E+02  0.39149346401E+03  0.41651708836E+03  0.13515929039E+03 0.  0.
          5    1    4    4  502    0 -0.45339602502E+02 -0.52406829959E+02  0.17303210876E+03  0.18645202075E+03  0.47000000000E+01 0. -1.
         -5    1    4    4    0  502  0.50450690350E+02  0.85297797191E+01  0.29607440502E+03  0.30049987123E+03  0.47000000000E+01 0. -1.
          5    1    5    5  503    0 -0.24582700185E+02  0.20835621701E+02  0.10376038943E+02  0.34178713612E+02  0.47000000000E+01 0. -1.
         -5    1    5    5    0  503  0.19471612338E+02  0.23041428539E+02  0.38111742507E+03  0.38233837475E+03  0.47000000000E+01 0. -1.
<mgrwt>
<rscale>  0 0.27499796E+03</rscale>
<asrwt>0</asrwt>
<pdfrwt beam="1">  1        1 0.32976163E-02 0.27499796E+03</pdfrwt>
<pdfrwt beam="2">  1       -1 0.13569758E+00 0.27499796E+03</pdfrwt>
<totfact> 0.14588308E+03</totfact>
</mgrwt>
</event>
<event>
 9    1  0.2095749E-002  0.2751625E+03  0.7818608E-02  0.1098361E+00
          1   -1    0    0  501    0  0.00000000000E+00  0.00000000000E+00  0.29228348688E+04  0.29228348688E+04  0.00000000000E+00 0.  1.
         -1   -1    0    0    0  501 -0.00000000000E+00 -0.00000000000E+00 -0.64761102644E+01  0.64761102644E+01  0.00000000000E+00 0.  1.
         36    2    1    2    0    0  0.71054273576E-14  0.71054273576E-14  0.29163587585E+04  0.29293109790E+04  0.27516250395E+03 0.  0.
         25    2    3    3    0    0  0.40367388958E+02 -0.53254932105E+02  0.14931688551E+04  0.14992148996E+04  0.11673247851E+03 0.  0.
         25    2    3    3    0    0 -0.40367388958E+02  0.53254932105E+02  0.14231899035E+04  0.14300960795E+04  0.12344910407E+03 0.  0.
          5    1    4    4  502    0  0.73050332534E+02 -0.30573675818E+02  0.12702937786E+04  0.12727684293E+04  0.47000000000E+01 0. -1.
         -5    1    4    4    0  502 -0.32682943576E+02 -0.22681256287E+02  0.22287507650E+03  0.22644647031E+03  0.47000000000E+01 0. -1.
          5    1    5    5  503    0  0.72165141608E+01 -0.15927323055E+02  0.90065194772E+03  0.90083393510E+03  0.47000000000E+01 0. -1.
         -5    1    5    5    0  503 -0.47583903119E+02  0.69182255160E+02  0.52253795574E+03  0.52926214437E+03  0.47000000000E+01 0. -1.
<mgrwt>
<rscale>  0 0.27516250E+03</rscale>
<asrwt>0</asrwt>
<pdfrwt beam="1">  1        1 0.44966585E+00 0.27516250E+03</pdfrwt>
<pdfrwt beam="2">  1       -1 0.99632699E-03 0.27516250E+03</pdfrwt>
<totfact> 0.15490990E+03</totfact>
</mgrwt>
</event>
<event>
 9    1  0.2095749E-002  0.2745438E+03  0.7818608E-02  0.1098707E+00
          2   -1    0    0  501    0  0.00000000000E+00  0.00000000000E+00  0.12659308848E+04  0.12659308848E+04  0.00000000000E+00 0. -1.
         -2   -1    0    0    0  501 -0.00000000000E+00 -0.00000000000E+00 -0.14885147795E+02  0.14885147795E+02  0.00000000000E+00 0. -1.
         36    2    1    2    0    0 -0.35527136788E-14  0.35527136788E-14  0.12510457370E+04  0.12808160326E+04  0.27454375476E+03 0.  0.
         25    2    3    3    0    0 -0.27087685500E+02  0.25094725966E+01  0.39012014477E+03  0.41092875063E+03  0.12620883717E+03 0.  0.
         25    2    3    3    0    0  0.27087685500E+02 -0.25094725966E+01  0.86092559227E+03  0.86988728201E+03  0.12153587044E+03 0.  0.
          5    1    4    4  502    0 -0.98268564803E+01  0.39402714370E+02  0.36088759735E+02  0.54530996573E+02  0.47000000000E+01 0.  1.
         -5    1    4    4    0  502 -0.17260829019E+02 -0.36893241773E+02  0.35403138504E+03  0.35639775406E+03  0.47000000000E+01 0.  1.
          5    1    5    5  503    0  0.34084127278E+02  0.28384118463E+02  0.79833967898E+03  0.79958471656E+03  0.47000000000E+01 0.  1.
         -5    1    5    5    0  503 -0.69964417781E+01 -0.30893591059E+02  0.62585913293E+02  0.70302565450E+02  0.47000000000E+01 0.  1.
<mgrwt>
<rscale>  0 0.27454375E+03</rscale>
<asrwt>0</asrwt>
<pdfrwt beam="1">  1        2 0.19475851E+00 0.27454375E+03</pdfrwt>
<pdfrwt beam="2">  1       -2 0.22900237E-02 0.27454375E+03</pdfrwt>
<totfact> 0.11591672E+04</totfact>
</mgrwt>
</event>
<event>
 9    1  0.2095749E-002  0.2746452E+03  0.7818608E-02  0.1098650E+00
         -2   -1    0    0    0  501 -0.00000000000E+00  0.00000000000E+00  0.34711124016E+02  0.34711124016E+02  0.00000000000E+00 0.  1.
          2   -1    0    0  501    0  0.00000000000E+00 -0.00000000000E+00 -0.54326950432E+03  0.54326950432E+03  0.00000000000E+00 0.  1.
         36    2    1    2    0    0  0.14210854715E-13  0.00000000000E+00 -0.50855838031E+03  0.57798062834E+03  0.27464519030E+03 0.  0.
         25    2    3    3    0    0 -0.46082127910E+02  0.16248532241E+02 -0.36120907708E+03  0.38365601146E+03  0.11971783680E+03 0.  0.
         25    2    3    3    0    0  0.46082127910E+02 -0.16248532241E+02 -0.14734930322E+03  0.19432461688E+03  0.11688739133E+03 0.  0.
          5    1    4    4  502    0  0.24087827606E+02 -0.33703931683E+02 -0.93042071046E+02  0.10195634082E+03  0.47000000000E+01 0.  1.
         -5    1    4    4    0  502 -0.70169955516E+02  0.49952463923E+02 -0.26816700604E+03  0.28169967063E+03  0.47000000000E+01 0.  1.
          5    1    5    5  503    0 -0.96326842278E+01 -0.56359411899E+02 -0.75702687514E+02  0.94985045201E+02  0.47000000000E+01 0. -1.
         -5    1    5    5    0  503  0.55714812138E+02  0.40110879658E+02 -0.71646615710E+02  0.99339571678E+02  0.47000000000E+01 0. -1.
<mgrwt>
<rscale>  0 0.27464519E+03</rscale>
<asrwt>0</asrwt>
<pdfrwt beam="1">  1        2 0.83579924E-01 0.27464519E+03</pdfrwt>
<pdfrwt beam="2">  1       -2 0.53401729E-02 0.27464519E+03</pdfrwt>
<totfact> 0.99715544E+03</totfact>
</mgrwt>
</event>
<event>
 9    1  0.2095749E-002  0.2749798E+03  0.7818608E-02  0.1098463E+00
          2   -1    0    0  501    0  0.00000000000E+00  0.00000000000E+00  0.69779238847E+03  0.69779238847E+03  0.00000000000E+00 0.  1.
         -2   -1    0    0    0  501 -0.00000000000E+00 -0.00000000000E+00 -0.27090401106E+02  0.27090401106E+02  0.00000000000E+00 0.  1.
         36    2    1    2    0    0 -0.71054273576E-14  0.71054273576E-14  0.67070198736E+03  0.72488278958E+03  0.27497982248E+03 0.  0.
         25    2    3    3    0    0  0.19646412073E+01 -0.45847366894E+02  0.24904625996E+03  0.28278975382E+03  0.12585771490E+03 0.  0.
         25    2    3    3    0    0 -0.19646412073E+01  0.45847366894E+02  0.42165572740E+03  0.44209303575E+03  0.12468704402E+03 0.  0.
          5    1    4    4  502    0 -0.59430171938E+02 -0.14040882670E+02  0.85574651109E+02  0.10523403744E+03  0.47000000000E+01 0. -1.
         -5    1    4    4    0  502  0.61394813145E+02 -0.31806484224E+02  0.16347160886E+03  0.17755571639E+03  0.47000000000E+01 0. -1.
          5    1    5    5  503    0  0.40137554590E+02  0.70775610908E+02  0.30023688313E+03  0.31110205139E+03  0.47000000000E+01 0. -1.
         -5    1    5    5    0  503 -0.42102195797E+02 -0.24928244014E+02  0.12141884427E+03  0.13099098436E+03  0.47000000000E+01 0. -1.
<mgrwt>
<rscale>  0 0.27497982E+03</rscale>
<asrwt>0</asrwt>
<pdfrwt beam="1">  1        2 0.10735266E+00 0.27497982E+03</pdfrwt>
<pdfrwt beam="2">  1       -2 0.41677546E-02 0.27497982E+03</pdfrwt>
<totfact> 0.10830781E+04</totfact>
</mgrwt>
</event>
<event>
 9    1  0.2095749E-002  0.2738436E+03  0.7818608E-02  0.1099100E+00
         -1   -1    0    0    0  501 -0.00000000000E+00  0.00000000000E+00  0.24199425999E+02  0.24199425999E+02  0.00000000000E+00 0.  1.
          1   -1    0    0  501    0  0.00000000000E+00 -0.00000000000E+00 -0.77471148534E+03  0.77471148534E+03  0.00000000000E+00 0.  1.
         36    2    1    2    0    0  0.00000000000E+00  0.00000000000E+00 -0.75051205934E+03  0.79891091133E+03  0.27384355577E+03 0.  0.
         25    2    3    3    0    0  0.18229642003E+02 -0.44942874401E+02 -0.37808952266E+03  0.40248022799E+03  0.12917610064E+03 0.  0.
         25    2    3    3    0    0 -0.18229642003E+02  0.44942874401E+02 -0.37242253668E+03  0.39643068334E+03  0.12691161909E+03 0.  0.
          5    1    4    4  502    0  0.69764926419E+02 -0.48825998962E+02 -0.21349085700E+03  0.22989466970E+03  0.47000000000E+01 0. -1.
         -5    1    4    4    0  502 -0.51535284415E+02  0.38831245605E+01 -0.16459866565E+03  0.17258555829E+03  0.47000000000E+01 0. -1.
          5    1    5    5  503    0 -0.20566586731E+02 -0.37356114851E+02 -0.20925368413E+03  0.21360631575E+03  0.47000000000E+01 0.  1.
         -5    1    5    5    0  503  0.23369447279E+01  0.82298989252E+02 -0.16316885255E+03  0.18282436759E+03  0.47000000000E+01 0.  1.
<mgrwt>
<rscale>  0 0.27384356E+03</rscale>
<asrwt>0</asrwt>
<pdfrwt beam="1">  1        1 0.11918638E+00 0.27384356E+03</pdfrwt>
<pdfrwt beam="2">  1       -1 0.37229887E-02 0.27384356E+03</pdfrwt>
<totfact> 0.66119477E+03</totfact>
</mgrwt>
</event>
<event>
 9    1  0.2095749E-002  0.2763039E+03  0.7818608E-02  0.1097725E+00
         -1   -1    0    0    0  501 -0.00000000000E+00  0.00000000000E+00  0.36177373100E+02  0.36177373100E+02  0.00000000000E+00 0.  1.
          1   -1    0    0  501    0  0.00000000000E+00 -0.00000000000E+00 -0.52756613664E+03  0.52756613664E+03  0.00000000000E+00 0.  1.
         36    2    1    2    0    0  0.35527136788E-14 -0.35527136788E-14 -0.49138876354E+03  0.56374350974E+03  0.27630386867E+03 0.  0.
         25    2    3    3    0    0  0.42616516471E+01  0.31402582780E+02 -0.14332567289E+03  0.19358820980E+03  0.12621355943E+03 0.  0.
         25    2    3    3    0    0 -0.42616516471E+01 -0.31402582780E+02 -0.34806309064E+03  0.37015529994E+03  0.12191286692E+03 0.  0.
          5    1    4    4  502    0  0.39659320030E+02 -0.31351739970E+02 -0.91734248683E+02  0.10484777368E+03  0.47000000000E+01 0.  1.
         -5    1    4    4    0  502 -0.35397668383E+02  0.62754322749E+02 -0.51591424207E+02  0.88740436118E+02  0.47000000000E+01 0.  1.
          5    1    5    5  503    0  0.25367159199E+02  0.39209399184E+02 -0.16790481814E+03  0.17434158341E+03  0.47000000000E+01 0.  1.
         -5    1    5    5    0  503 -0.29628810846E+02 -0.70611981964E+02 -0.18015827250E+03  0.19581371653E+03  0.47000000000E+01 0.  1.
<mgrwt>
<rscale>  0 0.27630387E+03</rscale>
<asrwt>0</asrwt>
<pdfrwt beam="1">  1        1 0.81164018E-01 0.27630387E+03</pdfrwt>
<pdfrwt beam="2">  1       -1 0.55657499E-02 0.27630387E+03</pdfrwt>
<totfact> 0.62614039E+03</totfact>
</mgrwt>
</event>
<event>
 9    1  0.2095749E-002  0.2755677E+03  0.7818608E-02  0.1098135E+00
          1   -1    0    0  501    0  0.00000000000E+00  0.00000000000E+00  0.17628893148E+03  0.17628893148E+03  0.00000000000E+00 0.  1.
         -1   -1    0    0    0  501 -0.00000000000E+00 -0.00000000000E+00 -0.10768904028E+03  0.10768904028E+03  0.00000000000E+00 0.  1.
         36    2    1    2    0    0 -0.71054273576E-14  0.00000000000E+00  0.68599891198E+02  0.28397797175E+03  0.27556767475E+03 0.  0.
         25    2    3    3    0    0 -0.18185026479E+01 -0.39775717333E+02  0.19808469015E+02  0.13239161580E+03  0.12469863611E+03 0.  0.
         25    2    3    3    0    0  0.18185026479E+01  0.39775717333E+02  0.48791422183E+02  0.15158635595E+03  0.13788548071E+03 0.  0.
          5    1    4    4  502    0  0.41854245030E+02  0.21005231894E+02  0.31303414984E+02  0.56524254826E+02  0.47000000000E+01 0.  1.
         -5    1    4    4    0  502 -0.43672747678E+02 -0.60780949227E+02 -0.11494945969E+02  0.75867360976E+02  0.47000000000E+01 0.  1.
          5    1    5    5  503    0  0.68921803187E+02  0.12860096332E+02  0.16045758643E+02  0.72077412569E+02  0.47000000000E+01 0. -1.
         -5    1    5    5    0  503 -0.67103300539E+02  0.26915621000E+02  0.32745663539E+02  0.79508943382E+02  0.47000000000E+01 0. -1.
<mgrwt>
<rscale>  0 0.27556767E+03</rscale>
<asrwt>0</asrwt>
<pdfrwt beam="1">  1        1 0.27121374E-01 0.27556767E+03</pdfrwt>
<pdfrwt beam="2">  1       -1 0.16567545E-01 0.27556767E+03</pdfrwt>
<totfact> 0.46893908E+03</totfact>
</mgrwt>
</event>
<event>
 9    1  0.2095749E-002  0.2753297E+03  0.7818608E-02  0.1098267E+00
          2   -1    0    0  501    0  0.00000000000E+00  0.00000000000E+00  0.16376119819E+03  0.16376119819E+03  0.00000000000E+00 0. -1.
         -2   -1    0    0    0  501 -0.00000000000E+00 -0.00000000000E+00 -0.11572710595E+03  0.11572710595E+03  0.00000000000E+00 0. -1.
         36    2    1    2    0    0  0.00000000000E+00  0.00000000000E+00  0.48034092239E+02  0.27948830414E+03  0.27532968989E+03 0.  0.
         25    2    3    3    0    0 -0.54706155039E+02 -0.19794010698E+02  0.34186042405E+01  0.13766192016E+03  0.12471788624E+03 0.  0.
         25    2    3    3    0    0  0.54706155039E+02  0.19794010698E+02  0.44615487998E+02  0.14182638399E+03  0.12140681680E+03 0.  0.
          5    1    4    4  502    0 -0.74664556052E+02 -0.56089335964E+02 -0.95867672456E+01  0.93993646836E+02  0.47000000000E+01 0.  1.
         -5    1    4    4    0  502  0.19958401013E+02  0.36295325267E+02  0.13005371486E+02  0.43668273319E+02  0.47000000000E+01 0.  1.
          5    1    5    5  503    0 -0.11722058022E+02  0.41134912000E+02 -0.19233213873E+02  0.47132729026E+02  0.47000000000E+01 0.  1.
         -5    1    5    5    0  503  0.66428213061E+02 -0.21340901303E+02  0.63848701871E+02  0.94693654959E+02  0.47000000000E+01 0.  1.
<mgrwt>
<rscale>  0 0.27532969E+03</rscale>
<asrwt>0</asrwt>
<pdfrwt beam="1">  1        2 0.25194031E-01 0.27532969E+03</pdfrwt>
<pdfrwt beam="2">  1       -2 0.17804170E-01 0.27532969E+03</pdfrwt>
<totfact> 0.54316753E+03</totfact>
</mgrwt>
</event>
<event>
 9    1  0.2095749E-002  0.2751535E+03  0.7818608E-02  0.1098366E+00
         -2   -1    0    0    0  501 -0.00000000000E+00  0.00000000000E+00  0.50583070056E+02  0.50583070056E+02  0.00000000000E+00 0. -1.
          2   -1    0    0  501    0  0.00000000000E+00 -0.00000000000E+00 -0.37418369678E+03  0.37418369678E+03  0.00000000000E+00 0. -1.
         36    2    1    2    0    0  0.00000000000E+00  0.71054273576E-14 -0.32360062673E+03  0.42476676684E+03  0.27515348552E+03 0.  0.
         25    2    3    3    0    0 -0.66478600527E+01 -0.28078531286E+02 -0.25209670511E+03  0.28257595351E+03  0.12435362004E+03 0.  0.
         25    2    3    3    0    0  0.66478600527E+01  0.28078531286E+02 -0.71503921620E+02  0.14219081332E+03  0.11946890233E+03 0.  0.
          5    1    4    4  502    0 -0.44395619226E+02  0.33126263536E+02 -0.11081269586E+03  0.12397525521E+03  0.47000000000E+01 0. -1.
         -5    1    4    4    0  502  0.37747759173E+02 -0.61204794822E+02 -0.14128400925E+03  0.15860069830E+03  0.47000000000E+01 0. -1.
          5    1    5    5  503    0  0.15346577754E+01  0.49465897800E+02  0.15701310683E+02  0.52133016188E+02  0.47000000000E+01 0. -1.
         -5    1    5    5    0  503  0.51132022773E+01 -0.21387366514E+02 -0.87205232303E+02  0.90057797136E+02  0.47000000000E+01 0. -1.
<mgrwt>
<rscale>  0 0.27515349E+03</rscale>
<asrwt>0</asrwt>
<pdfrwt beam="1">  1        2 0.57566721E-01 0.27515349E+03</pdfrwt>
<pdfrwt beam="2">  1       -2 0.77820110E-02 0.27515349E+03</pdfrwt>
<totfact> 0.84238934E+03</totfact>
</mgrwt>
</event>
<event>
 9    1  0.2095749E-002  0.2718986E+03  0.7818608E-02  0.1100198E+00
         -2   -1    0    0    0  501 -0.00000000000E+00  0.00000000000E+00  0.21138302750E+02  0.21138302750E+02  0.00000000000E+00 0.  1.
          2   -1    0    0  501    0  0.00000000000E+00 -0.00000000000E+00 -0.87434685543E+03  0.87434685543E+03  0.00000000000E+00 0.  1.
         36    2    1    2    0    0  0.00000000000E+00  0.00000000000E+00 -0.85320855268E+03  0.89548515818E+03  0.27189857328E+03 0.  0.
         25    2    3    3    0    0 -0.17868117046E+02  0.39007487757E+02 -0.27352538856E+03  0.30348861160E+03  0.12429137329E+03 0.  0.
         25    2    3    3    0    0  0.17868117046E+02 -0.39007487757E+02 -0.57968316412E+03  0.59199654659E+03  0.11218951241E+03 0.  0.
          5    1    4    4  502    0  0.10297736837E+01  0.78641874698E+02 -0.11854689265E+03  0.14234135255E+03  0.47000000000E+01 0. -1.
         -5    1    4    4    0  502 -0.18897890730E+02 -0.39634386941E+02 -0.15497849591E+03  0.16114725904E+03  0.47000000000E+01 0. -1.
          5    1    5    5  503    0  0.26404412400E+02 -0.60779479048E+02 -0.18453399906E+03  0.19612808283E+03  0.47000000000E+01 0.  1.
         -5    1    5    5    0  503 -0.85362953533E+01  0.21771991291E+02 -0.39514916506E+03  0.39586846375E+03  0.47000000000E+01 0.  1.
<mgrwt>
<rscale>  0 0.27189857E+03</rscale>
<asrwt>0</asrwt>
<pdfrwt beam="1">  1        2 0.13451492E+00 0.27189857E+03</pdfrwt>
<pdfrwt beam="2">  1       -2 0.32520460E-02 0.27189857E+03</pdfrwt>
<totfact> 0.11811842E+04</totfact>
</mgrwt>
</event>
<event>
 9    1  0.2095749E-002  0.2756966E+03  0.7818608E-02  0.1098063E+00
         -1   -1    0    0    0  501 -0.00000000000E+00  0.00000000000E+00  0.69610341274E+02  0.69610341274E+02  0.00000000000E+00 0.  1.
          1   -1    0    0  501    0  0.00000000000E+00 -0.00000000000E+00 -0.27297893737E+03  0.27297893737E+03  0.00000000000E+00 0.  1.
         36    2    1    2    0    0  0.00000000000E+00  0.26645352591E-14 -0.20336859609E+03  0.34258927864E+03  0.27569662305E+03 0.  0.
         25    2    3    3    0    0 -0.23900539987E+02  0.24413532483E+01 -0.33846040021E+02  0.13091978349E+03  0.12416617601E+03 0.  0.
         25    2    3    3    0    0  0.23900539987E+02 -0.24413532483E+01 -0.16952255607E+03  0.21166949516E+03  0.12445433759E+03 0.  0.
          5    1    4    4  502    0 -0.59624436117E+02  0.40268550361E+02 -0.77337821075E+01  0.72515728750E+02  0.47000000000E+01 0.  1.
         -5    1    4    4    0  502  0.35723896130E+02 -0.37827197113E+02 -0.26112257914E+02  0.58404054735E+02  0.47000000000E+01 0.  1.
          5    1    5    5  503    0 -0.47531015415E+02 -0.85508527090E+01 -0.10254676675E+03  0.11344709728E+03  0.47000000000E+01 0.  1.
         -5    1    5    5    0  503  0.71431555402E+02  0.61094994607E+01 -0.66975789318E+02  0.98222397881E+02  0.47000000000E+01 0.  1.
<mgrwt>
<rscale>  0 0.27569662E+03</rscale>
<asrwt>0</asrwt>
<pdfrwt beam="1">  1        1 0.41996760E-01 0.27569662E+03</pdfrwt>
<pdfrwt beam="2">  1       -1 0.10709283E-01 0.27569662E+03</pdfrwt>
<totfact> 0.53743643E+03</totfact>
</mgrwt>
</event>
<event>
 9    1  0.2095749E-002  0.2762186E+03  0.7818608E-02  0.1097772E+00
         -2   -1    0    0    0  501 -0.00000000000E+00  0.00000000000E+00  0.70282981821E+01  0.70282981821E+01  0.00000000000E+00 0. -1.
          2   -1    0    0  501    0  0.00000000000E+00 -0.00000000000E+00 -0.27139108077E+04  0.27139108077E+04  0.00000000000E+00 0. -1.
         36    2    1    2    0    0  0.14210854715E-13  0.00000000000E+00 -0.27068825095E+04  0.27209391059E+04  0.27621856850E+03 0.  0.
         25    2    3    3    0    0  0.53557080436E+02  0.11371641642E+02 -0.15837436079E+04  0.15895856093E+04  0.12466322054E+03 0.  0.
         25    2    3    3    0    0 -0.53557080436E+02 -0.11371641642E+02 -0.11231389016E+04  0.11313534966E+04  0.12458758709E+03 0.  0.
          5    1    4    4  502    0 -0.14116555547E+02  0.33620604462E+02 -0.10988182448E+04  0.10994331481E+04  0.47000000000E+01 0. -1.
         -5    1    4    4    0  502  0.67673635983E+02 -0.22248962820E+02 -0.48492536315E+03  0.49015246116E+03  0.47000000000E+01 0. -1.
          5    1    5    5  503    0 -0.69198006056E+02 -0.26475288186E+02 -0.34502068543E+03  0.35291736752E+03  0.47000000000E+01 0. -1.
         -5    1    5    5    0  503  0.15640925620E+02  0.15103646545E+02 -0.77811821619E+03  0.77843612908E+03  0.47000000000E+01 0. -1.
<mgrwt>
<rscale>  0 0.27621857E+03</rscale>
<asrwt>0</asrwt>
<pdfrwt beam="1">  1        2 0.41752511E+00 0.27621857E+03</pdfrwt>
<pdfrwt beam="2">  1       -2 0.10812757E-02 0.27621857E+03</pdfrwt>
<totfact> 0.58029173E+03</totfact>
</mgrwt>
</event>
<event>
 9    1  0.2095749E-002  0.2745257E+03  0.7818608E-02  0.1098717E+00
         -1   -1    0    0    0  501 -0.00000000000E+00  0.00000000000E+00  0.32185094667E+02  0.32185094667E+02  0.00000000000E+00 0.  1.
          1   -1    0    0  501    0  0.00000000000E+00 -0.00000000000E+00 -0.58539782878E+03  0.58539782878E+03  0.00000000000E+00 0.  1.
         36    2    1    2    0    0  0.00000000000E+00 -0.71054273576E-14 -0.55321273411E+03  0.61758292345E+03  0.27452566028E+03 0.  0.
         25    2    3    3    0    0  0.64606573665E+01 -0.33613063266E+02 -0.39242905132E+03  0.41196046545E+03  0.12057896441E+03 0.  0.
         25    2    3    3    0    0 -0.64606573665E+01  0.33613063266E+02 -0.16078368279E+03  0.20562245800E+03  0.12352175705E+03 0.  0.
          5    1    4    4  502    0  0.20551845222E+02  0.20316554163E+02 -0.20244925863E+02  0.35596175894E+02  0.47000000000E+01 0. -1.
         -5    1    4    4    0  502 -0.14091187855E+02 -0.53929617429E+02 -0.37218412545E+03  0.37636428955E+03  0.47000000000E+01 0. -1.
          5    1    5    5  503    0  0.56666572358E+02  0.76119533566E+01 -0.93203102162E+02  0.10944382353E+03  0.47000000000E+01 0.  1.
         -5    1    5    5    0  503 -0.63127229724E+02  0.26001109909E+02 -0.67580580633E+02  0.96178634467E+02  0.47000000000E+01 0.  1.
<mgrwt>
<rscale>  0 0.27452566E+03</rscale>
<asrwt>0</asrwt>
<pdfrwt beam="1">  1        1 0.90061210E-01 0.27452566E+03</pdfrwt>
<pdfrwt beam="2">  1       -1 0.49515527E-02 0.27452566E+03</pdfrwt>
<totfact> 0.64760331E+03</totfact>
</mgrwt>
</event>
<event>
 9    1  0.2095749E-002  0.2758585E+03  0.7818608E-02  0.1097973E+00
         -2   -1    0    0    0  501 -0.00000000000E+00  0.00000000000E+00  0.33736735790E+02  0.33736735790E+02  0.00000000000E+00 0. -1.
          2   -1    0    0  501    0  0.00000000000E+00 -0.00000000000E+00 -0.56390991288E+03  0.56390991288E+03  0.00000000000E+00 0. -1.
         36    2    1    2    0    0 -0.35527136788E-14  0.00000000000E+00 -0.53017317709E+03  0.59764664867E+03  0.27585851258E+03 0.  0.
         25    2    3    3    0    0  0.31604310366E+02  0.29655775152E+02 -0.16756891264E+03  0.21262212807E+03  0.12349304202E+03 0.  0.
         25    2    3    3    0    0 -0.31604310366E+02 -0.29655775152E+02 -0.36260426445E+03  0.38502452060E+03  0.12199889931E+03 0.  0.
          5    1    4    4  502    0  0.26984865431E+02  0.71912802548E+02 -0.14526287199E+03  0.16438681854E+03  0.47000000000E+01 0.  1.
         -5    1    4    4    0  502  0.46194449341E+01 -0.42257027395E+02 -0.22306040656E+02  0.48235309531E+02  0.47000000000E+01 0.  1.
          5    1    5    5  503    0 -0.51317824830E+01  0.75374325638E+01 -0.32642238183E+03  0.32658354129E+03  0.47000000000E+01 0. -1.
         -5    1    5    5    0  503 -0.26472527883E+02 -0.37193207716E+02 -0.36181882617E+02  0.58440979308E+02  0.47000000000E+01 0. -1.
<mgrwt>
<rscale>  0 0.27585851E+03</rscale>
<asrwt>0</asrwt>
<pdfrwt beam="1">  1        2 0.86755367E-01 0.27585851E+03</pdfrwt>
<pdfrwt beam="2">  1       -2 0.51902673E-02 0.27585851E+03</pdfrwt>
<totfact> 0.99818671E+03</totfact>
</mgrwt>
</event>
<event>
 9    1  0.2095749E-002  0.2750584E+03  0.7818608E-02  0.1098419E+00
          1   -1    0    0  501    0  0.00000000000E+00  0.00000000000E+00  0.10863781009E+04  0.10863781009E+04  0.00000000000E+00 0.  1.
         -1   -1    0    0    0  501 -0.00000000000E+00 -0.00000000000E+00 -0.17410397454E+02  0.17410397454E+02  0.00000000000E+00 0.  1.
         36    2    1    2    0    0 -0.14210854715E-13  0.00000000000E+00  0.10689677034E+04  0.11037884983E+04  0.27505835397E+03 0.  0.
         25    2    3    3    0    0  0.54405556657E+02  0.43489521180E+02  0.50628906055E+03  0.52649344758E+03  0.12655210179E+03 0.  0.
         25    2    3    3    0    0 -0.54405556657E+02 -0.43489521180E+02  0.56267864288E+03  0.57729505076E+03  0.10867850489E+03 0.  0.
          5    1    4    4  502    0  0.93481783875E+02  0.45874024513E+02  0.39060833899E+03  0.40427742273E+03  0.47000000000E+01 0.  1.
         -5    1    4    4    0  502 -0.39076227218E+02 -0.23845033334E+01  0.11568072157E+03  0.12221602486E+03  0.47000000000E+01 0.  1.
          5    1    5    5  503    0 -0.36950057829E+02 -0.80083065320E+01  0.48968727603E+02  0.62044065229E+02  0.47000000000E+01 0.  1.
         -5    1    5    5    0  503 -0.17455498828E+02 -0.35481214648E+02  0.51370991528E+03  0.51525098553E+03  0.47000000000E+01 0.  1.
<mgrwt>
<rscale>  0 0.27505835E+03</rscale>
<asrwt>0</asrwt>
<pdfrwt beam="1">  1        1 0.16713504E+00 0.27505835E+03</pdfrwt>
<pdfrwt beam="2">  1       -1 0.26785235E-02 0.27505835E+03</pdfrwt>
<totfact> 0.61544416E+03</totfact>
</mgrwt>
</event>
<event>
 9    1  0.2095749E-002  0.2735491E+03  0.7818608E-02  0.1099265E+00
         -2   -1    0    0    0  501 -0.00000000000E+00  0.00000000000E+00  0.24138461613E+02  0.24138461613E+02  0.00000000000E+00 0. -1.
          2   -1    0    0  501    0  0.00000000000E+00 -0.00000000000E+00 -0.77499859291E+03  0.77499859291E+03  0.00000000000E+00 0. -1.
         36    2    1    2    0    0  0.00000000000E+00  0.35527136788E-14 -0.75086013129E+03  0.79913705452E+03  0.27354907263E+03 0.  0.
         25    2    3    3    0    0 -0.90554470297E+01  0.30001771651E+02 -0.22733406256E+03  0.25998838661E+03  0.12219278927E+03 0.  0.
         25    2    3    3    0    0  0.90554470297E+01 -0.30001771651E+02 -0.52352606873E+03  0.53914866791E+03  0.12497853433E+03 0.  0.
          5    1    4    4  502    0  0.34486293080E+02 -0.22783016636E+02 -0.30599831613E+02  0.51641165287E+02  0.47000000000E+01 0.  1.
         -5    1    4    4    0  502 -0.43541740110E+02  0.52784788287E+02 -0.19673423095E+03  0.20834722132E+03  0.47000000000E+01 0.  1.
          5    1    5    5  503    0  0.29116827704E+02  0.15484387991E+02 -0.44397975784E+03  0.44522766232E+03  0.47000000000E+01 0.  1.
         -5    1    5    5    0  503 -0.20061380674E+02 -0.45486159642E+02 -0.79546310895E+02  0.93921005587E+02  0.47000000000E+01 0.  1.
<mgrwt>
<rscale>  0 0.27354907E+03</rscale>
<asrwt>0</asrwt>
<pdfrwt beam="1">  1        2 0.11923055E+00 0.27354907E+03</pdfrwt>
<pdfrwt beam="2">  1       -2 0.37136096E-02 0.27354907E+03</pdfrwt>
<totfact> 0.11315062E+04</totfact>
</mgrwt>
</event>
<event>
 9    1  0.2095749E-002  0.2745134E+03  0.7818608E-02  0.1098724E+00
          1   -1    0    0  501    0  0.00000000000E+00  0.00000000000E+00  0.36550639595E+03  0.36550639595E+03  0.00000000000E+00 0.  1.
         -1   -1    0    0    0  501 -0.00000000000E+00 -0.00000000000E+00 -0.51543305939E+02  0.51543305939E+02  0.00000000000E+00 0.  1.
         36    2    1    2    0    0  0.35527136788E-14  0.00000000000E+00  0.31396309001E+03  0.41704970189E+03  0.27451344586E+03 0.  0.
         25    2    3    3    0    0 -0.30752295178E+00  0.24527072663E+02  0.23545936222E+03  0.26730697081E+03  0.12413796166E+03 0.  0.
         25    2    3    3    0    0  0.30752295178E+00 -0.24527072663E+02  0.78503727791E+02  0.14974273107E+03  0.12513344225E+03 0.  0.
          5    1    4    4  502    0 -0.27119126672E+02  0.37645940374E+02  0.23228943469E+03  0.23692432405E+03  0.47000000000E+01 0.  1.
         -5    1    4    4    0  502  0.26811603720E+02 -0.13118867711E+02  0.31699275328E+01  0.30382646768E+02  0.47000000000E+01 0.  1.
          5    1    5    5  503    0  0.44488229287E+02 -0.43299468681E+02  0.58455879833E+01  0.62532451032E+02  0.47000000000E+01 0.  1.
         -5    1    5    5    0  503 -0.44180706335E+02  0.18772396018E+02  0.72658139807E+02  0.87210280041E+02  0.47000000000E+01 0.  1.
<mgrwt>
<rscale>  0 0.27451345E+03</rscale>
<asrwt>0</asrwt>
<pdfrwt beam="1">  1        1 0.56231752E-01 0.27451345E+03</pdfrwt>
<pdfrwt beam="2">  1       -1 0.79297396E-02 0.27451345E+03</pdfrwt>
<totfact> 0.59042429E+03</totfact>
</mgrwt>
</event>
<event>
 9    1  0.2095749E-002  0.2747316E+03  0.7818608E-02  0.1098602E+00
          1   -1    0    0  501    0  0.00000000000E+00  0.00000000000E+00  0.32540371752E+03  0.32540371752E+03  0.00000000000E+00 0. -1.
         -1   -1    0    0    0  501 -0.00000000000E+00 -0.00000000000E+00 -0.57987548485E+02  0.57987548485E+02  0.00000000000E+00 0. -1.
         36    2    1    2    0    0  0.17763568394E-14  0.14210854715E-13  0.26741616903E+03  0.38339126600E+03  0.27473160609E+03 0.  0.
         25    2    3    3    0    0 -0.14799719220E+02  0.44444525312E+02  0.16139222393E+03  0.21021649992E+03  0.12629006047E+03 0.  0.
         25    2    3    3    0    0  0.14799719220E+02 -0.44444525312E+02  0.10602394510E+03  0.17317476609E+03  0.12866264087E+03 0.  0.
          5    1    4    4  502    0  0.67045643900E+01 -0.35631107821E+01  0.15696396388E+03  0.15721775631E+03  0.47000000000E+01 0.  1.
         -5    1    4    4    0  502 -0.21504283610E+02  0.48007636094E+02  0.44282600522E+01  0.52998743608E+02  0.47000000000E+01 0.  1.
          5    1    5    5  503    0  0.24342186375E+02 -0.83932423193E+02  0.98197320037E+02  0.13153705700E+03  0.47000000000E+01 0.  1.
         -5    1    5    5    0  503 -0.95424671547E+01  0.39487897881E+02  0.78266250633E+01  0.41637709091E+02  0.47000000000E+01 0.  1.
<mgrwt>
<rscale>  0 0.27473161E+03</rscale>
<asrwt>0</asrwt>
<pdfrwt beam="1">  1        1 0.50062109E-01 0.27473161E+03</pdfrwt>
<pdfrwt beam="2">  1       -1 0.89211615E-02 0.27473161E+03</pdfrwt>
<totfact> 0.57119569E+03</totfact>
</mgrwt>
</event>
<event>
 9    1  0.2095749E-002  0.2745374E+03  0.7818608E-02  0.1098710E+00
         -1   -1    0    0    0  501 -0.00000000000E+00  0.00000000000E+00  0.36885408853E+02  0.36885408853E+02  0.00000000000E+00 0. -1.
          1   -1    0    0  501    0  0.00000000000E+00 -0.00000000000E+00 -0.51084418076E+03  0.51084418076E+03  0.00000000000E+00 0. -1.
         36    2    1    2    0    0  0.00000000000E+00 -0.71054273576E-14 -0.47395877190E+03  0.54772958961E+03  0.27453740341E+03 0.  0.
         25    2    3    3    0    0  0.27346974016E+02 -0.21408847632E+02 -0.16916808287E+03  0.21571996951E+03  0.12927130091E+03 0.  0.
         25    2    3    3    0    0 -0.27346974016E+02  0.21408847632E+02 -0.30479068904E+03  0.33200962010E+03  0.12699144842E+03 0.  0.
          5    1    4    4  502    0  0.74726657239E+02 -0.12928079961E+01 -0.13300678688E+03  0.15263892037E+03  0.47000000000E+01 0.  1.
         -5    1    4    4    0  502 -0.47379683223E+02 -0.20116039636E+02 -0.36161295982E+02  0.63081049135E+02  0.47000000000E+01 0.  1.
          5    1    5    5  503    0 -0.83491119968E+01  0.74397436688E+02 -0.16581596285E+03  0.18199370812E+03  0.47000000000E+01 0.  1.
         -5    1    5    5    0  503 -0.18997862019E+02 -0.52988589056E+02 -0.13897472619E+03  0.15001591199E+03  0.47000000000E+01 0.  1.
<mgrwt>
<rscale>  0 0.27453740E+03</rscale>
<asrwt>0</asrwt>
<pdfrwt beam="1">  1        1 0.78591414E-01 0.27453740E+03</pdfrwt>
<pdfrwt beam="2">  1       -1 0.56746781E-02 0.27453740E+03</pdfrwt>
<totfact> 0.63482942E+03</totfact>
</mgrwt>
</event>
<event>
 9    1  0.2095749E-002  0.2774889E+03  0.7818608E-02  0.1097068E+00
         -1   -1    0    0    0  501 -0.00000000000E+00  0.00000000000E+00  0.30682282453E+03  0.30682282453E+03  0.00000000000E+00 0.  1.
          1   -1    0    0  501    0  0.00000000000E+00 -0.00000000000E+00 -0.62739864932E+02  0.62739864932E+02  0.00000000000E+00 0.  1.
         36    2    1    2    0    0 -0.53290705182E-14  0.71054273576E-14  0.24408295960E+03  0.36956268947E+03  0.27748890118E+03 0.  0.
         25    2    3    3    0    0  0.10998580428E+02 -0.51407244610E+02  0.78227952262E+02  0.15453382592E+03  0.12246394273E+03 0.  0.
         25    2    3    3    0    0 -0.10998580428E+02  0.51407244610E+02  0.16585500734E+03  0.21502886355E+03  0.12635606486E+03 0.  0.
          5    1    4    4  502    0  0.59535425157E+02 -0.48272612763E+02  0.72015473581E+02  0.10527597269E+03  0.47000000000E+01 0. -1.
         -5    1    4    4    0  502 -0.48536844730E+02 -0.31346318473E+01  0.62124786802E+01  0.49257853227E+02  0.47000000000E+01 0. -1.
          5    1    5    5  503    0 -0.21945797194E+02  0.82971370018E+02  0.62410113941E+02  0.10622136593E+03  0.47000000000E+01 0. -1.
         -5    1    5    5    0  503  0.10947216766E+02 -0.31564125408E+02  0.10344489340E+03  0.10880749762E+03  0.47000000000E+01 0. -1.
<mgrwt>
<rscale>  0 0.27748890E+03</rscale>
<asrwt>0</asrwt>
<pdfrwt beam="1">  1        1 0.96522871E-02 0.27748890E+03</pdfrwt>
<pdfrwt beam="2">  1       -1 0.47203511E-01 0.27748890E+03</pdfrwt>
<totfact> 0.30657607E+03</totfact>
</mgrwt>
</event>
<event>
 9    1  0.2095749E-002  0.2743830E+03  0.7818608E-02  0.1098797E+00
          2   -1    0    0  501    0  0.00000000000E+00  0.00000000000E+00  0.95562873727E+02  0.95562873727E+02  0.00000000000E+00 0. -1.
         -2   -1    0    0    0  501 -0.00000000000E+00 -0.00000000000E+00 -0.19695414323E+03  0.19695414323E+03  0.00000000000E+00 0. -1.
         36    2    1    2    0    0  0.00000000000E+00 -0.71054273576E-14 -0.10139126950E+03  0.29251701695E+03  0.27438297264E+03 0.  0.
         25    2    3    3    0    0 -0.14959596863E+01 -0.46593684202E+02 -0.84137026303E+02  0.15803876544E+03  0.12539538621E+03 0.  0.
         25    2    3    3    0    0  0.14959596863E+01  0.46593684202E+02 -0.17254243197E+02  0.13447825152E+03  0.12495391919E+03 0.  0.
          5    1    4    4  502    0  0.47432845223E+02  0.13019250190E+02 -0.58626649176E+02  0.76671700615E+02  0.47000000000E+01 0.  1.
         -5    1    4    4    0  502 -0.48928804909E+02 -0.59612934392E+02 -0.25510377126E+02  0.81367064822E+02  0.47000000000E+01 0.  1.
          5    1    5    5  503    0 -0.32157752394E+02 -0.32231122817E+02 -0.16447923431E+02  0.48637336505E+02  0.47000000000E+01 0. -1.
         -5    1    5    5    0  503  0.33653712081E+02  0.78824807019E+02 -0.80631976590E+00  0.85840915011E+02  0.47000000000E+01 0. -1.
<mgrwt>
<rscale>  0 0.27438297E+03</rscale>
<asrwt>0</asrwt>
<pdfrwt beam="1">  1        2 0.14701981E-01 0.27438297E+03</pdfrwt>
<pdfrwt beam="2">  1       -2 0.30300637E-01 0.27438297E+03</pdfrwt>
<totfact> 0.39858022E+03</totfact>
</mgrwt>
</event>
<event>
 9    1  0.2095749E-002  0.2747271E+03  0.7818608E-02  0.1098604E+00
          2   -1    0    0  501    0  0.00000000000E+00  0.00000000000E+00  0.27449412146E+03  0.27449412146E+03  0.00000000000E+00 0. -1.
         -2   -1    0    0    0  501 -0.00000000000E+00 -0.00000000000E+00 -0.68740065971E+02  0.68740065971E+02  0.00000000000E+00 0. -1.
         36    2    1    2    0    0 -0.35527136788E-14  0.00000000000E+00  0.20575405549E+03  0.34323418743E+03  0.27472709380E+03 0.  0.
         25    2    3    3    0    0  0.52042272460E+01  0.37280816222E+02  0.20414508186E+03  0.24125027862E+03  0.12292086580E+03 0.  0.
         25    2    3    3    0    0 -0.52042272460E+01 -0.37280816222E+02  0.16089736235E+01  0.10198390880E+03  0.94769117434E+02 0.  0.
          5    1    4    4  502    0 -0.42334018029E+02 -0.24375238665E+02  0.97177605591E+02  0.10886642444E+03  0.47000000000E+01 0. -1.
         -5    1    4    4    0  502  0.47538245275E+02  0.61656054887E+02  0.10696747627E+03  0.13238385418E+03  0.47000000000E+01 0. -1.
          5    1    5    5  503    0  0.15196863475E+02 -0.48929348294E+02 -0.32089435520E+02  0.60637015560E+02  0.47000000000E+01 0.  1.
         -5    1    5    5    0  503 -0.20401090721E+02  0.11648532072E+02  0.33698409144E+02  0.41346893243E+02  0.47000000000E+01 0.  1.
<mgrwt>
<rscale>  0 0.27472709E+03</rscale>
<asrwt>0</asrwt>
<pdfrwt beam="1">  1        2 0.42229864E-01 0.27472709E+03</pdfrwt>
<pdfrwt beam="2">  1       -2 0.10575395E-01 0.27472709E+03</pdfrwt>
<totfact> 0.72500357E+03</totfact>
</mgrwt>
</event>
<event>
 9    1  0.2095749E-002  0.2748289E+03  0.7818608E-02  0.1098547E+00
         -1   -1    0    0    0  501 -0.00000000000E+00  0.00000000000E+00  0.24909726839E+03  0.24909726839E+03  0.00000000000E+00 0.  1.
          1   -1    0    0  501    0  0.00000000000E+00 -0.00000000000E+00 -0.75804656482E+02  0.75804656482E+02  0.00000000000E+00 0.  1.
         36    2    1    2    0    0  0.71054273576E-14  0.00000000000E+00  0.17329261190E+03  0.32490192487E+03  0.27482891304E+03 0.  0.
         25    2    3    3    0    0  0.44046104609E+02  0.67003533096E+01  0.85362236573E+02  0.15898881302E+03  0.12651394061E+03 0.  0.
         25    2    3    3    0    0 -0.44046104609E+02 -0.67003533096E+01  0.87930375331E+02  0.16591311184E+03  0.13345581932E+03 0.  0.
          5    1    4    4  502    0 -0.28858662842E+02  0.11784771797E+02  0.79499470822E+02  0.85521688058E+02  0.47000000000E+01 0.  1.
         -5    1    4    4    0  502  0.72904767451E+02 -0.50844184870E+01  0.58627657507E+01  0.73467124965E+02  0.47000000000E+01 0.  1.
          5    1    5    5  503    0 -0.49452906915E+02 -0.35894893639E+02 -0.11220148446E+02  0.62305819334E+02  0.47000000000E+01 0.  1.
         -5    1    5    5    0  503  0.54068023058E+01  0.29194540329E+02  0.99150523776E+02  0.10360729251E+03  0.47000000000E+01 0.  1.
<mgrwt>
<rscale>  0 0.27482891E+03</rscale>
<asrwt>0</asrwt>
<pdfrwt beam="1">  1        1 0.11662255E-01 0.27482891E+03</pdfrwt>
<pdfrwt beam="2">  1       -1 0.38322656E-01 0.27482891E+03</pdfrwt>
<totfact> 0.34579957E+03</totfact>
</mgrwt>
</event>
<event>
 9    1  0.2095749E-002  0.2700017E+03  0.7818608E-02  0.1101279E+00
          2   -1    0    0  501    0  0.00000000000E+00  0.00000000000E+00  0.59124120556E+03  0.59124120556E+03  0.00000000000E+00 0.  1.
         -2   -1    0    0    0  501 -0.00000000000E+00 -0.00000000000E+00 -0.30825380065E+02  0.30825380065E+02  0.00000000000E+00 0.  1.
         36    2    1    2    0    0  0.00000000000E+00 -0.35527136788E-14  0.56041582549E+03  0.62206658562E+03  0.27000173978E+03 0.  0.
         25    2    3    3    0    0  0.33413607199E+02  0.15012112544E+02  0.29037388979E+03  0.31770041688E+03  0.12359096386E+03 0.  0.
         25    2    3    3    0    0 -0.33413607199E+02 -0.15012112544E+02  0.27004193571E+03  0.30436616874E+03  0.13555177965E+03 0.  0.
          5    1    4    4  502    0 -0.13070225664E+02 -0.39679413072E+02  0.18761614418E+03  0.19226854703E+03  0.47000000000E+01 0.  1.
         -5    1    4    4    0  502  0.46483832863E+02  0.54691525616E+02  0.10275774561E+03  0.12543186985E+03  0.47000000000E+01 0.  1.
          5    1    5    5  503    0 -0.57361203248E+02  0.12584119975E+01  0.26892116142E+03  0.27501376747E+03  0.47000000000E+01 0.  1.
         -5    1    5    5    0  503  0.23947596049E+02 -0.16270524541E+02  0.11207742863E+01  0.29352401271E+02  0.47000000000E+01 0.  1.
<mgrwt>
<rscale>  0 0.27000174E+03</rscale>
<asrwt>0</asrwt>
<pdfrwt beam="1">  1        2 0.90960176E-01 0.27000174E+03</pdfrwt>
<pdfrwt beam="2">  1       -2 0.47423666E-02 0.27000174E+03</pdfrwt>
<totfact> 0.10832563E+04</totfact>
</mgrwt>
</event>
<event>
 9    1  0.2095749E-002  0.2749483E+03  0.7818608E-02  0.1098480E+00
          1   -1    0    0  501    0  0.00000000000E+00  0.00000000000E+00  0.10264719359E+04  0.10264719359E+04  0.00000000000E+00 0. -1.
         -1   -1    0    0    0  501 -0.00000000000E+00 -0.00000000000E+00 -0.18411753198E+02  0.18411753198E+02  0.00000000000E+00 0. -1.
         36    2    1    2    0    0 -0.71054273576E-14  0.35527136788E-14  0.10080601827E+04  0.10448836891E+04  0.27494834387E+03 0.  0.
         25    2    3    3    0    0  0.52982228435E+02 -0.89858568720E+01  0.49338052498E+03  0.51238976217E+03  0.12740119230E+03 0.  0.
         25    2    3    3    0    0 -0.52982228435E+02  0.89858568720E+01  0.51467965776E+03  0.53249392696E+03  0.12556579942E+03 0.  0.
          5    1    4    4  502    0 -0.30966159782E+02  0.30032211428E+02  0.11772877866E+03  0.12547108073E+03  0.47000000000E+01 0.  1.
         -5    1    4    4    0  502  0.83948388217E+02 -0.39018068300E+02  0.37565174632E+03  0.38691868144E+03  0.47000000000E+01 0.  1.
          5    1    5    5  503    0  0.22108282856E+02  0.32291823370E+02  0.65378908409E+02  0.76341533206E+02  0.47000000000E+01 0. -1.
         -5    1    5    5    0  503 -0.75090511291E+02 -0.23305966498E+02  0.44930074935E+03  0.45615239376E+03  0.47000000000E+01 0. -1.
<mgrwt>
<rscale>  0 0.27494834E+03</rscale>
<asrwt>0</asrwt>
<pdfrwt beam="1">  1        1 0.15791871E+00 0.27494834E+03</pdfrwt>
<pdfrwt beam="2">  1       -1 0.28325782E-02 0.27494834E+03</pdfrwt>
<totfact> 0.62702614E+03</totfact>
</mgrwt>
</event>
<event>
 9    1  0.2095749E-002  0.2751466E+03  0.7818608E-02  0.1098370E+00
         -1   -1    0    0    0  501 -0.00000000000E+00  0.00000000000E+00  0.65997661239E+02  0.65997661239E+02  0.00000000000E+00 0. -1.
          1   -1    0    0  501    0  0.00000000000E+00 -0.00000000000E+00 -0.28677390475E+03  0.28677390475E+03  0.00000000000E+00 0. -1.
         36    2    1    2    0    0  0.35527136788E-14  0.00000000000E+00 -0.22077624351E+03  0.35277156599E+03  0.27514655744E+03 0.  0.
         25    2    3    3    0    0 -0.80376342715E+01 -0.64508235890E+02 -0.10314827564E+03  0.17510154066E+03  0.12567842580E+03 0.  0.
         25    2    3    3    0    0  0.80376342715E+01  0.64508235890E+02 -0.11762796787E+03  0.17767002533E+03  0.11620836034E+03 0.  0.
          5    1    4    4  502    0 -0.20140473500E+02 -0.18662480321E+02 -0.12104012785E+03  0.12420438556E+03  0.47000000000E+01 0.  1.
         -5    1    4    4    0  502  0.12102839228E+02 -0.45845755569E+02  0.17891852207E+02  0.50897155092E+02  0.47000000000E+01 0.  1.
          5    1    5    5  503    0  0.29846142238E+02 -0.25201672485E+02 -0.47250623975E+02  0.61486811338E+02  0.47000000000E+01 0.  1.
         -5    1    5    5    0  503 -0.21808507967E+02  0.89709908374E+02 -0.70377343899E+02  0.11618321400E+03  0.47000000000E+01 0.  1.
<mgrwt>
<rscale>  0 0.27514656E+03</rscale>
<asrwt>0</asrwt>
<pdfrwt beam="1">  1        1 0.44119064E-01 0.27514656E+03</pdfrwt>
<pdfrwt beam="2">  1       -1 0.10153486E-01 0.27514656E+03</pdfrwt>
<totfact> 0.54862533E+03</totfact>
</mgrwt>
</event>
<event>
 9    1  0.2095749E-002  0.2757071E+03  0.7818608E-02  0.1098057E+00
         -2   -1    0    0    0  501 -0.00000000000E+00  0.00000000000E+00  0.38603166290E+02  0.38603166290E+02  0.00000000000E+00 0. -1.
          2   -1    0    0  501    0  0.00000000000E+00 -0.00000000000E+00 -0.49228077939E+03  0.49228077939E+03  0.00000000000E+00 0. -1.
         36    2    1    2    0    0 -0.14210854715E-13  0.35527136788E-14 -0.45367761310E+03  0.53088394569E+03  0.27570706765E+03 0.  0.
         25    2    3    3    0    0  0.50783497125E+02 -0.14118473337E+02 -0.15710908863E+03  0.20337474168E+03  0.11789709476E+03 0.  0.
         25    2    3    3    0    0 -0.50783497125E+02  0.14118473337E+02 -0.29656852447E+03  0.32750920401E+03  0.12857330255E+03 0.  0.
          5    1    4    4  502    0 -0.62170939964E+01 -0.54184383043E+02 -0.43072843724E+02  0.69656008284E+02  0.47000000000E+01 0.  1.
         -5    1    4    4    0  502  0.57000591121E+02  0.40065909707E+02 -0.11403624491E+03  0.13371873340E+03  0.47000000000E+01 0.  1.
          5    1    5    5  503    0 -0.82396028028E+01 -0.42241089625E+01 -0.27667621814E+03  0.27687100577E+03  0.47000000000E+01 0.  1.
         -5    1    5    5    0  503 -0.42543894322E+02  0.18342582299E+02 -0.19892306336E+02  0.50638198239E+02  0.47000000000E+01 0.  1.
<mgrwt>
<rscale>  0 0.27570707E+03</rscale>
<asrwt>0</asrwt>
<pdfrwt beam="1">  1        2 0.75735496E-01 0.27570707E+03</pdfrwt>
<pdfrwt beam="2">  1       -2 0.59389494E-02 0.27570707E+03</pdfrwt>
<totfact> 0.94720526E+03</totfact>
</mgrwt>
</event>
<event>
 9    1  0.2095749E-002  0.2743215E+03  0.7818608E-02  0.1098831E+00
          2   -1    0    0  501    0  0.00000000000E+00  0.00000000000E+00  0.36477400382E+03  0.36477400382E+03  0.00000000000E+00 0.  1.
         -2   -1    0    0    0  501 -0.00000000000E+00 -0.00000000000E+00 -0.51574576673E+02  0.51574576673E+02  0.00000000000E+00 0.  1.
         36    2    1    2    0    0 -0.71054273576E-14  0.71054273576E-14  0.31319942715E+03  0.41634858050E+03  0.27432145252E+03 0.  0.
         25    2    3    3    0    0  0.49464317349E+02  0.43333740797E+02  0.16364902059E+03  0.21721013979E+03  0.12678608404E+03 0.  0.
         25    2    3    3    0    0 -0.49464317349E+02 -0.43333740797E+02  0.14955040656E+03  0.19913844071E+03  0.11386949847E+03 0.  0.
          5    1    4    4  502    0  0.49657091704E+02  0.27243257182E+02  0.43160735920E+01  0.56997721969E+02  0.47000000000E+01 0. -1.
         -5    1    4    4    0  502 -0.19277435523E+00  0.16090483615E+02  0.15933294700E+03  0.16021241782E+03  0.47000000000E+01 0. -1.
          5    1    5    5  503    0  0.11445453888E+02 -0.12611599634E+00 -0.14360422299E+02  0.18955897461E+02  0.47000000000E+01 0. -1.
         -5    1    5    5    0  503 -0.60909771237E+02 -0.43207624800E+02  0.16391082886E+03  0.18018254325E+03  0.47000000000E+01 0. -1.
<mgrwt>
<rscale>  0 0.27432145E+03</rscale>
<asrwt>0</asrwt>
<pdfrwt beam="1">  1        2 0.56119076E-01 0.27432145E+03</pdfrwt>
<pdfrwt beam="2">  1       -2 0.79345505E-02 0.27432145E+03</pdfrwt>
<totfact> 0.83999369E+03</totfact>
</mgrwt>
</event>
<event>
 9    1  0.2095749E-002  0.2754608E+03  0.7818608E-02  0.1098194E+00
         -4   -1    0    0    0  501 -0.00000000000E+00  0.00000000000E+00  0.25073257005E+03  0.25073257005E+03  0.00000000000E+00 0. -1.
          4   -1    0    0  501    0  0.00000000000E+00 -0.00000000000E+00 -0.75656958202E+02  0.75656958202E+02  0.00000000000E+00 0. -1.
         36    2    1    2    0    0  0.00000000000E+00  0.71054273576E-14  0.17507561185E+03  0.32638952825E+03  0.27546080354E+03 0.  0.
         25    2    3    3    0    0  0.23396548231E+02 -0.55352024328E+02  0.77116566906E+02  0.16068735896E+03  0.12752339931E+03 0.  0.
         25    2    3    3    0    0 -0.23396548231E+02  0.55352024328E+02  0.97959044943E+02  0.16570216929E+03  0.11937331928E+03 0.  0.
          5    1    4    4  502    0  0.31828724264E+02  0.27863064071E+02 -0.56363910833E+01  0.42933401125E+02  0.47000000000E+01 0. -1.
         -5    1    4    4    0  502 -0.84321760337E+01 -0.83215088399E+02  0.82752957989E+02  0.11775395784E+03  0.47000000000E+01 0. -1.
          5    1    5    5  503    0  0.37597998081E+02  0.58311845410E+02  0.68963451460E+02  0.97938390900E+02  0.47000000000E+01 0. -1.
         -5    1    5    5    0  503 -0.60994546311E+02 -0.29598210823E+01  0.28995593483E+02  0.67763778392E+02  0.47000000000E+01 0. -1.
<mgrwt>
<rscale>  0 0.27546080E+03</rscale>
<asrwt>0</asrwt>
<pdfrwt beam="1">  1        4 0.11639532E-01 0.27546080E+03</pdfrwt>
<pdfrwt beam="2">  1       -4 0.38574241E-01 0.27546080E+03</pdfrwt>
<totfact> 0.71769341E+02</totfact>
</mgrwt>
</event>
<event>
 9    1  0.2095749E-002  0.2711781E+03  0.7818608E-02  0.1100607E+00
          2   -1    0    0  501    0  0.00000000000E+00  0.00000000000E+00  0.13756124020E+03  0.13756124020E+03  0.00000000000E+00 0.  1.
         -2   -1    0    0    0  501 -0.00000000000E+00 -0.00000000000E+00 -0.13364518244E+03  0.13364518244E+03  0.00000000000E+00 0.  1.
         36    2    1    2    0    0  0.71054273576E-14 -0.35527136788E-14  0.39160577627E+01  0.27120642264E+03  0.27117814841E+03 0.  0.
         25    2    3    3    0    0 -0.50753677816E+02  0.74300183023E+01 -0.44569925420E+01  0.13478566281E+03  0.12456391585E+03 0.  0.
         25    2    3    3    0    0  0.50753677816E+02 -0.74300183023E+01  0.83730503047E+01  0.13642075983E+03  0.12613236998E+03 0.  0.
          5    1    4    4  502    0  0.46189090237E+01  0.20934181718E+02 -0.54525246975E+02  0.58776413998E+02  0.47000000000E+01 0. -1.
         -5    1    4    4    0  502 -0.55372586840E+02 -0.13504163416E+02  0.50068254433E+02  0.76009248811E+02  0.47000000000E+01 0. -1.
          5    1    5    5  503    0  0.66411387958E+02 -0.30720766329E+02  0.47998495745E+02  0.87636656304E+02  0.47000000000E+01 0. -1.
         -5    1    5    5    0  503 -0.15657710142E+02  0.23290748027E+02 -0.39625445440E+02  0.48784103526E+02  0.47000000000E+01 0. -1.
<mgrwt>
<rscale>  0 0.27117815E+03</rscale>
<asrwt>0</asrwt>
<pdfrwt beam="1">  1        2 0.21163268E-01 0.27117815E+03</pdfrwt>
<pdfrwt beam="2">  1       -2 0.20560797E-01 0.27117815E+03</pdfrwt>
<totfact> 0.51725046E+03</totfact>
</mgrwt>
</event>
<event>
 9    1  0.2095749E-002  0.2750042E+03  0.7818608E-02  0.1098449E+00
         -2   -1    0    0    0  501 -0.00000000000E+00  0.00000000000E+00  0.12873471975E+02  0.12873471975E+02  0.00000000000E+00 0.  1.
          2   -1    0    0  501    0  0.00000000000E+00 -0.00000000000E+00 -0.14686661284E+04  0.14686661284E+04  0.00000000000E+00 0.  1.
         36    2    1    2    0    0 -0.14210854715E-13 -0.53290705182E-14 -0.14557926564E+04  0.14815396004E+04  0.27500423447E+03 0.  0.
         25    2    3    3    0    0  0.64761827442E+02  0.15602396202E+02 -0.81940979912E+03  0.83138184129E+03  0.12379748814E+03 0.  0.
         25    2    3    3    0    0 -0.64761827442E+02 -0.15602396202E+02 -0.63638285731E+03  0.65015775909E+03  0.11525815184E+03 0.  0.
          5    1    4    4  502    0  0.25459984702E+01  0.19039437842E+02 -0.65802119850E+03  0.65831828927E+03  0.47000000000E+01 0.  1.
         -5    1    4    4    0  502  0.62215828971E+02 -0.34370416396E+01 -0.16138860061E+03  0.17306355202E+03  0.47000000000E+01 0.  1.
          5    1    5    5  503    0  0.51330689315E+01 -0.52957385714E+02 -0.23412040380E+03  0.24013597518E+03  0.47000000000E+01 0. -1.
         -5    1    5    5    0  503 -0.69894896373E+02  0.37354989511E+02 -0.40226245351E+03  0.41002178391E+03  0.47000000000E+01 0. -1.
<mgrwt>
<rscale>  0 0.27500423E+03</rscale>
<asrwt>0</asrwt>
<pdfrwt beam="1">  1        2 0.22594860E+00 0.27500423E+03</pdfrwt>
<pdfrwt beam="2">  1       -2 0.19805345E-02 0.27500423E+03</pdfrwt>
<totfact> 0.11123462E+04</totfact>
</mgrwt>
</event>
<event>
 9    1  0.2095749E-002  0.2776753E+03  0.7818608E-02  0.1096965E+00
         -4   -1    0    0    0  501 -0.00000000000E+00  0.00000000000E+00  0.99156677758E+02  0.99156677758E+02  0.00000000000E+00 0.  1.
          4   -1    0    0  501    0  0.00000000000E+00 -0.00000000000E+00 -0.19439833792E+03  0.19439833792E+03  0.00000000000E+00 0.  1.
         36    2    1    2    0    0  0.00000000000E+00  0.71054273576E-14 -0.95241660159E+02  0.29355501568E+03  0.27767530210E+03 0.  0.
         25    2    3    3    0    0  0.35211877545E+02  0.29016860765E+02 -0.15114683575E+02  0.13905822642E+03  0.13048709571E+03 0.  0.
         25    2    3    3    0    0 -0.35211877545E+02 -0.29016860765E+02 -0.80126976584E+02  0.15449678925E+03  0.12396399067E+03 0.  0.
          5    1    4    4  502    0 -0.17705914673E+02  0.62603374163E+02  0.18473224929E+02  0.67794040375E+02  0.47000000000E+01 0. -1.
         -5    1    4    4    0  502  0.52917792218E+02 -0.33586513398E+02 -0.33587908504E+02  0.71264186049E+02  0.47000000000E+01 0. -1.
          5    1    5    5  503    0 -0.62451351554E+01  0.45651886777E+02 -0.87966766574E+01  0.47144119459E+02  0.47000000000E+01 0.  1.
         -5    1    5    5    0  503 -0.28966742389E+02 -0.74668747542E+02 -0.71330299927E+02  0.10735266979E+03  0.47000000000E+01 0.  1.
<mgrwt>
<rscale>  0 0.27767530E+03</rscale>
<asrwt>0</asrwt>
<pdfrwt beam="1">  1        4 0.29907436E-01 0.27767530E+03</pdfrwt>
<pdfrwt beam="2">  1       -4 0.15254874E-01 0.27767530E+03</pdfrwt>
<totfact> 0.73484566E+02</totfact>
</mgrwt>
</event>
<event>
 9    1  0.2095749E-002  0.2749611E+03  0.7818608E-02  0.1098473E+00
         -2   -1    0    0    0  501 -0.00000000000E+00  0.00000000000E+00  0.10128775801E+03  0.10128775801E+03  0.00000000000E+00 0.  1.
          2   -1    0    0  501    0  0.00000000000E+00 -0.00000000000E+00 -0.18660595951E+03  0.18660595951E+03  0.00000000000E+00 0.  1.
         36    2    1    2    0    0  0.00000000000E+00 -0.71054273576E-14 -0.85318201496E+02  0.28789371752E+03  0.27496108285E+03 0.  0.
         25    2    3    3    0    0  0.41576117095E+02  0.79438917227E+01 -0.56702827987E+02  0.14551912143E+03  0.12715708817E+03 0.  0.
         25    2    3    3    0    0 -0.41576117095E+02 -0.79438917227E+01 -0.28615373509E+02  0.14237459610E+03  0.13289095938E+03 0.  0.
          5    1    4    4  502    0 -0.34446220909E+01 -0.42378741856E+02  0.16472872112E+02  0.45839597492E+02  0.47000000000E+01 0.  1.
         -5    1    4    4    0  502  0.45020739186E+02  0.50322633578E+02 -0.73175700098E+02  0.99679523936E+02  0.47000000000E+01 0.  1.
          5    1    5    5  503    0 -0.21521266597E+02  0.59808794973E+02 -0.32320663542E+02  0.71463082524E+02  0.47000000000E+01 0.  1.
         -5    1    5    5    0  503 -0.20054850498E+02 -0.67752686695E+02  0.37052900336E+01  0.70911513573E+02  0.47000000000E+01 0.  1.
<mgrwt>
<rscale>  0 0.27496108E+03</rscale>
<asrwt>0</asrwt>
<pdfrwt beam="1">  1        2 0.28708609E-01 0.27496108E+03</pdfrwt>
<pdfrwt beam="2">  1       -2 0.15582732E-01 0.27496108E+03</pdfrwt>
<totfact> 0.58717683E+03</totfact>
</mgrwt>
</event>
<event>
 9    1  0.2095749E-002  0.2745536E+03  0.7818608E-02  0.1098701E+00
         -2   -1    0    0    0  501 -0.00000000000E+00  0.00000000000E+00  0.19513486964E+03  0.19513486964E+03  0.00000000000E+00 0. -1.
          2   -1    0    0  501    0  0.00000000000E+00 -0.00000000000E+00 -0.96573826436E+02  0.96573826436E+02  0.00000000000E+00 0. -1.
         36    2    1    2    0    0 -0.35527136788E-14 -0.14210854715E-13  0.98561043207E+02  0.29170869608E+03  0.27455360885E+03 0.  0.
         25    2    3    3    0    0 -0.17754657448E+02 -0.41620917750E+02  0.97855002134E+01  0.13281855618E+03  0.12448889186E+03 0.  0.
         25    2    3    3    0    0  0.17754657448E+02  0.41620917750E+02  0.88775542994E+02  0.15889013989E+03  0.12376368961E+03 0.  0.
          5    1    4    4  502    0  0.59811115436E+01 -0.67804183358E+02  0.45773330461E+02  0.82161236344E+02  0.47000000000E+01 0. -1.
         -5    1    4    4    0  502 -0.23735768991E+02  0.26183265608E+02 -0.35987830247E+02  0.50657319841E+02  0.47000000000E+01 0. -1.
          5    1    5    5  503    0 -0.27295888095E+02  0.69794615030E+02  0.69068199678E+02  0.10202382075E+03  0.47000000000E+01 0. -1.
         -5    1    5    5    0  503  0.45050545542E+02 -0.28173697281E+02  0.19707343316E+02  0.56866319141E+02  0.47000000000E+01 0. -1.
<mgrwt>
<rscale>  0 0.27455361E+03</rscale>
<asrwt>0</asrwt>
<pdfrwt beam="1">  1        2 0.14857512E-01 0.27455361E+03</pdfrwt>
<pdfrwt beam="2">  1       -2 0.30020749E-01 0.27455361E+03</pdfrwt>
<totfact> 0.40033468E+03</totfact>
</mgrwt>
</event>
<event>
 9    1  0.2095749E-002  0.2770405E+03  0.7818608E-02  0.1097316E+00
         -2   -1    0    0    0  501 -0.00000000000E+00  0.00000000000E+00  0.77731093158E+01  0.77731093158E+01  0.00000000000E+00 0. -1.
          2   -1    0    0  501    0  0.00000000000E+00 -0.00000000000E+00 -0.24684921682E+04  0.24684921682E+04  0.00000000000E+00 0. -1.
         36    2    1    2    0    0 -0.71054273576E-14 -0.71054273576E-14 -0.24607190588E+04  0.24762652775E+04  0.27704049862E+03 0.  0.
         25    2    3    3    0    0  0.51309512492E+02  0.19571694295E+02 -0.99605209991E+03  0.10054787990E+04  0.12590517168E+03 0.  0.
         25    2    3    3    0    0 -0.51309512492E+02 -0.19571694295E+02 -0.14646669589E+04  0.14707864785E+04  0.12226138933E+03 0.  0.
          5    1    4    4  502    0  0.60579445231E+02 -0.39188089079E+02 -0.68083110863E+03  0.68465952414E+03  0.47000000000E+01 0. -1.
         -5    1    4    4    0  502 -0.92699327387E+01  0.58759783374E+02 -0.31522099128E+03  0.32081927489E+03  0.47000000000E+01 0. -1.
          5    1    5    5  503    0  0.21821774236E+02 -0.25263631633E+02 -0.13701951310E+03  0.14110591017E+03  0.47000000000E+01 0. -1.
         -5    1    5    5    0  503 -0.73131286728E+02  0.56919373380E+01 -0.13276474458E+04  0.13296805683E+04  0.47000000000E+01 0. -1.
<mgrwt>
<rscale>  0 0.27704050E+03</rscale>
<asrwt>0</asrwt>
<pdfrwt beam="1">  1        2 0.37976846E+00 0.27704050E+03</pdfrwt>
<pdfrwt beam="2">  1       -2 0.11958616E-02 0.27704050E+03</pdfrwt>
<totfact> 0.68569605E+03</totfact>
</mgrwt>
</event>
<event>
 9    1  0.2095749E-002  0.2759145E+03  0.7818608E-02  0.1097942E+00
          4   -1    0    0  501    0  0.00000000000E+00  0.00000000000E+00  0.42039252667E+02  0.42039252667E+02  0.00000000000E+00 0.  1.
         -4   -1    0    0    0  501 -0.00000000000E+00 -0.00000000000E+00 -0.45272455062E+03  0.45272455062E+03  0.00000000000E+00 0.  1.
         36    2    1    2    0    0  0.00000000000E+00  0.00000000000E+00 -0.41068529795E+03  0.49476380328E+03  0.27591449235E+03 0.  0.
         25    2    3    3    0    0 -0.43082669457E+02 -0.65837103885E+01 -0.14685082796E+03  0.20016370994E+03  0.12884441569E+03 0.  0.
         25    2    3    3    0    0  0.43082669457E+02  0.65837103885E+01 -0.26383446998E+03  0.29460009334E+03  0.12361685077E+03 0.  0.
          5    1    4    4  502    0 -0.31333959267E+02  0.15569206518E+01 -0.16979118635E+03  0.17272920415E+03  0.47000000000E+01 0. -1.
         -5    1    4    4    0  502 -0.11748710190E+02 -0.81406310403E+01  0.22940358388E+02  0.27434505788E+02  0.47000000000E+01 0. -1.
          5    1    5    5  503    0  0.61198270251E+02  0.69288011334E+01 -0.26833136744E+03  0.27534895918E+03  0.47000000000E+01 0. -1.
         -5    1    5    5    0  503 -0.18115600794E+02 -0.34509074485E+00  0.44968974590E+01  0.19251134162E+02  0.47000000000E+01 0. -1.
<mgrwt>
<rscale>  0 0.27591449E+03</rscale>
<asrwt>0</asrwt>
<pdfrwt beam="1">  1        4 0.64675771E-02 0.27591449E+03</pdfrwt>
<pdfrwt beam="2">  1       -4 0.69649933E-01 0.27591449E+03</pdfrwt>
<totfact> 0.56701577E+02</totfact>
</mgrwt>
</event>
<event>
 9    1  0.2095749E-002  0.2775572E+03  0.7818608E-02  0.1097031E+00
         -1   -1    0    0    0  501 -0.00000000000E+00  0.00000000000E+00  0.22525181493E+03  0.22525181493E+03  0.00000000000E+00 0. -1.
          1   -1    0    0  501    0  0.00000000000E+00 -0.00000000000E+00 -0.85502095374E+02  0.85502095374E+02  0.00000000000E+00 0. -1.
         36    2    1    2    0    0 -0.14210854715E-13 -0.71054273576E-14  0.13974971956E+03  0.31075391031E+03  0.27755721690E+03 0.  0.
         25    2    3    3    0    0  0.44412700770E+02  0.22231764115E+02  0.37259416356E+02  0.14103864677E+03  0.12663686845E+03 0.  0.
         25    2    3    3    0    0 -0.44412700770E+02 -0.22231764115E+02  0.10249030320E+03  0.16971526354E+03  0.12582634502E+03 0.  0.
          5    1    4    4  502    0  0.97508816161E+01  0.21665569570E+02 -0.45302911625E+02  0.51370423385E+02  0.47000000000E+01 0.  1.
         -5    1    4    4    0  502  0.34661819154E+02  0.56619454493E+00  0.82562327981E+02  0.89668223384E+02  0.47000000000E+01 0.  1.
          5    1    5    5  503    0 -0.52096199249E+02 -0.60287329131E+02  0.26236189387E+02  0.84017877046E+02  0.47000000000E+01 0.  1.
         -5    1    5    5    0  503  0.76834984789E+01  0.38055565015E+02  0.76254113814E+02  0.85697386489E+02  0.47000000000E+01 0.  1.
<mgrwt>
<rscale>  0 0.27755722E+03</rscale>
<asrwt>0</asrwt>
<pdfrwt beam="1">  1        1 0.13154169E-01 0.27755722E+03</pdfrwt>
<pdfrwt beam="2">  1       -1 0.34654125E-01 0.27755722E+03</pdfrwt>
<totfact> 0.35151401E+03</totfact>
</mgrwt>
</event>
<event>
 9    1  0.2095749E-002  0.2754359E+03  0.7818608E-02  0.1098208E+00
         -1   -1    0    0    0  501 -0.00000000000E+00  0.00000000000E+00  0.17902282384E+03  0.17902282384E+03  0.00000000000E+00 0.  1.
          1   -1    0    0  501    0  0.00000000000E+00 -0.00000000000E+00 -0.10594312591E+03  0.10594312591E+03  0.00000000000E+00 0.  1.
         36    2    1    2    0    0  0.14210854715E-13 -0.35527136788E-14  0.73079697935E+02  0.28496594975E+03  0.27543592770E+03 0.  0.
         25    2    3    3    0    0  0.52859864045E+02  0.29668378277E+02  0.19093651371E+02  0.13760030828E+03  0.12204466157E+03 0.  0.
         25    2    3    3    0    0 -0.52859864045E+02 -0.29668378277E+02  0.53986046564E+02  0.14736564147E+03  0.12299496399E+03 0.  0.
          5    1    4    4  502    0  0.70559007308E+02 -0.25125594586E+02  0.25984809131E+02  0.79417688969E+02  0.47000000000E+01 0.  1.
         -5    1    4    4    0  502 -0.17699143263E+02  0.54793972862E+02 -0.68911577598E+01  0.58182619308E+02  0.47000000000E+01 0.  1.
          5    1    5    5  503    0 -0.64622661126E+02  0.25688857765E+02  0.10151073907E+01  0.69707432798E+02  0.47000000000E+01 0. -1.
         -5    1    5    5    0  503  0.11762797081E+02 -0.55357236042E+02  0.52970939173E+02  0.77658208673E+02  0.47000000000E+01 0. -1.
<mgrwt>
<rscale>  0 0.27543593E+03</rscale>
<asrwt>0</asrwt>
<pdfrwt beam="1">  1        1 0.16298942E-01 0.27543593E+03</pdfrwt>
<pdfrwt beam="2">  1       -1 0.27541973E-01 0.27543593E+03</pdfrwt>
<totfact> 0.39257720E+03</totfact>
</mgrwt>
</event>
<event>
 9    1  0.2095749E-002  0.2754197E+03  0.7818608E-02  0.1098217E+00
          2   -1    0    0  501    0  0.00000000000E+00  0.00000000000E+00  0.18901440331E+04  0.18901440331E+04  0.00000000000E+00 0.  1.
         -2   -1    0    0    0  501 -0.00000000000E+00 -0.00000000000E+00 -0.10033096537E+02  0.10033096537E+02  0.00000000000E+00 0.  1.
         36    2    1    2    0    0  0.00000000000E+00  0.35527136788E-14  0.18801109365E+04  0.19001771296E+04  0.27541966199E+03 0.  0.
         25    2    3    3    0    0  0.50725133791E+02 -0.30453742098E+02  0.92907897584E+03  0.93934095449E+03  0.12519271477E+03 0.  0.
         25    2    3    3    0    0 -0.50725133791E+02  0.30453742098E+02  0.95103196070E+03  0.96083617512E+03  0.12346617167E+03 0.  0.
          5    1    4    4  502    0  0.27970721691E+02  0.28053151861E+01  0.38826498085E+02  0.48164489188E+02  0.47000000000E+01 0.  1.
         -5    1    4    4    0  502  0.22754412101E+02 -0.33259057284E+02  0.89025247775E+03  0.89117646530E+03  0.47000000000E+01 0.  1.
          5    1    5    5  503    0  0.20663687684E+01  0.29823303390E+02  0.80353433508E+03  0.80410398392E+03  0.47000000000E+01 0. -1.
         -5    1    5    5    0  503 -0.52791502560E+02  0.63043870753E+00  0.14749762562E+03  0.15673219120E+03  0.47000000000E+01 0. -1.
<mgrwt>
<rscale>  0 0.27541966E+03</rscale>
<asrwt>0</asrwt>
<pdfrwt beam="1">  1        2 0.29079111E+00 0.27541966E+03</pdfrwt>
<pdfrwt beam="2">  1       -2 0.15435548E-02 0.27541966E+03</pdfrwt>
<totfact> 0.96011437E+03</totfact>
</mgrwt>
</event>
<event>
 9    1  0.2095749E-002  0.2748289E+03  0.7818608E-02  0.1098547E+00
          1   -1    0    0  501    0  0.00000000000E+00  0.00000000000E+00  0.23675703930E+04  0.23675703930E+04  0.00000000000E+00 0. -1.
         -1   -1    0    0    0  501 -0.00000000000E+00 -0.00000000000E+00 -0.79755735762E+01  0.79755735762E+01  0.00000000000E+00 0. -1.
         36    2    1    2    0    0  0.71054273576E-14  0.35527136788E-14  0.23595948194E+04  0.23755459666E+04  0.27482890580E+03 0.  0.
         25    2    3    3    0    0 -0.14532224587E+02  0.22361714867E+02  0.73267643389E+03  0.74382020068E+03  0.12546912892E+03 0.  0.
         25    2    3    3    0    0  0.14532224587E+02 -0.22361714867E+02  0.16269183855E+04  0.16317257659E+04  0.12228781654E+03 0.  0.
          5    1    4    4  502    0  0.29913464959E+02 -0.34237171048E+02  0.44092282368E+03  0.44328549008E+03  0.47000000000E+01 0.  1.
         -5    1    4    4    0  502 -0.44445689546E+02  0.56598885915E+02  0.29175361021E+03  0.30053471060E+03  0.47000000000E+01 0.  1.
          5    1    5    5  503    0 -0.43060252193E+02 -0.23984271346E+02  0.11861403376E+04  0.11871732903E+04  0.47000000000E+01 0.  1.
         -5    1    5    5    0  503  0.57592476780E+02  0.16225564796E+01  0.44077804793E+03  0.44455247565E+03  0.47000000000E+01 0.  1.
<mgrwt>
<rscale>  0 0.27482891E+03</rscale>
<asrwt>0</asrwt>
<pdfrwt beam="1">  1        1 0.36424104E+00 0.27482891E+03</pdfrwt>
<pdfrwt beam="2">  1       -1 0.12270132E-02 0.27482891E+03</pdfrwt>
<totfact> 0.27129833E+03</totfact>
</mgrwt>
</event>
<event>
 9    1  0.2095749E-002  0.2772276E+03  0.7818608E-02  0.1097213E+00
          1   -1    0    0  501    0  0.00000000000E+00  0.00000000000E+00  0.81512230514E+02  0.81512230514E+02  0.00000000000E+00 0.  1.
         -1   -1    0    0    0  501 -0.00000000000E+00 -0.00000000000E+00 -0.23571652864E+03  0.23571652864E+03  0.00000000000E+00 0.  1.
         36    2    1    2    0    0  0.71054273576E-14  0.17763568394E-14 -0.15420429813E+03  0.31722875916E+03  0.27722756009E+03 0.  0.
         25    2    3    3    0    0  0.52295504346E+02  0.53835330379E+01 -0.53774393031E+02  0.14677917963E+03  0.12605014884E+03 0.  0.
         25    2    3    3    0    0 -0.52295504346E+02 -0.53835330379E+01 -0.10042990510E+03  0.17044957953E+03  0.12729136310E+03 0.  0.
          5    1    4    4  502    0  0.49098755135E+02 -0.56150300558E+02 -0.27643311478E+02  0.79685548740E+02  0.47000000000E+01 0. -1.
         -5    1    4    4    0  502  0.31967492109E+01  0.61533833595E+02 -0.26131081553E+02  0.67093630887E+02  0.47000000000E+01 0. -1.
          5    1    5    5  503    0 -0.76417996983E+00 -0.99296318048E+01 -0.11576586695E+03  0.11628846680E+03  0.47000000000E+01 0. -1.
         -5    1    5    5    0  503 -0.51531324376E+02  0.45460987670E+01  0.15335961859E+02  0.54161112730E+02  0.47000000000E+01 0. -1.
<mgrwt>
<rscale>  0 0.27722756E+03</rscale>
<asrwt>0</asrwt>
<pdfrwt beam="1">  1        1 0.12540343E-01 0.27722756E+03</pdfrwt>
<pdfrwt beam="2">  1       -1 0.36264081E-01 0.27722756E+03</pdfrwt>
<totfact> 0.34600577E+03</totfact>
</mgrwt>
</event>
<event>
 9    1  0.2095749E-002  0.2750339E+03  0.7818608E-02  0.1098433E+00
         -1   -1    0    0    0  501 -0.00000000000E+00  0.00000000000E+00  0.15512764259E+02  0.15512764259E+02  0.00000000000E+00 0.  1.
          1   -1    0    0  501    0  0.00000000000E+00 -0.00000000000E+00 -0.12190547565E+04  0.12190547565E+04  0.00000000000E+00 0.  1.
         36    2    1    2    0    0  0.00000000000E+00  0.00000000000E+00 -0.12035419922E+04  0.12345675207E+04  0.27503388196E+03 0.  0.
         25    2    3    3    0    0 -0.54060148543E+02 -0.52714489259E+01 -0.57078051957E+03  0.58687812349E+03  0.12524073809E+03 0.  0.
         25    2    3    3    0    0  0.54060148543E+02  0.52714489259E+01 -0.63276147266E+03  0.64768939725E+03  0.12713845288E+03 0.  0.
          5    1    4    4  502    0 -0.64406132195E+02  0.70024164529E+01 -0.12577035669E+03  0.14155372239E+03  0.47000000000E+01 0. -1.
         -5    1    4    4    0  502  0.10345983652E+02 -0.12273865379E+02 -0.44501016288E+03  0.44532440110E+03  0.47000000000E+01 0. -1.
          5    1    5    5  503    0 -0.11270524799E+02  0.43118590575E+02 -0.40982484142E+03  0.41226778704E+03  0.47000000000E+01 0.  1.
         -5    1    5    5    0  503  0.65330673342E+02 -0.37847141649E+02 -0.22293663123E+03  0.23542161021E+03  0.47000000000E+01 0.  1.
<mgrwt>
<rscale>  0 0.27503388E+03</rscale>
<asrwt>0</asrwt>
<pdfrwt beam="1">  1        1 0.18754689E+00 0.27503388E+03</pdfrwt>
<pdfrwt beam="2">  1       -1 0.23865791E-02 0.27503388E+03</pdfrwt>
<totfact> 0.58710684E+03</totfact>
</mgrwt>
</event>
<event>
 9    1  0.2095749E-002  0.2751393E+03  0.7818608E-02  0.1098374E+00
          2   -1    0    0  501    0  0.00000000000E+00  0.00000000000E+00  0.23507227894E+03  0.23507227894E+03  0.00000000000E+00 0.  1.
         -2   -1    0    0    0  501 -0.00000000000E+00 -0.00000000000E+00 -0.80508876070E+02  0.80508876070E+02  0.00000000000E+00 0.  1.
         36    2    1    2    0    0  0.00000000000E+00  0.35527136788E-14  0.15456340287E+03  0.31558115501E+03  0.27513927363E+03 0.  0.
         25    2    3    3    0    0 -0.42857499176E+02 -0.11927985314E+02  0.10329485517E+03  0.16884542080E+03  0.12593612251E+03 0.  0.
         25    2    3    3    0    0  0.42857499176E+02  0.11927985314E+02  0.51268547707E+02  0.14673573421E+03  0.13009177392E+03 0.  0.
          5    1    4    4  502    0 -0.62097460220E+02  0.55627078631E+01  0.30893510037E+00  0.62523785277E+02  0.47000000000E+01 0.  1.
         -5    1    4    4    0  502  0.19239961044E+02 -0.17490693177E+02  0.10298592007E+03  0.10632163553E+03  0.47000000000E+01 0.  1.
          5    1    5    5  503    0 -0.32780990027E+02  0.41003639896E+02  0.41247184272E+01  0.52867713152E+02  0.47000000000E+01 0.  1.
         -5    1    5    5    0  503  0.75638489204E+02 -0.29075654582E+02  0.47143829280E+02  0.93868021059E+02  0.47000000000E+01 0.  1.
<mgrwt>
<rscale>  0 0.27513927E+03</rscale>
<asrwt>0</asrwt>
<pdfrwt beam="1">  1        2 0.36164966E-01 0.27513927E+03</pdfrwt>
<pdfrwt beam="2">  1       -2 0.12385981E-01 0.27513927E+03</pdfrwt>
<totfact> 0.66481881E+03</totfact>
</mgrwt>
</event>
<event>
 9    1  0.2095749E-002  0.2745686E+03  0.7818608E-02  0.1098693E+00
          2   -1    0    0  501    0  0.00000000000E+00  0.00000000000E+00  0.44811315986E+03  0.44811315986E+03  0.00000000000E+00 0.  1.
         -2   -1    0    0    0  501 -0.00000000000E+00 -0.00000000000E+00 -0.42058520536E+02  0.42058520536E+02  0.00000000000E+00 0.  1.
         36    2    1    2    0    0  0.00000000000E+00 -0.14210854715E-13  0.40605463932E+03  0.49017168040E+03  0.27456858186E+03 0.  0.
         25    2    3    3    0    0 -0.21548573278E+02  0.50814569059E+02  0.23068279015E+03  0.26756572818E+03  0.12381602394E+03 0.  0.
         25    2    3    3    0    0  0.21548573278E+02 -0.50814569059E+02  0.17537184917E+03  0.22260595222E+03  0.12550562952E+03 0.  0.
          5    1    4    4  502    0  0.48229818650E+02  0.67352121353E+01  0.56348285110E+02  0.74623707522E+02  0.47000000000E+01 0.  1.
         -5    1    4    4    0  502 -0.69778391928E+02  0.44079356924E+02  0.17433450504E+03  0.19294202066E+03  0.47000000000E+01 0.  1.
          5    1    5    5  503    0 -0.46671310833E+02 -0.30798910771E+02  0.37741894762E+02  0.67626361574E+02  0.47000000000E+01 0.  1.
         -5    1    5    5    0  503  0.68219884111E+02 -0.20015658288E+02  0.13762995441E+03  0.15497959064E+03  0.47000000000E+01 0.  1.
<mgrwt>
<rscale>  0 0.27456858E+03</rscale>
<asrwt>0</asrwt>
<pdfrwt beam="1">  1        2 0.68940483E-01 0.27456858E+03</pdfrwt>
<pdfrwt beam="2">  1       -2 0.64705419E-02 0.27456858E+03</pdfrwt>
<totfact> 0.92123912E+03</totfact>
</mgrwt>
</event>
<event>
 9    1  0.2095749E-002  0.2758201E+03  0.7818608E-02  0.1097994E+00
          2   -1    0    0  501    0  0.00000000000E+00  0.00000000000E+00  0.26724790672E+04  0.26724790672E+04  0.00000000000E+00 0.  1.
         -2   -1    0    0    0  501 -0.00000000000E+00 -0.00000000000E+00 -0.71166819950E+01  0.71166819950E+01  0.00000000000E+00 0.  1.
         36    2    1    2    0    0 -0.71054273576E-14  0.71054273576E-14  0.26653623852E+04  0.26795957492E+04  0.27582011283E+03 0.  0.
         25    2    3    3    0    0  0.48569947621E+02  0.32023289514E+02  0.11047678952E+04  0.11136550007E+04  0.12779212524E+03 0.  0.
         25    2    3    3    0    0 -0.48569947621E+02 -0.32023289514E+02  0.15605944900E+04  0.15659407486E+04  0.11545880179E+03 0.  0.
          5    1    4    4  502    0  0.74649187147E+02  0.61943760150E+01  0.34886872386E+03  0.35685059608E+03  0.47000000000E+01 0.  1.
         -5    1    4    4    0  502 -0.26079239526E+02  0.25828913499E+02  0.75589917138E+03  0.75680440458E+03  0.47000000000E+01 0.  1.
          5    1    5    5  503    0 -0.12406590257E+02 -0.60874970170E+02  0.44081592923E+03  0.44519710122E+03  0.47000000000E+01 0. -1.
         -5    1    5    5    0  503 -0.36163357364E+02  0.28851680656E+02  0.11197785608E+04  0.11207436473E+04  0.47000000000E+01 0. -1.
<mgrwt>
<rscale>  0 0.27582011E+03</rscale>
<asrwt>0</asrwt>
<pdfrwt beam="1">  1        2 0.41114983E+00 0.27582011E+03</pdfrwt>
<pdfrwt beam="2">  1       -2 0.10948763E-02 0.27582011E+03</pdfrwt>
<totfact> 0.60128105E+03</totfact>
</mgrwt>
</event>
<event>
 9    1  0.2095749E-002  0.2747982E+03  0.7818608E-02  0.1098564E+00
          2   -1    0    0  501    0  0.00000000000E+00  0.00000000000E+00  0.31319326736E+03  0.31319326736E+03  0.00000000000E+00 0. -1.
         -2   -1    0    0    0  501 -0.00000000000E+00 -0.00000000000E+00 -0.60277501720E+02  0.60277501720E+02  0.00000000000E+00 0. -1.
         36    2    1    2    0    0 -0.71054273576E-14 -0.71054273576E-14  0.25291576564E+03  0.37347076908E+03  0.27479816384E+03 0.  0.
         25    2    3    3    0    0  0.20053180460E+02  0.33419234494E+02  0.19782539916E+03  0.23563344881E+03  0.12193956849E+03 0.  0.
         25    2    3    3    0    0 -0.20053180460E+02 -0.33419234494E+02  0.55090366481E+02  0.13783732027E+03  0.12018819867E+03 0.  0.
          5    1    4    4  502    0  0.64092649262E+02  0.76806292542E+01  0.58697120745E+02  0.87374491351E+02  0.47000000000E+01 0. -1.
         -5    1    4    4    0  502 -0.44039468802E+02  0.25738605240E+02  0.13912827841E+03  0.14825895746E+03  0.47000000000E+01 0. -1.
          5    1    5    5  503    0 -0.41174177999E+02 -0.71413589646E+02  0.34008615215E+02  0.89296638396E+02  0.47000000000E+01 0.  1.
         -5    1    5    5    0  503  0.21120997540E+02  0.37994355152E+02  0.21081751266E+02  0.48540681875E+02  0.47000000000E+01 0.  1.
<mgrwt>
<rscale>  0 0.27479816E+03</rscale>
<asrwt>0</asrwt>
<pdfrwt beam="1">  1        2 0.48183579E-01 0.27479816E+03</pdfrwt>
<pdfrwt beam="2">  1       -2 0.92734620E-02 0.27479816E+03</pdfrwt>
<totfact> 0.77509063E+03</totfact>
</mgrwt>
</event>
<event>
 9    1  0.2095749E-002  0.2747752E+03  0.7818608E-02  0.1098577E+00
          2   -1    0    0  501    0  0.00000000000E+00  0.00000000000E+00  0.11869725893E+03  0.11869725893E+03  0.00000000000E+00 0.  1.
         -2   -1    0    0    0  501 -0.00000000000E+00 -0.00000000000E+00 -0.15902100438E+03  0.15902100438E+03  0.00000000000E+00 0.  1.
         36    2    1    2    0    0  0.71054273576E-14 -0.88817841970E-15 -0.40323745450E+02  0.27771826331E+03  0.27477523420E+03 0.  0.
         25    2    3    3    0    0 -0.48997433799E+02 -0.43065520621E+01 -0.46194336692E+02  0.14637396423E+03  0.12989274711E+03 0.  0.
         25    2    3    3    0    0  0.48997433799E+02  0.43065520621E+01  0.58705912424E+01  0.13134429909E+03  0.12164524714E+03 0.  0.
          5    1    4    4  502    0 -0.54975877692E+02 -0.96170207160E+01 -0.87582222290E+02  0.10395946266E+03  0.47000000000E+01 0.  1.
         -5    1    4    4    0  502  0.59784438931E+01  0.53104686540E+01  0.41387885598E+02  0.42414501565E+02  0.47000000000E+01 0.  1.
          5    1    5    5  503    0 -0.26817326550E+02  0.26914770826E+02  0.29846622495E+02  0.48543637753E+02  0.47000000000E+01 0.  1.
         -5    1    5    5    0  503  0.75814760349E+02 -0.22608218764E+02 -0.23976031252E+02  0.82800661332E+02  0.47000000000E+01 0.  1.
<mgrwt>
<rscale>  0 0.27477523E+03</rscale>
<asrwt>0</asrwt>
<pdfrwt beam="1">  1        2 0.18261117E-01 0.27477523E+03</pdfrwt>
<pdfrwt beam="2">  1       -2 0.24464770E-01 0.27477523E+03</pdfrwt>
<totfact> 0.45314069E+03</totfact>
</mgrwt>
</event>
<event>
 9    1  0.2095749E-002  0.2760068E+03  0.7818608E-02  0.1097890E+00
          1   -1    0    0  501    0  0.00000000000E+00  0.00000000000E+00  0.41435599403E+02  0.41435599403E+02  0.00000000000E+00 0.  1.
         -1   -1    0    0    0  501 -0.00000000000E+00 -0.00000000000E+00 -0.45962733919E+03  0.45962733919E+03  0.00000000000E+00 0.  1.
         36    2    1    2    0    0  0.00000000000E+00  0.00000000000E+00 -0.41819173978E+03  0.50106293859E+03  0.27600677022E+03 0.  0.
         25    2    3    3    0    0 -0.51052705367E+02 -0.19134754498E+02 -0.27048087923E+03  0.30392542938E+03  0.12742936492E+03 0.  0.
         25    2    3    3    0    0  0.51052705367E+02  0.19134754498E+02 -0.14771086055E+03  0.19713750921E+03  0.11862622668E+03 0.  0.
          5    1    4    4  502    0 -0.92269596776E+02 -0.21122673618E+01 -0.16134323414E+03  0.18593512139E+03  0.47000000000E+01 0.  1.
         -5    1    4    4    0  502  0.41216891408E+02 -0.17022487136E+02 -0.10913764509E+03  0.11799030799E+03  0.47000000000E+01 0.  1.
          5    1    5    5  503    0  0.64490367624E+02  0.18597906892E+02 -0.16293925910E+03  0.17628437768E+03  0.47000000000E+01 0.  1.
         -5    1    5    5    0  503 -0.13437662257E+02  0.53684760651E+00  0.15228398546E+02  0.20853131529E+02  0.47000000000E+01 0.  1.
<mgrwt>
<rscale>  0 0.27600677E+03</rscale>
<asrwt>0</asrwt>
<pdfrwt beam="1">  1        1 0.63747078E-02 0.27600677E+03</pdfrwt>
<pdfrwt beam="2">  1       -1 0.70711896E-01 0.27600677E+03</pdfrwt>
<totfact> 0.24908768E+03</totfact>
</mgrwt>
</event>
<event>
 9    1  0.2095749E-002  0.2752116E+03  0.7818608E-02  0.1098333E+00
          2   -1    0    0  501    0  0.00000000000E+00  0.00000000000E+00  0.35790093248E+02  0.35790093248E+02  0.00000000000E+00 0.  1.
         -2   -1    0    0    0  501 -0.00000000000E+00 -0.00000000000E+00 -0.52906697978E+03  0.52906697978E+03  0.00000000000E+00 0.  1.
         36    2    1    2    0    0  0.00000000000E+00 -0.35527136788E-14 -0.49327688653E+03  0.56485707303E+03  0.27521160252E+03 0.  0.
         25    2    3    3    0    0  0.28417193910E+01 -0.29511615870E+02 -0.31425732106E+03  0.34510660094E+03  0.13950588278E+03 0.  0.
         25    2    3    3    0    0 -0.28417193910E+01  0.29511615870E+02 -0.17901956547E+03  0.21975047209E+03  0.12394859548E+03 0.  0.
          5    1    4    4  502    0  0.60694707487E+01  0.52520713039E+02 -0.73266963239E+02  0.90473209712E+02  0.47000000000E+01 0. -1.
         -5    1    4    4    0  502 -0.32277513577E+01 -0.82032328909E+02 -0.24099035782E+03  0.25463339122E+03  0.47000000000E+01 0. -1.
          5    1    5    5  503    0  0.26944529251E+02  0.18533690539E+02  0.45908930917E+01  0.33356733067E+02  0.47000000000E+01 0. -1.
         -5    1    5    5    0  503 -0.29786248642E+02  0.10977925331E+02 -0.18361045856E+03  0.18639373902E+03  0.47000000000E+01 0. -1.
<mgrwt>
<rscale>  0 0.27521160E+03</rscale>
<asrwt>0</asrwt>
<pdfrwt beam="1">  1        2 0.55061676E-02 0.27521160E+03</pdfrwt>
<pdfrwt beam="2">  1       -2 0.81394929E-01 0.27521160E+03</pdfrwt>
<totfact> 0.18929725E+03</totfact>
</mgrwt>
</event>
<event>
 9    1  0.2095749E-002  0.2720815E+03  0.7818608E-02  0.1100094E+00
         -1   -1    0    0    0  501 -0.00000000000E+00  0.00000000000E+00  0.46689537644E+03  0.46689537644E+03  0.00000000000E+00 0.  1.
          1   -1    0    0  501    0  0.00000000000E+00 -0.00000000000E+00 -0.39638623408E+02  0.39638623408E+02  0.00000000000E+00 0.  1.
         36    2    1    2    0    0  0.35527136788E-14  0.14210854715E-13  0.42725675303E+03  0.50653399985E+03  0.27208153188E+03 0.  0.
         25    2    3    3    0    0 -0.24805359395E+02 -0.25111220312E+02  0.26777891549E+03  0.30701343125E+03  0.14596513333E+03 0.  0.
         25    2    3    3    0    0  0.24805359395E+02  0.25111220312E+02  0.15947783755E+03  0.19952056860E+03  0.11458358253E+03 0.  0.
          5    1    4    4  502    0  0.54962099732E+02  0.19443530545E+02  0.11213773165E+03  0.12647467789E+03  0.47000000000E+01 0. -1.
         -5    1    4    4    0  502 -0.79767459127E+02 -0.44554750857E+02  0.15564118384E+03  0.18053875336E+03  0.47000000000E+01 0. -1.
          5    1    5    5  503    0  0.37371319030E+01  0.66034588739E+02  0.12609860141E+03  0.14246922595E+03  0.47000000000E+01 0. -1.
         -5    1    5    5    0  503  0.21068227492E+02 -0.40923368427E+02  0.33379236132E+02  0.57051342647E+02  0.47000000000E+01 0. -1.
<mgrwt>
<rscale>  0 0.27208153E+03</rscale>
<asrwt>0</asrwt>
<pdfrwt beam="1">  1        1 0.60982501E-02 0.27208153E+03</pdfrwt>
<pdfrwt beam="2">  1       -1 0.71830054E-01 0.27208153E+03</pdfrwt>
<totfact> 0.25644259E+03</totfact>
</mgrwt>
</event>
<event>
 9    1  0.2095749E-002  0.2753685E+03  0.7818608E-02  0.1098246E+00
          3   -1    0    0  501    0  0.00000000000E+00  0.00000000000E+00  0.50795830810E+02  0.50795830810E+02  0.00000000000E+00 0. -1.
         -3   -1    0    0    0  501 -0.00000000000E+00 -0.00000000000E+00 -0.37319908871E+03  0.37319908871E+03  0.00000000000E+00 0. -1.
         36    2    1    2    0    0 -0.88817841970E-15  0.00000000000E+00 -0.32240325790E+03  0.42399491952E+03  0.27536853683E+03 0.  0.
         25    2    3    3    0    0  0.29237749327E+01 -0.48431886782E+02 -0.12677067902E+03  0.18848375740E+03  0.13077127218E+03 0.  0.
         25    2    3    3    0    0 -0.29237749327E+01  0.48431886782E+02 -0.19563257888E+03  0.23551116213E+03  0.12181627744E+03 0.  0.
          5    1    4    4  502    0  0.30327708703E+02 -0.44886630392E+02 -0.14512674235E+03  0.15497884000E+03  0.47000000000E+01 0. -1.
         -5    1    4    4    0  502 -0.27403933771E+02 -0.35452563899E+01  0.18356063328E+02  0.33504917398E+02  0.47000000000E+01 0. -1.
          5    1    5    5  503    0 -0.89035216839E+01  0.73543220113E+02 -0.19566637139E+03  0.20927325873E+03  0.47000000000E+01 0. -1.
         -5    1    5    5    0  503  0.59797467513E+01 -0.25111333332E+02  0.33792511529E-01  0.26237903400E+02  0.47000000000E+01 0. -1.
<mgrwt>
<rscale>  0 0.27536854E+03</rscale>
<asrwt>0</asrwt>
<pdfrwt beam="1">  1        3 0.78147436E-02 0.27536854E+03</pdfrwt>
<pdfrwt beam="2">  1       -3 0.57415241E-01 0.27536854E+03</pdfrwt>
<totfact> 0.84953211E+02</totfact>
</mgrwt>
</event>
<event>
 9    1  0.2095749E-002  0.2769328E+03  0.7818608E-02  0.1097376E+00
         -2   -1    0    0    0  501 -0.00000000000E+00  0.00000000000E+00  0.20710393157E+02  0.20710393157E+02  0.00000000000E+00 0.  1.
          2   -1    0    0  501    0  0.00000000000E+00 -0.00000000000E+00 -0.92576428278E+03  0.92576428278E+03  0.00000000000E+00 0.  1.
         36    2    1    2    0    0  0.35527136788E-14  0.00000000000E+00 -0.90505388963E+03  0.94647467594E+03  0.27693278800E+03 0.  0.
         25    2    3    3    0    0 -0.21905813603E+02  0.15117339588E+02 -0.73820387610E+03  0.74872585924E+03  0.12221722861E+03 0.  0.
         25    2    3    3    0    0  0.21905813603E+02 -0.15117339588E+02 -0.16685001352E+03  0.19774881670E+03  0.10274857113E+03 0.  0.
          5    1    4    4  502    0 -0.30479859144E+02  0.65408688046E+02 -0.37293245682E+03  0.37987896182E+03  0.47000000000E+01 0. -1.
         -5    1    4    4    0  502  0.85740455404E+01 -0.50291348458E+02 -0.36527141929E+03  0.36884689742E+03  0.47000000000E+01 0. -1.
          5    1    5    5  503    0  0.71875349678E+00  0.42262886083E+02 -0.48962327706E+02  0.64854203264E+02  0.47000000000E+01 0. -1.
         -5    1    5    5    0  503  0.21187060106E+02 -0.57380225671E+02 -0.11788768582E+03  0.13289461344E+03  0.47000000000E+01 0. -1.
<mgrwt>
<rscale>  0 0.27693279E+03</rscale>
<asrwt>0</asrwt>
<pdfrwt beam="1">  1        2 0.14242528E+00 0.27693279E+03</pdfrwt>
<pdfrwt beam="2">  1       -2 0.31862142E-02 0.27693279E+03</pdfrwt>
<totfact> 0.11287973E+04</totfact>
</mgrwt>
</event>
<event>
 9    1  0.2095749E-002  0.2741245E+03  0.7818608E-02  0.1098942E+00
         -2   -1    0    0    0  501 -0.00000000000E+00  0.00000000000E+00  0.52303939977E+02  0.52303939977E+02  0.00000000000E+00 0.  1.
          2   -1    0    0  501    0  0.00000000000E+00 -0.00000000000E+00 -0.35917113716E+03  0.35917113716E+03  0.00000000000E+00 0.  1.
         36    2    1    2    0    0  0.00000000000E+00 -0.71054273576E-14 -0.30686719718E+03  0.41147507714E+03  0.27412453812E+03 0.  0.
         25    2    3    3    0    0  0.49891386934E+01  0.46368744182E+02 -0.20076768746E+03  0.24100308126E+03  0.12489943519E+03 0.  0.
         25    2    3    3    0    0 -0.49891386934E+01 -0.46368744182E+02 -0.10609950973E+03  0.17047199587E+03  0.12501457303E+03 0.  0.
          5    1    4    4  502    0 -0.10058852516E+02  0.87751712922E+02 -0.12283686363E+03  0.15136884984E+03  0.47000000000E+01 0.  1.
         -5    1    4    4    0  502  0.15047991209E+02 -0.41382968740E+02 -0.77930823828E+02  0.89634231428E+02  0.47000000000E+01 0.  1.
          5    1    5    5  503    0 -0.30821378709E+02 -0.63171300214E+02 -0.11773295320E+03  0.13719952196E+03  0.47000000000E+01 0.  1.
         -5    1    5    5    0  503  0.25832240015E+02  0.16802556032E+02  0.11633443473E+02  0.33272473916E+02  0.47000000000E+01 0.  1.
<mgrwt>
<rscale>  0 0.27412454E+03</rscale>
<asrwt>0</asrwt>
<pdfrwt beam="1">  1        2 0.55257098E-01 0.27412454E+03</pdfrwt>
<pdfrwt beam="2">  1       -2 0.80467600E-02 0.27412454E+03</pdfrwt>
<totfact> 0.83561313E+03</totfact>
</mgrwt>
</event>
<event>
 9    1  0.2095749E-002  0.2752061E+03  0.7818608E-02  0.1098336E+00
          2   -1    0    0  501    0  0.00000000000E+00  0.00000000000E+00  0.11650033951E+04  0.11650033951E+04  0.00000000000E+00 0. -1.
         -2   -1    0    0    0  501 -0.00000000000E+00 -0.00000000000E+00 -0.16252829405E+02  0.16252829405E+02  0.00000000000E+00 0. -1.
         36    2    1    2    0    0  0.00000000000E+00  0.35527136788E-14  0.11487505657E+04  0.11812562245E+04  0.27520611503E+03 0.  0.
         25    2    3    3    0    0  0.50569392494E+02 -0.11069855682E+02  0.61156574905E+03  0.62618130259E+03  0.12413924896E+03 0.  0.
         25    2    3    3    0    0 -0.50569392494E+02  0.11069855682E+02  0.53718481667E+03  0.55507492195E+03  0.12984928399E+03 0.  0.
          5    1    4    4  502    0  0.68418824729E+02  0.19143383469E+02  0.55430107519E+03  0.55885541660E+03  0.47000000000E+01 0.  1.
         -5    1    4    4    0  502 -0.17849432235E+02 -0.30213239150E+02  0.57264673868E+02  0.67325885989E+02  0.47000000000E+01 0.  1.
          5    1    5    5  503    0  0.42672439662E+02 -0.10666144035E+01  0.22260714187E+03  0.22671150033E+03  0.47000000000E+01 0.  1.
         -5    1    5    5    0  503 -0.93241832156E+02  0.12136470085E+02  0.31457767480E+03  0.32836342162E+03  0.47000000000E+01 0.  1.
<mgrwt>
<rscale>  0 0.27520612E+03</rscale>
<asrwt>0</asrwt>
<pdfrwt beam="1">  1        2 0.17923123E+00 0.27520612E+03</pdfrwt>
<pdfrwt beam="2">  1       -2 0.25004362E-02 0.27520612E+03</pdfrwt>
<totfact> 0.11610885E+04</totfact>
</mgrwt>
</event>
<event>
 9    1  0.2095749E-002  0.2746362E+03  0.7818608E-02  0.1098655E+00
         -2   -1    0    0    0  501 -0.00000000000E+00  0.00000000000E+00  0.22958236538E+02  0.22958236538E+02  0.00000000000E+00 0.  1.
          2   -1    0    0  501    0  0.00000000000E+00 -0.00000000000E+00 -0.82132864000E+03  0.82132864000E+03  0.00000000000E+00 0.  1.
         36    2    1    2    0    0 -0.71054273576E-14 -0.35527136788E-14 -0.79837040346E+03  0.84428687653E+03  0.27463617528E+03 0.  0.
         25    2    3    3    0    0 -0.48015716654E+02 -0.31670902912E+02 -0.32537536860E+03  0.35224917750E+03  0.12207291845E+03 0.  0.
         25    2    3    3    0    0  0.48015716654E+02  0.31670902912E+02 -0.47299503486E+03  0.49203769904E+03  0.12275275613E+03 0.  0.
          5    1    4    4  502    0  0.20608203834E+02 -0.43710486603E+02 -0.22366731026E+03  0.22887651776E+03  0.47000000000E+01 0. -1.
         -5    1    4    4    0  502 -0.68623920488E+02  0.12039583691E+02 -0.10170805834E+03  0.12337265974E+03  0.47000000000E+01 0. -1.
          5    1    5    5  503    0 -0.30841925300E+02  0.24560515781E+02 -0.28844342964E+03  0.29116343417E+03  0.47000000000E+01 0. -1.
         -5    1    5    5    0  503  0.78857641955E+02  0.71103871306E+01 -0.18455160522E+03  0.20087426487E+03  0.47000000000E+01 0. -1.
<mgrwt>
<rscale>  0 0.27463618E+03</rscale>
<asrwt>0</asrwt>
<pdfrwt beam="1">  1        2 0.12635825E+00 0.27463618E+03</pdfrwt>
<pdfrwt beam="2">  1       -2 0.35320364E-02 0.27463618E+03</pdfrwt>
<totfact> 0.11331069E+04</totfact>
</mgrwt>
</event>
<event>
 9    1  0.2095749E-002  0.2812074E+03  0.7818608E-02  0.1095031E+00
         -1   -1    0    0    0  501 -0.00000000000E+00  0.00000000000E+00  0.38642158915E+02  0.38642158915E+02  0.00000000000E+00 0.  1.
          1   -1    0    0  501    0  0.00000000000E+00 -0.00000000000E+00 -0.51160181091E+03  0.51160181091E+03  0.00000000000E+00 0.  1.
         36    2    1    2    0    0  0.00000000000E+00 -0.35527136788E-14 -0.47295965200E+03  0.55024396983E+03  0.28120738595E+03 0.  0.
         25    2    3    3    0    0 -0.29952497656E+02  0.12243931829E+02 -0.14317388108E+03  0.19360662911E+03  0.12624460633E+03 0.  0.
         25    2    3    3    0    0  0.29952497656E+02 -0.12243931829E+02 -0.32978577091E+03  0.35663734072E+03  0.13185018815E+03 0.  0.
          5    1    4    4  502    0 -0.13397029784E+02  0.57770884856E+02 -0.22701737602E+02  0.63674283931E+02  0.47000000000E+01 0. -1.
         -5    1    4    4    0  502 -0.16555467872E+02 -0.45526953027E+02 -0.12047214348E+03  0.12993234518E+03  0.47000000000E+01 0. -1.
          5    1    5    5  503    0  0.62155435435E+02 -0.15898775106E+02 -0.71080779088E+02  0.95867806691E+02  0.47000000000E+01 0.  1.
         -5    1    5    5    0  503 -0.32202937780E+02  0.36548432771E+01 -0.25870499183E+03  0.26076953403E+03  0.47000000000E+01 0.  1.
<mgrwt>
<rscale>  0 0.28120739E+03</rscale>
<asrwt>0</asrwt>
<pdfrwt beam="1">  1        1 0.78707972E-01 0.28120739E+03</pdfrwt>
<pdfrwt beam="2">  1       -1 0.59449475E-02 0.28120739E+03</pdfrwt>
<totfact> 0.59110068E+03</totfact>
</mgrwt>
</event>
<event>
 9    1  0.2095749E-002  0.2752394E+03  0.7818608E-02  0.1098318E+00
          1   -1    0    0  501    0  0.00000000000E+00  0.00000000000E+00  0.44721291443E+03  0.44721291443E+03  0.00000000000E+00 0. -1.
         -1   -1    0    0    0  501 -0.00000000000E+00 -0.00000000000E+00 -0.42349347886E+02  0.42349347886E+02  0.00000000000E+00 0. -1.
         36    2    1    2    0    0  0.35527136788E-14  0.00000000000E+00  0.40486356654E+03  0.48956226231E+03  0.27523935251E+03 0.  0.
         25    2    3    3    0    0 -0.25195855848E+02  0.16560629654E+02  0.29132299571E+03  0.31753184527E+03  0.12267150983E+03 0.  0.
         25    2    3    3    0    0  0.25195855848E+02 -0.16560629654E+02  0.11354057083E+03  0.17203041704E+03  0.12567385391E+03 0.  0.
          5    1    4    4  502    0  0.35957102435E+02  0.16960842368E+02  0.32570181765E+02  0.51609012097E+02  0.47000000000E+01 0. -1.
         -5    1    4    4    0  502 -0.61152958283E+02 -0.40021271375E+00  0.25875281395E+03  0.26592283317E+03  0.47000000000E+01 0. -1.
          5    1    5    5  503    0 -0.27142151386E+02  0.41880103622E+02  0.36790100208E+02  0.62179103681E+02  0.47000000000E+01 0. -1.
         -5    1    5    5    0  503  0.52338007234E+02 -0.58440733276E+02  0.76750470620E+02  0.10985131336E+03  0.47000000000E+01 0. -1.
<mgrwt>
<rscale>  0 0.27523935E+03</rscale>
<asrwt>0</asrwt>
<pdfrwt beam="1">  1        1 0.68801984E-01 0.27523935E+03</pdfrwt>
<pdfrwt beam="2">  1       -1 0.65152846E-02 0.27523935E+03</pdfrwt>
<totfact> 0.61415051E+03</totfact>
</mgrwt>
</event>
<event>
 9    1  0.2095749E-002  0.2751469E+03  0.7818608E-02  0.1098370E+00
         -2   -1    0    0    0  501 -0.00000000000E+00  0.00000000000E+00  0.17825594940E+02  0.17825594940E+02  0.00000000000E+00 0.  1.
          2   -1    0    0  501    0  0.00000000000E+00 -0.00000000000E+00 -0.10617570503E+04  0.10617570503E+04  0.00000000000E+00 0.  1.
         36    2    1    2    0    0  0.00000000000E+00  0.35527136788E-14 -0.10439314553E+04  0.10795826452E+04  0.27514687788E+03 0.  0.
         25    2    3    3    0    0 -0.24015722864E+02 -0.26586259353E+02 -0.28131039056E+03  0.30477632228E+03  0.11166685566E+03 0.  0.
         25    2    3    3    0    0  0.24015722864E+02  0.26586259353E+02 -0.76262106476E+03  0.77480632292E+03  0.13209983153E+03 0.  0.
          5    1    4    4  502    0  0.59577111522E+01 -0.28539553055E+02 -0.91401568294E+01  0.30913312305E+02  0.47000000000E+01 0. -1.
         -5    1    4    4    0  502 -0.29973434016E+02  0.19532937023E+01 -0.27217023373E+03  0.27386300997E+03  0.47000000000E+01 0. -1.
          5    1    5    5  503    0 -0.24221511225E+02  0.20485823678E+02 -0.66377251580E+03  0.66454675781E+03  0.47000000000E+01 0.  1.
         -5    1    5    5    0  503  0.48237234088E+02  0.61004356755E+01 -0.98848548954E+02  0.11025956511E+03  0.47000000000E+01 0.  1.
<mgrwt>
<rscale>  0 0.27514688E+03</rscale>
<asrwt>0</asrwt>
<pdfrwt beam="1">  1        2 0.16334725E+00 0.27514688E+03</pdfrwt>
<pdfrwt beam="2">  1       -2 0.27423990E-02 0.27514688E+03</pdfrwt>
<totfact> 0.11635687E+04</totfact>
</mgrwt>
</event>
<event>
 9    1  0.2095749E-002  0.2759864E+03  0.7818608E-02  0.1097901E+00
         -2   -1    0    0    0  501 -0.00000000000E+00  0.00000000000E+00  0.75401650371E+02  0.75401650371E+02  0.00000000000E+00 0. -1.
          2   -1    0    0  501    0  0.00000000000E+00 -0.00000000000E+00 -0.25254251553E+03  0.25254251553E+03  0.00000000000E+00 0. -1.
         36    2    1    2    0    0 -0.71054273576E-14  0.14210854715E-13 -0.17714086516E+03  0.32794416590E+03  0.27598639430E+03 0.  0.
         25    2    3    3    0    0  0.57960838717E+02 -0.58363921268E+02 -0.10046854341E+03  0.17823754264E+03  0.12210195437E+03 0.  0.
         25    2    3    3    0    0 -0.57960838717E+02  0.58363921268E+02 -0.76672321749E+02  0.14970662326E+03  0.98831280446E+02 0.  0.
          5    1    4    4  502    0  0.65342880181E+02 -0.38127374511E+02 -0.12441530889E+03  0.14568681396E+03  0.47000000000E+01 0.  1.
         -5    1    4    4    0  502 -0.73820414635E+01 -0.20236546757E+02  0.23946765476E+02  0.32550728680E+02  0.47000000000E+01 0.  1.
          5    1    5    5  503    0  0.26788179321E+02  0.95160511522E+01 -0.73931438773E+01  0.29747442869E+02  0.47000000000E+01 0.  1.
         -5    1    5    5    0  503 -0.84749018038E+02  0.48847870116E+02 -0.69279177872E+02  0.11995918039E+03  0.47000000000E+01 0.  1.
<mgrwt>
<rscale>  0 0.27598639E+03</rscale>
<asrwt>0</asrwt>
<pdfrwt beam="1">  1        2 0.38852694E-01 0.27598639E+03</pdfrwt>
<pdfrwt beam="2">  1       -2 0.11600254E-01 0.27598639E+03</pdfrwt>
<totfact> 0.68394229E+03</totfact>
</mgrwt>
</event>
<event>
 9    1  0.2095749E-002  0.2633146E+03  0.7818608E-02  0.1105168E+00
          2   -1    0    0  501    0  0.00000000000E+00  0.00000000000E+00  0.74614321605E+02  0.74614321605E+02  0.00000000000E+00 0.  1.
         -2   -1    0    0    0  501 -0.00000000000E+00 -0.00000000000E+00 -0.23230986014E+03  0.23230986014E+03  0.00000000000E+00 0.  1.
         36    2    1    2    0    0  0.17763568394E-14 -0.71054273576E-14 -0.15769553853E+03  0.30692418174E+03  0.26331458460E+03 0.  0.
         25    2    3    3    0    0  0.66335645583E+01  0.34134568079E+02 -0.71272228611E+02  0.14986318678E+03  0.12716159508E+03 0.  0.
         25    2    3    3    0    0 -0.66335645583E+01 -0.34134568079E+02 -0.86423309921E+02  0.15706099496E+03  0.12645155090E+03 0.  0.
          5    1    4    4  502    0 -0.69996064227E+01  0.74742088284E+02 -0.75489664959E+02  0.10656525591E+03  0.47000000000E+01 0.  1.
         -5    1    4    4    0  502  0.13633170981E+02 -0.40607520205E+02  0.42174363477E+01  0.43297930869E+02  0.47000000000E+01 0.  1.
          5    1    5    5  503    0 -0.58087111285E+02 -0.47531680074E+02 -0.35018458817E+02  0.82956347353E+02  0.47000000000E+01 0.  1.
         -5    1    5    5    0  503  0.51453546727E+02  0.13397111996E+02 -0.51404851104E+02  0.74104647612E+02  0.47000000000E+01 0.  1.
<mgrwt>
<rscale>  0 0.26331458E+03</rscale>
<asrwt>0</asrwt>
<pdfrwt beam="1">  1        2 0.11479126E-01 0.26331458E+03</pdfrwt>
<pdfrwt beam="2">  1       -2 0.35739979E-01 0.26331458E+03</pdfrwt>
<totfact> 0.39558171E+03</totfact>
</mgrwt>
</event>
<event>
 9    1  0.2095749E-002  0.2787853E+03  0.7818608E-02  0.1096354E+00
          2   -1    0    0  501    0  0.00000000000E+00  0.00000000000E+00  0.16149814636E+04  0.16149814636E+04  0.00000000000E+00 0.  1.
         -2   -1    0    0    0  501 -0.00000000000E+00 -0.00000000000E+00 -0.12031292317E+02  0.12031292317E+02  0.00000000000E+00 0.  1.
         36    2    1    2    0    0 -0.71054273576E-14  0.00000000000E+00  0.16029501713E+04  0.16270127560E+04  0.27878532297E+03 0.  0.
         25    2    3    3    0    0  0.35377117630E+02  0.65991560536E+02  0.39086206644E+03  0.40671014333E+03  0.83866317348E+02 0.  0.
         25    2    3    3    0    0 -0.35377117630E+02 -0.65991560536E+02  0.12120881049E+04  0.12203026126E+04  0.11989356068E+03 0.  0.
          5    1    4    4  502    0  0.51103805483E+02  0.37287908523E+02  0.14028509472E+03  0.15396098486E+03  0.47000000000E+01 0. -1.
         -5    1    4    4    0  502 -0.15726687853E+02  0.28703652013E+02  0.25057697172E+03  0.25274915847E+03  0.47000000000E+01 0. -1.
          5    1    5    5  503    0  0.28554119008E+02 -0.59548495160E+02  0.84615407187E+03  0.84874033975E+03  0.47000000000E+01 0. -1.
         -5    1    5    5    0  503 -0.63931236638E+02 -0.64430653759E+01  0.36593403301E+03  0.37156227287E+03  0.47000000000E+01 0. -1.
<mgrwt>
<rscale>  0 0.27878532E+03</rscale>
<asrwt>0</asrwt>
<pdfrwt beam="1">  1        2 0.24845851E+00 0.27878532E+03</pdfrwt>
<pdfrwt beam="2">  1       -2 0.18509693E-02 0.27878532E+03</pdfrwt>
<totfact> 0.10269361E+04</totfact>
</mgrwt>
</event>
<event>
 9    1  0.2095749E-002  0.2744123E+03  0.7818608E-02  0.1098781E+00
          2   -1    0    0  501    0  0.00000000000E+00  0.00000000000E+00  0.39384873646E+04  0.39384873646E+04  0.00000000000E+00 0. -1.
         -2   -1    0    0    0  501 -0.00000000000E+00 -0.00000000000E+00 -0.47798878344E+01  0.47798878344E+01  0.00000000000E+00 0. -1.
         36    2    1    2    0    0  0.00000000000E+00  0.35527136788E-14  0.39337074767E+04  0.39432672524E+04  0.27441230176E+03 0.  0.
         25    2    3    3    0    0  0.78096994723E+01  0.14367878539E+02  0.27671955088E+04  0.27700859997E+04  0.12545132352E+03 0.  0.
         25    2    3    3    0    0 -0.78096994723E+01 -0.14367878539E+02  0.11665119679E+04  0.11731812527E+04  0.12384124102E+03 0.  0.
          5    1    4    4  502    0 -0.46500926567E+02  0.40599296902E+02  0.17485731674E+04  0.17496687832E+04  0.47000000000E+01 0.  1.
         -5    1    4    4    0  502  0.54310626039E+02 -0.26231418363E+02  0.10186223414E+04  0.10204172166E+04  0.47000000000E+01 0.  1.
          5    1    5    5  503    0  0.39131596658E+02 -0.37921883394E+01  0.97005682012E+03  0.97086455637E+03  0.47000000000E+01 0. -1.
         -5    1    5    5    0  503 -0.46941296131E+02 -0.10575690200E+02  0.19645514779E+03  0.20231669629E+03  0.47000000000E+01 0. -1.
<mgrwt>
<rscale>  0 0.27441230E+03</rscale>
<asrwt>0</asrwt>
<pdfrwt beam="1">  1        2 0.60591854E+00 0.27441230E+03</pdfrwt>
<pdfrwt beam="2">  1       -2 0.73537051E-03 0.27441230E+03</pdfrwt>
<totfact> 0.16584035E+03</totfact>
</mgrwt>
</event>
<event>
 9    1  0.2095749E-002  0.2747445E+03  0.7818608E-02  0.1098595E+00
         -1   -1    0    0    0  501 -0.00000000000E+00  0.00000000000E+00  0.48583474136E+03  0.48583474136E+03  0.00000000000E+00 0.  1.
          1   -1    0    0  501    0  0.00000000000E+00 -0.00000000000E+00 -0.38842703971E+02  0.38842703971E+02  0.00000000000E+00 0.  1.
         36    2    1    2    0    0  0.00000000000E+00  0.00000000000E+00  0.44699203739E+03  0.52467744533E+03  0.27474449976E+03 0.  0.
         25    2    3    3    0    0 -0.24321701644E+02 -0.12853175812E+02  0.15371872282E+03  0.20054821277E+03  0.12583080148E+03 0.  0.
         25    2    3    3    0    0  0.24321701644E+02  0.12853175812E+02  0.29327331457E+03  0.32412923256E+03  0.13525447520E+03 0.  0.
          5    1    4    4  502    0 -0.71443055482E+02  0.13823684879E+02  0.72555209303E+02  0.10286667506E+03  0.47000000000E+01 0.  1.
         -5    1    4    4    0  502  0.47121353838E+02 -0.26676860691E+02  0.81163513514E+02  0.97681537712E+02  0.47000000000E+01 0.  1.
          5    1    5    5  503    0 -0.18250525017E+02 -0.14732055414E+02  0.26458025948E+03  0.26565940380E+03  0.47000000000E+01 0.  1.
         -5    1    5    5    0  503  0.42572226662E+02  0.27585231226E+02  0.28693055084E+02  0.58469828756E+02  0.47000000000E+01 0.  1.
<mgrwt>
<rscale>  0 0.27474450E+03</rscale>
<asrwt>0</asrwt>
<pdfrwt beam="1">  1        1 0.59758010E-02 0.27474450E+03</pdfrwt>
<pdfrwt beam="2">  1       -1 0.74743802E-01 0.27474450E+03</pdfrwt>
<totfact> 0.24337880E+03</totfact>
</mgrwt>
</event>
<event>
 9    1  0.2095749E-002  0.2765534E+03  0.7818608E-02  0.1097586E+00
         -2   -1    0    0    0  501 -0.00000000000E+00  0.00000000000E+00  0.88343300572E+01  0.88343300572E+01  0.00000000000E+00 0. -1.
          2   -1    0    0  501    0  0.00000000000E+00 -0.00000000000E+00 -0.21643340506E+04  0.21643340506E+04  0.00000000000E+00 0. -1.
         36    2    1    2    0    0 -0.71054273576E-14  0.71054273576E-14 -0.21554997205E+04  0.21731683807E+04  0.27655336814E+03 0.  0.
         25    2    3    3    0    0  0.45748511162E+02  0.62445711040E+02 -0.11900819356E+04  0.11980762338E+04  0.11445197902E+03 0.  0.
         25    2    3    3    0    0 -0.45748511162E+02 -0.62445711040E+02 -0.96541778493E+03  0.97509214682E+03  0.11305221023E+03 0.  0.
          5    1    4    4  502    0  0.47966240984E+02  0.93231730605E+02 -0.82211453058E+03  0.82878664761E+03  0.47000000000E+01 0. -1.
         -5    1    4    4    0  502 -0.22177298223E+01 -0.30786019564E+02 -0.36796740502E+03  0.36928958621E+03  0.47000000000E+01 0. -1.
          5    1    5    5  503    0  0.32944940506E+02 -0.19865581088E+02 -0.15650942633E+03  0.16123678534E+03  0.47000000000E+01 0.  1.
         -5    1    5    5    0  503 -0.78693451668E+02 -0.42580129953E+02 -0.80890835860E+03  0.81385536149E+03  0.47000000000E+01 0.  1.
<mgrwt>
<rscale>  0 0.27655337E+03</rscale>
<asrwt>0</asrwt>
<pdfrwt beam="1">  1        2 0.33297458E+00 0.27655337E+03</pdfrwt>
<pdfrwt beam="2">  1       -2 0.13591273E-02 0.27655337E+03</pdfrwt>
<totfact> 0.82909747E+03</totfact>
</mgrwt>
</event>
<event>
 9    1  0.2095749E-002  0.2759381E+03  0.7818608E-02  0.1097928E+00
          2   -1    0    0  501    0  0.00000000000E+00  0.00000000000E+00  0.92039733236E+01  0.92039733236E+01  0.00000000000E+00 0.  1.
         -2   -1    0    0    0  501 -0.00000000000E+00 -0.00000000000E+00 -0.20681787240E+04  0.20681787240E+04  0.00000000000E+00 0.  1.
         36    2    1    2    0    0  0.00000000000E+00 -0.35527136788E-14 -0.20589747507E+04  0.20773826973E+04  0.27593812208E+03 0.  0.
         25    2    3    3    0    0  0.14819440759E+02 -0.47341931347E+01 -0.14277415692E+04  0.14329816717E+04  0.12144321526E+03 0.  0.
         25    2    3    3    0    0 -0.14819440759E+02  0.47341931347E+01 -0.63123318142E+03  0.64440102559E+03  0.12866749413E+03 0.  0.
          5    1    4    4  502    0 -0.18348145858E+02 -0.41747638636E+02 -0.24909529568E+03  0.25327865310E+03  0.47000000000E+01 0.  1.
         -5    1    4    4    0  502  0.33167586617E+02  0.37013445501E+02 -0.11786462736E+04  0.11797030186E+04  0.47000000000E+01 0.  1.
          5    1    5    5  503    0 -0.38001115906E+02 -0.22041789393E+01 -0.61182896089E+03  0.61302994267E+03  0.47000000000E+01 0. -1.
         -5    1    5    5    0  503  0.23181675146E+02  0.69383720739E+01 -0.19404220525E+02  0.31371082924E+02  0.47000000000E+01 0. -1.
<mgrwt>
<rscale>  0 0.27593812E+03</rscale>
<asrwt>0</asrwt>
<pdfrwt beam="1">  1        2 0.14159939E-02 0.27593812E+03</pdfrwt>
<pdfrwt beam="2">  1       -2 0.31818178E+00 0.27593812E+03</pdfrwt>
<totfact> 0.25347732E+02</totfact>
</mgrwt>
</event>
<event>
 9    1  0.2095749E-002  0.2750175E+03  0.7818608E-02  0.1098442E+00
         -2   -1    0    0    0  501 -0.00000000000E+00  0.00000000000E+00  0.51085059657E+01  0.51085059657E+01  0.00000000000E+00 0.  1.
          2   -1    0    0  501    0  0.00000000000E+00 -0.00000000000E+00 -0.37014072750E+04  0.37014072750E+04  0.00000000000E+00 0.  1.
         36    2    1    2    0    0 -0.35527136788E-14  0.00000000000E+00 -0.36962987691E+04  0.37065157810E+04  0.27501753505E+03 0.  0.
         25    2    3    3    0    0  0.16457048431E+02  0.22669119235E+02 -0.11368402699E+04  0.11438248499E+04  0.12306406702E+03 0.  0.
         25    2    3    3    0    0 -0.16457048431E+02 -0.22669119235E+02 -0.25594584992E+04  0.25626909311E+04  0.12558772202E+03 0.  0.
          5    1    4    4  502    0  0.38604227759E+02  0.53012495426E+02 -0.35298605958E+03  0.35905690263E+03  0.47000000000E+01 0. -1.
         -5    1    4    4    0  502 -0.22147179329E+02 -0.30343376191E+02 -0.78385421032E+03  0.78476794727E+03  0.47000000000E+01 0. -1.
          5    1    5    5  503    0  0.38222701275E+02  0.18687138257E+02 -0.16823892999E+04  0.16829337570E+04  0.47000000000E+01 0.  1.
         -5    1    5    5    0  503 -0.54679749706E+02 -0.41356257492E+02 -0.87706919927E+03  0.87975717410E+03  0.47000000000E+01 0.  1.
<mgrwt>
<rscale>  0 0.27501754E+03</rscale>
<asrwt>0</asrwt>
<pdfrwt beam="1">  1        2 0.56944992E+00 0.27501754E+03</pdfrwt>
<pdfrwt beam="2">  1       -2 0.78592034E-03 0.27501754E+03</pdfrwt>
<totfact> 0.22367629E+03</totfact>
</mgrwt>
</event>
<event>
 9    1  0.2095749E-002  0.2746135E+03  0.7818608E-02  0.1098668E+00
         -2   -1    0    0    0  501 -0.00000000000E+00  0.00000000000E+00  0.17680571021E+02  0.17680571021E+02  0.00000000000E+00 0. -1.
          2   -1    0    0  501    0  0.00000000000E+00 -0.00000000000E+00 -0.10663201188E+04  0.10663201188E+04  0.00000000000E+00 0. -1.
         36    2    1    2    0    0  0.71054273576E-14  0.35527136788E-14 -0.10486395477E+04  0.10840006898E+04  0.27461353638E+03 0.  0.
         25    2    3    3    0    0  0.20050108528E+02 -0.26523504895E+02 -0.30962550068E+03  0.33554254504E+03  0.12496137682E+03 0.  0.
         25    2    3    3    0    0 -0.20050108528E+02  0.26523504895E+02 -0.73901404707E+03  0.74845814475E+03  0.11376435959E+03 0.  0.
          5    1    4    4  502    0 -0.41503593861E+02 -0.23884167064E+02 -0.22879891372E+03  0.23380341029E+03  0.47000000000E+01 0.  1.
         -5    1    4    4    0  502  0.61553702389E+02 -0.26393378308E+01 -0.80826586953E+02  0.10173913475E+03  0.47000000000E+01 0.  1.
          5    1    5    5  503    0 -0.36637696491E+02 -0.24920634133E+02 -0.13834489628E+03  0.14534358994E+03  0.47000000000E+01 0. -1.
         -5    1    5    5    0  503  0.16587587963E+02  0.51444139027E+02 -0.60066915079E+03  0.60311455481E+03  0.47000000000E+01 0. -1.
<mgrwt>
<rscale>  0 0.27461354E+03</rscale>
<asrwt>0</asrwt>
<pdfrwt beam="1">  1        2 0.16404929E+00 0.27461354E+03</pdfrwt>
<pdfrwt beam="2">  1       -2 0.27200872E-02 0.27461354E+03</pdfrwt>
<totfact> 0.11703406E+04</totfact>
</mgrwt>
</event>
<event>
 9    1  0.2095749E-002  0.2762527E+03  0.7818608E-02  0.1097753E+00
          2   -1    0    0  501    0  0.00000000000E+00  0.00000000000E+00  0.11865944037E+04  0.11865944037E+04  0.00000000000E+00 0.  1.
         -2   -1    0    0    0  501 -0.00000000000E+00 -0.00000000000E+00 -0.16078689578E+02  0.16078689578E+02  0.00000000000E+00 0.  1.
         36    2    1    2    0    0  0.14210854715E-13 -0.71054273576E-14  0.11705157142E+04  0.12026730933E+04  0.27625266024E+03 0.  0.
         25    2    3    3    0    0  0.36348820051E+02  0.39272005987E+02  0.46642234053E+03  0.48580572467E+03  0.12487543874E+03 0.  0.
         25    2    3    3    0    0 -0.36348820051E+02 -0.39272005987E+02  0.70409337364E+03  0.71686736866E+03  0.12364391725E+03 0.  0.
          5    1    4    4  502    0  0.34356061839E+02  0.82708099761E+02  0.26754092367E+03  0.28217229593E+03  0.47000000000E+01 0. -1.
         -5    1    4    4    0  502  0.19927582120E+01 -0.43436093774E+02  0.19888141685E+03  0.20363342873E+03  0.47000000000E+01 0. -1.
          5    1    5    5  503    0  0.28054433403E+02 -0.36896242907E+02  0.11263720685E+03  0.12189181408E+03  0.47000000000E+01 0.  1.
         -5    1    5    5    0  503 -0.64403253454E+02 -0.23757630796E+01  0.59145616679E+03  0.59497555457E+03  0.47000000000E+01 0.  1.
<mgrwt>
<rscale>  0 0.27625266E+03</rscale>
<asrwt>0</asrwt>
<pdfrwt beam="1">  1        2 0.18255292E+00 0.27625266E+03</pdfrwt>
<pdfrwt beam="2">  1       -2 0.24736455E-02 0.27625266E+03</pdfrwt>
<totfact> 0.11467633E+04</totfact>
</mgrwt>
</event>
<event>
 9    1  0.2095749E-002  0.2750202E+03  0.7818608E-02  0.1098440E+00
          2   -1    0    0  501    0  0.00000000000E+00  0.00000000000E+00  0.94168086101E+03  0.94168086101E+03  0.00000000000E+00 0.  1.
         -2   -1    0    0    0  501 -0.00000000000E+00 -0.00000000000E+00 -0.20080085678E+02  0.20080085678E+02  0.00000000000E+00 0.  1.
         36    2    1    2    0    0  0.35527136788E-14  0.71054273576E-14  0.92160077533E+03  0.96176094669E+03  0.27502023468E+03 0.  0.
         25    2    3    3    0    0  0.31907379714E+02 -0.44829568848E+02  0.38341935728E+03  0.40710330660E+03  0.12527939807E+03 0.  0.
         25    2    3    3    0    0 -0.31907379714E+02  0.44829568848E+02  0.53818141805E+03  0.55465764009E+03  0.12238499848E+03 0.  0.
          5    1    4    4  502    0  0.48538547125E+02 -0.78428545110E+02  0.32209672430E+03  0.33507524088E+03  0.47000000000E+01 0. -1.
         -5    1    4    4    0  502 -0.16631167411E+02  0.33598976261E+02  0.61322632981E+02  0.72028065717E+02  0.47000000000E+01 0. -1.
          5    1    5    5  503    0  0.26680591319E+02  0.41882013937E+02  0.41667225791E+03  0.41964725373E+03  0.47000000000E+01 0.  1.
         -5    1    5    5    0  503 -0.58587971033E+02  0.29475549119E+01  0.12150916014E+03  0.13501038637E+03  0.47000000000E+01 0.  1.
<mgrwt>
<rscale>  0 0.27502023E+03</rscale>
<asrwt>0</asrwt>
<pdfrwt beam="1">  1        2 0.14487394E+00 0.27502023E+03</pdfrwt>
<pdfrwt beam="2">  1       -2 0.30892447E-02 0.27502023E+03</pdfrwt>
<totfact> 0.11546246E+04</totfact>
</mgrwt>
</event>
<event>
 9    1  0.2095749E-002  0.2750707E+03  0.7818608E-02  0.1098412E+00
         -1   -1    0    0    0  501 -0.00000000000E+00  0.00000000000E+00  0.19204722264E+02  0.19204722264E+02  0.00000000000E+00 0.  1.
          1   -1    0    0  501    0  0.00000000000E+00 -0.00000000000E+00 -0.98496493377E+03  0.98496493377E+03  0.00000000000E+00 0.  1.
         36    2    1    2    0    0  0.00000000000E+00  0.00000000000E+00 -0.96576021151E+03  0.10041696560E+04  0.27507073994E+03 0.  0.
         25    2    3    3    0    0 -0.44820794103E+02  0.35071366146E+02 -0.41790881743E+03  0.44014815678E+03  0.12587182338E+03 0.  0.
         25    2    3    3    0    0  0.44820794103E+02 -0.35071366146E+02 -0.54785139408E+03  0.56402149926E+03  0.12140921434E+03 0.  0.
          5    1    4    4  502    0 -0.36293225766E+02  0.81977184921E+02 -0.25499273869E+03  0.27033468862E+03  0.47000000000E+01 0. -1.
         -5    1    4    4    0  502 -0.85275683369E+01 -0.46905818775E+02 -0.16291607874E+03  0.16981346817E+03  0.47000000000E+01 0. -1.
          5    1    5    5  503    0  0.29726412698E+02 -0.60070751763E+02 -0.14199393419E+03  0.15708762579E+03  0.47000000000E+01 0. -1.
         -5    1    5    5    0  503  0.15094381405E+02  0.24999385617E+02 -0.40585745989E+03  0.40693387347E+03  0.47000000000E+01 0. -1.
<mgrwt>
<rscale>  0 0.27507074E+03</rscale>
<asrwt>0</asrwt>
<pdfrwt beam="1">  1        1 0.15153310E+00 0.27507074E+03</pdfrwt>
<pdfrwt beam="2">  1       -1 0.29545721E-02 0.27507074E+03</pdfrwt>
<totfact> 0.63284000E+03</totfact>
</mgrwt>
</event>
<event>
 9    1  0.2095749E-002  0.2756888E+03  0.7818608E-02  0.1098067E+00
          3   -1    0    0  501    0  0.00000000000E+00  0.00000000000E+00  0.37515626226E+02  0.37515626226E+02  0.00000000000E+00 0.  1.
         -3   -1    0    0    0  501 -0.00000000000E+00 -0.00000000000E+00 -0.50648439762E+03  0.50648439762E+03  0.00000000000E+00 0.  1.
         36    2    1    2    0    0 -0.14210854715E-13 -0.71054273576E-14 -0.46896877139E+03  0.54400002384E+03  0.27568880536E+03 0.  0.
         25    2    3    3    0    0  0.50598988841E+02 -0.20649489240E+02 -0.20539246860E+03  0.24633795658E+03  0.12453779994E+03 0.  0.
         25    2    3    3    0    0 -0.50598988841E+02  0.20649489240E+02 -0.26357630279E+03  0.29766206727E+03  0.12705738790E+03 0.  0.
          5    1    4    4  502    0 -0.91551126471E+01 -0.34282680416E+02 -0.42892681811E+01  0.36050049731E+02  0.47000000000E+01 0. -1.
         -5    1    4    4    0  502  0.59754101488E+02  0.13633191176E+02 -0.20110320042E+03  0.21028790685E+03  0.47000000000E+01 0. -1.
          5    1    5    5  503    0  0.10828521048E+02  0.36597897637E+02 -0.21280791227E+03  0.21625438841E+03  0.47000000000E+01 0.  1.
         -5    1    5    5    0  503 -0.61427509889E+02 -0.15948408397E+02 -0.50768390520E+02  0.81407678861E+02  0.47000000000E+01 0.  1.
<mgrwt>
<rscale>  0 0.27568881E+03</rscale>
<asrwt>0</asrwt>
<pdfrwt beam="1">  1        3 0.57716348E-02 0.27568881E+03</pdfrwt>
<pdfrwt beam="2">  1       -3 0.77920676E-01 0.27568881E+03</pdfrwt>
<totfact> 0.72689794E+02</totfact>
</mgrwt>
</event>
<event>
 9    1  0.2095749E-002  0.2748458E+03  0.7818608E-02  0.1098538E+00
          3   -1    0    0  501    0  0.00000000000E+00  0.00000000000E+00  0.81563276704E+03  0.81563276704E+03  0.00000000000E+00 0.  1.
         -3   -1    0    0    0  501 -0.00000000000E+00 -0.00000000000E+00 -0.23153871158E+02  0.23153871158E+02  0.00000000000E+00 0.  1.
         36    2    1    2    0    0 -0.17763568394E-14  0.00000000000E+00  0.79247889588E+03  0.83878663820E+03  0.27484581860E+03 0.  0.
         25    2    3    3    0    0  0.65826702887E+01  0.38588908091E+02  0.27369696262E+03  0.30388591031E+03  0.12611179072E+03 0.  0.
         25    2    3    3    0    0 -0.65826702887E+01 -0.38588908091E+02  0.51878193326E+03  0.53490072789E+03  0.12430470243E+03 0.  0.
          5    1    4    4  502    0  0.35438879791E+02  0.57540712003E+02  0.25599287269E+03  0.26480424582E+03  0.47000000000E+01 0.  1.
         -5    1    4    4    0  502 -0.28856209503E+02 -0.18951803913E+02  0.17704089937E+02  0.39081664485E+02  0.47000000000E+01 0.  1.
          5    1    5    5  503    0 -0.13126356800E+02  0.12054094854E+02  0.57421494422E+01  0.19304526045E+02  0.47000000000E+01 0. -1.
         -5    1    5    5    0  503  0.65436865117E+01 -0.50643002944E+02  0.51303978382E+03  0.51559620185E+03  0.47000000000E+01 0. -1.
<mgrwt>
<rscale>  0 0.27484582E+03</rscale>
<asrwt>0</asrwt>
<pdfrwt beam="1">  1        3 0.12548194E+00 0.27484582E+03</pdfrwt>
<pdfrwt beam="2">  1       -3 0.35621347E-02 0.27484582E+03</pdfrwt>
<totfact> 0.52617085E+02</totfact>
</mgrwt>
</event>
<event>
 9    1  0.2095749E-002  0.2761585E+03  0.7818608E-02  0.1097806E+00
          2   -1    0    0  501    0  0.00000000000E+00  0.00000000000E+00  0.89472960133E+02  0.89472960133E+02  0.00000000000E+00 0.  1.
         -2   -1    0    0    0  501 -0.00000000000E+00 -0.00000000000E+00 -0.21309088873E+03  0.21309088873E+03  0.00000000000E+00 0.  1.
         36    2    1    2    0    0  0.71054273576E-14  0.17763568394E-14 -0.12361792859E+03  0.30256384886E+03  0.27615845156E+03 0.  0.
         25    2    3    3    0    0 -0.58159165302E+02  0.13225067471E+02 -0.66494411630E+02  0.15509226410E+03  0.12678609027E+03 0.  0.
         25    2    3    3    0    0  0.58159165302E+02 -0.13225067471E+02 -0.57123516963E+02  0.14747158476E+03  0.12217766246E+03 0.  0.
          5    1    4    4  502    0 -0.89352611979E+02 -0.13142304504E+02 -0.19248118746E+02  0.92461827315E+02  0.47000000000E+01 0.  1.
         -5    1    4    4    0  502  0.31193446677E+02  0.26367371975E+02 -0.47246292884E+02  0.62630436784E+02  0.47000000000E+01 0.  1.
          5    1    5    5  503    0  0.68424389148E+02 -0.90084506130E+01 -0.89388935876E+02  0.11302885061E+03  0.47000000000E+01 0. -1.
         -5    1    5    5    0  503 -0.10265223846E+02 -0.42166168577E+01  0.32265418913E+02  0.34442734153E+02  0.47000000000E+01 0. -1.
<mgrwt>
<rscale>  0 0.27615845E+03</rscale>
<asrwt>0</asrwt>
<pdfrwt beam="1">  1        2 0.13765071E-01 0.27615845E+03</pdfrwt>
<pdfrwt beam="2">  1       -2 0.32783214E-01 0.27615845E+03</pdfrwt>
<totfact> 0.37333330E+03</totfact>
</mgrwt>
</event>
<event>
 9    1  0.2095749E-002  0.2751826E+03  0.7818608E-02  0.1098350E+00
         -2   -1    0    0    0  501 -0.00000000000E+00  0.00000000000E+00  0.18911669624E+02  0.18911669624E+02  0.00000000000E+00 0. -1.
          2   -1    0    0  501    0  0.00000000000E+00 -0.00000000000E+00 -0.10010411877E+04  0.10010411877E+04  0.00000000000E+00 0. -1.
         36    2    1    2    0    0  0.14210854715E-13  0.35527136788E-14 -0.98212951810E+03  0.10199528574E+04  0.27518255920E+03 0.  0.
         25    2    3    3    0    0  0.44223263667E+02 -0.11788907188E+02 -0.51596107672E+03  0.53565816317E+03  0.13645204174E+03 0.  0.
         25    2    3    3    0    0 -0.44223263667E+02  0.11788907188E+02 -0.46616844138E+03  0.48429469418E+03  0.12301894038E+03 0.  0.
          5    1    4    4  502    0  0.56462526141E+01  0.58466199398E+02 -0.15374075686E+03  0.16464655162E+03  0.47000000000E+01 0.  1.
         -5    1    4    4    0  502  0.38577011053E+02 -0.70255106586E+02 -0.36222031987E+03  0.37101161155E+03  0.47000000000E+01 0.  1.
          5    1    5    5  503    0 -0.70207766011E+02 -0.21662216394E+02 -0.39112636870E+03  0.39799536219E+03  0.47000000000E+01 0. -1.
         -5    1    5    5    0  503  0.25984502344E+02  0.33451123583E+02 -0.75042072679E+02  0.86299331996E+02  0.47000000000E+01 0. -1.
<mgrwt>
<rscale>  0 0.27518256E+03</rscale>
<asrwt>0</asrwt>
<pdfrwt beam="1">  1        2 0.15400632E+00 0.27518256E+03</pdfrwt>
<pdfrwt beam="2">  1       -2 0.29094879E-02 0.27518256E+03</pdfrwt>
<totfact> 0.11596229E+04</totfact>
</mgrwt>
</event>
<event>
 9    1  0.2095749E-002  0.2768758E+03  0.7818608E-02  0.1097408E+00
          4   -1    0    0  501    0  0.00000000000E+00  0.00000000000E+00  0.35733001871E+03  0.35733001871E+03  0.00000000000E+00 0.  1.
         -4   -1    0    0    0  501 -0.00000000000E+00 -0.00000000000E+00 -0.53634033190E+02  0.53634033190E+02  0.00000000000E+00 0.  1.
         36    2    1    2    0    0  0.00000000000E+00  0.00000000000E+00  0.30369598552E+03  0.41096405190E+03  0.27687578502E+03 0.  0.
         25    2    3    3    0    0 -0.36270052957E+02 -0.35220833915E+02  0.19558538659E+03  0.23676702371E+03  0.12348666399E+03 0.  0.
         25    2    3    3    0    0  0.36270052957E+02  0.35220833915E+02  0.10811059893E+03  0.17419702819E+03  0.12688845159E+03 0.  0.
          5    1    4    4  502    0 -0.68097328585E+02 -0.60089135830E+02  0.11602327880E+03  0.14741587984E+03  0.47000000000E+01 0.  1.
         -5    1    4    4    0  502  0.31827275629E+02  0.24868301914E+02  0.79562107790E+02  0.89351143865E+02  0.47000000000E+01 0.  1.
          5    1    5    5  503    0  0.48057301219E+02  0.66680695285E+02  0.27599363000E+02  0.86831066803E+02  0.47000000000E+01 0.  1.
         -5    1    5    5    0  503 -0.11787248262E+02 -0.31459861370E+02  0.80511235927E+02  0.87365961390E+02  0.47000000000E+01 0.  1.
<mgrwt>
<rscale>  0 0.27687579E+03</rscale>
<asrwt>0</asrwt>
<pdfrwt beam="1">  1        4 0.54973847E-01 0.27687579E+03</pdfrwt>
<pdfrwt beam="2">  1       -4 0.82513900E-02 0.27687579E+03</pdfrwt>
<totfact> 0.62711664E+02</totfact>
</mgrwt>
</event>
<event>
 9    1  0.2095749E-002  0.2742536E+03  0.7818608E-02  0.1098870E+00
          2   -1    0    0  501    0  0.00000000000E+00  0.00000000000E+00  0.31572591113E+03  0.31572591113E+03  0.00000000000E+00 0.  1.
         -2   -1    0    0    0  501 -0.00000000000E+00 -0.00000000000E+00 -0.59557206415E+02  0.59557206415E+02  0.00000000000E+00 0.  1.
         36    2    1    2    0    0 -0.37747582837E-14  0.35527136788E-14  0.25616870472E+03  0.37528311755E+03  0.27425355611E+03 0.  0.
         25    2    3    3    0    0 -0.16810257874E+01 -0.17295517340E+02  0.53273727118E+02  0.13736761015E+03  0.12541853750E+03 0.  0.
         25    2    3    3    0    0  0.16810257874E+01  0.17295517340E+02  0.20289497760E+03  0.23791550740E+03  0.12302624093E+03 0.  0.
          5    1    4    4  502    0  0.52397571635E+02  0.57569101615E+01 -0.65938010926E+01  0.53331189193E+02  0.47000000000E+01 0. -1.
         -5    1    4    4    0  502 -0.54078597423E+02 -0.23052427502E+02  0.59867528211E+02  0.84036420956E+02  0.47000000000E+01 0. -1.
          5    1    5    5  503    0  0.30559295637E+01  0.16857091249E+02  0.21969436898E+03  0.22041144705E+03  0.47000000000E+01 0. -1.
         -5    1    5    5    0  503 -0.13749037764E+01  0.43842609182E+00 -0.16799391380E+02  0.17504060345E+02  0.47000000000E+01 0. -1.
<mgrwt>
<rscale>  0 0.27425356E+03</rscale>
<asrwt>0</asrwt>
<pdfrwt beam="1">  1        2 0.48573216E-01 0.27425356E+03</pdfrwt>
<pdfrwt beam="2">  1       -2 0.91626474E-02 0.27425356E+03</pdfrwt>
<totfact> 0.78306997E+03</totfact>
</mgrwt>
</event>
<event>
 9    1  0.2095749E-002  0.2745531E+03  0.7818608E-02  0.1098702E+00
         -1   -1    0    0    0  501 -0.00000000000E+00  0.00000000000E+00  0.36000734789E+03  0.36000734789E+03  0.00000000000E+00 0. -1.
          1   -1    0    0  501    0  0.00000000000E+00 -0.00000000000E+00 -0.52345734172E+02  0.52345734172E+02  0.00000000000E+00 0. -1.
         36    2    1    2    0    0  0.00000000000E+00  0.00000000000E+00  0.30766161372E+03  0.41235308206E+03  0.27455308363E+03 0.  0.
         25    2    3    3    0    0  0.58977014529E+02 -0.16119371082E+01  0.11110902912E+03  0.17212922158E+03  0.11748347112E+03 0.  0.
         25    2    3    3    0    0 -0.58977014529E+02  0.16119371082E+01  0.19655258461E+03  0.24022386048E+03  0.12487472941E+03 0.  0.
          5    1    4    4  502    0  0.19919681607E+02  0.99361537265E+01  0.12635523278E+03  0.12838713221E+03  0.47000000000E+01 0. -1.
         -5    1    4    4    0  502  0.39057332922E+02 -0.11548090835E+02 -0.15246203661E+02  0.43742089376E+02  0.47000000000E+01 0. -1.
          5    1    5    5  503    0  0.99799366511E+01  0.28860507612E+02  0.14864624918E+03  0.15182333625E+03  0.47000000000E+01 0.  1.
         -5    1    5    5    0  503 -0.68956951180E+02 -0.27248570503E+02  0.47906335426E+02  0.88400524232E+02  0.47000000000E+01 0.  1.
<mgrwt>
<rscale>  0 0.27455308E+03</rscale>
<asrwt>0</asrwt>
<pdfrwt beam="1">  1        1 0.80531901E-02 0.27455308E+03</pdfrwt>
<pdfrwt beam="2">  1       -1 0.55385744E-01 0.27455308E+03</pdfrwt>
<totfact> 0.29099456E+03</totfact>
</mgrwt>
</event>
<event>
 9    1  0.2095749E-002  0.2742005E+03  0.7818608E-02  0.1098899E+00
         -2   -1    0    0    0  501 -0.00000000000E+00  0.00000000000E+00  0.94649581893E+01  0.94649581893E+01  0.00000000000E+00 0.  1.
          2   -1    0    0  501    0  0.00000000000E+00 -0.00000000000E+00 -0.19859018186E+04  0.19859018186E+04  0.00000000000E+00 0.  1.
         36    2    1    2    0    0 -0.71054273576E-14  0.35527136788E-14 -0.19764368605E+04  0.19953667768E+04  0.27420049366E+03 0.  0.
         25    2    3    3    0    0  0.18166259800E+02  0.31292763562E+02 -0.12920215292E+04  0.12987591542E+04  0.12706871631E+03 0.  0.
         25    2    3    3    0    0 -0.18166259800E+02 -0.31292763562E+02 -0.68441533122E+03  0.69660762260E+03  0.12461374002E+03 0.  0.
          5    1    4    4  502    0  0.62749667214E+02 -0.17784597888E+02 -0.68137381832E+03  0.68450433377E+03  0.47000000000E+01 0.  1.
         -5    1    4    4    0  502 -0.44583407415E+02  0.49077361450E+02 -0.61064771092E+03  0.61425482047E+03  0.47000000000E+01 0.  1.
          5    1    5    5  503    0 -0.51912370439E+02  0.29600265396E+02 -0.32496339056E+03  0.33044570676E+03  0.47000000000E+01 0.  1.
         -5    1    5    5    0  503  0.33746110640E+02 -0.60893028957E+02 -0.35945194066E+03  0.36616191583E+03  0.47000000000E+01 0.  1.
<mgrwt>
<rscale>  0 0.27420049E+03</rscale>
<asrwt>0</asrwt>
<pdfrwt beam="1">  1        2 0.30552313E+00 0.27420049E+03</pdfrwt>
<pdfrwt beam="2">  1       -2 0.14561485E-02 0.27420049E+03</pdfrwt>
<totfact> 0.93118143E+03</totfact>
</mgrwt>
</event>
<event>
 9    1  0.2095749E-002  0.2741304E+03  0.7818608E-02  0.1098939E+00
          1   -1    0    0  501    0  0.00000000000E+00  0.00000000000E+00  0.42208491297E+02  0.42208491297E+02  0.00000000000E+00 0. -1.
         -1   -1    0    0    0  501 -0.00000000000E+00 -0.00000000000E+00 -0.44509691817E+03  0.44509691817E+03  0.00000000000E+00 0. -1.
         36    2    1    2    0    0  0.00000000000E+00 -0.14210854715E-13 -0.40288842687E+03  0.48730540947E+03  0.27413040252E+03 0.  0.
         25    2    3    3    0    0 -0.16703439240E+02  0.32765990833E+02 -0.27721109376E+03  0.30398829708E+03  0.11920687572E+03 0.  0.
         25    2    3    3    0    0  0.16703439240E+02 -0.32765990833E+02 -0.12567733311E+03  0.18331711239E+03  0.12828778819E+03 0.  0.
          5    1    4    4  502    0 -0.59357999841E+02  0.40319848863E+02 -0.11176429793E+03  0.13290000244E+03  0.47000000000E+01 0. -1.
         -5    1    4    4    0  502  0.42654560601E+02 -0.75538580306E+01 -0.16544679583E+03  0.17108829464E+03  0.47000000000E+01 0. -1.
          5    1    5    5  503    0 -0.11636090131E+02  0.43619243736E+02 -0.73721129237E+02  0.86573274824E+02  0.47000000000E+01 0.  1.
         -5    1    5    5    0  503  0.28339529370E+02 -0.76385234569E+02 -0.51956203874E+02  0.96743837562E+02  0.47000000000E+01 0.  1.
<mgrwt>
<rscale>  0 0.27413040E+03</rscale>
<asrwt>0</asrwt>
<pdfrwt beam="1">  1        1 0.64936141E-02 0.27413040E+03</pdfrwt>
<pdfrwt beam="2">  1       -1 0.68476448E-01 0.27413040E+03</pdfrwt>
<totfact> 0.25888253E+03</totfact>
</mgrwt>
</event>
<event>
 9    1  0.2095749E-002  0.2747935E+03  0.7818608E-02  0.1098567E+00
         -2   -1    0    0    0  501 -0.00000000000E+00  0.00000000000E+00  0.56912543569E+01  0.56912543569E+01  0.00000000000E+00 0.  1.
          2   -1    0    0  501    0  0.00000000000E+00 -0.00000000000E+00 -0.33169958516E+04  0.33169958516E+04  0.00000000000E+00 0.  1.
         36    2    1    2    0    0  0.00000000000E+00  0.71054273576E-14 -0.33113045973E+04  0.33226871060E+04  0.27479350132E+03 0.  0.
         25    2    3    3    0    0  0.12963482073E+02  0.37011313510E+01 -0.10325902923E+04  0.10407193427E+04  0.12912121567E+03 0.  0.
         25    2    3    3    0    0 -0.12963482073E+02 -0.37011313510E+01 -0.22787143050E+04  0.22819677633E+04  0.12106295312E+03 0.  0.
          5    1    4    4  502    0  0.20575924914E+02  0.63426312814E+02 -0.43823970938E+03  0.44330846904E+03  0.47000000000E+01 0. -1.
         -5    1    4    4    0  502 -0.76124428404E+01 -0.59725181463E+02 -0.59435058288E+03  0.59741087365E+03  0.47000000000E+01 0. -1.
          5    1    5    5  503    0  0.47693473993E+02  0.15438589706E+02 -0.14180482099E+04  0.14189418005E+04  0.47000000000E+01 0.  1.
         -5    1    5    5    0  503 -0.60656956067E+02 -0.19139721057E+02 -0.86066609505E+03  0.86302596276E+03  0.47000000000E+01 0.  1.
<mgrwt>
<rscale>  0 0.27479350E+03</rscale>
<asrwt>0</asrwt>
<pdfrwt beam="1">  1        2 0.51030656E+00 0.27479350E+03</pdfrwt>
<pdfrwt beam="2">  1       -2 0.87557845E-03 0.27479350E+03</pdfrwt>
<totfact> 0.34456117E+03</totfact>
</mgrwt>
</event>
<event>
 9    1  0.2095749E-002  0.2768006E+03  0.7818608E-02  0.1097449E+00
         -2   -1    0    0    0  501 -0.00000000000E+00  0.00000000000E+00  0.25422928456E+02  0.25422928456E+02  0.00000000000E+00 0. -1.
          2   -1    0    0  501    0  0.00000000000E+00 -0.00000000000E+00 -0.75343961004E+03  0.75343961004E+03  0.00000000000E+00 0. -1.
         36    2    1    2    0    0  0.71054273576E-14  0.00000000000E+00 -0.72801668159E+03  0.77886253850E+03  0.27680058744E+03 0.  0.
         25    2    3    3    0    0 -0.19249840793E+02  0.54192375445E+02 -0.34803957485E+03  0.37446730454E+03  0.12564571853E+03 0.  0.
         25    2    3    3    0    0  0.19249840793E+02 -0.54192375445E+02 -0.37997710674E+03  0.40439523396E+03  0.12587904382E+03 0.  0.
          5    1    4    4  502    0 -0.52387991023E+02  0.56013002616E+02 -0.32458783104E+03  0.33355855277E+03  0.47000000000E+01 0. -1.
         -5    1    4    4    0  502  0.33138150230E+02 -0.18206271708E+01 -0.23451743803E+02  0.40908751769E+02  0.47000000000E+01 0. -1.
          5    1    5    5  503    0  0.70897780824E+02 -0.47525411641E+02 -0.21674164334E+03  0.23298967796E+03  0.47000000000E+01 0. -1.
         -5    1    5    5    0  503 -0.51647940031E+02 -0.66669638040E+01 -0.16323546340E+03  0.17140555600E+03  0.47000000000E+01 0. -1.
<mgrwt>
<rscale>  0 0.27680059E+03</rscale>
<asrwt>0</asrwt>
<pdfrwt beam="1">  1        2 0.11591377E+00 0.27680059E+03</pdfrwt>
<pdfrwt beam="2">  1       -2 0.39112202E-02 0.27680059E+03</pdfrwt>
<totfact> 0.10848301E+04</totfact>
</mgrwt>
</event>
<event>
 9    1  0.2095749E-002  0.2778310E+03  0.7818608E-02  0.1096880E+00
          2   -1    0    0  501    0  0.00000000000E+00  0.00000000000E+00  0.33445364635E+03  0.33445364635E+03  0.00000000000E+00 0.  1.
         -2   -1    0    0    0  501 -0.00000000000E+00 -0.00000000000E+00 -0.57698626808E+02  0.57698626808E+02  0.00000000000E+00 0.  1.
         36    2    1    2    0    0  0.71054273576E-14  0.14210854715E-13  0.27675501954E+03  0.39215227316E+03  0.27783099989E+03 0.  0.
         25    2    3    3    0    0 -0.33187974286E+02 -0.44554110607E+02  0.14257091783E+03  0.20059921560E+03  0.12971919010E+03 0.  0.
         25    2    3    3    0    0  0.33187974286E+02  0.44554110607E+02  0.13418410171E+03  0.19155305756E+03  0.12490272334E+03 0.  0.
          5    1    4    4  502    0 -0.27604813970E+02  0.41417914992E+02  0.78748050337E+02  0.93278158582E+02  0.47000000000E+01 0.  1.
         -5    1    4    4    0  502 -0.55831603168E+01 -0.85972025600E+02  0.63822867490E+02  0.10732105702E+03  0.47000000000E+01 0.  1.
          5    1    5    5  503    0 -0.30404391593E+02  0.11914133588E+02 -0.65509625654E+01  0.33635973567E+02  0.47000000000E+01 0.  1.
         -5    1    5    5    0  503  0.63592365879E+02  0.32639977020E+02  0.14073506428E+03  0.15791708399E+03  0.47000000000E+01 0.  1.
<mgrwt>
<rscale>  0 0.27783100E+03</rscale>
<asrwt>0</asrwt>
<pdfrwt beam="1">  1        2 0.51454406E-01 0.27783100E+03</pdfrwt>
<pdfrwt beam="2">  1       -2 0.88767121E-02 0.27783100E+03</pdfrwt>
<totfact> 0.77406339E+03</totfact>
</mgrwt>
</event>
<event>
 9    1  0.2095749E-002  0.2737032E+03  0.7818608E-02  0.1099179E+00
          1   -1    0    0  501    0  0.00000000000E+00  0.00000000000E+00  0.90202315643E+03  0.90202315643E+03  0.00000000000E+00 0. -1.
         -1   -1    0    0    0  501 -0.00000000000E+00 -0.00000000000E+00 -0.20762613993E+02  0.20762613993E+02  0.00000000000E+00 0. -1.
         36    2    1    2    0    0  0.00000000000E+00  0.00000000000E+00  0.88126054244E+03  0.92278577042E+03  0.27370318675E+03 0.  0.
         25    2    3    3    0    0 -0.56787353209E+02 -0.99919938256E+01  0.42276136144E+03  0.44423245925E+03  0.12365543135E+03 0.  0.
         25    2    3    3    0    0  0.56787353209E+02  0.99919938256E+01  0.45849918100E+03  0.47855331117E+03  0.12436691374E+03 0.  0.
          5    1    4    4  502    0 -0.75391785343E+02 -0.67970853808E+01  0.12765569037E+03  0.14848631907E+03  0.47000000000E+01 0. -1.
         -5    1    4    4    0  502  0.18604432134E+02 -0.31949084447E+01  0.29510567107E+03  0.29574614019E+03  0.47000000000E+01 0. -1.
          5    1    5    5  503    0  0.88589436113E+01 -0.39609510266E+02  0.51577553647E+02  0.65800670404E+02  0.47000000000E+01 0.  1.
         -5    1    5    5    0  503  0.47928409597E+02  0.49601504091E+02  0.40692162735E+03  0.41275264077E+03  0.47000000000E+01 0.  1.
<mgrwt>
<rscale>  0 0.27370319E+03</rscale>
<asrwt>0</asrwt>
<pdfrwt beam="1">  1        1 0.13877276E+00 0.27370319E+03</pdfrwt>
<pdfrwt beam="2">  1       -1 0.31942490E-02 0.27370319E+03</pdfrwt>
<totfact> 0.65309178E+03</totfact>
</mgrwt>
</event>
<event>
 9    1  0.2095749E-002  0.2757902E+03  0.7818608E-02  0.1098011E+00
         -2   -1    0    0    0  501 -0.00000000000E+00  0.00000000000E+00  0.11150320424E+02  0.11150320424E+02  0.00000000000E+00 0. -1.
          2   -1    0    0  501    0  0.00000000000E+00 -0.00000000000E+00 -0.17053376923E+04  0.17053376923E+04  0.00000000000E+00 0. -1.
         36    2    1    2    0    0  0.00000000000E+00 -0.71054273576E-14 -0.16941873719E+04  0.17164880128E+04  0.27579022246E+03 0.  0.
         25    2    3    3    0    0  0.52345541511E+02  0.37304203808E+02 -0.10435071759E+04  0.10527177363E+04  0.12318988143E+03 0.  0.
         25    2    3    3    0    0 -0.52345541511E+02 -0.37304203808E+02 -0.65068019601E+03  0.66377027643E+03  0.11434423053E+03 0.  0.
          5    1    4    4  502    0  0.49863587348E+02 -0.17091816864E+02 -0.84984060787E+03  0.85148673291E+03  0.47000000000E+01 0.  1.
         -5    1    4    4    0  502  0.24819541629E+01  0.54396020673E+02 -0.19366656803E+03  0.20123100341E+03  0.47000000000E+01 0.  1.
          5    1    5    5  503    0 -0.56751960225E+02  0.24861699810E+02 -0.22102265419E+03  0.22959092485E+03  0.47000000000E+01 0. -1.
         -5    1    5    5    0  503  0.44064187147E+01 -0.62165903619E+02 -0.42965754181E+03  0.43417935158E+03  0.47000000000E+01 0. -1.
<mgrwt>
<rscale>  0 0.27579022E+03</rscale>
<asrwt>0</asrwt>
<pdfrwt beam="1">  1        2 0.26235955E+00 0.27579022E+03</pdfrwt>
<pdfrwt beam="2">  1       -2 0.17154345E-02 0.27579022E+03</pdfrwt>
<totfact> 0.10285758E+04</totfact>
</mgrwt>
</event>
<event>
 9    1  0.2095749E-002  0.2758420E+03  0.7818608E-02  0.1097982E+00
         -2   -1    0    0    0  501 -0.00000000000E+00  0.00000000000E+00  0.18370935236E+02  0.18370935236E+02  0.00000000000E+00 0.  1.
          2   -1    0    0  501    0  0.00000000000E+00 -0.00000000000E+00 -0.10354509287E+04  0.10354509287E+04  0.00000000000E+00 0.  1.
         36    2    1    2    0    0  0.71054273576E-14  0.00000000000E+00 -0.10170799935E+04  0.10538218640E+04  0.27584199790E+03 0.  0.
         25    2    3    3    0    0  0.44621566003E+02 -0.41054824993E+02 -0.57065964535E+03  0.58605567501E+03  0.11887910062E+03 0.  0.
         25    2    3    3    0    0 -0.44621566003E+02  0.41054824993E+02 -0.44642034813E+03  0.46776618895E+03  0.12584711952E+03 0.  0.
          5    1    4    4  502    0 -0.87604073781E+00 -0.98829806074E+01 -0.47797327947E+03  0.47809934808E+03  0.47000000000E+01 0.  1.
         -5    1    4    4    0  502  0.45497606740E+02 -0.31171844386E+02 -0.92686365887E+02  0.10795632692E+03  0.47000000000E+01 0.  1.
          5    1    5    5  503    0 -0.63336704688E+02  0.11276115303E+02 -0.96635200232E+02  0.11618580318E+03  0.47000000000E+01 0.  1.
         -5    1    5    5    0  503  0.18715138685E+02  0.29778709690E+02 -0.34978514790E+03  0.35158038577E+03  0.47000000000E+01 0.  1.
<mgrwt>
<rscale>  0 0.27584200E+03</rscale>
<asrwt>0</asrwt>
<pdfrwt beam="1">  1        2 0.15930019E+00 0.27584200E+03</pdfrwt>
<pdfrwt beam="2">  1       -2 0.28262968E-02 0.27584200E+03</pdfrwt>
<totfact> 0.11538953E+04</totfact>
</mgrwt>
</event>
<event>
 9    1  0.2095749E-002  0.2769766E+03  0.7818608E-02  0.1097352E+00
          2   -1    0    0  501    0  0.00000000000E+00  0.00000000000E+00  0.15423154370E+03  0.15423154370E+03  0.00000000000E+00 0. -1.
         -2   -1    0    0    0  501 -0.00000000000E+00 -0.00000000000E+00 -0.12435204529E+03  0.12435204529E+03  0.00000000000E+00 0. -1.
         36    2    1    2    0    0 -0.71054273576E-14  0.00000000000E+00  0.29879498412E+02  0.27858358899E+03  0.27697659040E+03 0.  0.
         25    2    3    3    0    0  0.48151530475E+02 -0.55248853210E+02  0.35588866013E+02  0.14992455661E+03  0.12585626572E+03 0.  0.
         25    2    3    3    0    0 -0.48151530475E+02  0.55248853210E+02 -0.57093676016E+01  0.12865903238E+03  0.10559140148E+03 0.  0.
          5    1    4    4  502    0  0.32013692251E+02  0.21945592500E+02  0.56027632577E+02  0.68320356658E+02  0.47000000000E+01 0. -1.
         -5    1    4    4    0  502  0.16137838224E+02 -0.77194445710E+02 -0.20438766563E+02  0.81604199951E+02  0.47000000000E+01 0. -1.
          5    1    5    5  503    0 -0.67516808702E+02  0.36928660735E+02  0.30957755633E+02  0.83082597906E+02  0.47000000000E+01 0.  1.
         -5    1    5    5    0  503  0.19365278227E+02  0.18320192475E+02 -0.36667123235E+02  0.45576434475E+02  0.47000000000E+01 0.  1.
<mgrwt>
<rscale>  0 0.27697659E+03</rscale>
<asrwt>0</asrwt>
<pdfrwt beam="1">  1        2 0.23727930E-01 0.27697659E+03</pdfrwt>
<pdfrwt beam="2">  1       -2 0.19131084E-01 0.27697659E+03</pdfrwt>
<totfact> 0.51445756E+03</totfact>
</mgrwt>
</event>
<event>
 9    1  0.2095749E-002  0.2743890E+03  0.7818608E-02  0.1098794E+00
         -2   -1    0    0    0  501 -0.00000000000E+00  0.00000000000E+00  0.47210653987E+02  0.47210653987E+02  0.00000000000E+00 0.  1.
          2   -1    0    0  501    0  0.00000000000E+00 -0.00000000000E+00 -0.39868827149E+03  0.39868827149E+03  0.00000000000E+00 0.  1.
         36    2    1    2    0    0  0.00000000000E+00  0.00000000000E+00 -0.35147761751E+03  0.44589892548E+03  0.27438902335E+03 0.  0.
         25    2    3    3    0    0 -0.52105359307E+02 -0.24847330301E+02 -0.15809978735E+03  0.21003905162E+03  0.12565230660E+03 0.  0.
         25    2    3    3    0    0  0.52105359307E+02  0.24847330301E+02 -0.19337783015E+03  0.23585987386E+03  0.12207594607E+03 0.  0.
          5    1    4    4  502    0 -0.37930021259E+02 -0.69138055815E+02 -0.53327328735E+02  0.95313436957E+02  0.47000000000E+01 0.  1.
         -5    1    4    4    0  502 -0.14175338048E+02  0.44290725514E+02 -0.10477245862E+03  0.11472561467E+03  0.47000000000E+01 0.  1.
          5    1    5    5  503    0  0.44432028519E+02  0.64027178913E+02 -0.65821100681E+02  0.10211851983E+03  0.47000000000E+01 0.  1.
         -5    1    5    5    0  503  0.76733307879E+01 -0.39179848612E+02 -0.12755672947E+03  0.13374135402E+03  0.47000000000E+01 0.  1.
<mgrwt>
<rscale>  0 0.27438902E+03</rscale>
<asrwt>0</asrwt>
<pdfrwt beam="1">  1        2 0.61336654E-01 0.27438902E+03</pdfrwt>
<pdfrwt beam="2">  1       -2 0.72631779E-02 0.27438902E+03</pdfrwt>
<totfact> 0.87543347E+03</totfact>
</mgrwt>
</event>
<event>
 9    1  0.2095749E-002  0.2751966E+03  0.7818608E-02  0.1098342E+00
          1   -1    0    0  501    0  0.00000000000E+00  0.00000000000E+00  0.38109163336E+03  0.38109163336E+03  0.00000000000E+00 0. -1.
         -1   -1    0    0    0  501 -0.00000000000E+00 -0.00000000000E+00 -0.49681746912E+02  0.49681746912E+02  0.00000000000E+00 0. -1.
         36    2    1    2    0    0  0.71054273576E-14 -0.88817841970E-15  0.33140988645E+03  0.43077338027E+03  0.27519664300E+03 0.  0.
         25    2    3    3    0    0 -0.41114704239E+02  0.38724527803E-01  0.23458703776E+03  0.26797622772E+03  0.12284038398E+03 0.  0.
         25    2    3    3    0    0  0.41114704239E+02 -0.38724527803E-01  0.96822848691E+02  0.16279715255E+03  0.12424905813E+03 0.  0.
          5    1    4    4  502    0  0.25664843459E+02  0.66319950382E+01  0.33208059147E+01  0.27125362668E+02  0.47000000000E+01 0.  1.
         -5    1    4    4    0  502 -0.66779547699E+02 -0.65932705104E+01  0.23126623184E+03  0.24085086505E+03  0.47000000000E+01 0.  1.
          5    1    5    5  503    0 -0.37977546517E+02 -0.97112519903E+01  0.29702287870E+01  0.39591851608E+02  0.47000000000E+01 0. -1.
         -5    1    5    5    0  503  0.79092250757E+02  0.96725274625E+01  0.93852619904E+02  0.12320530094E+03  0.47000000000E+01 0.  1.
<mgrwt>
<rscale>  0 0.27519664E+03</rscale>
<asrwt>0</asrwt>
<pdfrwt beam="1">  1        1 0.58629480E-01 0.27519664E+03</pdfrwt>
<pdfrwt beam="2">  1       -1 0.76433459E-02 0.27519664E+03</pdfrwt>
<totfact> 0.59219081E+03</totfact>
</mgrwt>
</event>
<event>
 9    1  0.2095749E-002  0.2729166E+03  0.7818608E-02  0.1099622E+00
          1   -1    0    0  501    0  0.00000000000E+00  0.00000000000E+00  0.50383425512E+02  0.50383425512E+02  0.00000000000E+00 0.  1.
         -1   -1    0    0    0  501 -0.00000000000E+00 -0.00000000000E+00 -0.36958331426E+03  0.36958331426E+03  0.00000000000E+00 0.  1.
         36    2    1    2    0    0  0.00000000000E+00  0.00000000000E+00 -0.31919988875E+03  0.41996673977E+03  0.27291664211E+03 0.  0.
         25    2    3    3    0    0 -0.63174852463E+02 -0.91245630182E+01 -0.11149986706E+03  0.17237113665E+03  0.11491417998E+03 0.  0.
         25    2    3    3    0    0  0.63174852463E+02  0.91245630182E+01 -0.20770002169E+03  0.24759560312E+03  0.11870115435E+03 0.  0.
          5    1    4    4  502    0 -0.67101768182E+02 -0.47816143488E+02 -0.42024881732E+02  0.92613236396E+02  0.47000000000E+01 0. -1.
         -5    1    4    4    0  502  0.39269157190E+01  0.38691580469E+02 -0.69474985330E+02  0.79757900254E+02  0.47000000000E+01 0. -1.
          5    1    5    5  503    0  0.18694870475E+02  0.18270320490E+02  0.75068117465E+01  0.27599728540E+02  0.47000000000E+01 0.  1.
         -5    1    5    5    0  503  0.44479981988E+02 -0.91457574717E+01 -0.21520683343E+03  0.21999587458E+03  0.47000000000E+01 0.  1.
<mgrwt>
<rscale>  0 0.27291664E+03</rscale>
<asrwt>0</asrwt>
<pdfrwt beam="1">  1        1 0.77512960E-02 0.27291664E+03</pdfrwt>
<pdfrwt beam="2">  1       -1 0.56858973E-01 0.27291664E+03</pdfrwt>
<totfact> 0.29160822E+03</totfact>
</mgrwt>
</event>
<event>
 9    1  0.2095749E-002  0.2739913E+03  0.7818608E-02  0.1099017E+00
         -1   -1    0    0    0  501 -0.00000000000E+00  0.00000000000E+00  0.16207734698E+02  0.16207734698E+02  0.00000000000E+00 0.  1.
          1   -1    0    0  501    0  0.00000000000E+00 -0.00000000000E+00 -0.11579537211E+04  0.11579537211E+04  0.00000000000E+00 0.  1.
         36    2    1    2    0    0  0.53290705182E-14 -0.35527136788E-14 -0.11417459864E+04  0.11741614558E+04  0.27399128967E+03 0.  0.
         25    2    3    3    0    0 -0.10940588663E+02 -0.93072840436E+01 -0.77110198677E+03  0.78142436027E+03  0.12577533465E+03 0.  0.
         25    2    3    3    0    0  0.10940588663E+02  0.93072840436E+01 -0.37064399959E+03  0.39273709549E+03  0.12907025111E+03 0.  0.
          5    1    4    4  502    0  0.51734706670E+02 -0.29937925183E+02 -0.33262639464E+03  0.33798693414E+03  0.47000000000E+01 0.  1.
         -5    1    4    4    0  502 -0.62675295333E+02  0.20630641140E+02 -0.43847559213E+03  0.44343742613E+03  0.47000000000E+01 0.  1.
          5    1    5    5  503    0 -0.64148086657E+01  0.40442829507E+02 -0.31977135410E+02  0.52167033822E+02  0.47000000000E+01 0. -1.
         -5    1    5    5    0  503  0.17355397329E+02 -0.31135545464E+02 -0.33866686418E+03  0.34057006166E+03  0.47000000000E+01 0. -1.
<mgrwt>
<rscale>  0 0.27399129E+03</rscale>
<asrwt>0</asrwt>
<pdfrwt beam="1">  1        1 0.17814677E+00 0.27399129E+03</pdfrwt>
<pdfrwt beam="2">  1       -1 0.24934971E-02 0.27399129E+03</pdfrwt>
<totfact> 0.60761952E+03</totfact>
</mgrwt>
</event>
<event>
 9    1  0.2095749E-002  0.2746457E+03  0.7818608E-02  0.1098650E+00
         -3   -1    0    0    0  501 -0.00000000000E+00  0.00000000000E+00  0.18370446597E+03  0.18370446597E+03  0.00000000000E+00 0. -1.
          3   -1    0    0  501    0  0.00000000000E+00 -0.00000000000E+00 -0.10265167860E+03  0.10265167860E+03  0.00000000000E+00 0. -1.
         36    2    1    2    0    0  0.00000000000E+00 -0.35527136788E-14  0.81052787369E+02  0.28635614458E+03  0.27464574855E+03 0.  0.
         25    2    3    3    0    0 -0.88346216638E+01  0.29244756312E+02 -0.15906347755E+02  0.12695576247E+03  0.12219430189E+03 0.  0.
         25    2    3    3    0    0  0.88346216638E+01 -0.29244756312E+02  0.96959135123E+02  0.15940038210E+03  0.12277663303E+03 0.  0.
          5    1    4    4  502    0  0.38147902400E+02  0.39744409892E+02  0.27691615060E+02  0.61836850824E+02  0.47000000000E+01 0. -1.
         -5    1    4    4    0  502 -0.46982524064E+02 -0.10499653580E+02 -0.43597962815E+02  0.65118911649E+02  0.47000000000E+01 0. -1.
          5    1    5    5  503    0 -0.38588336190E+02 -0.55300097861E+02  0.32180921951E+02  0.74865627967E+02  0.47000000000E+01 0. -1.
         -5    1    5    5    0  503  0.47422957854E+02  0.26055341549E+02  0.64778213173E+02  0.84534754135E+02  0.47000000000E+01 0. -1.
<mgrwt>
<rscale>  0 0.27464575E+03</rscale>
<asrwt>0</asrwt>
<pdfrwt beam="1">  1        3 0.15792566E-01 0.27464575E+03</pdfrwt>
<pdfrwt beam="2">  1       -3 0.28262226E-01 0.27464575E+03</pdfrwt>
<totfact> 0.10357368E+03</totfact>
</mgrwt>
</event>
<event>
 9    1  0.2095749E-002  0.2753854E+03  0.7818608E-02  0.1098236E+00
          3   -1    0    0  501    0  0.00000000000E+00  0.00000000000E+00  0.11518749504E+03  0.11518749504E+03  0.00000000000E+00 0. -1.
         -3   -1    0    0    0  501 -0.00000000000E+00 -0.00000000000E+00 -0.16459492572E+03  0.16459492572E+03  0.00000000000E+00 0. -1.
         36    2    1    2    0    0  0.00000000000E+00 -0.10658141036E-13 -0.49407430681E+02  0.27978242076E+03  0.27538538226E+03 0.  0.
         25    2    3    3    0    0  0.17017561390E+02  0.28468419818E+02 -0.74381442067E+02  0.15081760011E+03  0.12693817887E+03 0.  0.
         25    2    3    3    0    0 -0.17017561390E+02 -0.28468419818E+02  0.24974011386E+02  0.12896482065E+03  0.12209903931E+03 0.  0.
          5    1    4    4  502    0 -0.46116535549E+02  0.23488187499E+02  0.13500688751E+01  0.51984059951E+02  0.47000000000E+01 0. -1.
         -5    1    4    4    0  502  0.63134096939E+02  0.49802323183E+01 -0.75731510942E+02  0.98833540157E+02  0.47000000000E+01 0. -1.
          5    1    5    5  503    0 -0.14125665443E+02 -0.58480785050E+02 -0.29007104838E+02  0.66955498470E+02  0.47000000000E+01 0.  1.
         -5    1    5    5    0  503 -0.28918959473E+01  0.30012365232E+02  0.53981116224E+02  0.62009322185E+02  0.47000000000E+01 0.  1.
<mgrwt>
<rscale>  0 0.27538538E+03</rscale>
<asrwt>0</asrwt>
<pdfrwt beam="1">  1        3 0.17721153E-01 0.27538538E+03</pdfrwt>
<pdfrwt beam="2">  1       -3 0.25322296E-01 0.27538538E+03</pdfrwt>
<totfact> 0.10371161E+03</totfact>
</mgrwt>
</event>
<event>
 9    1  0.2095749E-002  0.2752769E+03  0.7818608E-02  0.1098297E+00
         -2   -1    0    0    0  501 -0.00000000000E+00  0.00000000000E+00  0.69486886619E+02  0.69486886619E+02  0.00000000000E+00 0.  1.
          2   -1    0    0  501    0  0.00000000000E+00 -0.00000000000E+00 -0.27263188859E+03  0.27263188859E+03  0.00000000000E+00 0.  1.
         36    2    1    2    0    0  0.17763568394E-14 -0.35527136788E-14 -0.20314500197E+03  0.34211877521E+03  0.27527688702E+03 0.  0.
         25    2    3    3    0    0  0.11233496736E+02 -0.30394811633E+02 -0.37894527042E+02  0.13358448745E+03  0.12393056154E+03 0.  0.
         25    2    3    3    0    0 -0.11233496736E+02  0.30394811633E+02 -0.16525047493E+03  0.20853428776E+03  0.12299916132E+03 0.  0.
          5    1    4    4  502    0  0.65555468079E+02 -0.27248028169E+02 -0.87645712929E+01  0.71685996848E+02  0.47000000000E+01 0.  1.
         -5    1    4    4    0  502 -0.54321971343E+02 -0.31467834640E+01 -0.29129955750E+02  0.61898490601E+02  0.47000000000E+01 0.  1.
          5    1    5    5  503    0 -0.26800685219E+02 -0.34339526297E+02 -0.12038870088E+03  0.12811326666E+03  0.47000000000E+01 0.  1.
         -5    1    5    5    0  503  0.15567188482E+02  0.64734337929E+02 -0.44861774050E+02  0.80421021104E+02  0.47000000000E+01 0.  1.
<mgrwt>
<rscale>  0 0.27527689E+03</rscale>
<asrwt>0</asrwt>
<pdfrwt beam="1">  1        2 0.41943368E-01 0.27527689E+03</pdfrwt>
<pdfrwt beam="2">  1       -2 0.10690290E-01 0.27527689E+03</pdfrwt>
<totfact> 0.71788955E+03</totfact>
</mgrwt>
</event>
<event>
 9    1  0.2095749E-002  0.2769307E+03  0.7818608E-02  0.1097377E+00
         -1   -1    0    0    0  501 -0.00000000000E+00  0.00000000000E+00  0.20133818286E+03  0.20133818286E+03  0.00000000000E+00 0.  1.
          1   -1    0    0  501    0  0.00000000000E+00 -0.00000000000E+00 -0.95226144330E+02  0.95226144330E+02  0.00000000000E+00 0.  1.
         36    2    1    2    0    0  0.71054273576E-14 -0.71054273576E-14  0.10611203853E+03  0.29656432719E+03  0.27693074123E+03 0.  0.
         25    2    3    3    0    0 -0.52954149840E+02  0.24242358941E+02  0.54956341972E+02  0.14873399558E+03  0.12533861322E+03 0.  0.
         25    2    3    3    0    0  0.52954149840E+02 -0.24242358941E+02  0.51155696559E+02  0.14783033161E+03  0.12587719294E+03 0.  0.
          5    1    4    4  502    0  0.23048444901E+02  0.47758669926E+02  0.42391490509E+02  0.68053286717E+02  0.47000000000E+01 0. -1.
         -5    1    4    4    0  502 -0.76002594741E+02 -0.23516310985E+02  0.12564851463E+02  0.80680708859E+02  0.47000000000E+01 0. -1.
          5    1    5    5  503    0  0.38212400057E+01  0.40033657015E+02  0.53088946080E+02  0.66766921189E+02  0.47000000000E+01 0.  1.
         -5    1    5    5    0  503  0.49132909834E+02 -0.64276015956E+02 -0.19332495213E+01  0.81063410424E+02  0.47000000000E+01 0.  1.
<mgrwt>
<rscale>  0 0.27693074E+03</rscale>
<asrwt>0</asrwt>
<pdfrwt beam="1">  1        1 0.14650176E-01 0.27693074E+03</pdfrwt>
<pdfrwt beam="2">  1       -1 0.30975105E-01 0.27693074E+03</pdfrwt>
<totfact> 0.36996166E+03</totfact>
</mgrwt>
</event>
<event>
 9    1  0.2095749E-002  0.2756613E+03  0.7818608E-02  0.1098083E+00
          2   -1    0    0  501    0  0.00000000000E+00  0.00000000000E+00  0.77019271091E+03  0.77019271091E+03  0.00000000000E+00 0.  1.
         -2   -1    0    0    0  501 -0.00000000000E+00 -0.00000000000E+00 -0.24665623510E+02  0.24665623510E+02  0.00000000000E+00 0.  1.
         36    2    1    2    0    0  0.71054273576E-14 -0.71054273576E-14  0.74552708740E+03  0.79485833442E+03  0.27566126632E+03 0.  0.
         25    2    3    3    0    0  0.40708464042E+02 -0.40858267341E+02  0.33766674227E+03  0.36418125151E+03  0.12362272469E+03 0.  0.
         25    2    3    3    0    0 -0.40708464042E+02  0.40858267341E+02  0.40786034513E+03  0.43067708291E+03  0.12572235904E+03 0.  0.
          5    1    4    4  502    0  0.14189110568E+02 -0.49864754202E+02  0.33092355971E+03  0.33499301029E+03  0.47000000000E+01 0.  1.
         -5    1    4    4    0  502  0.26519353474E+02  0.90064868614E+01  0.67431825574E+01  0.29188241216E+02  0.47000000000E+01 0.  1.
          5    1    5    5  503    0  0.27384783048E+02  0.20553995912E+01  0.18416700883E+02  0.33397842467E+02  0.47000000000E+01 0. -1.
         -5    1    5    5    0  503 -0.68093247090E+02  0.38802867749E+02  0.38944364425E+03  0.39727924045E+03  0.47000000000E+01 0. -1.
<mgrwt>
<rscale>  0 0.27566127E+03</rscale>
<asrwt>0</asrwt>
<pdfrwt beam="1">  1        2 0.11849117E+00 0.27566127E+03</pdfrwt>
<pdfrwt beam="2">  1       -2 0.37947119E-02 0.27566127E+03</pdfrwt>
<totfact> 0.11043130E+04</totfact>
</mgrwt>
</event>
<event>
 9    1  0.2095749E-002  0.2754086E+03  0.7818608E-02  0.1098223E+00
         -1   -1    0    0    0  501 -0.00000000000E+00  0.00000000000E+00  0.32767117358E+02  0.32767117358E+02  0.00000000000E+00 0. -1.
          1   -1    0    0  501    0  0.00000000000E+00 -0.00000000000E+00 -0.57870451096E+03  0.57870451096E+03  0.00000000000E+00 0. -1.
         36    2    1    2    0    0  0.00000000000E+00  0.00000000000E+00 -0.54593739360E+03  0.61147162831E+03  0.27540863186E+03 0.  0.
         25    2    3    3    0    0  0.27869939390E+02  0.34940594868E+02 -0.21899745213E+03  0.25733628373E+03  0.12753234959E+03 0.  0.
         25    2    3    3    0    0 -0.27869939390E+02 -0.34940594868E+02 -0.32693994147E+03  0.35413534459E+03  0.12854780538E+03 0.  0.
          5    1    4    4  502    0  0.63785934499E+02 -0.21795781462E+02 -0.11758328388E+03  0.13561570771E+03  0.47000000000E+01 0. -1.
         -5    1    4    4    0  502 -0.35915995109E+02  0.56736376330E+02 -0.10141416825E+03  0.12172057601E+03  0.47000000000E+01 0. -1.
          5    1    5    5  503    0  0.68206328938E+01 -0.11002773506E+02  0.83951455080E+01  0.16129182434E+02  0.47000000000E+01 0. -1.
         -5    1    5    5    0  503 -0.34690572284E+02 -0.23937821362E+02 -0.33533508698E+03  0.33800616215E+03  0.47000000000E+01 0. -1.
<mgrwt>
<rscale>  0 0.27540863E+03</rscale>
<asrwt>0</asrwt>
<pdfrwt beam="1">  1        1 0.89031452E-01 0.27540863E+03</pdfrwt>
<pdfrwt beam="2">  1       -1 0.50410956E-02 0.27540863E+03</pdfrwt>
<totfact> 0.64057184E+03</totfact>
</mgrwt>
</event>
<event>
 9    1  0.2095749E-002  0.2748918E+03  0.7818608E-02  0.1098512E+00
          2   -1    0    0  501    0  0.00000000000E+00  0.00000000000E+00  0.74190912673E+02  0.74190912673E+02  0.00000000000E+00 0. -1.
         -2   -1    0    0    0  501 -0.00000000000E+00 -0.00000000000E+00 -0.25463194372E+03  0.25463194372E+03  0.00000000000E+00 0. -1.
         36    2    1    2    0    0 -0.35527136788E-14 -0.35527136788E-14 -0.18044103104E+03  0.32882285639E+03  0.27489180635E+03 0.  0.
         25    2    3    3    0    0 -0.24054532543E+02 -0.14904106455E+02 -0.13888191149E+03  0.19045016795E+03  0.12720978032E+03 0.  0.
         25    2    3    3    0    0  0.24054532543E+02  0.14904106455E+02 -0.41559119558E+02  0.13837268844E+03  0.12891504010E+03 0.  0.
          5    1    4    4  502    0  0.23504662846E+02  0.44016424482E+02 -0.32305791469E+02  0.59629430336E+02  0.47000000000E+01 0. -1.
         -5    1    4    4    0  502 -0.47559195390E+02 -0.58920530937E+02 -0.10657612002E+03  0.13082073761E+03  0.47000000000E+01 0. -1.
          5    1    5    5  503    0 -0.88355933112E+01  0.10533654658E+01 -0.82927724405E+02  0.83536068635E+02  0.47000000000E+01 0.  1.
         -5    1    5    5    0  503  0.32890125855E+02  0.13850740989E+02  0.41368604848E+02  0.54836619806E+02  0.47000000000E+01 0.  1.
<mgrwt>
<rscale>  0 0.27489181E+03</rscale>
<asrwt>0</asrwt>
<pdfrwt beam="1">  1        2 0.11413986E-01 0.27489181E+03</pdfrwt>
<pdfrwt beam="2">  1       -2 0.39174146E-01 0.27489181E+03</pdfrwt>
<totfact> 0.33552471E+03</totfact>
</mgrwt>
</event>
<event>
 9    1  0.2095749E-002  0.2749281E+03  0.7818608E-02  0.1098492E+00
          1   -1    0    0  501    0  0.00000000000E+00  0.00000000000E+00  0.24094560081E+03  0.24094560081E+03  0.00000000000E+00 0.  1.
         -1   -1    0    0    0  501 -0.00000000000E+00 -0.00000000000E+00 -0.78425846072E+02  0.78425846072E+02  0.00000000000E+00 0.  1.
         36    2    1    2    0    0  0.00000000000E+00  0.00000000000E+00  0.16251975474E+03  0.31937144688E+03  0.27492808224E+03 0.  0.
         25    2    3    3    0    0  0.14778621683E+02  0.28956612284E+02  0.76089155017E+02  0.15247758454E+03  0.12807404586E+03 0.  0.
         25    2    3    3    0    0 -0.14778621683E+02 -0.28956612284E+02  0.86430599718E+02  0.16689386233E+03  0.13901949383E+03 0.  0.
          5    1    4    4  502    0 -0.56076811024E+02  0.22894305611E+02  0.31863676996E+02  0.68601325612E+02  0.47000000000E+01 0.  1.
         -5    1    4    4    0  502  0.70855432707E+02  0.60623066730E+01  0.44225478021E+02  0.83876258932E+02  0.47000000000E+01 0.  1.
          5    1    5    5  503    0 -0.31565477231E+02 -0.50244359775E+02 -0.15341404324E+02  0.61468070807E+02  0.47000000000E+01 0.  1.
         -5    1    5    5    0  503  0.16786855549E+02  0.21287747491E+02  0.10177200404E+03  0.10542579153E+03  0.47000000000E+01 0.  1.
<mgrwt>
<rscale>  0 0.27492808E+03</rscale>
<asrwt>0</asrwt>
<pdfrwt beam="1">  1        1 0.37068554E-01 0.27492808E+03</pdfrwt>
<pdfrwt beam="2">  1       -1 0.12065515E-01 0.27492808E+03</pdfrwt>
<totfact> 0.52202813E+03</totfact>
</mgrwt>
</event>
<event>
 8    1  0.2095749E-002  0.3115681E+03  0.7818608E-02  0.1079597E+00
          2   -1    0    0  501    0  0.00000000000E+00  0.00000000000E+00  0.58295111563E+03  0.58295111563E+03  0.00000000000E+00 0. -1.
         -2   -1    0    0    0  501 -0.00000000000E+00 -0.00000000000E+00 -0.41630703600E+02  0.41630703600E+02  0.00000000000E+00 0. -1.
         25    2    1    2    0    0  0.84024964020E+02  0.71082818175E+02  0.30739011697E+03  0.33842002248E+03  0.89030702493E+02 0.  0.
         25    2    1    2    0    0 -0.84024964020E+02 -0.71082818175E+02  0.23393029507E+03  0.28616179676E+03  0.12268752730E+03 0.  0.
          5    1    3    3  502    0  0.71448868516E+02  0.19421870133E+02  0.24661526710E+03  0.25753316257E+03  0.47000000000E+01 0. -1.
         -5    1    3    3    0  502  0.12576095504E+02  0.51660948042E+02  0.60774849863E+02  0.80886859913E+02  0.47000000000E+01 0. -1.
          5    1    4    4  503    0 -0.68894401071E+02 -0.10596507005E+03  0.18171628284E+03  0.22139993681E+03  0.47000000000E+01 0. -1.
         -5    1    4    4    0  503 -0.15130562949E+02  0.34882251876E+02  0.52214012228E+02  0.64761859949E+02  0.47000000000E+01 0. -1.
<mgrwt>
<rscale>  0 0.31156807E+03</rscale>
<asrwt>0</asrwt>
<pdfrwt beam="1">  1        2 0.89684781E-01 0.31156807E+03</pdfrwt>
<pdfrwt beam="2">  1       -2 0.64047240E-02 0.31156807E+03</pdfrwt>
<totfact> 0.69865241E+03</totfact>
</mgrwt>
</event>
<event>
 9    1  0.2095749E-002  0.2759570E+03  0.7818608E-02  0.1097918E+00
          2   -1    0    0  501    0  0.00000000000E+00  0.00000000000E+00  0.16225689058E+04  0.16225689058E+04  0.00000000000E+00 0. -1.
         -2   -1    0    0    0  501 -0.00000000000E+00 -0.00000000000E+00 -0.11733283487E+02  0.11733283487E+02  0.00000000000E+00 0. -1.
         36    2    1    2    0    0 -0.35527136788E-14  0.14210854715E-13  0.16108356223E+04  0.16343021892E+04  0.27595696004E+03 0.  0.
         25    2    3    3    0    0 -0.28804617310E+02  0.47549302972E+02  0.77360336715E+03  0.78578644636E+03  0.12612504681E+03 0.  0.
         25    2    3    3    0    0  0.28804617310E+02 -0.47549302972E+02  0.83723225512E+03  0.84851574288E+03  0.12621598437E+03 0.  0.
          5    1    4    4  502    0  0.18996612760E+02  0.47854651561E+02  0.12315709764E+03  0.13356908201E+03  0.47000000000E+01 0. -1.
         -5    1    4    4    0  502 -0.47801230070E+02 -0.30534858823E+00  0.65044626951E+03  0.65221736435E+03  0.47000000000E+01 0. -1.
          5    1    5    5  503    0 -0.78829648069E+01  0.13007121219E+02  0.11254608810E+02  0.19495706092E+02  0.47000000000E+01 0.  1.
         -5    1    5    5    0  503  0.36687582117E+02 -0.60556424191E+02  0.82597764631E+03  0.82902003679E+03  0.47000000000E+01 0.  1.
<mgrwt>
<rscale>  0 0.27595696E+03</rscale>
<asrwt>0</asrwt>
<pdfrwt beam="1">  1        2 0.24962581E+00 0.27595696E+03</pdfrwt>
<pdfrwt beam="2">  1       -2 0.18051218E-02 0.27595696E+03</pdfrwt>
<totfact> 0.10554724E+04</totfact>
</mgrwt>
</event>
<event>
 9    1  0.2095749E-002  0.2752228E+03  0.7818608E-02  0.1098327E+00
          2   -1    0    0  501    0  0.00000000000E+00  0.00000000000E+00  0.55136549045E+03  0.55136549045E+03  0.00000000000E+00 0. -1.
         -2   -1    0    0    0  501 -0.00000000000E+00 -0.00000000000E+00 -0.34345455728E+02  0.34345455728E+02  0.00000000000E+00 0. -1.
         36    2    1    2    0    0  0.00000000000E+00 -0.35527136788E-14  0.51702003472E+03  0.58571094617E+03  0.27522281186E+03 0.  0.
         25    2    3    3    0    0 -0.25822940850E+02 -0.91169744834E+01  0.36825560264E+03  0.39014384611E+03  0.12589713375E+03 0.  0.
         25    2    3    3    0    0  0.25822940850E+02  0.91169744834E+01  0.14876443208E+03  0.19556710007E+03  0.12395842399E+03 0.  0.
          5    1    4    4  502    0 -0.58110433462E+02  0.31946427989E+02  0.27723015501E+03  0.28508953960E+03  0.47000000000E+01 0.  1.
         -5    1    4    4    0  502  0.32287492612E+02 -0.41063402472E+02  0.91025447621E+02  0.10505430651E+03  0.47000000000E+01 0.  1.
          5    1    5    5  503    0  0.60575341693E+02 -0.12764011623E+02  0.14023217869E+03  0.15336050976E+03  0.47000000000E+01 0.  1.
         -5    1    5    5    0  503 -0.34752400842E+02  0.21880986107E+02  0.85322533929E+01  0.42206590306E+02  0.47000000000E+01 0.  1.
<mgrwt>
<rscale>  0 0.27522281E+03</rscale>
<asrwt>0</asrwt>
<pdfrwt beam="1">  1        2 0.84825453E-01 0.27522281E+03</pdfrwt>
<pdfrwt beam="2">  1       -2 0.52839167E-02 0.27522281E+03</pdfrwt>
<totfact> 0.99655554E+03</totfact>
</mgrwt>
</event>
<event>
 9    1  0.2095749E-002  0.2742815E+03  0.7818608E-02  0.1098854E+00
         -4   -1    0    0    0  501 -0.00000000000E+00  0.00000000000E+00  0.19994319213E+04  0.19994319213E+04  0.00000000000E+00 0. -1.
          4   -1    0    0  501    0  0.00000000000E+00 -0.00000000000E+00 -0.94064670936E+01  0.94064670936E+01  0.00000000000E+00 0. -1.
         36    2    1    2    0    0  0.71054273576E-14  0.00000000000E+00  0.19900254542E+04  0.20088383884E+04  0.27428153837E+03 0.  0.
         25    2    3    3    0    0 -0.41750571539E+02 -0.34814766096E+02  0.11056910765E+04  0.11140668003E+04  0.12504759386E+03 0.  0.
         25    2    3    3    0    0  0.41750571539E+02  0.34814766096E+02  0.88433437773E+03  0.89477158811E+03  0.12495489224E+03 0.  0.
          5    1    4    4  502    0 -0.36832058385E+02  0.26164954378E+02  0.15822584414E+03  0.16461686765E+03  0.47000000000E+01 0. -1.
         -5    1    4    4    0  502 -0.49185131543E+01 -0.60979720474E+02  0.94746523232E+03  0.94944993261E+03  0.47000000000E+01 0. -1.
          5    1    5    5  503    0  0.65687546383E+02 -0.23656825891E+02  0.37092325420E+03  0.37746609075E+03  0.47000000000E+01 0.  1.
         -5    1    5    5    0  503 -0.23936974843E+02  0.58471591987E+02  0.51341112353E+03  0.51730549736E+03  0.47000000000E+01 0.  1.
<mgrwt>
<rscale>  0 0.27428154E+03</rscale>
<asrwt>0</asrwt>
<pdfrwt beam="1">  1        4 0.14471504E-02 0.27428154E+03</pdfrwt>
<pdfrwt beam="2">  1       -4 0.30760457E+00 0.27428154E+03</pdfrwt>
<totfact> 0.10221715E+02</totfact>
</mgrwt>
</event>
<event>
 9    1  0.2095749E-002  0.2749466E+03  0.7818608E-02  0.1098481E+00
         -2   -1    0    0    0  501 -0.00000000000E+00  0.00000000000E+00  0.29096947902E+02  0.29096947902E+02  0.00000000000E+00 0.  1.
          2   -1    0    0  501    0  0.00000000000E+00 -0.00000000000E+00 -0.64951495003E+03  0.64951495003E+03  0.00000000000E+00 0.  1.
         36    2    1    2    0    0  0.71054273576E-14  0.35527136788E-14 -0.62041800213E+03  0.67861189793E+03  0.27494655963E+03 0.  0.
         25    2    3    3    0    0 -0.55651855186E+02  0.14937296747E+02 -0.36056492351E+03  0.38549883925E+03  0.12362054513E+03 0.  0.
         25    2    3    3    0    0  0.55651855186E+02 -0.14937296747E+02 -0.25985307862E+03  0.29311305868E+03  0.12276559324E+03 0.  0.
          5    1    4    4  502    0 -0.62242817478E+02 -0.41721387635E+02 -0.24953703588E+03  0.26058715392E+03  0.47000000000E+01 0. -1.
         -5    1    4    4    0  502  0.65909622926E+01  0.56658684381E+02 -0.11102788764E+03  0.12491168534E+03  0.47000000000E+01 0. -1.
          5    1    5    5  503    0  0.82283688057E+01 -0.43571082039E+02 -0.23686063770E+02  0.50490245199E+02  0.47000000000E+01 0. -1.
         -5    1    5    5    0  503  0.47423486380E+02  0.28633785293E+02 -0.23616701485E+03  0.24262281348E+03  0.47000000000E+01 0. -1.
<mgrwt>
<rscale>  0 0.27494656E+03</rscale>
<asrwt>0</asrwt>
<pdfrwt beam="1">  1        2 0.99925368E-01 0.27494656E+03</pdfrwt>
<pdfrwt beam="2">  1       -2 0.44764539E-02 0.27494656E+03</pdfrwt>
<totfact> 0.10596325E+04</totfact>
</mgrwt>
</event>
<event>
 9    1  0.2095749E-002  0.2779638E+03  0.7818608E-02  0.1096806E+00
         -2   -1    0    0    0  501 -0.00000000000E+00  0.00000000000E+00  0.17783588193E+02  0.17783588193E+02  0.00000000000E+00 0. -1.
          2   -1    0    0  501    0  0.00000000000E+00 -0.00000000000E+00 -0.10861683306E+04  0.10861683306E+04  0.00000000000E+00 0. -1.
         36    2    1    2    0    0  0.00000000000E+00 -0.35527136788E-14 -0.10683847424E+04  0.11039519188E+04  0.27796381275E+03 0.  0.
         25    2    3    3    0    0  0.55887601058E+02 -0.12159269087E+02 -0.54922745715E+03  0.56591954916E+03  0.12386631768E+03 0.  0.
         25    2    3    3    0    0 -0.55887601058E+02  0.12159269087E+02 -0.51915728530E+03  0.53803236967E+03  0.12916374167E+03 0.  0.
          5    1    4    4  502    0  0.90860848606E+02 -0.27587705974E+02 -0.33374601326E+03  0.34702343826E+03  0.47000000000E+01 0.  1.
         -5    1    4    4    0  502 -0.34973247548E+02  0.15428436886E+02 -0.21548144388E+03  0.21889611090E+03  0.47000000000E+01 0.  1.
          5    1    5    5  503    0  0.22604478412E+02 -0.21672842748E+02 -0.38679348905E+02  0.49988564580E+02  0.47000000000E+01 0. -1.
         -5    1    5    5    0  503 -0.78492079470E+02  0.33832111835E+02 -0.48047793639E+03  0.48804380509E+03  0.47000000000E+01 0. -1.
<mgrwt>
<rscale>  0 0.27796381E+03</rscale>
<asrwt>0</asrwt>
<pdfrwt beam="1">  1        2 0.16710280E+00 0.27796381E+03</pdfrwt>
<pdfrwt beam="2">  1       -2 0.27359369E-02 0.27796381E+03</pdfrwt>
<totfact> 0.11296861E+04</totfact>
</mgrwt>
</event>
<event>
 9    1  0.2095749E-002  0.2744659E+03  0.7818608E-02  0.1098751E+00
          1   -1    0    0  501    0  0.00000000000E+00  0.00000000000E+00  0.30031972382E+02  0.30031972382E+02  0.00000000000E+00 0.  1.
         -1   -1    0    0    0  501 -0.00000000000E+00 -0.00000000000E+00 -0.62709426808E+03  0.62709426808E+03  0.00000000000E+00 0.  1.
         36    2    1    2    0    0 -0.35527136788E-14  0.35527136788E-14 -0.59706229570E+03  0.65712624046E+03  0.27446586483E+03 0.  0.
         25    2    3    3    0    0  0.31638998453E+02 -0.26510667081E+02 -0.29632089798E+03  0.32446945978E+03  0.12558070735E+03 0.  0.
         25    2    3    3    0    0 -0.31638998453E+02  0.26510667081E+02 -0.30074139771E+03  0.33265678068E+03  0.13605625211E+03 0.  0.
          5    1    4    4  502    0 -0.19112720584E+02 -0.70125919474E+00  0.28434713604E+01  0.19898823632E+02  0.47000000000E+01 0. -1.
         -5    1    4    4    0  502  0.50751719037E+02 -0.25809407886E+02 -0.29916436934E+03  0.30457063615E+03  0.47000000000E+01 0. -1.
          5    1    5    5  503    0 -0.30905901388E+02 -0.52338760166E+02 -0.10253946433E+03  0.11929355516E+03  0.47000000000E+01 0. -1.
         -5    1    5    5    0  503 -0.73309706573E+00  0.78849427247E+02 -0.19820193338E+03  0.21336322552E+03  0.47000000000E+01 0. -1.
<mgrwt>
<rscale>  0 0.27446586E+03</rscale>
<asrwt>0</asrwt>
<pdfrwt beam="1">  1        1 0.46203037E-02 0.27446586E+03</pdfrwt>
<pdfrwt beam="2">  1       -1 0.96476035E-01 0.27446586E+03</pdfrwt>
<totfact> 0.20261734E+03</totfact>
</mgrwt>
</event>
<event>
 9    1  0.2095749E-002  0.2759654E+03  0.7818608E-02  0.1097913E+00
         -2   -1    0    0    0  501 -0.00000000000E+00  0.00000000000E+00  0.10907288811E+03  0.10907288811E+03  0.00000000000E+00 0. -1.
          2   -1    0    0  501    0  0.00000000000E+00 -0.00000000000E+00 -0.17455500610E+03  0.17455500610E+03  0.00000000000E+00 0. -1.
         36    2    1    2    0    0  0.35527136788E-14 -0.35527136788E-14 -0.65482117985E+02  0.28362789421E+03  0.27596535035E+03 0.  0.
         25    2    3    3    0    0  0.25763588952E+01  0.19557747939E+02 -0.59533754224E+02  0.13711817926E+03  0.12193434324E+03 0.  0.
         25    2    3    3    0    0 -0.25763588952E+01 -0.19557747939E+02 -0.59483637604E+01  0.14650971495E+03  0.14505368114E+03 0.  0.
          5    1    4    4  502    0  0.12564012911E+02 -0.13710027436E+02 -0.89174689657E+02  0.91214223387E+02  0.47000000000E+01 0. -1.
         -5    1    4    4    0  502 -0.99876540155E+01  0.33267775375E+02  0.29640935433E+02  0.45903955870E+02  0.47000000000E+01 0. -1.
          5    1    5    5  503    0  0.35358190359E+02 -0.55879610050E+02  0.39265819365E+02  0.77049510155E+02  0.47000000000E+01 0.  1.
         -5    1    5    5    0  503 -0.37934549255E+02  0.36321862111E+02 -0.45214183125E+02  0.69460204794E+02  0.47000000000E+01 0.  1.
<mgrwt>
<rscale>  0 0.27596535E+03</rscale>
<asrwt>0</asrwt>
<pdfrwt beam="1">  1        2 0.26854616E-01 0.27596535E+03</pdfrwt>
<pdfrwt beam="2">  1       -2 0.16780444E-01 0.27596535E+03</pdfrwt>
<totfact> 0.55884451E+03</totfact>
</mgrwt>
</event>
<event>
 9    1  0.2095749E-002  0.2715518E+03  0.7818608E-02  0.1100395E+00
          3   -1    0    0  501    0  0.00000000000E+00  0.00000000000E+00  0.39748356660E+03  0.39748356660E+03  0.00000000000E+00 0. -1.
         -3   -1    0    0    0  501 -0.00000000000E+00 -0.00000000000E+00 -0.46379510622E+02  0.46379510622E+02  0.00000000000E+00 0. -1.
         36    2    1    2    0    0  0.14210854715E-13  0.00000000000E+00  0.35110405598E+03  0.44386307722E+03  0.27155178732E+03 0.  0.
         25    2    3    3    0    0  0.60661208791E+02 -0.59320323072E+02  0.17612312295E+03  0.23085214087E+03  0.12277896207E+03 0.  0.
         25    2    3    3    0    0 -0.60661208791E+02  0.59320323072E+02  0.17498093303E+03  0.21301093635E+03  0.86928988836E+02 0.  0.
          5    1    4    4  502    0 -0.23404522386E+02 -0.60274828304E+02  0.70573432009E+02  0.95830714808E+02  0.47000000000E+01 0. -1.
         -5    1    4    4    0  502  0.84065731177E+02  0.95450523150E+00  0.10554969094E+03  0.13502142606E+03  0.47000000000E+01 0. -1.
          5    1    5    5  503    0 -0.82650132508E+02  0.49689810504E+02  0.13177499699E+03  0.16336113829E+03  0.47000000000E+01 0. -1.
         -5    1    5    5    0  503  0.21988923717E+02  0.96305125685E+01  0.43205936038E+02  0.49649798061E+02  0.47000000000E+01 0. -1.
<mgrwt>
<rscale>  0 0.27155179E+03</rscale>
<asrwt>0</asrwt>
<pdfrwt beam="1">  1        3 0.61151316E-01 0.27155179E+03</pdfrwt>
<pdfrwt beam="2">  1       -3 0.71353096E-02 0.27155179E+03</pdfrwt>
<totfact> 0.86426773E+02</totfact>
</mgrwt>
</event>
<event>
 9    1  0.2095749E-002  0.2776824E+03  0.7818608E-02  0.1096962E+00
         -2   -1    0    0    0  501 -0.00000000000E+00  0.00000000000E+00  0.53532928960E+02  0.53532928960E+02  0.00000000000E+00 0. -1.
          2   -1    0    0  501    0  0.00000000000E+00 -0.00000000000E+00 -0.36009395243E+03  0.36009395243E+03  0.00000000000E+00 0. -1.
         36    2    1    2    0    0  0.35527136788E-14  0.35527136788E-14 -0.30656102347E+03  0.41362688139E+03  0.27768243714E+03 0.  0.
         25    2    3    3    0    0 -0.18189568339E+02  0.69599073964E+01 -0.26974046429E+03  0.29776121630E+03  0.12458941828E+03 0.  0.
         25    2    3    3    0    0  0.18189568339E+02 -0.69599073964E+01 -0.36820559174E+02  0.11586566509E+03  0.10811936950E+03 0.  0.
          5    1    4    4  502    0 -0.30452295580E+02 -0.44052829867E+02 -0.21568703345E+03  0.22228580820E+03  0.47000000000E+01 0. -1.
         -5    1    4    4    0  502  0.12262727241E+02  0.51012737264E+02 -0.54053430842E+02  0.75475408103E+02  0.47000000000E+01 0. -1.
          5    1    5    5  503    0 -0.28362914753E+02 -0.16137749269E+02 -0.55583633060E+02  0.64625940216E+02  0.47000000000E+01 0. -1.
         -5    1    5    5    0  503  0.46552483092E+02  0.91778418729E+01  0.18763073885E+02  0.51239724873E+02  0.47000000000E+01 0. -1.
<mgrwt>
<rscale>  0 0.27768244E+03</rscale>
<asrwt>0</asrwt>
<pdfrwt beam="1">  1        2 0.55399068E-01 0.27768244E+03</pdfrwt>
<pdfrwt beam="2">  1       -2 0.82358355E-02 0.27768244E+03</pdfrwt>
<totfact> 0.80396518E+03</totfact>
</mgrwt>
</event>
<event>
 9    1  0.2095749E-002  0.2751006E+03  0.7818608E-02  0.1098395E+00
         -1   -1    0    0    0  501 -0.00000000000E+00  0.00000000000E+00  0.24326037947E+02  0.24326037947E+02  0.00000000000E+00 0. -1.
          1   -1    0    0  501    0  0.00000000000E+00 -0.00000000000E+00 -0.77777103825E+03  0.77777103825E+03  0.00000000000E+00 0. -1.
         36    2    1    2    0    0  0.00000000000E+00 -0.17763568394E-14 -0.75344500030E+03  0.80209707620E+03  0.27510062007E+03 0.  0.
         25    2    3    3    0    0  0.23864207857E+02  0.62619682411E+01 -0.21835242337E+03  0.25209224748E+03  0.12354759320E+03 0.  0.
         25    2    3    3    0    0 -0.23864207857E+02 -0.62619682411E+01 -0.53509257693E+03  0.55000482871E+03  0.12478995575E+03 0.  0.
          5    1    4    4  502    0 -0.49881408681E+02  0.66380897792E+01 -0.69812630074E+02  0.86186498280E+02  0.47000000000E+01 0. -1.
         -5    1    4    4    0  502  0.73745616538E+02 -0.37612153804E+00 -0.14853979330E+03  0.16590574920E+03  0.47000000000E+01 0. -1.
          5    1    5    5  503    0  0.83938042626E+01  0.56017917303E+02 -0.23005196807E+03  0.23696932507E+03  0.47000000000E+01 0.  1.
         -5    1    5    5    0  503 -0.32258012119E+02 -0.62279885544E+02 -0.30504060886E+03  0.31303550365E+03  0.47000000000E+01 0.  1.
<mgrwt>
<rscale>  0 0.27510062E+03</rscale>
<asrwt>0</asrwt>
<pdfrwt beam="1">  1        1 0.11965707E+00 0.27510062E+03</pdfrwt>
<pdfrwt beam="2">  1       -1 0.37424677E-02 0.27510062E+03</pdfrwt>
<totfact> 0.65225168E+03</totfact>
</mgrwt>
</event>
<event>
 9    1  0.2095749E-002  0.2746806E+03  0.7818608E-02  0.1098630E+00
         -1   -1    0    0    0  501 -0.00000000000E+00  0.00000000000E+00  0.31518619564E+02  0.31518619564E+02  0.00000000000E+00 0. -1.
          1   -1    0    0  501    0  0.00000000000E+00 -0.00000000000E+00 -0.59845124099E+03  0.59845124099E+03  0.00000000000E+00 0. -1.
         36    2    1    2    0    0  0.00000000000E+00  0.00000000000E+00 -0.56693262142E+03  0.62996986055E+03  0.27468059263E+03 0.  0.
         25    2    3    3    0    0  0.44360992817E+02 -0.33039965915E+02 -0.37833038583E+03  0.40008845949E+03  0.11780219670E+03 0.  0.
         25    2    3    3    0    0 -0.44360992817E+02  0.33039965915E+02 -0.18860223559E+03  0.22988140106E+03  0.11922717077E+03 0.  0.
          5    1    4    4  502    0  0.49253036386E+02 -0.57314024887E+01 -0.50070487058E+02  0.70624742421E+02  0.47000000000E+01 0.  1.
         -5    1    4    4    0  502 -0.48920435695E+01 -0.27308563426E+02 -0.32825989877E+03  0.32946371707E+03  0.47000000000E+01 0.  1.
          5    1    5    5  503    0 -0.51268274986E+02 -0.23392887968E+02 -0.15180508137E+03  0.16199548128E+03  0.47000000000E+01 0. -1.
         -5    1    5    5    0  503  0.69072821693E+01  0.56432853882E+02 -0.36797154227E+02  0.67885919774E+02  0.47000000000E+01 0. -1.
<mgrwt>
<rscale>  0 0.27468059E+03</rscale>
<asrwt>0</asrwt>
<pdfrwt beam="1">  1        1 0.92069429E-01 0.27468059E+03</pdfrwt>
<pdfrwt beam="2">  1       -1 0.48490180E-02 0.27468059E+03</pdfrwt>
<totfact> 0.64814224E+03</totfact>
</mgrwt>
</event>
<event>
 9    1  0.2095749E-002  0.2751910E+03  0.7818608E-02  0.1098345E+00
          2   -1    0    0  501    0  0.00000000000E+00  0.00000000000E+00  0.22672060665E+03  0.22672060665E+03  0.00000000000E+00 0.  1.
         -2   -1    0    0    0  501 -0.00000000000E+00 -0.00000000000E+00 -0.83505931504E+02  0.83505931504E+02  0.00000000000E+00 0.  1.
         36    2    1    2    0    0  0.00000000000E+00 -0.71054273576E-14  0.14321467515E+03  0.31022653815E+03  0.27519095515E+03 0.  0.
         25    2    3    3    0    0  0.49171239060E+02  0.66915821330E+01  0.12145258667E+03  0.17904629805E+03  0.12183701414E+03 0.  0.
         25    2    3    3    0    0 -0.49171239060E+02 -0.66915821330E+01  0.21762088476E+02  0.13118024011E+03  0.11946580631E+03 0.  0.
          5    1    4    4  502    0  0.32798956183E+02  0.43948258653E+02  0.46118174318E+01  0.55232054328E+02  0.47000000000E+01 0. -1.
         -5    1    4    4    0  502  0.16372282877E+02 -0.37256676520E+02  0.11684076924E+03  0.12381424372E+03  0.47000000000E+01 0. -1.
          5    1    5    5  503    0 -0.74553543676E+02 -0.41918832948E+02  0.15759137841E+02  0.87096841825E+02  0.47000000000E+01 0. -1.
         -5    1    5    5    0  503  0.25382304616E+02  0.35227250815E+02  0.60029506352E+01  0.44083398280E+02  0.47000000000E+01 0. -1.
<mgrwt>
<rscale>  0 0.27519096E+03</rscale>
<asrwt>0</asrwt>
<pdfrwt beam="1">  1        2 0.34880093E-01 0.27519096E+03</pdfrwt>
<pdfrwt beam="2">  1       -2 0.12847067E-01 0.27519096E+03</pdfrwt>
<totfact> 0.65162689E+03</totfact>
</mgrwt>
</event>
<event>
 9    1  0.2095749E-002  0.2783800E+03  0.7818608E-02  0.1096577E+00
          2   -1    0    0  501    0  0.00000000000E+00  0.00000000000E+00  0.97748773757E+02  0.97748773757E+02  0.00000000000E+00 0. -1.
         -2   -1    0    0    0  501 -0.00000000000E+00 -0.00000000000E+00 -0.19820047491E+03  0.19820047491E+03  0.00000000000E+00 0. -1.
         36    2    1    2    0    0  0.00000000000E+00 -0.35527136788E-14 -0.10045170115E+03  0.29594924866E+03  0.27837998046E+03 0.  0.
         25    2    3    3    0    0  0.51820530449E+02  0.15898539510E+02 -0.81406365808E+02  0.15699837758E+03  0.12281434458E+03 0.  0.
         25    2    3    3    0    0 -0.51820530449E+02 -0.15898539510E+02 -0.19045335342E+02  0.13895087108E+03  0.12651675320E+03 0.  0.
          5    1    4    4  502    0  0.46618472792E+02 -0.33608774422E+02  0.42473129682E+01  0.57818348221E+02  0.47000000000E+01 0.  1.
         -5    1    4    4    0  502  0.52020576575E+01  0.49507313932E+02 -0.85653678776E+02  0.99180029363E+02  0.47000000000E+01 0.  1.
          5    1    5    5  503    0 -0.90862679335E+02 -0.75888078667E+01 -0.31963418542E+02  0.96733482444E+02  0.47000000000E+01 0.  1.
         -5    1    5    5    0  503  0.39042148886E+02 -0.83097316432E+01  0.12918083200E+02  0.42217388635E+02  0.47000000000E+01 0.  1.
<mgrwt>
<rscale>  0 0.27837998E+03</rscale>
<asrwt>0</asrwt>
<pdfrwt beam="1">  1        2 0.15038273E-01 0.27837998E+03</pdfrwt>
<pdfrwt beam="2">  1       -2 0.30492380E-01 0.27837998E+03</pdfrwt>
<totfact> 0.38377177E+03</totfact>
</mgrwt>
</event>
<event>
 9    1  0.2095749E-002  0.2744308E+03  0.7818608E-02  0.1098770E+00
         -1   -1    0    0    0  501 -0.00000000000E+00  0.00000000000E+00  0.13586219378E+03  0.13586219378E+03  0.00000000000E+00 0. -1.
          1   -1    0    0  501    0  0.00000000000E+00 -0.00000000000E+00 -0.13858208776E+03  0.13858208776E+03  0.00000000000E+00 0. -1.
         36    2    1    2    0    0  0.00000000000E+00  0.00000000000E+00 -0.27198939805E+01  0.27444428153E+03  0.27443080338E+03 0.  0.
         25    2    3    3    0    0 -0.34184149551E+02 -0.92126722786E+01  0.21277721929E+02  0.12912549374E+03  0.12234059944E+03 0.  0.
         25    2    3    3    0    0  0.34184149551E+02  0.92126722786E+01 -0.23997615910E+02  0.14531878780E+03  0.13888209066E+03 0.  0.
          5    1    4    4  502    0 -0.30088629130E+02  0.50593322914E+02 -0.12207821669E+02  0.60300338609E+02  0.47000000000E+01 0.  1.
         -5    1    4    4    0  502 -0.40955204214E+01 -0.59805995193E+02  0.33485543598E+02  0.68825155130E+02  0.47000000000E+01 0.  1.
          5    1    5    5  503    0  0.84351929470E+02  0.28109104007E+02 -0.20655868848E+02  0.91400900713E+02  0.47000000000E+01 0. -1.
         -5    1    5    5    0  503 -0.50167779919E+02 -0.18896431728E+02 -0.33417470619E+01  0.53917887083E+02  0.47000000000E+01 0. -1.
<mgrwt>
<rscale>  0 0.27443080E+03</rscale>
<asrwt>0</asrwt>
<pdfrwt beam="1">  1        1 0.21320321E-01 0.27443080E+03</pdfrwt>
<pdfrwt beam="2">  1       -1 0.20901876E-01 0.27443080E+03</pdfrwt>
<totfact> 0.43787978E+03</totfact>
</mgrwt>
</event>
<event>
 9    1  0.2095749E-002  0.2753078E+03  0.7818608E-02  0.1098280E+00
          1   -1    0    0  501    0  0.00000000000E+00  0.00000000000E+00  0.30807021930E+04  0.30807021930E+04  0.00000000000E+00 0. -1.
         -1   -1    0    0    0  501 -0.00000000000E+00 -0.00000000000E+00 -0.61507413038E+01  0.61507413038E+01  0.00000000000E+00 0. -1.
         36    2    1    2    0    0  0.00000000000E+00  0.71054273576E-14  0.30745514517E+04  0.30868529343E+04  0.27530784386E+03 0.  0.
         25    2    3    3    0    0  0.38531751449E+02  0.18523286628E+02  0.22039087481E+04  0.22078722456E+04  0.12513302943E+03 0.  0.
         25    2    3    3    0    0 -0.38531751449E+02 -0.18523286628E+02  0.87064270364E+03  0.87898068872E+03  0.11296249696E+03 0.  0.
          5    1    4    4  502    0 -0.16700266589E+02 -0.29835112751E+02  0.22825002881E+03  0.23084453320E+03  0.47000000000E+01 0.  1.
         -5    1    4    4    0  502  0.55232018039E+02  0.48358399378E+02  0.19756587193E+04  0.19770277124E+04  0.47000000000E+01 0.  1.
          5    1    5    5  503    0 -0.51371701391E+02 -0.55634794092E+02  0.68390904203E+03  0.68810460672E+03  0.47000000000E+01 0. -1.
         -5    1    5    5    0  503  0.12839949941E+02  0.37111507464E+02  0.18673366161E+03  0.19087608200E+03  0.47000000000E+01 0. -1.
<mgrwt>
<rscale>  0 0.27530784E+03</rscale>
<asrwt>0</asrwt>
<pdfrwt beam="1">  1        1 0.47395295E+00 0.27530784E+03</pdfrwt>
<pdfrwt beam="2">  1       -1 0.94627035E-03 0.27530784E+03</pdfrwt>
<totfact> 0.12938785E+03</totfact>
</mgrwt>
</event>
<event>
 9    1  0.2095749E-002  0.2744183E+03  0.7818608E-02  0.1098777E+00
         -2   -1    0    0    0  501 -0.00000000000E+00  0.00000000000E+00  0.25490347827E+02  0.25490347827E+02  0.00000000000E+00 0. -1.
          2   -1    0    0  501    0  0.00000000000E+00 -0.00000000000E+00 -0.73856780751E+03  0.73856780751E+03  0.00000000000E+00 0. -1.
         36    2    1    2    0    0  0.00000000000E+00  0.14210854715E-13 -0.71307745968E+03  0.76405815534E+03  0.27441829609E+03 0.  0.
         25    2    3    3    0    0  0.71778024429E+01  0.49390046386E+02 -0.39188487662E+03  0.41490145295E+03  0.12680126818E+03 0.  0.
         25    2    3    3    0    0 -0.71778024429E+01 -0.49390046386E+02 -0.32119258306E+03  0.34915670238E+03  0.12749443075E+03 0.  0.
          5    1    4    4  502    0 -0.11724021340E+02  0.90153693102E+02 -0.26753364665E+03  0.28259774088E+03  0.47000000000E+01 0.  1.
         -5    1    4    4    0  502  0.18901823783E+02 -0.40763646716E+02 -0.12435122997E+03  0.13230371208E+03  0.47000000000E+01 0.  1.
          5    1    5    5  503    0 -0.63695947500E+02 -0.52268016778E+01 -0.17203231226E+03  0.18358022673E+03  0.47000000000E+01 0.  1.
         -5    1    5    5    0  503  0.56518145057E+02 -0.44163244708E+02 -0.14916027080E+03  0.16557647565E+03  0.47000000000E+01 0.  1.
<mgrwt>
<rscale>  0 0.27441830E+03</rscale>
<asrwt>0</asrwt>
<pdfrwt beam="1">  1        2 0.11362582E+00 0.27441830E+03</pdfrwt>
<pdfrwt beam="2">  1       -2 0.39215918E-02 0.27441830E+03</pdfrwt>
<totfact> 0.11072209E+04</totfact>
</mgrwt>
</event>
<event>
 9    1  0.2095749E-002  0.2750292E+03  0.7818608E-02  0.1098435E+00
         -2   -1    0    0    0  501 -0.00000000000E+00  0.00000000000E+00  0.23293876901E+02  0.23293876901E+02  0.00000000000E+00 0. -1.
          2   -1    0    0  501    0  0.00000000000E+00 -0.00000000000E+00 -0.81181293216E+03  0.81181293216E+03  0.00000000000E+00 0. -1.
         36    2    1    2    0    0  0.71054273576E-14  0.00000000000E+00 -0.78851905526E+03  0.83510680906E+03  0.27502923851E+03 0.  0.
         25    2    3    3    0    0 -0.58836115554E+02 -0.69523801163E+01 -0.40843420848E+03  0.43065166428E+03  0.12301353262E+03 0.  0.
         25    2    3    3    0    0  0.58836115554E+02  0.69523801163E+01 -0.38008484678E+03  0.40445514478E+03  0.12493778174E+03 0.  0.
          5    1    4    4  502    0 -0.37821576490E+02 -0.27225920495E+02 -0.39568101858E+03  0.39844357300E+03  0.47000000000E+01 0. -1.
         -5    1    4    4    0  502 -0.21014539064E+02  0.20273540379E+02 -0.12753189894E+02  0.32208091282E+02  0.47000000000E+01 0. -1.
          5    1    5    5  503    0 -0.12180714212E+02 -0.33195758607E+02 -0.23709355296E+03  0.23976190490E+03  0.47000000000E+01 0. -1.
         -5    1    5    5    0  503  0.71016829766E+02  0.40148138723E+02 -0.14299129383E+03  0.16469323988E+03  0.47000000000E+01 0. -1.
<mgrwt>
<rscale>  0 0.27502924E+03</rscale>
<asrwt>0</asrwt>
<pdfrwt beam="1">  1        2 0.12489431E+00 0.27502924E+03</pdfrwt>
<pdfrwt beam="2">  1       -2 0.35836730E-02 0.27502924E+03</pdfrwt>
<totfact> 0.11255120E+04</totfact>
</mgrwt>
</event>
<event>
 9    1  0.2095749E-002  0.2748445E+03  0.7818608E-02  0.1098539E+00
          1   -1    0    0  501    0  0.00000000000E+00  0.00000000000E+00  0.66916095857E+03  0.66916095857E+03  0.00000000000E+00 0. -1.
         -1   -1    0    0    0  501 -0.00000000000E+00 -0.00000000000E+00 -0.28221731166E+02  0.28221731166E+02  0.00000000000E+00 0. -1.
         36    2    1    2    0    0 -0.71054273576E-14  0.17763568394E-14  0.64093922741E+03  0.69738268974E+03  0.27484454282E+03 0.  0.
         25    2    3    3    0    0 -0.50660062151E+02  0.53943880663E+01  0.25456636442E+03  0.28743398413E+03  0.12336417638E+03 0.  0.
         25    2    3    3    0    0  0.50660062151E+02 -0.53943880663E+01  0.38637286298E+03  0.40994870561E+03  0.12719438142E+03 0.  0.
          5    1    4    4  502    0 -0.79172994945E+01  0.58248908556E+02  0.16269523028E+03  0.17305330663E+03  0.47000000000E+01 0. -1.
         -5    1    4    4    0  502 -0.42742762656E+02 -0.52854520490E+02  0.91871134142E+02  0.11438067750E+03  0.47000000000E+01 0. -1.
          5    1    5    5  503    0  0.89387420612E+02  0.94792802521E+01  0.31124436014E+03  0.32399862567E+03  0.47000000000E+01 0.  1.
         -5    1    5    5    0  503 -0.38727358461E+02 -0.14873668318E+02  0.75128502841E+02  0.85950079941E+02  0.47000000000E+01 0.  1.
<mgrwt>
<rscale>  0 0.27484454E+03</rscale>
<asrwt>0</asrwt>
<pdfrwt beam="1">  1        1 0.10294783E+00 0.27484454E+03</pdfrwt>
<pdfrwt beam="2">  1       -1 0.43418053E-02 0.27484454E+03</pdfrwt>
<totfact> 0.65298165E+03</totfact>
</mgrwt>
</event>
<event>
 9    1  0.2095749E-002  0.2725958E+03  0.7818608E-02  0.1099803E+00
         -2   -1    0    0    0  501 -0.00000000000E+00  0.00000000000E+00  0.48687262939E+02  0.48687262939E+02  0.00000000000E+00 0.  1.
          2   -1    0    0  501    0  0.00000000000E+00 -0.00000000000E+00 -0.38156010076E+03  0.38156010076E+03  0.00000000000E+00 0.  1.
         36    2    1    2    0    0 -0.71054273576E-14  0.00000000000E+00 -0.33287283782E+03  0.43024736370E+03  0.27259579566E+03 0.  0.
         25    2    3    3    0    0 -0.12531539361E+02  0.66109908765E+02 -0.27600168360E+03  0.31648310034E+03  0.13948857996E+03 0.  0.
         25    2    3    3    0    0  0.12531539361E+02 -0.66109908765E+02 -0.56871154227E+02  0.11376426336E+03  0.71975134025E+02 0.  0.
          5    1    4    4  502    0 -0.45961953832E+02  0.96262273412E+02 -0.21944621273E+03  0.24404437458E+03  0.47000000000E+01 0.  1.
         -5    1    4    4    0  502  0.33430414471E+02 -0.30152364647E+02 -0.56555470861E+02  0.72438725761E+02  0.47000000000E+01 0.  1.
          5    1    5    5  503    0 -0.23947942640E+02 -0.53269518014E+02 -0.26214616979E+02  0.64190666373E+02  0.47000000000E+01 0.  1.
         -5    1    5    5    0  503  0.36479482001E+02 -0.12840390751E+02 -0.30656537248E+02  0.49573596982E+02  0.47000000000E+01 0.  1.
<mgrwt>
<rscale>  0 0.27259580E+03</rscale>
<asrwt>0</asrwt>
<pdfrwt beam="1">  1        2 0.58701556E-01 0.27259580E+03</pdfrwt>
<pdfrwt beam="2">  1       -2 0.74903478E-02 0.27259580E+03</pdfrwt>
<totfact> 0.87501328E+03</totfact>
</mgrwt>
</event>
<event>
 9    1  0.2095749E-002  0.2748394E+03  0.7818608E-02  0.1098541E+00
          1   -1    0    0  501    0  0.00000000000E+00  0.00000000000E+00  0.30639358253E+03  0.30639358253E+03  0.00000000000E+00 0. -1.
         -1   -1    0    0    0  501 -0.00000000000E+00 -0.00000000000E+00 -0.61633728212E+02  0.61633728212E+02  0.00000000000E+00 0. -1.
         36    2    1    2    0    0 -0.71054273576E-14  0.53290705182E-14  0.24475985431E+03  0.36802731074E+03  0.27483943524E+03 0.  0.
         25    2    3    3    0    0 -0.39243808864E+02 -0.11065058813E+02  0.17722734735E+03  0.21713021596E+03  0.11863172414E+03 0.  0.
         25    2    3    3    0    0  0.39243808864E+02  0.11065058813E+02  0.67532506964E+02  0.15089709478E+03  0.12863429424E+03 0.  0.
          5    1    4    4  502    0 -0.25734307964E+02 -0.59107911134E+02  0.54454844598E+02  0.84518754517E+02  0.47000000000E+01 0.  1.
         -5    1    4    4    0  502 -0.13509500900E+02  0.48042852321E+02  0.12277250275E+03  0.13261146144E+03  0.47000000000E+01 0.  1.
          5    1    5    5  503    0  0.41906965499E+02 -0.69104625970E+01 -0.29590345955E+02  0.51977175995E+02  0.47000000000E+01 0. -1.
         -5    1    5    5    0  503 -0.26631566349E+01  0.17975521410E+02  0.97122852919E+02  0.98919918785E+02  0.47000000000E+01 0. -1.
<mgrwt>
<rscale>  0 0.27483944E+03</rscale>
<asrwt>0</asrwt>
<pdfrwt beam="1">  1        1 0.47137473E-01 0.27483944E+03</pdfrwt>
<pdfrwt beam="2">  1       -1 0.94821122E-02 0.27483944E+03</pdfrwt>
<totfact> 0.56104191E+03</totfact>
</mgrwt>
</event>
<event>
 9    1  0.2095749E-002  0.2739019E+03  0.7818608E-02  0.1099067E+00
         -2   -1    0    0    0  501 -0.00000000000E+00  0.00000000000E+00  0.63612681112E+02  0.63612681112E+02  0.00000000000E+00 0. -1.
          2   -1    0    0  501    0  0.00000000000E+00 -0.00000000000E+00 -0.29483996852E+03  0.29483996852E+03  0.00000000000E+00 0. -1.
         36    2    1    2    0    0 -0.71054273576E-14  0.00000000000E+00 -0.23122728740E+03  0.35845264963E+03  0.27390188679E+03 0.  0.
         25    2    3    3    0    0 -0.25944436576E+02  0.48772053407E+02 -0.17482707000E+03  0.22125588238E+03  0.12384600962E+03 0.  0.
         25    2    3    3    0    0  0.25944436576E+02 -0.48772053407E+02 -0.56400217400E+02  0.13719676725E+03  0.11220579948E+03 0.  0.
          5    1    4    4  502    0 -0.44355811650E+02  0.73632941413E+02 -0.67313980226E+02  0.10928179181E+03  0.47000000000E+01 0.  1.
         -5    1    4    4    0  502  0.18411375074E+02 -0.24860888006E+02 -0.10751308978E+03  0.11197409057E+03  0.47000000000E+01 0.  1.
          5    1    5    5  503    0 -0.26374665863E+02 -0.43403192924E+02 -0.66119263927E+02  0.83506330405E+02  0.47000000000E+01 0.  1.
         -5    1    5    5    0  503  0.52319102439E+02 -0.53688604830E+01  0.97190465271E+01  0.53690436842E+02  0.47000000000E+01 0.  1.
<mgrwt>
<rscale>  0 0.27390189E+03</rscale>
<asrwt>0</asrwt>
<pdfrwt beam="1">  1        2 0.45359995E-01 0.27390189E+03</pdfrwt>
<pdfrwt beam="2">  1       -2 0.97865663E-02 0.27390189E+03</pdfrwt>
<totfact> 0.75940619E+03</totfact>
</mgrwt>
</event>
<event>
 9    1  0.2095749E-002  0.2755569E+03  0.7818608E-02  0.1098141E+00
          1   -1    0    0  501    0  0.00000000000E+00  0.00000000000E+00  0.24699441341E+03  0.24699441341E+03  0.00000000000E+00 0. -1.
         -1   -1    0    0    0  501 -0.00000000000E+00 -0.00000000000E+00 -0.76855585489E+02  0.76855585489E+02  0.00000000000E+00 0. -1.
         36    2    1    2    0    0  0.00000000000E+00  0.00000000000E+00  0.17013882792E+03  0.32384999889E+03  0.27555689253E+03 0.  0.
         25    2    3    3    0    0 -0.16530588725E+02  0.10573766458E+02  0.22806416020E+02  0.12719911790E+03  0.12358971673E+03 0.  0.
         25    2    3    3    0    0  0.16530588725E+02 -0.10573766458E+02  0.14733241190E+03  0.19665088099E+03  0.12876204604E+03 0.  0.
          5    1    4    4  502    0 -0.48625145550E+02 -0.21867234760E+02 -0.26608646610E+02  0.59771990181E+02  0.47000000000E+01 0. -1.
         -5    1    4    4    0  502  0.32094556825E+02  0.32441001218E+02  0.49415062630E+02  0.67427127720E+02  0.47000000000E+01 0. -1.
          5    1    5    5  503    0  0.47864051498E+02 -0.54033827224E+02  0.59520234427E+02  0.93676946025E+02  0.47000000000E+01 0. -1.
         -5    1    5    5    0  503 -0.31333462773E+02  0.43460060766E+02  0.87812177470E+02  0.10297393497E+03  0.47000000000E+01 0. -1.
<mgrwt>
<rscale>  0 0.27555689E+03</rscale>
<asrwt>0</asrwt>
<pdfrwt beam="1">  1        1 0.37999140E-01 0.27555689E+03</pdfrwt>
<pdfrwt beam="2">  1       -1 0.11823936E-01 0.27555689E+03</pdfrwt>
<totfact> 0.52230201E+03</totfact>
</mgrwt>
</event>
<event>
 9    1  0.2095749E-002  0.2755726E+03  0.7818608E-02  0.1098132E+00
          2   -1    0    0  501    0  0.00000000000E+00  0.00000000000E+00  0.39600896515E+03  0.39600896515E+03  0.00000000000E+00 0. -1.
         -2   -1    0    0    0  501 -0.00000000000E+00 -0.00000000000E+00 -0.47940991053E+02  0.47940991053E+02  0.00000000000E+00 0. -1.
         36    2    1    2    0    0 -0.71054273576E-14  0.00000000000E+00  0.34806797410E+03  0.44394995621E+03  0.27557258394E+03 0.  0.
         25    2    3    3    0    0 -0.42270915296E+02 -0.24804107754E+02  0.10162562467E+03  0.16317739530E+03  0.11788562552E+03 0.  0.
         25    2    3    3    0    0  0.42270915296E+02  0.24804107754E+02  0.24644234943E+03  0.28077256091E+03  0.12528896730E+03 0.  0.
          5    1    4    4  502    0  0.10386941574E+01 -0.84064372572E+01 -0.25777334859E+02  0.27537393947E+02  0.47000000000E+01 0.  1.
         -5    1    4    4    0  502 -0.43309609453E+02 -0.16397670497E+02  0.12740295953E+03  0.13564000135E+03  0.47000000000E+01 0.  1.
          5    1    5    5  503    0  0.86060806503E+02  0.78164355753E+01  0.17354254290E+03  0.19392437515E+03  0.47000000000E+01 0.  1.
         -5    1    5    5    0  503 -0.43789891208E+02  0.16987672179E+02  0.72899806531E+02  0.86848185763E+02  0.47000000000E+01 0.  1.
<mgrwt>
<rscale>  0 0.27557258E+03</rscale>
<asrwt>0</asrwt>
<pdfrwt beam="1">  1        2 0.60924454E-01 0.27557258E+03</pdfrwt>
<pdfrwt beam="2">  1       -2 0.73755373E-02 0.27557258E+03</pdfrwt>
<totfact> 0.86123761E+03</totfact>
</mgrwt>
</event>
<event>
 9    1  0.2095749E-002  0.2747477E+03  0.7818608E-02  0.1098593E+00
         -4   -1    0    0    0  501 -0.00000000000E+00  0.00000000000E+00  0.81254363499E+02  0.81254363499E+02  0.00000000000E+00 0. -1.
          4   -1    0    0  501    0  0.00000000000E+00 -0.00000000000E+00 -0.23225306203E+03  0.23225306203E+03  0.00000000000E+00 0. -1.
         36    2    1    2    0    0  0.00000000000E+00  0.00000000000E+00 -0.15099869853E+03  0.31350742553E+03  0.27474770045E+03 0.  0.
         25    2    3    3    0    0  0.31593978092E+02 -0.24702955290E+02 -0.11637089222E+03  0.17494704753E+03  0.12432163703E+03 0.  0.
         25    2    3    3    0    0 -0.31593978092E+02  0.24702955290E+02 -0.34627806313E+02  0.13856037800E+03  0.12802920733E+03 0.  0.
          5    1    4    4  502    0  0.65707456301E+02  0.81725799813E+01 -0.23201302479E+02  0.70318214666E+02  0.47000000000E+01 0.  1.
         -5    1    4    4    0  502 -0.34113478208E+02 -0.32875535271E+02 -0.93169589741E+02  0.10462883287E+03  0.47000000000E+01 0.  1.
          5    1    5    5  503    0 -0.13507239053E+02  0.39521211991E+02 -0.78262069577E+02  0.88833626733E+02  0.47000000000E+01 0. -1.
         -5    1    5    5    0  503 -0.18086739039E+02 -0.14818256702E+02  0.43634263264E+02  0.49726751265E+02  0.47000000000E+01 0. -1.
<mgrwt>
<rscale>  0 0.27474770E+03</rscale>
<asrwt>0</asrwt>
<pdfrwt beam="1">  1        4 0.35731240E-01 0.27474770E+03</pdfrwt>
<pdfrwt beam="2">  1       -4 0.12500671E-01 0.27474770E+03</pdfrwt>
<totfact> 0.73721352E+02</totfact>
</mgrwt>
</event>
<event>
 9    1  0.2095749E-002  0.2737863E+03  0.7818608E-02  0.1099132E+00
         -2   -1    0    0    0  501 -0.00000000000E+00  0.00000000000E+00  0.34811094630E+02  0.34811094630E+02  0.00000000000E+00 0. -1.
          2   -1    0    0  501    0  0.00000000000E+00 -0.00000000000E+00 -0.53832635405E+03  0.53832635405E+03  0.00000000000E+00 0. -1.
         36    2    1    2    0    0  0.00000000000E+00 -0.10658141036E-13 -0.50351525942E+03  0.57313744868E+03  0.27378626447E+03 0.  0.
         25    2    3    3    0    0 -0.96179964616E+01 -0.26755408353E+02 -0.14955436249E+03  0.19671005164E+03  0.12457920912E+03 0.  0.
         25    2    3    3    0    0  0.96179964616E+01  0.26755408353E+02 -0.35396089692E+03  0.37642739704E+03  0.12490360666E+03 0.  0.
          5    1    4    4  502    0 -0.50723573381E+01  0.20309624955E+02 -0.14760178751E+03  0.14915289924E+03  0.47000000000E+01 0. -1.
         -5    1    4    4    0  502 -0.45456391236E+01 -0.47065033308E+02 -0.19525749796E+01  0.47557152400E+02  0.47000000000E+01 0. -1.
          5    1    5    5  503    0  0.61183354840E+02  0.51634477995E+01 -0.10965697911E+03  0.12576488846E+03  0.47000000000E+01 0.  1.
         -5    1    5    5    0  503 -0.51565358378E+02  0.21591960553E+02 -0.24430391781E+03  0.25066250857E+03  0.47000000000E+01 0.  1.
<mgrwt>
<rscale>  0 0.27378626E+03</rscale>
<asrwt>0</asrwt>
<pdfrwt beam="1">  1        2 0.82819437E-01 0.27378626E+03</pdfrwt>
<pdfrwt beam="2">  1       -2 0.53555531E-02 0.27378626E+03</pdfrwt>
<totfact> 0.10030216E+04</totfact>
</mgrwt>
</event>
<event>
 9    1  0.2095749E-002  0.2745986E+03  0.7818608E-02  0.1098676E+00
         -2   -1    0    0    0  501 -0.00000000000E+00  0.00000000000E+00  0.18179762804E+02  0.18179762804E+02  0.00000000000E+00 0. -1.
          2   -1    0    0  501    0  0.00000000000E+00 -0.00000000000E+00 -0.10369279102E+04  0.10369279102E+04  0.00000000000E+00 0. -1.
         36    2    1    2    0    0 -0.35527136788E-14  0.00000000000E+00 -0.10187481474E+04  0.10551076730E+04  0.27459864131E+03 0.  0.
         25    2    3    3    0    0  0.24033038399E+02  0.13732637115E+02 -0.54731900436E+03  0.56657743237E+03  0.14382531793E+03 0.  0.
         25    2    3    3    0    0 -0.24033038399E+02 -0.13732637115E+02 -0.47142914308E+03  0.48853024068E+03  0.12510070686E+03 0.  0.
          5    1    4    4  502    0  0.13095408262E+02 -0.13843164946E+02 -0.12324588238E+01  0.19665499944E+02  0.47000000000E+01 0.  1.
         -5    1    4    4    0  502  0.10937630137E+02  0.27575802061E+02 -0.54608654553E+03  0.54691193242E+03  0.47000000000E+01 0.  1.
          5    1    5    5  503    0 -0.17353925050E+02  0.23380715597E+01 -0.47010533480E+03  0.47045482365E+03  0.47000000000E+01 0. -1.
         -5    1    5    5    0  503 -0.66791133495E+01 -0.16070708675E+02 -0.13238082866E+01  0.18075417030E+02  0.47000000000E+01 0. -1.
<mgrwt>
<rscale>  0 0.27459864E+03</rscale>
<asrwt>0</asrwt>
<pdfrwt beam="1">  1        2 0.15952739E+00 0.27459864E+03</pdfrwt>
<pdfrwt beam="2">  1       -2 0.27968863E-02 0.27459864E+03</pdfrwt>
<totfact> 0.11693983E+04</totfact>
</mgrwt>
</event>
<event>
 9    1  0.2095749E-002  0.2753223E+03  0.7818608E-02  0.1098272E+00
          1   -1    0    0  501    0  0.00000000000E+00  0.00000000000E+00  0.24952102293E+04  0.24952102293E+04  0.00000000000E+00 0.  1.
         -1   -1    0    0    0  501 -0.00000000000E+00 -0.00000000000E+00 -0.75947851348E+01  0.75947851348E+01  0.00000000000E+00 0.  1.
         36    2    1    2    0    0  0.00000000000E+00 -0.26645352591E-14  0.24876154442E+04  0.25028050145E+04  0.27532225161E+03 0.  0.
         25    2    3    3    0    0 -0.23730503919E+01 -0.18669915858E+01  0.79569758028E+03  0.80618348316E+03  0.12956871629E+03 0.  0.
         25    2    3    3    0    0  0.23730503919E+01  0.18669915858E+01  0.16919178639E+04  0.16966215313E+04  0.12621190595E+03 0.  0.
          5    1    4    4  502    0  0.57381483014E+02 -0.78684729272E+01  0.22758960082E+03  0.23489074877E+03  0.47000000000E+01 0.  1.
         -5    1    4    4    0  502 -0.59754533406E+02  0.60014813414E+01  0.56810797946E+03  0.57129273439E+03  0.47000000000E+01 0.  1.
          5    1    5    5  503    0 -0.35259993662E+02  0.30536773953E+02  0.27955605798E+03  0.28345977011E+03  0.47000000000E+01 0.  1.
         -5    1    5    5    0  503  0.37633044054E+02 -0.28669782367E+02  0.14123618059E+04  0.14131617612E+04  0.47000000000E+01 0.  1.
<mgrwt>
<rscale>  0 0.27532225E+03</rscale>
<asrwt>0</asrwt>
<pdfrwt beam="1">  1        1 0.38387784E+00 0.27532225E+03</pdfrwt>
<pdfrwt beam="2">  1       -1 0.11684305E-02 0.27532225E+03</pdfrwt>
<totfact> 0.23976414E+03</totfact>
</mgrwt>
</event>
<event>
 9    1  0.2095749E-002  0.2755317E+03  0.7818608E-02  0.1098155E+00
          1   -1    0    0  501    0  0.00000000000E+00  0.00000000000E+00  0.12356400416E+04  0.12356400416E+04  0.00000000000E+00 0.  1.
         -1   -1    0    0    0  501 -0.00000000000E+00 -0.00000000000E+00 -0.15359997420E+02  0.15359997420E+02  0.00000000000E+00 0.  1.
         36    2    1    2    0    0  0.71054273576E-14  0.00000000000E+00  0.12202800442E+04  0.12510000390E+04  0.27553168856E+03 0.  0.
         25    2    3    3    0    0 -0.20273452050E+02 -0.45354643215E+02  0.49572464889E+03  0.51367472570E+03  0.12510291675E+03 0.  0.
         25    2    3    3    0    0  0.20273452050E+02  0.45354643215E+02  0.72455539529E+03  0.73732531333E+03  0.12727937896E+03 0.  0.
          5    1    4    4  502    0  0.29794477774E+02  0.28904628271E+02  0.11012564301E+03  0.11778342705E+03  0.47000000000E+01 0.  1.
         -5    1    4    4    0  502 -0.50067929824E+02 -0.74259271486E+02  0.38559900589E+03  0.39589129864E+03  0.47000000000E+01 0.  1.
          5    1    5    5  503    0 -0.44778834339E+02 -0.14120713597E+02  0.30032728110E+03  0.30401168453E+03  0.47000000000E+01 0. -1.
         -5    1    5    5    0  503  0.65052286389E+02  0.59475356812E+02  0.42422811420E+03  0.43331362880E+03  0.47000000000E+01 0. -1.
<mgrwt>
<rscale>  0 0.27553169E+03</rscale>
<asrwt>0</asrwt>
<pdfrwt beam="1">  1        1 0.19009839E+00 0.27553169E+03</pdfrwt>
<pdfrwt beam="2">  1       -1 0.23630775E-02 0.27553169E+03</pdfrwt>
<totfact> 0.58011060E+03</totfact>
</mgrwt>
</event>
<event>
 9    1  0.2095749E-002  0.2750807E+03  0.7818608E-02  0.1098406E+00
          1   -1    0    0  501    0  0.00000000000E+00  0.00000000000E+00  0.56030972083E+03  0.56030972083E+03  0.00000000000E+00 0.  1.
         -1   -1    0    0    0  501 -0.00000000000E+00 -0.00000000000E+00 -0.33762305593E+02  0.33762305593E+02  0.00000000000E+00 0.  1.
         36    2    1    2    0    0  0.71054273576E-14 -0.71054273576E-14  0.52654741523E+03  0.59407202642E+03  0.27508070104E+03 0.  0.
         25    2    3    3    0    0  0.16910509752E+02 -0.23365473615E+02  0.37942462459E+03  0.39976633550E+03  0.12254862936E+03 0.  0.
         25    2    3    3    0    0 -0.16910509752E+02  0.23365473615E+02  0.14712279064E+03  0.19430569092E+03  0.12360289357E+03 0.  0.
          5    1    4    4  502    0 -0.33508022093E+02 -0.27518976196E+02  0.49585432416E+02  0.66037010103E+02  0.47000000000E+01 0.  1.
         -5    1    4    4    0  502  0.50418531846E+02  0.41535025806E+01  0.32983919217E+03  0.33372932540E+03  0.47000000000E+01 0.  1.
          5    1    5    5  503    0 -0.53051639988E+02 -0.14389335985E+02  0.12634775782E+03  0.13786723832E+03  0.47000000000E+01 0. -1.
         -5    1    5    5    0  503  0.36141130236E+02  0.37754809600E+02  0.20775032821E+02  0.56438452596E+02  0.47000000000E+01 0.  1.
<mgrwt>
<rscale>  0 0.27508070E+03</rscale>
<asrwt>0</asrwt>
<pdfrwt beam="1">  1        1 0.86201489E-01 0.27508070E+03</pdfrwt>
<pdfrwt beam="2">  1       -1 0.51942013E-02 0.27508070E+03</pdfrwt>
<totfact> 0.64014885E+03</totfact>
</mgrwt>
</event>
<event>
 9    1  0.2095749E-002  0.2719458E+03  0.7818608E-02  0.1100171E+00
          4   -1    0    0  501    0  0.00000000000E+00  0.00000000000E+00  0.78830427156E+03  0.78830427156E+03  0.00000000000E+00 0. -1.
         -4   -1    0    0    0  501 -0.00000000000E+00 -0.00000000000E+00 -0.23453679608E+02  0.23453679608E+02  0.00000000000E+00 0. -1.
         36    2    1    2    0    0  0.00000000000E+00 -0.17763568394E-14  0.76485059196E+03  0.81175795117E+03  0.27194584622E+03 0.  0.
         25    2    3    3    0    0  0.27806336674E+02 -0.30888654032E+01  0.50442604554E+03  0.52015528171E+03  0.12382709001E+03 0.  0.
         25    2    3    3    0    0 -0.27806336674E+02  0.30888654032E+01  0.26042454642E+03  0.29160266946E+03  0.12817347235E+03 0.  0.
          5    1    4    4  502    0  0.42701899452E+02  0.19837146149E+02  0.48244845908E+03  0.48476341678E+03  0.47000000000E+01 0. -1.
         -5    1    4    4    0  502 -0.14895562778E+02 -0.22926011552E+02  0.21977586461E+02  0.35391864924E+02  0.47000000000E+01 0. -1.
          5    1    5    5  503    0 -0.74476948374E+02 -0.11308902556E+02  0.11021244958E+03  0.13357986809E+03  0.47000000000E+01 0.  1.
         -5    1    5    5    0  503  0.46670611700E+02  0.14397767959E+02  0.15021209683E+03  0.15802280137E+03  0.47000000000E+01 0.  1.
<mgrwt>
<rscale>  0 0.27194585E+03</rscale>
<asrwt>0</asrwt>
<pdfrwt beam="1">  1        4 0.12127756E+00 0.27194585E+03</pdfrwt>
<pdfrwt beam="2">  1       -4 0.36082590E-02 0.27194585E+03</pdfrwt>
<totfact> 0.40601458E+02</totfact>
</mgrwt>
</event>
<event>
 9    1  0.2095749E-002  0.2753562E+03  0.7818608E-02  0.1098253E+00
          1   -1    0    0  501    0  0.00000000000E+00  0.00000000000E+00  0.74804258531E+03  0.74804258531E+03  0.00000000000E+00 0.  1.
         -1   -1    0    0    0  501 -0.00000000000E+00 -0.00000000000E+00 -0.25339819949E+02  0.25339819949E+02  0.00000000000E+00 0.  1.
         36    2    1    2    0    0  0.00000000000E+00  0.71054273576E-14  0.72270276537E+03  0.77338240526E+03  0.27535623781E+03 0.  0.
         25    2    3    3    0    0  0.31968943319E+01 -0.48775533112E+02  0.27612177159E+03  0.30653682473E+03  0.12382374332E+03 0.  0.
         25    2    3    3    0    0 -0.31968943319E+01  0.48775533112E+02  0.44658099378E+03  0.46684558053E+03  0.12696826095E+03 0.  0.
          5    1    4    4  502    0  0.20582633425E+02  0.28426978543E+01 -0.35281971415E+01  0.21593144859E+02  0.47000000000E+01 0. -1.
         -5    1    4    4    0  502 -0.17385739094E+02 -0.51618230966E+02  0.27964996873E+03  0.28494367988E+03  0.47000000000E+01 0. -1.
          5    1    5    5  503    0  0.52410671904E+02  0.32559058855E+02  0.33871297169E+03  0.34431894811E+03  0.47000000000E+01 0. -1.
         -5    1    5    5    0  503 -0.55607566236E+02  0.16216474257E+02  0.10786802209E+03  0.12252663241E+03  0.47000000000E+01 0. -1.
<mgrwt>
<rscale>  0 0.27535624E+03</rscale>
<asrwt>0</asrwt>
<pdfrwt beam="1">  1        1 0.11508346E+00 0.27535624E+03</pdfrwt>
<pdfrwt beam="2">  1       -1 0.38984344E-02 0.27535624E+03</pdfrwt>
<totfact> 0.65106193E+03</totfact>
</mgrwt>
</event>
<event>
 9    1  0.2095749E-002  0.2747441E+03  0.7818608E-02  0.1098595E+00
         -2   -1    0    0    0  501 -0.00000000000E+00  0.00000000000E+00  0.12653353763E+02  0.12653353763E+02  0.00000000000E+00 0. -1.
          2   -1    0    0  501    0  0.00000000000E+00 -0.00000000000E+00 -0.14913897299E+04  0.14913897299E+04  0.00000000000E+00 0. -1.
         36    2    1    2    0    0 -0.71054273576E-14  0.00000000000E+00 -0.14787363761E+04  0.15040430837E+04  0.27474411259E+03 0.  0.
         25    2    3    3    0    0 -0.40496489251E+02  0.40055440622E+02 -0.72836590442E+03  0.74107119072E+03  0.12419828914E+03 0.  0.
         25    2    3    3    0    0  0.40496489251E+02 -0.40055440622E+02 -0.75037047171E+03  0.76297189294E+03  0.12580087692E+03 0.  0.
          5    1    4    4  502    0 -0.53119260824E+02 -0.73504183826E+01 -0.13034921727E+03  0.14102727738E+03  0.47000000000E+01 0. -1.
         -5    1    4    4    0  502  0.12622771573E+02  0.47405859004E+02 -0.59801668715E+03  0.60004391334E+03  0.47000000000E+01 0. -1.
          5    1    5    5  503    0  0.35260532587E+02  0.20752720909E+02 -0.81579792487E+02  0.91385628661E+02  0.47000000000E+01 0.  1.
         -5    1    5    5    0  503  0.52359566635E+01 -0.60808161530E+02 -0.66879067922E+03  0.67158626428E+03  0.47000000000E+01 0.  1.
<mgrwt>
<rscale>  0 0.27474411E+03</rscale>
<asrwt>0</asrwt>
<pdfrwt beam="1">  1        2 0.22944460E+00 0.27474411E+03</pdfrwt>
<pdfrwt beam="2">  1       -2 0.19466696E-02 0.27474411E+03</pdfrwt>
<totfact> 0.11093053E+04</totfact>
</mgrwt>
</event>
<event>
 9    1  0.2095749E-002  0.2749210E+03  0.7818608E-02  0.1098496E+00
          2   -1    0    0  501    0  0.00000000000E+00  0.00000000000E+00  0.11369398104E+04  0.11369398104E+04  0.00000000000E+00 0. -1.
         -2   -1    0    0    0  501 -0.00000000000E+00 -0.00000000000E+00 -0.16619512487E+02  0.16619512487E+02  0.00000000000E+00 0. -1.
         36    2    1    2    0    0 -0.71054273576E-14  0.35527136788E-14  0.11203202979E+04  0.11535593229E+04  0.27492097320E+03 0.  0.
         25    2    3    3    0    0  0.58045114395E+02 -0.16417813591E+02  0.56831401259E+03  0.58465468305E+03  0.12329436967E+03 0.  0.
         25    2    3    3    0    0 -0.58045114395E+02  0.16417813591E+02  0.55200628536E+03  0.56890463988E+03  0.12370436649E+03 0.  0.
          5    1    4    4  502    0  0.55000091536E+01 -0.63610958995E+02  0.21542732191E+03  0.22473901582E+03  0.47000000000E+01 0.  1.
         -5    1    4    4    0  502  0.52545105242E+02  0.47193145403E+02  0.35288669068E+03  0.35991566723E+03  0.47000000000E+01 0.  1.
          5    1    5    5  503    0  0.14332864939E+02 -0.29113035627E+02  0.31862236819E+03  0.32030501615E+03  0.47000000000E+01 0. -1.
         -5    1    5    5    0  503 -0.72377979334E+02  0.45530849218E+02  0.23338391717E+03  0.24859962372E+03  0.47000000000E+01 0. -1.
<mgrwt>
<rscale>  0 0.27492097E+03</rscale>
<asrwt>0</asrwt>
<pdfrwt beam="1">  1        2 0.17491376E+00 0.27492097E+03</pdfrwt>
<pdfrwt beam="2">  1       -2 0.25568490E-02 0.27492097E+03</pdfrwt>
<totfact> 0.11660057E+04</totfact>
</mgrwt>
</event>
<event>
 9    1  0.2095749E-002  0.2749394E+03  0.7818608E-02  0.1098485E+00
          1   -1    0    0  501    0  0.00000000000E+00  0.00000000000E+00  0.30287867850E+03  0.30287867850E+03  0.00000000000E+00 0. -1.
         -1   -1    0    0    0  501 -0.00000000000E+00 -0.00000000000E+00 -0.62394357651E+02  0.62394357651E+02  0.00000000000E+00 0. -1.
         36    2    1    2    0    0  0.00000000000E+00  0.00000000000E+00  0.24048432085E+03  0.36527303615E+03  0.27493941581E+03 0.  0.
         25    2    3    3    0    0 -0.12124448411E+02  0.37304317596E+02  0.60125459708E+02  0.14267975147E+03  0.12330379643E+03 0.  0.
         25    2    3    3    0    0  0.12124448411E+02 -0.37304317596E+02  0.18035886114E+03  0.22259328468E+03  0.12441799400E+03 0.  0.
          5    1    4    4  502    0 -0.45258073399E+02  0.68759268901E+02  0.47032063076E+02  0.94922258848E+02  0.47000000000E+01 0.  1.
         -5    1    4    4    0  502  0.33133624988E+02 -0.31454951306E+02  0.13093396631E+02  0.47757492625E+02  0.47000000000E+01 0.  1.
          5    1    5    5  503    0  0.24238570683E+02 -0.71371109721E+02  0.16783164666E+03  0.18404047172E+03  0.47000000000E+01 0. -1.
         -5    1    5    5    0  503 -0.12114122272E+02  0.34066792126E+02  0.12527214483E+02  0.38552812957E+02  0.47000000000E+01 0. -1.
<mgrwt>
<rscale>  0 0.27493942E+03</rscale>
<asrwt>0</asrwt>
<pdfrwt beam="1">  1        1 0.46596719E-01 0.27493942E+03</pdfrwt>
<pdfrwt beam="2">  1       -1 0.95991322E-02 0.27493942E+03</pdfrwt>
<totfact> 0.55859224E+03</totfact>
</mgrwt>
</event>
<event>
 9    1  0.2095749E-002  0.2745640E+03  0.7818608E-02  0.1098696E+00
          2   -1    0    0  501    0  0.00000000000E+00  0.00000000000E+00  0.30389203075E+04  0.30389203075E+04  0.00000000000E+00 0. -1.
         -2   -1    0    0    0  501 -0.00000000000E+00 -0.00000000000E+00 -0.62016607696E+01  0.62016607696E+01  0.00000000000E+00 0. -1.
         36    2    1    2    0    0 -0.71054273576E-14  0.00000000000E+00  0.30327186467E+04  0.30451219683E+04  0.27456403882E+03 0.  0.
         25    2    3    3    0    0  0.28152952345E+02 -0.56472577439E+01  0.10165720046E+04  0.10247869728E+04  0.12627437927E+03 0.  0.
         25    2    3    3    0    0 -0.28152952345E+02  0.56472577439E+01  0.20161466422E+04  0.20203349955E+04  0.12681376525E+03 0.  0.
          5    1    4    4  502    0  0.73318427856E+02  0.83731442269E+01  0.77943383244E+03  0.78293351606E+03  0.47000000000E+01 0. -1.
         -5    1    4    4    0  502 -0.45165475512E+02 -0.14020401971E+02  0.23713817212E+03  0.24185345672E+03  0.47000000000E+01 0. -1.
          5    1    5    5  503    0 -0.30737069908E+02 -0.20628122474E+02  0.17234061573E+03  0.17633395797E+03  0.47000000000E+01 0. -1.
         -5    1    5    5    0  503  0.25841175630E+01  0.26275380218E+02  0.18438060264E+04  0.18440010375E+04  0.47000000000E+01 0. -1.
<mgrwt>
<rscale>  0 0.27456404E+03</rscale>
<asrwt>0</asrwt>
<pdfrwt beam="1">  1        2 0.46752501E+00 0.27456404E+03</pdfrwt>
<pdfrwt beam="2">  1       -2 0.95410409E-03 0.27456404E+03</pdfrwt>
<totfact> 0.45094520E+03</totfact>
</mgrwt>
</event>
<event>
 9    1  0.2095749E-002  0.2737169E+03  0.7818608E-02  0.1099171E+00
         -2   -1    0    0    0  501 -0.00000000000E+00  0.00000000000E+00  0.81363580323E+02  0.81363580323E+02  0.00000000000E+00 0.  1.
          2   -1    0    0  501    0  0.00000000000E+00 -0.00000000000E+00 -0.23020415434E+03  0.23020415434E+03  0.00000000000E+00 0.  1.
         36    2    1    2    0    0  0.00000000000E+00  0.00000000000E+00 -0.14884057401E+03  0.31156773466E+03  0.27371689171E+03 0.  0.
         25    2    3    3    0    0  0.58864935382E+01 -0.50686925826E+02 -0.10909245895E+03  0.17380433806E+03  0.12531148420E+03 0.  0.
         25    2    3    3    0    0 -0.58864935382E+01  0.50686925826E+02 -0.39748115067E+02  0.13776339660E+03  0.12163480397E+03 0.  0.
          5    1    4    4  502    0  0.27105043779E+02 -0.21110952469E+02  0.19701970748E+02  0.39882494452E+02  0.47000000000E+01 0. -1.
         -5    1    4    4    0  502 -0.21218550240E+02 -0.29575973357E+02 -0.12879442969E+03  0.13392184361E+03  0.47000000000E+01 0. -1.
          5    1    5    5  503    0 -0.23748844935E+02 -0.21841354984E+02 -0.52539683529E+02  0.61834947793E+02  0.47000000000E+01 0.  1.
         -5    1    5    5    0  503  0.17862351397E+02  0.72528280810E+02  0.12791568462E+02  0.75928448808E+02  0.47000000000E+01 0.  1.
<mgrwt>
<rscale>  0 0.27371689E+03</rscale>
<asrwt>0</asrwt>
<pdfrwt beam="1">  1        2 0.35416023E-01 0.27371689E+03</pdfrwt>
<pdfrwt beam="2">  1       -2 0.12517474E-01 0.27371689E+03</pdfrwt>
<totfact> 0.66841183E+03</totfact>
</mgrwt>
</event>
<event>
 9    1  0.2095749E-002  0.2748261E+03  0.7818608E-02  0.1098549E+00
          2   -1    0    0  501    0  0.00000000000E+00  0.00000000000E+00  0.57971727857E+03  0.57971727857E+03  0.00000000000E+00 0.  1.
         -2   -1    0    0    0  501 -0.00000000000E+00 -0.00000000000E+00 -0.32571649309E+02  0.32571649309E+02  0.00000000000E+00 0.  1.
         36    2    1    2    0    0 -0.71054273576E-14  0.00000000000E+00  0.54714562926E+03  0.61228892788E+03  0.27482611154E+03 0.  0.
         25    2    3    3    0    0  0.20732351771E+02  0.43867028254E+02  0.25675735975E+03  0.29273531710E+03  0.13196771391E+03 0.  0.
         25    2    3    3    0    0 -0.20732351771E+02 -0.43867028254E+02  0.29038826952E+03  0.31955361078E+03  0.12423774191E+03 0.  0.
          5    1    4    4  502    0 -0.29254778644E+01 -0.43549615560E+02  0.47532870960E+02  0.64703873592E+02  0.47000000000E+01 0. -1.
         -5    1    4    4    0  502  0.23657829635E+02  0.87416643813E+02  0.20922448879E+03  0.22803144351E+03  0.47000000000E+01 0. -1.
          5    1    5    5  503    0  0.46710821979E+02 -0.41595966880E+02  0.10623964879E+03  0.12337373434E+03  0.47000000000E+01 0. -1.
         -5    1    5    5    0  503 -0.67443173750E+02 -0.22710613738E+01  0.18414862072E+03  0.19617987644E+03  0.47000000000E+01 0. -1.
<mgrwt>
<rscale>  0 0.27482611E+03</rscale>
<asrwt>0</asrwt>
<pdfrwt beam="1">  1        2 0.89187266E-01 0.27482611E+03</pdfrwt>
<pdfrwt beam="2">  1       -2 0.50110234E-02 0.27482611E+03</pdfrwt>
<totfact> 0.10199535E+04</totfact>
</mgrwt>
</event>
<event>
 9    1  0.2095749E-002  0.2734519E+03  0.7818608E-02  0.1099320E+00
         -2   -1    0    0    0  501 -0.00000000000E+00  0.00000000000E+00  0.55331194037E+02  0.55331194037E+02  0.00000000000E+00 0.  1.
          2   -1    0    0  501    0  0.00000000000E+00 -0.00000000000E+00 -0.33785619804E+03  0.33785619804E+03  0.00000000000E+00 0.  1.
         36    2    1    2    0    0  0.00000000000E+00  0.00000000000E+00 -0.28252500401E+03  0.39318739208E+03  0.27345191058E+03 0.  0.
         25    2    3    3    0    0  0.22263628602E+02 -0.14670526813E+01 -0.21330173862E+03  0.24459298246E+03  0.11760218521E+03 0.  0.
         25    2    3    3    0    0 -0.22263628602E+02  0.14670526813E+01 -0.69223265388E+02  0.14859440963E+03  0.12957861204E+03 0.  0.
          5    1    4    4  502    0 -0.20549283256E+02  0.12089652227E+02  0.22108446085E+01  0.24401036191E+02  0.47000000000E+01 0. -1.
         -5    1    4    4    0  502  0.42812911858E+02 -0.13556704909E+02 -0.21551258323E+03  0.22019194626E+03  0.47000000000E+01 0. -1.
          5    1    5    5  503    0 -0.39735552036E+01  0.53440306646E+02  0.71894852132E+01  0.54271854704E+02  0.47000000000E+01 0.  1.
         -5    1    5    5    0  503 -0.18290073398E+02 -0.51973253965E+02 -0.76412750601E+02  0.94322554922E+02  0.47000000000E+01 0.  1.
<mgrwt>
<rscale>  0 0.27345191E+03</rscale>
<asrwt>0</asrwt>
<pdfrwt beam="1">  1        2 0.51977876E-01 0.27345191E+03</pdfrwt>
<pdfrwt beam="2">  1       -2 0.85124916E-02 0.27345191E+03</pdfrwt>
<totfact> 0.81728113E+03</totfact>
</mgrwt>
</event>
<event>
 9    1  0.2095749E-002  0.2770609E+03  0.7818608E-02  0.1097305E+00
          1   -1    0    0  501    0  0.00000000000E+00  0.00000000000E+00  0.64266246065E+03  0.64266246065E+03  0.00000000000E+00 0. -1.
         -1   -1    0    0    0  501 -0.00000000000E+00 -0.00000000000E+00 -0.29861228847E+02  0.29861228847E+02  0.00000000000E+00 0. -1.
         36    2    1    2    0    0  0.00000000000E+00  0.00000000000E+00  0.61280123180E+03  0.67252368949E+03  0.27706093776E+03 0.  0.
         25    2    3    3    0    0 -0.38976747718E+02 -0.35550433925E+02  0.37426920528E+03  0.39932060842E+03  0.12882736538E+03 0.  0.
         25    2    3    3    0    0  0.38976747718E+02  0.35550433925E+02  0.23853202652E+03  0.27320308108E+03  0.12230852635E+03 0.  0.
          5    1    4    4  502    0 -0.35308960773E+02  0.43953312899E+02  0.19669727653E+03  0.20467174944E+03  0.47000000000E+01 0. -1.
         -5    1    4    4    0  502 -0.36677869453E+01 -0.79503746824E+02  0.17757192875E+03  0.19464885897E+03  0.47000000000E+01 0. -1.
          5    1    5    5  503    0  0.80724908771E+02  0.40332959088E+02  0.17375353131E+03  0.19584595509E+03  0.47000000000E+01 0. -1.
         -5    1    5    5    0  503 -0.41748161053E+02 -0.47825251629E+01  0.64778495211E+02  0.77357125981E+02  0.47000000000E+01 0. -1.
<mgrwt>
<rscale>  0 0.27706094E+03</rscale>
<asrwt>0</asrwt>
<pdfrwt beam="1">  1        1 0.98871138E-01 0.27706094E+03</pdfrwt>
<pdfrwt beam="2">  1       -1 0.45940357E-02 0.27706094E+03</pdfrwt>
<totfact> 0.63598003E+03</totfact>
</mgrwt>
</event>
<event>
 9    1  0.2095749E-002  0.2739174E+03  0.7818608E-02  0.1099058E+00
         -2   -1    0    0    0  501 -0.00000000000E+00  0.00000000000E+00  0.22498855185E+02  0.22498855185E+02  0.00000000000E+00 0. -1.
          2   -1    0    0  501    0  0.00000000000E+00 -0.00000000000E+00 -0.83371736263E+03  0.83371736263E+03  0.00000000000E+00 0. -1.
         36    2    1    2    0    0  0.71054273576E-14 -0.71054273576E-14 -0.81121850745E+03  0.85621621782E+03  0.27391740512E+03 0.  0.
         25    2    3    3    0    0 -0.23192290995E+02  0.46202094832E+02 -0.34901406170E+03  0.37467545505E+03  0.12608872043E+03 0.  0.
         25    2    3    3    0    0  0.23192290995E+02 -0.46202094832E+02 -0.46220444574E+03  0.48154076277E+03  0.12480400881E+03 0.  0.
          5    1    4    4  502    0 -0.57522802928E+02  0.25938196637E+02 -0.76758945454E+02  0.99477075795E+02  0.47000000000E+01 0.  1.
         -5    1    4    4    0  502  0.34330511933E+02  0.20263898195E+02 -0.27225511625E+03  0.27519837925E+03  0.47000000000E+01 0.  1.
          5    1    5    5  503    0 -0.44308749565E+02  0.80162116881E+00 -0.91294790927E+02  0.10159102684E+03  0.47000000000E+01 0. -1.
         -5    1    5    5    0  503  0.67501040560E+02 -0.47003716000E+02 -0.37090965482E+03  0.37994973593E+03  0.47000000000E+01 0. -1.
<mgrwt>
<rscale>  0 0.27391741E+03</rscale>
<asrwt>0</asrwt>
<pdfrwt beam="1">  1        2 0.12826420E+00 0.27391741E+03</pdfrwt>
<pdfrwt beam="2">  1       -2 0.34613625E-02 0.27391741E+03</pdfrwt>
<totfact> 0.11454496E+04</totfact>
</mgrwt>
</event>
<event>
 9    1  0.2095749E-002  0.2759912E+03  0.7818608E-02  0.1097899E+00
          2   -1    0    0  501    0  0.00000000000E+00  0.00000000000E+00  0.18452554541E+04  0.18452554541E+04  0.00000000000E+00 0.  1.
         -2   -1    0    0    0  501 -0.00000000000E+00 -0.00000000000E+00 -0.10319860671E+02  0.10319860671E+02  0.00000000000E+00 0.  1.
         36    2    1    2    0    0  0.71054273576E-14 -0.71054273576E-14  0.18349355935E+04  0.18555753148E+04  0.27599115341E+03 0.  0.
         25    2    3    3    0    0 -0.40291344698E+02 -0.43285441020E+02  0.94008815085E+03  0.95006748490E+03  0.12395754370E+03 0.  0.
         25    2    3    3    0    0  0.40291344698E+02  0.43285441020E+02  0.89484744261E+03  0.90550782990E+03  0.12528153336E+03 0.  0.
          5    1    4    4  502    0 -0.83785916637E+02 -0.21672730656E+02  0.52272165328E+03  0.52985828661E+03  0.47000000000E+01 0.  1.
         -5    1    4    4    0  502  0.43494571939E+02 -0.21612710364E+02  0.41736649757E+03  0.42020919829E+03  0.47000000000E+01 0.  1.
          5    1    5    5  503    0  0.21751568042E+02  0.81016439346E+02  0.74754828063E+03  0.75225482120E+03  0.47000000000E+01 0. -1.
         -5    1    5    5    0  503  0.18539776655E+02 -0.37730998326E+02  0.14729916198E+03  0.15325300869E+03  0.47000000000E+01 0. -1.
<mgrwt>
<rscale>  0 0.27599115E+03</rscale>
<asrwt>0</asrwt>
<pdfrwt beam="1">  1        2 0.28388519E+00 0.27599115E+03</pdfrwt>
<pdfrwt beam="2">  1       -2 0.15876723E-02 0.27599115E+03</pdfrwt>
<totfact> 0.97269420E+03</totfact>
</mgrwt>
</event>
<event>
 9    1  0.2095749E-002  0.2769470E+03  0.7818608E-02  0.1097368E+00
          3   -1    0    0  501    0  0.00000000000E+00  0.00000000000E+00  0.70692697071E+02  0.70692697071E+02  0.00000000000E+00 0.  1.
         -3   -1    0    0    0  501 -0.00000000000E+00 -0.00000000000E+00 -0.27124307030E+03  0.27124307030E+03  0.00000000000E+00 0.  1.
         36    2    1    2    0    0  0.00000000000E+00 -0.71054273576E-14 -0.20055037323E+03  0.34193576737E+03  0.27694695666E+03 0.  0.
         25    2    3    3    0    0  0.43436542423E+02  0.29475031895E+01 -0.15110038729E+03  0.20033539008E+03  0.12412703366E+03 0.  0.
         25    2    3    3    0    0 -0.43436542423E+02 -0.29475031895E+01 -0.49449985939E+02  0.14160037730E+03  0.12533931844E+03 0.  0.
          5    1    4    4  502    0  0.48108865097E+00  0.48619637037E+02 -0.16136930878E+02  0.51445029790E+02  0.47000000000E+01 0. -1.
         -5    1    4    4    0  502  0.42955453772E+02 -0.45672133848E+02 -0.13496345641E+03  0.14889036029E+03  0.47000000000E+01 0. -1.
          5    1    5    5  503    0  0.18801000557E+02 -0.48837421771E+02 -0.34063936310E+02  0.62617993773E+02  0.47000000000E+01 0.  1.
         -5    1    5    5    0  503 -0.62237542981E+02  0.45889918582E+02 -0.15386049628E+02  0.78982383523E+02  0.47000000000E+01 0.  1.
<mgrwt>
<rscale>  0 0.27694696E+03</rscale>
<asrwt>0</asrwt>
<pdfrwt beam="1">  1        3 0.10875800E-01 0.27694696E+03</pdfrwt>
<pdfrwt beam="2">  1       -3 0.41729703E-01 0.27694696E+03</pdfrwt>
<totfact> 0.93292568E+02</totfact>
</mgrwt>
</event>
<event>
 9    1  0.2095749E-002  0.2762991E+03  0.7818608E-02  0.1097728E+00
         -2   -1    0    0    0  501 -0.00000000000E+00  0.00000000000E+00  0.10882661911E+03  0.10882661911E+03  0.00000000000E+00 0.  1.
          2   -1    0    0  501    0  0.00000000000E+00 -0.00000000000E+00 -0.17537337876E+03  0.17537337876E+03  0.00000000000E+00 0.  1.
         36    2    1    2    0    0  0.71054273576E-14 -0.71054273576E-14 -0.66546759651E+02  0.28419999786E+03  0.27629905459E+03 0.  0.
         25    2    3    3    0    0  0.44487059038E+02 -0.24676743889E+02 -0.12451084667E+02  0.13988715503E+03  0.12971255345E+03 0.  0.
         25    2    3    3    0    0 -0.44487059038E+02  0.24676743889E+02 -0.54095674984E+02  0.14431284283E+03  0.12374091661E+03 0.  0.
          5    1    4    4  502    0  0.71875558876E+02  0.27259665727E+02  0.82423107437E+01  0.77454573949E+02  0.47000000000E+01 0.  1.
         -5    1    4    4    0  502 -0.27388499837E+02 -0.51936409615E+02 -0.20693395411E+02  0.62432581083E+02  0.47000000000E+01 0.  1.
          5    1    5    5  503    0 -0.57953045330E+02  0.58535441930E+02 -0.66039619406E+02  0.10568005846E+03  0.47000000000E+01 0. -1.
         -5    1    5    5    0  503  0.13465986292E+02 -0.33858698042E+02  0.11943944421E+02  0.38632784371E+02  0.47000000000E+01 0. -1.
<mgrwt>
<rscale>  0 0.27629905E+03</rscale>
<asrwt>0</asrwt>
<pdfrwt beam="1">  1        2 0.26980520E-01 0.27629905E+03</pdfrwt>
<pdfrwt beam="2">  1       -2 0.16742557E-01 0.27629905E+03</pdfrwt>
<totfact> 0.55808220E+03</totfact>
</mgrwt>
</event>
<event>
 9    1  0.2095749E-002  0.2750213E+03  0.7818608E-02  0.1098440E+00
         -1   -1    0    0    0  501 -0.00000000000E+00  0.00000000000E+00  0.98121464980E+02  0.98121464980E+02  0.00000000000E+00 0.  1.
          1   -1    0    0  501    0  0.00000000000E+00 -0.00000000000E+00 -0.19271196404E+03  0.19271196404E+03  0.00000000000E+00 0.  1.
         36    2    1    2    0    0 -0.71054273576E-14  0.00000000000E+00 -0.94590499055E+02  0.29083342902E+03  0.27502130994E+03 0.  0.
         25    2    3    3    0    0  0.31155215689E+02 -0.16440178752E+02 -0.96753578731E+02  0.16076997803E+03  0.12346985015E+03 0.  0.
         25    2    3    3    0    0 -0.31155215689E+02  0.16440178752E+02  0.21630796762E+01  0.13006345099E+03  0.12518344710E+03 0.  0.
          5    1    4    4  502    0  0.40542817422E+02 -0.89978538841E+01  0.17849671073E+02  0.45446475952E+02  0.47000000000E+01 0.  1.
         -5    1    4    4    0  502 -0.93876017329E+01 -0.74423248683E+01 -0.11460324980E+03  0.11532350208E+03  0.47000000000E+01 0. -1.
          5    1    5    5  503    0 -0.96534521168E+01  0.43851394413E+02  0.52134683004E+02  0.68965564608E+02  0.47000000000E+01 0.  1.
         -5    1    5    5    0  503 -0.21501763573E+02 -0.27411215660E+02 -0.49971603328E+02  0.61097886378E+02  0.47000000000E+01 0.  1.
<mgrwt>
<rscale>  0 0.27502131E+03</rscale>
<asrwt>0</asrwt>
<pdfrwt beam="1">  1        1 0.29647995E-01 0.27502131E+03</pdfrwt>
<pdfrwt beam="2">  1       -1 0.15095610E-01 0.27502131E+03</pdfrwt>
<totfact> 0.48589783E+03</totfact>
</mgrwt>
</event>
<event>
 9    1  0.2095749E-002  0.2759071E+03  0.7818608E-02  0.1097946E+00
         -2   -1    0    0    0  501 -0.00000000000E+00  0.00000000000E+00  0.12977305096E+03  0.12977305096E+03  0.00000000000E+00 0. -1.
          2   -1    0    0  501    0  0.00000000000E+00 -0.00000000000E+00 -0.14664972321E+03  0.14664972321E+03  0.00000000000E+00 0. -1.
         36    2    1    2    0    0 -0.14210854715E-13  0.71054273576E-14 -0.16876672246E+02  0.27642277418E+03  0.27590710034E+03 0.  0.
         25    2    3    3    0    0 -0.40956167560E+02  0.56758951878E+02 -0.44213055262E+01  0.13798604552E+03  0.11883439964E+03 0.  0.
         25    2    3    3    0    0  0.40956167560E+02 -0.56758951878E+02 -0.12455366720E+02  0.13843672865E+03  0.11878806927E+03 0.  0.
          5    1    4    4  502    0  0.28053598144E+02  0.27132829987E+02  0.35357085379E+02  0.52871621107E+02  0.47000000000E+01 0.  1.
         -5    1    4    4    0  502 -0.69009765705E+02  0.29626121892E+02 -0.39778390905E+02  0.85114424418E+02  0.47000000000E+01 0.  1.
          5    1    5    5  503    0  0.53620760774E+01  0.19110849908E+02  0.36103006166E+02  0.41466775837E+02  0.47000000000E+01 0.  1.
         -5    1    5    5    0  503  0.35594091483E+02 -0.75869801786E+02 -0.48558372886E+02  0.96969952815E+02  0.47000000000E+01 0.  1.
<mgrwt>
<rscale>  0 0.27590710E+03</rscale>
<asrwt>0</asrwt>
<pdfrwt beam="1">  1        2 0.22561496E-01 0.27590710E+03</pdfrwt>
<pdfrwt beam="2">  1       -2 0.19965085E-01 0.27590710E+03</pdfrwt>
<totfact> 0.50623088E+03</totfact>
</mgrwt>
</event>
<event>
 9    1  0.2095749E-002  0.2797538E+03  0.7818608E-02  0.1095823E+00
          4   -1    0    0  501    0  0.00000000000E+00  0.00000000000E+00  0.16821731502E+03  0.16821731502E+03  0.00000000000E+00 0. -1.
         -4   -1    0    0    0  501 -0.00000000000E+00 -0.00000000000E+00 -0.11631111841E+03  0.11631111841E+03  0.00000000000E+00 0. -1.
         36    2    1    2    0    0  0.00000000000E+00  0.00000000000E+00  0.51906196604E+02  0.28452843343E+03  0.27975377778E+03 0.  0.
         25    2    3    3    0    0  0.17272069393E+02 -0.12831193337E+02 -0.29618898620E+02  0.12790382812E+03  0.12255262620E+03 0.  0.
         25    2    3    3    0    0 -0.17272069393E+02  0.12831193337E+02  0.81525095224E+02  0.15662460531E+03  0.13199227982E+03 0.  0.
          5    1    4    4  502    0 -0.79222426484E+01  0.10339839789E+02 -0.71945508714E+02  0.73266093382E+02  0.47000000000E+01 0.  1.
         -5    1    4    4    0  502  0.25194312042E+02 -0.23171033127E+02  0.42326610093E+02  0.54637734739E+02  0.47000000000E+01 0.  1.
          5    1    5    5  503    0  0.46580412580E+02 -0.24966710147E+02  0.11081682412E+02  0.54202999334E+02  0.47000000000E+01 0.  1.
         -5    1    5    5    0  503 -0.63852481973E+02  0.37797903485E+02  0.70443412812E+02  0.10242160598E+03  0.47000000000E+01 0.  1.
<mgrwt>
<rscale>  0 0.27975378E+03</rscale>
<asrwt>0</asrwt>
<pdfrwt beam="1">  1        4 0.25879587E-01 0.27975378E+03</pdfrwt>
<pdfrwt beam="2">  1       -4 0.17894018E-01 0.27975378E+03</pdfrwt>
<totfact> 0.72785110E+02</totfact>
</mgrwt>
</event>
<event>
 9    1  0.2095749E-002  0.2727995E+03  0.7818608E-02  0.1099688E+00
          3   -1    0    0  501    0  0.00000000000E+00  0.00000000000E+00  0.13665578058E+03  0.13665578058E+03  0.00000000000E+00 0.  1.
         -3   -1    0    0    0  501 -0.00000000000E+00 -0.00000000000E+00 -0.13614419373E+03  0.13614419373E+03  0.00000000000E+00 0.  1.
         36    2    1    2    0    0 -0.17763568394E-14  0.35527136788E-14  0.51158685003E+00  0.27279997432E+03  0.27279949462E+03 0.  0.
         25    2    3    3    0    0 -0.15468469643E+02  0.68016672009E+01 -0.54017840415E+02  0.13448321649E+03  0.12199291866E+03 0.  0.
         25    2    3    3    0    0  0.15468469643E+02 -0.68016672009E+01  0.54529427265E+02  0.13831675783E+03  0.12598623270E+03 0.  0.
          5    1    4    4  502    0 -0.46603953794E+02  0.41781444595E+02  0.94075526823E-01  0.62767160776E+02  0.47000000000E+01 0. -1.
         -5    1    4    4    0  502  0.31135484151E+02 -0.34979777394E+02 -0.54111915941E+02  0.71716055711E+02  0.47000000000E+01 0. -1.
          5    1    5    5  503    0 -0.10307374695E+02  0.29342680849E+02  0.80669598234E+02  0.86584692480E+02  0.47000000000E+01 0. -1.
         -5    1    5    5    0  503  0.25775844338E+02 -0.36144348050E+02 -0.26140170970E+02  0.51732065352E+02  0.47000000000E+01 0. -1.
<mgrwt>
<rscale>  0 0.27279949E+03</rscale>
<asrwt>0</asrwt>
<pdfrwt beam="1">  1        3 0.21023966E-01 0.27279949E+03</pdfrwt>
<pdfrwt beam="2">  1       -3 0.20945261E-01 0.27279949E+03</pdfrwt>
<totfact> 0.10785445E+03</totfact>
</mgrwt>
</event>
<event>
 9    1  0.2095749E-002  0.2755870E+03  0.7818608E-02  0.1098124E+00
         -2   -1    0    0    0  501 -0.00000000000E+00  0.00000000000E+00  0.25564836162E+02  0.25564836162E+02  0.00000000000E+00 0. -1.
          2   -1    0    0  501    0  0.00000000000E+00 -0.00000000000E+00 -0.74270168664E+03  0.74270168664E+03  0.00000000000E+00 0. -1.
         36    2    1    2    0    0 -0.14210854715E-13 -0.71054273576E-14 -0.71713685048E+03  0.76826652280E+03  0.27558698762E+03 0.  0.
         25    2    3    3    0    0 -0.51687657124E+02 -0.27669134351E+02 -0.33803013691E+03  0.36497558286E+03  0.12452151512E+03 0.  0.
         25    2    3    3    0    0  0.51687657124E+02  0.27669134351E+02 -0.37910671357E+03  0.40329093995E+03  0.12443667897E+03 0.  0.
          5    1    4    4  502    0  0.40721837516E+02 -0.15020706556E+02 -0.92519774322E+02  0.10230292428E+03  0.47000000000E+01 0.  1.
         -5    1    4    4    0  502 -0.92409494640E+02 -0.12648427795E+02 -0.24551036259E+03  0.26267265858E+03  0.47000000000E+01 0.  1.
          5    1    5    5  503    0 -0.22916468733E+02 -0.33384255083E+02 -0.10122730985E+03  0.10912713360E+03  0.47000000000E+01 0.  1.
         -5    1    5    5    0  503  0.74604125857E+02  0.61053389434E+02 -0.27787940372E+03  0.29416380635E+03  0.47000000000E+01 0.  1.
<mgrwt>
<rscale>  0 0.27558699E+03</rscale>
<asrwt>0</asrwt>
<pdfrwt beam="1">  1        2 0.11426179E+00 0.27558699E+03</pdfrwt>
<pdfrwt beam="2">  1       -2 0.39330519E-02 0.27558699E+03</pdfrwt>
<totfact> 0.10949598E+04</totfact>
</mgrwt>
</event>
<event>
 9    1  0.2095749E-002  0.2750089E+03  0.7818608E-02  0.1098447E+00
         -2   -1    0    0    0  501 -0.00000000000E+00  0.00000000000E+00  0.12557226164E+02  0.12557226164E+02  0.00000000000E+00 0. -1.
          2   -1    0    0  501    0  0.00000000000E+00 -0.00000000000E+00 -0.15057047534E+04  0.15057047534E+04  0.00000000000E+00 0. -1.
         36    2    1    2    0    0 -0.35527136788E-14  0.00000000000E+00 -0.14931475272E+04  0.15182619795E+04  0.27500890985E+03 0.  0.
         25    2    3    3    0    0 -0.13446864600E+02 -0.45725931583E+02 -0.60843938974E+03  0.62383785003E+03  0.12924199455E+03 0.  0.
         25    2    3    3    0    0  0.13446864600E+02  0.45725931583E+02 -0.88470813747E+03  0.89442412950E+03  0.12253308105E+03 0.  0.
          5    1    4    4  502    0 -0.30074086966E+02  0.39993051762E+02 -0.21419158572E+03  0.22000913683E+03  0.47000000000E+01 0. -1.
         -5    1    4    4    0  502  0.16627222365E+02 -0.85718983345E+02 -0.39424780401E+03  0.40382871319E+03  0.47000000000E+01 0. -1.
          5    1    5    5  503    0  0.90469237586E+01  0.50723593625E+02 -0.13354713952E+03  0.14321891723E+03  0.47000000000E+01 0. -1.
         -5    1    5    5    0  503  0.43999408416E+01 -0.49976620420E+01 -0.75116099795E+03  0.75120521227E+03  0.47000000000E+01 0. -1.
<mgrwt>
<rscale>  0 0.27500891E+03</rscale>
<asrwt>0</asrwt>
<pdfrwt beam="1">  1        2 0.23164668E+00 0.27500891E+03</pdfrwt>
<pdfrwt beam="2">  1       -2 0.19318827E-02 0.27500891E+03</pdfrwt>
<totfact> 0.11022126E+04</totfact>
</mgrwt>
</event>
<event>
 9    1  0.2095749E-002  0.2744762E+03  0.7818608E-02  0.1098745E+00
         -2   -1    0    0    0  501 -0.00000000000E+00  0.00000000000E+00  0.73032253623E+01  0.73032253623E+01  0.00000000000E+00 0. -1.
          2   -1    0    0  501    0  0.00000000000E+00 -0.00000000000E+00 -0.25789014025E+04  0.25789014025E+04  0.00000000000E+00 0. -1.
         36    2    1    2    0    0 -0.35527136788E-14 -0.35527136788E-14 -0.25715981772E+04  0.25862046279E+04  0.27447621485E+03 0.  0.
         25    2    3    3    0    0 -0.27872753328E+02 -0.28336390889E+02 -0.16460671103E+04  0.16514590538E+04  0.12728013719E+03 0.  0.
         25    2    3    3    0    0  0.27872753328E+02  0.28336390889E+02 -0.92553106686E+03  0.93474557409E+03  0.12474650749E+03 0.  0.
          5    1    4    4  502    0 -0.35302137651E+02 -0.11450410151E+02 -0.13007743556E+03  0.13534985060E+03  0.47000000000E+01 0.  1.
         -5    1    4    4    0  502  0.74293843237E+01 -0.16885980738E+02 -0.15159896747E+04  0.15161092032E+04  0.47000000000E+01 0.  1.
          5    1    5    5  503    0 -0.57212330961E+01  0.43493308615E+02 -0.11214446438E+03  0.12051087624E+03  0.47000000000E+01 0.  1.
         -5    1    5    5    0  503  0.33593986424E+02 -0.15156917726E+02 -0.81338660249E+03  0.81423469785E+03  0.47000000000E+01 0.  1.
<mgrwt>
<rscale>  0 0.27447621E+03</rscale>
<asrwt>0</asrwt>
<pdfrwt beam="1">  1        2 0.39675354E+00 0.27447621E+03</pdfrwt>
<pdfrwt beam="2">  1       -2 0.11235746E-02 0.27447621E+03</pdfrwt>
<totfact> 0.65296908E+03</totfact>
</mgrwt>
</event>
<event>
 9    1  0.2095749E-002  0.2748941E+03  0.7818608E-02  0.1098511E+00
          2   -1    0    0  501    0  0.00000000000E+00  0.00000000000E+00  0.11720037929E+04  0.11720037929E+04  0.00000000000E+00 0.  1.
         -2   -1    0    0    0  501 -0.00000000000E+00 -0.00000000000E+00 -0.16119136262E+02  0.16119136262E+02  0.00000000000E+00 0.  1.
         36    2    1    2    0    0  0.00000000000E+00  0.00000000000E+00  0.11558846566E+04  0.11881229291E+04  0.27489408023E+03 0.  0.
         25    2    3    3    0    0 -0.11582557589E+02 -0.19437376876E+02  0.36981331009E+03  0.39186338567E+03  0.12760509963E+03 0.  0.
         25    2    3    3    0    0  0.11582557589E+02  0.19437376876E+02  0.78607134650E+03  0.79625954345E+03  0.12493650977E+03 0.  0.
          5    1    4    4  502    0  0.49936048693E+02  0.47775247529E+01  0.24916474428E+03  0.25420777623E+03  0.47000000000E+01 0. -1.
         -5    1    4    4    0  502 -0.61518606282E+02 -0.24214901629E+02  0.12064856581E+03  0.13765560944E+03  0.47000000000E+01 0. -1.
          5    1    5    5  503    0 -0.40275851241E+02 -0.32508004357E+02  0.26793366622E+03  0.27292756188E+03  0.47000000000E+01 0. -1.
         -5    1    5    5    0  503  0.51858408830E+02  0.51945381233E+02  0.51813768029E+03  0.52333198157E+03  0.47000000000E+01 0. -1.
<mgrwt>
<rscale>  0 0.27489408E+03</rscale>
<asrwt>0</asrwt>
<pdfrwt beam="1">  1        2 0.18030821E+00 0.27489408E+03</pdfrwt>
<pdfrwt beam="2">  1       -2 0.24798680E-02 0.27489408E+03</pdfrwt>
<totfact> 0.11645102E+04</totfact>
</mgrwt>
</event>
<event>
 9    1  0.2095749E-002  0.2748127E+03  0.7818608E-02  0.1098556E+00
         -2   -1    0    0    0  501 -0.00000000000E+00  0.00000000000E+00  0.84636366952E+02  0.84636366952E+02  0.00000000000E+00 0.  1.
          2   -1    0    0  501    0  0.00000000000E+00 -0.00000000000E+00 -0.22307784955E+03  0.22307784955E+03  0.00000000000E+00 0.  1.
         36    2    1    2    0    0 -0.71054273576E-14  0.00000000000E+00 -0.13844148260E+03  0.30771421650E+03  0.27481265425E+03 0.  0.
         25    2    3    3    0    0 -0.22877503762E+02 -0.51319908679E+02 -0.66220701589E+02  0.15131352149E+03  0.12390918957E+03 0.  0.
         25    2    3    3    0    0  0.22877503762E+02  0.51319908679E+02 -0.72220781011E+02  0.15640069502E+03  0.12683935898E+03 0.  0.
          5    1    4    4  502    0 -0.56598869059E+02  0.13517179207E+02 -0.48670572223E+02  0.76006978054E+02  0.47000000000E+01 0. -1.
         -5    1    4    4    0  502  0.33721365296E+02 -0.64837087886E+02 -0.17550129366E+02  0.75306543432E+02  0.47000000000E+01 0. -1.
          5    1    5    5  503    0 -0.38933659640E+02 -0.16325124142E+02 -0.42160411580E+02  0.59849225858E+02  0.47000000000E+01 0.  1.
         -5    1    5    5    0  503  0.61811163403E+02  0.67645032821E+02 -0.30060369431E+02  0.96551469159E+02  0.47000000000E+01 0.  1.
<mgrwt>
<rscale>  0 0.27481265E+03</rscale>
<asrwt>0</asrwt>
<pdfrwt beam="1">  1        2 0.34319670E-01 0.27481265E+03</pdfrwt>
<pdfrwt beam="2">  1       -2 0.13020979E-01 0.27481265E+03</pdfrwt>
<totfact> 0.64881496E+03</totfact>
</mgrwt>
</event>
<event>
 9    1  0.2095749E-002  0.2757157E+03  0.7818608E-02  0.1098052E+00
         -1   -1    0    0    0  501 -0.00000000000E+00  0.00000000000E+00  0.33129527630E+02  0.33129527630E+02  0.00000000000E+00 0.  1.
          1   -1    0    0  501    0  0.00000000000E+00 -0.00000000000E+00 -0.57365116808E+03  0.57365116808E+03  0.00000000000E+00 0.  1.
         36    2    1    2    0    0  0.71054273576E-14  0.00000000000E+00 -0.54052164045E+03  0.60678069571E+03  0.27571573929E+03 0.  0.
         25    2    3    3    0    0 -0.33672720466E+02 -0.32778731151E+01 -0.36760563144E+03  0.39000700646E+03  0.12580527916E+03 0.  0.
         25    2    3    3    0    0  0.33672720466E+02  0.32778731151E+01 -0.17291600901E+03  0.21677368925E+03  0.12627861903E+03 0.  0.
          5    1    4    4  502    0  0.13328509543E+02 -0.30332766539E+02 -0.21788705004E+02  0.39931986656E+02  0.47000000000E+01 0. -1.
         -5    1    4    4    0  502 -0.47001230009E+02  0.27054893424E+02 -0.34581692643E+03  0.35007501980E+03  0.47000000000E+01 0. -1.
          5    1    5    5  503    0 -0.27339048740E+02 -0.36885788666E+02 -0.26851887820E+02  0.53395682138E+02  0.47000000000E+01 0.  1.
         -5    1    5    5    0  503  0.61011769206E+02  0.40163661782E+02 -0.14606412119E+03  0.16337800712E+03  0.47000000000E+01 0.  1.
<mgrwt>
<rscale>  0 0.27571574E+03</rscale>
<asrwt>0</asrwt>
<pdfrwt beam="1">  1        1 0.88254011E-01 0.27571574E+03</pdfrwt>
<pdfrwt beam="2">  1       -1 0.50968513E-02 0.27571574E+03</pdfrwt>
<totfact> 0.63775487E+03</totfact>
</mgrwt>
</event>
<event>
 9    1  0.2095749E-002  0.2743902E+03  0.7818608E-02  0.1098793E+00
          4   -1    0    0  501    0  0.00000000000E+00  0.00000000000E+00  0.15960191705E+02  0.15960191705E+02  0.00000000000E+00 0. -1.
         -4   -1    0    0    0  501 -0.00000000000E+00 -0.00000000000E+00 -0.11793400440E+04  0.11793400440E+04  0.00000000000E+00 0. -1.
         36    2    1    2    0    0  0.00000000000E+00  0.31086244690E-14 -0.11633798523E+04  0.11953002357E+04  0.27439018341E+03 0.  0.
         25    2    3    3    0    0  0.55758743896E+02  0.13843431064E+01 -0.60584015699E+03  0.62107082530E+03  0.12480272545E+03 0.  0.
         25    2    3    3    0    0 -0.55758743896E+02 -0.13843431064E+01 -0.55753969531E+03  0.57422941042E+03  0.12561031016E+03 0.  0.
          5    1    4    4  502    0 -0.33257265310E+01 -0.54452878447E+02 -0.27038719262E+03  0.27587587854E+03  0.47000000000E+01 0. -1.
         -5    1    4    4    0  502  0.59084470427E+02  0.55837221554E+02 -0.33545296437E+03  0.34519494675E+03  0.47000000000E+01 0. -1.
          5    1    5    5  503    0  0.12761554660E+02 -0.87846044255E+00 -0.42256366606E+03  0.42278336160E+03  0.47000000000E+01 0.  1.
         -5    1    5    5    0  503 -0.68520298556E+02 -0.50588266385E+00 -0.13497602924E+03  0.15144604882E+03  0.47000000000E+01 0.  1.
<mgrwt>
<rscale>  0 0.27439018E+03</rscale>
<asrwt>0</asrwt>
<pdfrwt beam="1">  1        4 0.24554137E-02 0.27439018E+03</pdfrwt>
<pdfrwt beam="2">  1       -4 0.18143696E+00 0.27439018E+03</pdfrwt>
<totfact> 0.26242251E+02</totfact>
</mgrwt>
</event>
<event>
 9    1  0.2095749E-002  0.2752650E+03  0.7818608E-02  0.1098304E+00
         -1   -1    0    0    0  501 -0.00000000000E+00  0.00000000000E+00  0.14387987422E+02  0.14387987422E+02  0.00000000000E+00 0. -1.
          1   -1    0    0  501    0  0.00000000000E+00 -0.00000000000E+00 -0.13165643538E+04  0.13165643538E+04  0.00000000000E+00 0. -1.
         36    2    1    2    0    0  0.00000000000E+00 -0.71054273576E-14 -0.13021763664E+04  0.13309523413E+04  0.27526504582E+03 0.  0.
         25    2    3    3    0    0 -0.39561951562E+02  0.13408197127E+02 -0.46296692888E+03  0.48144259628E+03  0.12531427898E+03 0.  0.
         25    2    3    3    0    0  0.39561951562E+02 -0.13408197127E+02 -0.83920943754E+03  0.84950974498E+03  0.12509755793E+03 0.  0.
          5    1    4    4  502    0 -0.69050228236E+01  0.28833439795E+02 -0.43365081300E+03  0.43468858302E+03  0.47000000000E+01 0. -1.
         -5    1    4    4    0  502 -0.32656928739E+02 -0.15425242668E+02 -0.29316115880E+02  0.46754013264E+02  0.47000000000E+01 0. -1.
          5    1    5    5  503    0 -0.86004033785E+01 -0.62144562914E+02 -0.42966018759E+03  0.43424173041E+03  0.47000000000E+01 0.  1.
         -5    1    5    5    0  503  0.48162354941E+02  0.48736365787E+02 -0.40954924995E+03  0.41526801456E+03  0.47000000000E+01 0.  1.
<mgrwt>
<rscale>  0 0.27526505E+03</rscale>
<asrwt>0</asrwt>
<pdfrwt beam="1">  1        1 0.20254846E+00 0.27526505E+03</pdfrwt>
<pdfrwt beam="2">  1       -1 0.22135355E-02 0.27526505E+03</pdfrwt>
<totfact> 0.56171538E+03</totfact>
</mgrwt>
</event>
<event>
 9    1  0.2095749E-002  0.2751791E+03  0.7818608E-02  0.1098352E+00
         -1   -1    0    0    0  501 -0.00000000000E+00  0.00000000000E+00  0.20217839497E+03  0.20217839497E+03  0.00000000000E+00 0.  1.
          1   -1    0    0  501    0  0.00000000000E+00 -0.00000000000E+00 -0.93634535160E+02  0.93634535160E+02  0.00000000000E+00 0.  1.
         36    2    1    2    0    0  0.35527136788E-14 -0.14210854715E-13  0.10854385981E+03  0.29581293013E+03  0.27517906921E+03 0.  0.
         25    2    3    3    0    0 -0.98434640130E+01  0.51113696104E+02  0.80155630608E+02  0.15686907602E+03  0.12439243619E+03 0.  0.
         25    2    3    3    0    0  0.98434640130E+01 -0.51113696104E+02  0.28388229201E+02  0.13894385410E+03  0.12565826405E+03 0.  0.
          5    1    4    4  502    0  0.58176996942E+01  0.88464955727E+02  0.74115260066E+02  0.11565057629E+03  0.47000000000E+01 0.  1.
         -5    1    4    4    0  502 -0.15661163707E+02 -0.37351259623E+02  0.60403705428E+01  0.41218499735E+02  0.47000000000E+01 0.  1.
          5    1    5    5  503    0  0.50895650896E+02 -0.68838215504E+02 -0.58834998235E-01  0.85738909810E+02  0.47000000000E+01 0.  1.
         -5    1    5    5    0  503 -0.41052186883E+02  0.17724519400E+02  0.28447064199E+02  0.53204944294E+02  0.47000000000E+01 0.  1.
<mgrwt>
<rscale>  0 0.27517907E+03</rscale>
<asrwt>0</asrwt>
<pdfrwt beam="1">  1        1 0.14405313E-01 0.27517907E+03</pdfrwt>
<pdfrwt beam="2">  1       -1 0.31104368E-01 0.27517907E+03</pdfrwt>
<totfact> 0.37550125E+03</totfact>
</mgrwt>
</event>
<event>
 9    1  0.2095749E-002  0.2756701E+03  0.7818608E-02  0.1098078E+00
         -2   -1    0    0    0  501 -0.00000000000E+00  0.00000000000E+00  0.11857794974E+03  0.11857794974E+03  0.00000000000E+00 0.  1.
          2   -1    0    0  501    0  0.00000000000E+00 -0.00000000000E+00 -0.16021950097E+03  0.16021950097E+03  0.00000000000E+00 0.  1.
         36    2    1    2    0    0  0.14210854715E-13 -0.71054273576E-14 -0.41641551226E+02  0.27879745071E+03  0.27567009220E+03 0.  0.
         25    2    3    3    0    0  0.56394727192E+02  0.50558671181E+01 -0.21430120926E+02  0.13957967466E+03  0.12576688137E+03 0.  0.
         25    2    3    3    0    0 -0.56394727192E+02 -0.50558671181E+01 -0.20211430300E+02  0.13921777605E+03  0.12556735326E+03 0.  0.
          5    1    4    4  502    0  0.54084598362E+02  0.30431513057E+02  0.39263860024E+02  0.73586421784E+02  0.47000000000E+01 0.  1.
         -5    1    4    4    0  502  0.23101288302E+01 -0.25375645939E+02 -0.60693980950E+02  0.65993252880E+02  0.47000000000E+01 0.  1.
          5    1    5    5  503    0 -0.31753579432E+02 -0.58782197154E+02  0.17147449831E+02  0.69135819549E+02  0.47000000000E+01 0.  1.
         -5    1    5    5    0  503 -0.24641147761E+02  0.53726330036E+02 -0.37358880131E+02  0.70081956499E+02  0.47000000000E+01 0.  1.
<mgrwt>
<rscale>  0 0.27567009E+03</rscale>
<asrwt>0</asrwt>
<pdfrwt beam="1">  1        2 0.24649154E-01 0.27567009E+03</pdfrwt>
<pdfrwt beam="2">  1       -2 0.18242762E-01 0.27567009E+03</pdfrwt>
<totfact> 0.53423764E+03</totfact>
</mgrwt>
</event>
<event>
 9    1  0.2095749E-002  0.2751575E+03  0.7818608E-02  0.1098364E+00
         -1   -1    0    0    0  501 -0.00000000000E+00  0.00000000000E+00  0.21492804392E+02  0.21492804392E+02  0.00000000000E+00 0.  1.
          1   -1    0    0  501    0  0.00000000000E+00 -0.00000000000E+00 -0.88066258092E+03  0.88066258092E+03  0.00000000000E+00 0.  1.
         36    2    1    2    0    0  0.00000000000E+00  0.00000000000E+00 -0.85916977652E+03  0.90215538531E+03  0.27515747191E+03 0.  0.
         25    2    3    3    0    0 -0.61994505960E+01  0.15284673093E+02 -0.58167115754E+03  0.59433021062E+03  0.12089255278E+03 0.  0.
         25    2    3    3    0    0  0.61994505960E+01 -0.15284673093E+02 -0.27749861898E+03  0.30782517469E+03  0.13220741362E+03 0.  0.
          5    1    4    4  502    0  0.91184036091E+00 -0.32297445896E+02 -0.48642344596E+03  0.48751801530E+03  0.47000000000E+01 0.  1.
         -5    1    4    4    0  502 -0.71112909569E+01  0.47582118989E+02 -0.95247711584E+02  0.10681219532E+03  0.47000000000E+01 0.  1.
          5    1    5    5  503    0  0.59068069011E+02 -0.31308717041E+02 -0.89431289919E+02  0.11175561801E+03  0.47000000000E+01 0.  1.
         -5    1    5    5    0  503 -0.52868618415E+02  0.16024043948E+02 -0.18806732906E+03  0.19606955669E+03  0.47000000000E+01 0.  1.
<mgrwt>
<rscale>  0 0.27515747E+03</rscale>
<asrwt>0</asrwt>
<pdfrwt beam="1">  1        1 0.13548651E+00 0.27515747E+03</pdfrwt>
<pdfrwt beam="2">  1       -1 0.33065863E-02 0.27515747E+03</pdfrwt>
<totfact> 0.64520295E+03</totfact>
</mgrwt>
</event>
<event>
 9    1  0.2095749E-002  0.2740788E+03  0.7818608E-02  0.1098968E+00
         -1   -1    0    0    0  501 -0.00000000000E+00  0.00000000000E+00  0.28139068204E+02  0.28139068204E+02  0.00000000000E+00 0.  1.
          1   -1    0    0  501    0  0.00000000000E+00 -0.00000000000E+00 -0.66739230283E+03  0.66739230283E+03  0.00000000000E+00 0.  1.
         36    2    1    2    0    0  0.00000000000E+00 -0.71054273576E-14 -0.63925323463E+03  0.69553137104E+03  0.27407880274E+03 0.  0.
         25    2    3    3    0    0  0.33497524837E+02 -0.36708552112E+02 -0.25573276322E+03  0.28955596297E+03  0.12638752921E+03 0.  0.
         25    2    3    3    0    0 -0.33497524837E+02  0.36708552112E+02 -0.38352047141E+03  0.40597540806E+03  0.12352521199E+03 0.  0.
          5    1    4    4  502    0  0.28841348177E+02 -0.76845398175E+02 -0.10458865881E+03  0.13303351509E+03  0.47000000000E+01 0. -1.
         -5    1    4    4    0  502  0.46561766606E+01  0.40136846064E+02 -0.15114410441E+03  0.15652244788E+03  0.47000000000E+01 0. -1.
          5    1    5    5  503    0  0.52282281689E+01 -0.37898633272E+02 -0.57241436022E+02  0.69009512181E+02  0.47000000000E+01 0.  1.
         -5    1    5    5    0  503 -0.38725753006E+02  0.74607185383E+02 -0.32627903538E+03  0.33696589588E+03  0.47000000000E+01 0.  1.
<mgrwt>
<rscale>  0 0.27407880E+03</rscale>
<asrwt>0</asrwt>
<pdfrwt beam="1">  1        1 0.10267575E+00 0.27407880E+03</pdfrwt>
<pdfrwt beam="2">  1       -1 0.43290870E-02 0.27407880E+03</pdfrwt>
<totfact> 0.65829052E+03</totfact>
</mgrwt>
</event>
<event>
 9    1  0.2095749E-002  0.2759748E+03  0.7818608E-02  0.1097908E+00
          1   -1    0    0  501    0  0.00000000000E+00  0.00000000000E+00  0.38921608275E+02  0.38921608275E+02  0.00000000000E+00 0. -1.
         -1   -1    0    0    0  501 -0.00000000000E+00 -0.00000000000E+00 -0.48920171554E+03  0.48920171554E+03  0.00000000000E+00 0. -1.
         36    2    1    2    0    0  0.00000000000E+00 -0.14210854715E-13 -0.45028010726E+03  0.52812332381E+03  0.27597476363E+03 0.  0.
         25    2    3    3    0    0  0.12586259939E+01  0.65396841825E+02 -0.21837913008E+03  0.25738355028E+03  0.11949274640E+03 0.  0.
         25    2    3    3    0    0 -0.12586259939E+01 -0.65396841825E+02 -0.23190097718E+03  0.27073977353E+03  0.12346509909E+03 0.  0.
          5    1    4    4  502    0 -0.41037825816E+02  0.44086967171E+02 -0.19541192276E+03  0.20453770650E+03  0.47000000000E+01 0.  1.
         -5    1    4    4    0  502  0.42296451809E+02  0.21309874653E+02 -0.22967207321E+02  0.52845843787E+02  0.47000000000E+01 0.  1.
          5    1    5    5  503    0  0.49948080298E+02 -0.72111470434E+02 -0.14780812418E+03  0.17194245103E+03  0.47000000000E+01 0. -1.
         -5    1    5    5    0  503 -0.51206706292E+02  0.67146286091E+01 -0.84092853003E+02  0.98797322499E+02  0.47000000000E+01 0. -1.
<mgrwt>
<rscale>  0 0.27597476E+03</rscale>
<asrwt>0</asrwt>
<pdfrwt beam="1">  1        1 0.59879405E-02 0.27597476E+03</pdfrwt>
<pdfrwt beam="2">  1       -1 0.75261793E-01 0.27597476E+03</pdfrwt>
<totfact> 0.23933566E+03</totfact>
</mgrwt>
</event>
<event>
 9    1  0.2095749E-002  0.2748508E+03  0.7818608E-02  0.1098535E+00
          1   -1    0    0  501    0  0.00000000000E+00  0.00000000000E+00  0.63593367510E+02  0.63593367510E+02  0.00000000000E+00 0. -1.
         -1   -1    0    0    0  501 -0.00000000000E+00 -0.00000000000E+00 -0.29697650302E+03  0.29697650302E+03  0.00000000000E+00 0. -1.
         36    2    1    2    0    0 -0.35527136788E-14  0.00000000000E+00 -0.23338313551E+03  0.36056987053E+03  0.27485076604E+03 0.  0.
         25    2    3    3    0    0  0.27376407862E+02  0.34791978466E+02 -0.64822025444E+02  0.15024983582E+03  0.12811388960E+03 0.  0.
         25    2    3    3    0    0 -0.27376407862E+02 -0.34791978466E+02 -0.16856111007E+03  0.21032003471E+03  0.11773580467E+03 0.  0.
          5    1    4    4  502    0 -0.30060090999E+02  0.26500319927E+02  0.21814377916E+02  0.45867560552E+02  0.47000000000E+01 0. -1.
         -5    1    4    4    0  502  0.57436498861E+02  0.82916585391E+01 -0.86636403360E+02  0.10438227527E+03  0.47000000000E+01 0. -1.
          5    1    5    5  503    0 -0.52420182355E+02 -0.59929657258E+02 -0.15026628483E+03  0.17012197299E+03  0.47000000000E+01 0. -1.
         -5    1    5    5    0  503  0.25043774493E+02  0.25137678793E+02 -0.18294825242E+02  0.40198061727E+02  0.47000000000E+01 0. -1.
<mgrwt>
<rscale>  0 0.27485077E+03</rscale>
<asrwt>0</asrwt>
<pdfrwt beam="1">  1        1 0.97835951E-02 0.27485077E+03</pdfrwt>
<pdfrwt beam="2">  1       -1 0.45688692E-01 0.27485077E+03</pdfrwt>
<totfact> 0.31941308E+03</totfact>
</mgrwt>
</event>
<event>
 9    1  0.2095749E-002  0.2736979E+03  0.7818608E-02  0.1099182E+00
         -3   -1    0    0    0  501 -0.00000000000E+00  0.00000000000E+00  0.17841754427E+02  0.17841754427E+02  0.00000000000E+00 0. -1.
          3   -1    0    0  501    0  0.00000000000E+00 -0.00000000000E+00 -0.10496518088E+04  0.10496518088E+04  0.00000000000E+00 0. -1.
         36    2    1    2    0    0 -0.71054273576E-14  0.00000000000E+00 -0.10318100544E+04  0.10674935633E+04  0.27369786120E+03 0.  0.
         25    2    3    3    0    0 -0.32762866756E+02 -0.44694483287E+02 -0.62815218844E+03  0.64345952352E+03  0.12803899522E+03 0.  0.
         25    2    3    3    0    0  0.32762866756E+02  0.44694483287E+02 -0.40365786598E+03  0.42403403975E+03  0.11744867741E+03 0.  0.
          5    1    4    4  502    0 -0.49315301923E+02 -0.37375984089E+02 -0.12120793107E+03  0.13617053920E+03  0.47000000000E+01 0.  1.
         -5    1    4    4    0  502  0.16552435167E+02 -0.73184991986E+01 -0.50694425737E+03  0.50728898433E+03  0.47000000000E+01 0.  1.
          5    1    5    5  503    0 -0.27034259557E+02  0.50652906122E+02 -0.10913410904E+03  0.12340547737E+03  0.47000000000E+01 0.  1.
         -5    1    5    5    0  503  0.59797126313E+02 -0.59584228346E+01 -0.29452375694E+03  0.30062856238E+03  0.47000000000E+01 0.  1.
<mgrwt>
<rscale>  0 0.27369786E+03</rscale>
<asrwt>0</asrwt>
<pdfrwt beam="1">  1        3 0.16148490E+00 0.27369786E+03</pdfrwt>
<pdfrwt beam="2">  1       -3 0.27448851E-02 0.27369786E+03</pdfrwt>
<totfact> 0.42164802E+02</totfact>
</mgrwt>
</event>
<event>
 9    1  0.2095749E-002  0.2743624E+03  0.7818608E-02  0.1098809E+00
          1   -1    0    0  501    0  0.00000000000E+00  0.00000000000E+00  0.93458748081E+02  0.93458748081E+02  0.00000000000E+00 0.  1.
         -1   -1    0    0    0  501 -0.00000000000E+00 -0.00000000000E+00 -0.20135812300E+03  0.20135812300E+03  0.00000000000E+00 0.  1.
         36    2    1    2    0    0  0.88817841970E-15  0.00000000000E+00 -0.10789937492E+03  0.29481687108E+03  0.27436237418E+03 0.  0.
         25    2    3    3    0    0 -0.47724468507E+01  0.57132473745E+02 -0.46027759299E+02  0.14477032899E+03  0.12471165833E+03 0.  0.
         25    2    3    3    0    0  0.47724468507E+01 -0.57132473745E+02 -0.61871615622E+02  0.15004654210E+03  0.12409259515E+03 0.  0.
          5    1    4    4  502    0 -0.34776018116E+02  0.63115000223E-01 -0.67975633190E+02  0.76499360305E+02  0.47000000000E+01 0.  1.
         -5    1    4    4    0  502  0.30003571265E+02  0.57069358745E+02  0.21947873892E+02  0.68270968681E+02  0.47000000000E+01 0.  1.
          5    1    5    5  503    0  0.10573654576E+01  0.13473104997E+02  0.30463089406E+02  0.33656090030E+02  0.47000000000E+01 0. -1.
         -5    1    5    5    0  503  0.37150813930E+01 -0.70605578742E+02 -0.92334705028E+02  0.11639045206E+03  0.47000000000E+01 0. -1.
<mgrwt>
<rscale>  0 0.27436237E+03</rscale>
<asrwt>0</asrwt>
<pdfrwt beam="1">  1        1 0.14378269E-01 0.27436237E+03</pdfrwt>
<pdfrwt beam="2">  1       -1 0.30978172E-01 0.27436237E+03</pdfrwt>
<totfact> 0.37902193E+03</totfact>
</mgrwt>
</event>
<event>
 9    1  0.2095749E-002  0.2757260E+03  0.7818608E-02  0.1098046E+00
          2   -1    0    0  501    0  0.00000000000E+00  0.00000000000E+00  0.18649458353E+04  0.18649458353E+04  0.00000000000E+00 0. -1.
         -2   -1    0    0    0  501 -0.00000000000E+00 -0.00000000000E+00 -0.10191290979E+02  0.10191290979E+02  0.00000000000E+00 0. -1.
         36    2    1    2    0    0  0.17763568394E-14  0.00000000000E+00  0.18547545443E+04  0.18751371263E+04  0.27572599200E+03 0.  0.
         25    2    3    3    0    0 -0.79976682092E+01  0.32179901051E+02  0.13016189986E+04  0.13082888811E+04  0.12770383840E+03 0.  0.
         25    2    3    3    0    0  0.79976682092E+01 -0.32179901051E+02  0.55313554573E+03  0.56684824512E+03  0.11940892897E+03 0.  0.
          5    1    4    4  502    0  0.19094515543E+02  0.76355148799E+02  0.86295486620E+03  0.86654942177E+03  0.47000000000E+01 0.  1.
         -5    1    4    4    0  502 -0.27092183753E+02 -0.44175247748E+02  0.43866413236E+03  0.44173945936E+03  0.47000000000E+01 0.  1.
          5    1    5    5  503    0  0.23995924268E+02  0.13809667861E+02  0.28761588554E+02  0.40197391508E+02  0.47000000000E+01 0.  1.
         -5    1    5    5    0  503 -0.15998256058E+02 -0.45989568912E+02  0.52437395718E+03  0.52665085361E+03  0.47000000000E+01 0.  1.
<mgrwt>
<rscale>  0 0.27572599E+03</rscale>
<asrwt>0</asrwt>
<pdfrwt beam="1">  1        2 0.28691447E+00 0.27572599E+03</pdfrwt>
<pdfrwt beam="2">  1       -2 0.15678924E-02 0.27572599E+03</pdfrwt>
<totfact> 0.96740625E+03</totfact>
</mgrwt>
</event>
<event>
 9    1  0.2095749E-002  0.2758102E+03  0.7818608E-02  0.1098000E+00
         -2   -1    0    0    0  501 -0.00000000000E+00  0.00000000000E+00  0.45825013194E+02  0.45825013194E+02  0.00000000000E+00 0.  1.
          2   -1    0    0  501    0  0.00000000000E+00 -0.00000000000E+00 -0.41500955969E+03  0.41500955969E+03  0.00000000000E+00 0.  1.
         36    2    1    2    0    0  0.00000000000E+00  0.00000000000E+00 -0.36918454650E+03  0.46083457288E+03  0.27581021408E+03 0.  0.
         25    2    3    3    0    0 -0.27458398934E+02 -0.47380496984E+02 -0.16213259568E+03  0.21219996534E+03  0.12547099880E+03 0.  0.
         25    2    3    3    0    0  0.27458398934E+02  0.47380496984E+02 -0.20705195081E+03  0.24863460755E+03  0.12629244858E+03 0.  0.
          5    1    4    4  502    0 -0.72189632650E+02 -0.17668038219E+02 -0.56043459206E+02  0.93201190746E+02  0.47000000000E+01 0. -1.
         -5    1    4    4    0  502  0.44731233716E+02 -0.29712458765E+02 -0.10608913648E+03  0.11899877459E+03  0.47000000000E+01 0. -1.
          5    1    5    5  503    0 -0.30996436554E+02  0.46569184873E+02 -0.17055551853E+03  0.17955707438E+03  0.47000000000E+01 0.  1.
         -5    1    5    5    0  503  0.58454835488E+02  0.81131211076E+00 -0.36496432285E+02  0.69077533170E+02  0.47000000000E+01 0.  1.
<mgrwt>
<rscale>  0 0.27581021E+03</rscale>
<asrwt>0</asrwt>
<pdfrwt beam="1">  1        2 0.63847624E-01 0.27581021E+03</pdfrwt>
<pdfrwt beam="2">  1       -2 0.70500021E-02 0.27581021E+03</pdfrwt>
<totfact> 0.87781452E+03</totfact>
</mgrwt>
</event>
<event>
 9    1  0.2095749E-002  0.2750896E+03  0.7818608E-02  0.1098402E+00
         -2   -1    0    0    0  501 -0.00000000000E+00  0.00000000000E+00  0.71448983137E+01  0.71448983137E+01  0.00000000000E+00 0. -1.
          2   -1    0    0  501    0  0.00000000000E+00 -0.00000000000E+00 -0.26478436387E+04  0.26478436387E+04  0.00000000000E+00 0. -1.
         36    2    1    2    0    0 -0.17763568394E-14  0.71054273576E-14 -0.26406987404E+04  0.26549885370E+04  0.27508961121E+03 0.  0.
         25    2    3    3    0    0  0.52108336668E+01  0.37719401862E+02 -0.17733231875E+04  0.17778039716E+04  0.12025775686E+03 0.  0.
         25    2    3    3    0    0 -0.52108336668E+01 -0.37719401862E+02 -0.86737555288E+03  0.87718456539E+03  0.12514993397E+03 0.  0.
          5    1    4    4  502    0  0.78559392920E+01 -0.35406973485E+02 -0.24415184138E+03  0.24687563915E+03  0.47000000000E+01 0. -1.
         -5    1    4    4    0  502 -0.26451056252E+01  0.73126375347E+02 -0.15291713461E+04  0.15309283325E+04  0.47000000000E+01 0. -1.
          5    1    5    5  503    0 -0.52754542019E+02 -0.23562607525E+02 -0.20793368287E+03  0.21586279126E+03  0.47000000000E+01 0. -1.
         -5    1    5    5    0  503  0.47543708353E+02 -0.14156794337E+02 -0.65944187000E+03  0.66132177413E+03  0.47000000000E+01 0. -1.
<mgrwt>
<rscale>  0 0.27508961E+03</rscale>
<asrwt>0</asrwt>
<pdfrwt beam="1">  1        2 0.40736069E+00 0.27508961E+03</pdfrwt>
<pdfrwt beam="2">  1       -2 0.10992148E-02 0.27508961E+03</pdfrwt>
<totfact> 0.61714024E+03</totfact>
</mgrwt>
</event>
<event>
 9    1  0.2095749E-002  0.2852563E+03  0.7818608E-02  0.1092852E+00
         -1   -1    0    0    0  501 -0.00000000000E+00  0.00000000000E+00  0.27788532419E+03  0.27788532419E+03  0.00000000000E+00 0.  1.
          1   -1    0    0  501    0  0.00000000000E+00 -0.00000000000E+00 -0.73205712995E+02  0.73205712995E+02  0.00000000000E+00 0.  1.
         36    2    1    2    0    0  0.00000000000E+00 -0.71054273576E-14  0.20467961119E+03  0.35109103718E+03  0.28525632886E+03 0.  0.
         25    2    3    3    0    0 -0.52069366937E+02  0.53032540645E+02  0.65253331502E+02  0.14936699768E+03  0.11193227142E+03 0.  0.
         25    2    3    3    0    0  0.52069366937E+02 -0.53032540645E+02  0.13942627969E+03  0.20172403950E+03  0.12541623222E+03 0.  0.
          5    1    4    4  502    0 -0.22066136445E+02  0.42837598162E+02 -0.24361055272E+02  0.54198941021E+02  0.47000000000E+01 0.  1.
         -5    1    4    4    0  502 -0.30003230492E+02  0.10194942483E+02  0.89614386774E+02  0.95168056663E+02  0.47000000000E+01 0.  1.
          5    1    5    5  503    0 -0.10636913091E+02  0.17847328518E+02 -0.10975906673E+02  0.23963129650E+02  0.47000000000E+01 0.  1.
         -5    1    5    5    0  503  0.62706280028E+02 -0.70879869163E+02  0.15040218636E+03  0.17776090985E+03  0.47000000000E+01 0.  1.
<mgrwt>
<rscale>  0 0.28525633E+03</rscale>
<asrwt>0</asrwt>
<pdfrwt beam="1">  1        1 0.11262418E-01 0.28525633E+03</pdfrwt>
<pdfrwt beam="2">  1       -1 0.42751588E-01 0.28525633E+03</pdfrwt>
<totfact> 0.29848383E+03</totfact>
</mgrwt>
</event>
<event>
 9    1  0.2095749E-002  0.2760761E+03  0.7818608E-02  0.1097852E+00
         -2   -1    0    0    0  501 -0.00000000000E+00  0.00000000000E+00  0.65970381471E+03  0.65970381471E+03  0.00000000000E+00 0.  1.
          2   -1    0    0  501    0  0.00000000000E+00 -0.00000000000E+00 -0.28883427318E+02  0.28883427318E+02  0.00000000000E+00 0.  1.
         36    2    1    2    0    0 -0.35527136788E-14 -0.14210854715E-13  0.63082038740E+03  0.68858724203E+03  0.27607612851E+03 0.  0.
         25    2    3    3    0    0  0.19965404066E+02  0.64863580282E+02  0.31934989498E+03  0.34583864279E+03  0.11407940225E+03 0.  0.
         25    2    3    3    0    0 -0.19965404066E+02 -0.64863580282E+02  0.31147049241E+03  0.34274859924E+03  0.12592391842E+03 0.  0.
          5    1    4    4  502    0  0.41720005875E+02  0.56877972230E+02  0.86150629032E+02  0.11144363373E+03  0.47000000000E+01 0. -1.
         -5    1    4    4    0  502 -0.21754601810E+02  0.79856080518E+01  0.23319926595E+03  0.23439500907E+03  0.47000000000E+01 0. -1.
          5    1    5    5  503    0 -0.31290025320E+02 -0.90845426265E+02  0.29349676631E+03  0.30885983713E+03  0.47000000000E+01 0.  1.
         -5    1    5    5    0  503  0.11324621254E+02  0.25981845983E+02  0.17973726105E+02  0.33888762110E+02  0.47000000000E+01 0.  1.
<mgrwt>
<rscale>  0 0.27607613E+03</rscale>
<asrwt>0</asrwt>
<pdfrwt beam="1">  1        2 0.44436047E-02 0.27607613E+03</pdfrwt>
<pdfrwt beam="2">  1       -2 0.10149288E+00 0.27607613E+03</pdfrwt>
<totfact> 0.15234129E+03</totfact>
</mgrwt>
</event>
<event>
 9    1  0.2095749E-002  0.2751663E+03  0.7818608E-02  0.1098359E+00
          1   -1    0    0  501    0  0.00000000000E+00  0.00000000000E+00  0.95101581812E+03  0.95101581812E+03  0.00000000000E+00 0. -1.
         -1   -1    0    0    0  501 -0.00000000000E+00 -0.00000000000E+00 -0.19904104859E+02  0.19904104859E+02  0.00000000000E+00 0. -1.
         36    2    1    2    0    0  0.71054273576E-14 -0.35527136788E-14  0.93111171326E+03  0.97091992298E+03  0.27516626658E+03 0.  0.
         25    2    3    3    0    0  0.54732453822E+02 -0.30660745071E+02  0.40982748877E+03  0.43280004111E+03  0.12418366337E+03 0.  0.
         25    2    3    3    0    0 -0.54732453822E+02  0.30660745071E+02  0.52128422449E+03  0.53811988187E+03  0.11789843835E+03 0.  0.
          5    1    4    4  502    0  0.57174366284E+02  0.27273180813E+02  0.10699038681E+03  0.12442575064E+03  0.47000000000E+01 0.  1.
         -5    1    4    4    0  502 -0.24419124621E+01 -0.57933925883E+02  0.30283710196E+03  0.30837429048E+03  0.47000000000E+01 0.  1.
          5    1    5    5  503    0  0.11444379741E+02  0.56609187741E+02  0.16764011140E+03  0.17737212553E+03  0.47000000000E+01 0.  1.
         -5    1    5    5    0  503 -0.66176833563E+02 -0.25948442670E+02  0.35364411309E+03  0.36074775633E+03  0.47000000000E+01 0.  1.
<mgrwt>
<rscale>  0 0.27516627E+03</rscale>
<asrwt>0</asrwt>
<pdfrwt beam="1">  1        1 0.14631009E+00 0.27516627E+03</pdfrwt>
<pdfrwt beam="2">  1       -1 0.30621707E-02 0.27516627E+03</pdfrwt>
<totfact> 0.63701800E+03</totfact>
</mgrwt>
</event>
<event>
 9    1  0.2095749E-002  0.2753235E+03  0.7818608E-02  0.1098271E+00
         -2   -1    0    0    0  501 -0.00000000000E+00  0.00000000000E+00  0.37531298035E+02  0.37531298035E+02  0.00000000000E+00 0. -1.
          2   -1    0    0  501    0  0.00000000000E+00 -0.00000000000E+00 -0.50493228971E+03  0.50493228971E+03  0.00000000000E+00 0. -1.
         36    2    1    2    0    0  0.00000000000E+00  0.00000000000E+00 -0.46740099168E+03  0.54246358775E+03  0.27532354968E+03 0.  0.
         25    2    3    3    0    0  0.55650409296E+02  0.32738228392E+02 -0.20309422639E+03  0.24604534843E+03  0.12297271664E+03 0.  0.
         25    2    3    3    0    0 -0.55650409296E+02 -0.32738228392E+02 -0.26430676528E+03  0.29641823932E+03  0.11763055203E+03 0.  0.
          5    1    4    4  502    0  0.60164292802E+02  0.73721848421E+01 -0.21027622526E+03  0.21888872093E+03  0.47000000000E+01 0. -1.
         -5    1    4    4    0  502 -0.45138835062E+01  0.25366043550E+02  0.71819988696E+01  0.27156627505E+02  0.47000000000E+01 0. -1.
          5    1    5    5  503    0 -0.72205566973E+02 -0.59590559893E+02 -0.14296862669E+03  0.17095846557E+03  0.47000000000E+01 0. -1.
         -5    1    5    5    0  503  0.16555157677E+02  0.26852331501E+02 -0.12133813859E+03  0.12545977375E+03  0.47000000000E+01 0. -1.
<mgrwt>
<rscale>  0 0.27532355E+03</rscale>
<asrwt>0</asrwt>
<pdfrwt beam="1">  1        2 0.77681888E-01 0.27532355E+03</pdfrwt>
<pdfrwt beam="2">  1       -2 0.57740461E-02 0.27532355E+03</pdfrwt>
<totfact> 0.96124323E+03</totfact>
</mgrwt>
</event>
<event>
 9    1  0.2095749E-002  0.2707885E+03  0.7818608E-02  0.1100829E+00
          2   -1    0    0  501    0  0.00000000000E+00  0.00000000000E+00  0.98791970306E+03  0.98791970306E+03  0.00000000000E+00 0. -1.
         -2   -1    0    0    0  501 -0.00000000000E+00 -0.00000000000E+00 -0.18555764001E+02  0.18555764001E+02  0.00000000000E+00 0. -1.
         36    2    1    2    0    0  0.00000000000E+00  0.35527136788E-14  0.96936393906E+03  0.10064754671E+04  0.27078851424E+03 0.  0.
         25    2    3    3    0    0 -0.37232803364E+02  0.29941206367E+02  0.39636284852E+03  0.41837415139E+03  0.12510261940E+03 0.  0.
         25    2    3    3    0    0  0.37232803364E+02 -0.29941206367E+02  0.57300109053E+03  0.58810131566E+03  0.12349149869E+03 0.  0.
          5    1    4    4  502    0 -0.73600210910E+02  0.39375671235E+02  0.17680003053E+03  0.19557038458E+03  0.47000000000E+01 0.  1.
         -5    1    4    4    0  502  0.36367407547E+02 -0.94344648678E+01  0.21956281799E+03  0.22280376681E+03  0.47000000000E+01 0.  1.
          5    1    5    5  503    0 -0.21412954240E+01 -0.40734395447E+02  0.51705740440E+03  0.51868518927E+03  0.47000000000E+01 0.  1.
         -5    1    5    5    0  503  0.39374098788E+02  0.10793189080E+02  0.55943686127E+02  0.69416126393E+02  0.47000000000E+01 0.  1.
<mgrwt>
<rscale>  0 0.27078851E+03</rscale>
<asrwt>0</asrwt>
<pdfrwt beam="1">  1        2 0.15198761E+00 0.27078851E+03</pdfrwt>
<pdfrwt beam="2">  1       -2 0.28547337E-02 0.27078851E+03</pdfrwt>
<totfact> 0.12145297E+04</totfact>
</mgrwt>
</event>
<event>
 9    1  0.2095749E-002  0.2754903E+03  0.7818608E-02  0.1098178E+00
          2   -1    0    0  501    0  0.00000000000E+00  0.00000000000E+00  0.14294814759E+03  0.14294814759E+03  0.00000000000E+00 0.  1.
         -2   -1    0    0    0  501 -0.00000000000E+00 -0.00000000000E+00 -0.13273150732E+03  0.13273150732E+03  0.00000000000E+00 0.  1.
         36    2    1    2    0    0  0.00000000000E+00 -0.71054273576E-14  0.10216640270E+02  0.27567965492E+03  0.27549027641E+03 0.  0.
         25    2    3    3    0    0  0.41663514901E+01  0.38918034616E+02  0.46676330199E+02  0.13700181339E+03  0.12271448639E+03 0.  0.
         25    2    3    3    0    0 -0.41663514901E+01 -0.38918034616E+02 -0.36459689929E+02  0.13867784152E+03  0.12794632795E+03 0.  0.
          5    1    4    4  502    0  0.14179838989E+02  0.17313004724E+02  0.86989916512E+02  0.89945225226E+02  0.47000000000E+01 0. -1.
         -5    1    4    4    0  502 -0.10013487499E+02  0.21605029893E+02 -0.40313586312E+02  0.47056588167E+02  0.47000000000E+01 0. -1.
          5    1    5    5  503    0 -0.37081617501E+02 -0.71833603634E+02 -0.27693717126E+01  0.81023900098E+02  0.47000000000E+01 0. -1.
         -5    1    5    5    0  503  0.32915266011E+02  0.32915569017E+02 -0.33690318217E+02  0.57653941425E+02  0.47000000000E+01 0. -1.
<mgrwt>
<rscale>  0 0.27549028E+03</rscale>
<asrwt>0</asrwt>
<pdfrwt beam="1">  1        2 0.21992023E-01 0.27549028E+03</pdfrwt>
<pdfrwt beam="2">  1       -2 0.20420232E-01 0.27549028E+03</pdfrwt>
<totfact> 0.50132405E+03</totfact>
</mgrwt>
</event>
<event>
 9    1  0.2095749E-002  0.2748454E+03  0.7818608E-02  0.1098538E+00
          2   -1    0    0  501    0  0.00000000000E+00  0.00000000000E+00  0.54572262839E+03  0.54572262839E+03  0.00000000000E+00 0. -1.
         -2   -1    0    0    0  501 -0.00000000000E+00 -0.00000000000E+00 -0.34605484916E+02  0.34605484916E+02  0.00000000000E+00 0. -1.
         36    2    1    2    0    0 -0.71054273576E-14 -0.35527136788E-14  0.51111714347E+03  0.58032811331E+03  0.27484538333E+03 0.  0.
         25    2    3    3    0    0  0.49146802997E+02  0.25904816176E+02  0.29678937876E+03  0.32667495442E+03  0.12468409183E+03 0.  0.
         25    2    3    3    0    0 -0.49146802997E+02 -0.25904816176E+02  0.21432776471E+03  0.25365315889E+03  0.12376213694E+03 0.  0.
          5    1    4    4  502    0 -0.14123366692E+01  0.18742396350E+02 -0.54420421153E+01  0.20124063660E+02  0.47000000000E+01 0.  1.
         -5    1    4    4    0  502  0.50559139666E+02  0.71624198262E+01  0.30223142088E+03  0.30655089076E+03  0.47000000000E+01 0.  1.
          5    1    5    5  503    0  0.17586950800E+02  0.69720601554E+00 -0.80463035867E+01  0.19915319131E+02  0.47000000000E+01 0.  1.
         -5    1    5    5    0  503 -0.66733753797E+02 -0.26602022192E+02  0.22237406830E+03  0.23373783976E+03  0.47000000000E+01 0.  1.
<mgrwt>
<rscale>  0 0.27484538E+03</rscale>
<asrwt>0</asrwt>
<pdfrwt beam="1">  1        2 0.83957321E-01 0.27484538E+03</pdfrwt>
<pdfrwt beam="2">  1       -2 0.53239212E-02 0.27484538E+03</pdfrwt>
<totfact> 0.99671278E+03</totfact>
</mgrwt>
</event>
<event>
 9    1  0.2095749E-002  0.2771091E+03  0.7818608E-02  0.1097278E+00
          3   -1    0    0  501    0  0.00000000000E+00  0.00000000000E+00  0.42579401363E+03  0.42579401363E+03  0.00000000000E+00 0. -1.
         -3   -1    0    0    0  501 -0.00000000000E+00 -0.00000000000E+00 -0.45086019864E+02  0.45086019864E+02  0.00000000000E+00 0. -1.
         36    2    1    2    0    0  0.00000000000E+00  0.00000000000E+00  0.38070799376E+03  0.47088003349E+03  0.27710905692E+03 0.  0.
         25    2    3    3    0    0 -0.16501808365E+02 -0.56485815484E+02  0.21947686506E+03  0.25918703716E+03  0.12467906361E+03 0.  0.
         25    2    3    3    0    0  0.16501808365E+02  0.56485815484E+02  0.16123112870E+03  0.21169299633E+03  0.12391727404E+03 0.  0.
          5    1    4    4  502    0  0.34291034182E+02 -0.17780564298E+02  0.10047912823E+02  0.40187983828E+02  0.47000000000E+01 0. -1.
         -5    1    4    4    0  502 -0.50792842547E+02 -0.38705251186E+02  0.20942895224E+03  0.21899905333E+03  0.47000000000E+01 0. -1.
          5    1    5    5  503    0 -0.53544626319E+01  0.30460986865E+02  0.17270597544E+03  0.17551634096E+03  0.47000000000E+01 0. -1.
         -5    1    5    5    0  503  0.21856270996E+02  0.26024828619E+02 -0.11474846738E+02  0.36176655376E+02  0.47000000000E+01 0. -1.
<mgrwt>
<rscale>  0 0.27710906E+03</rscale>
<asrwt>0</asrwt>
<pdfrwt beam="1">  1        3 0.65506769E-01 0.27710906E+03</pdfrwt>
<pdfrwt beam="2">  1       -3 0.69363110E-02 0.27710906E+03</pdfrwt>
<totfact> 0.78496253E+02</totfact>
</mgrwt>
</event>
<event>
 9    1  0.2095749E-002  0.2737478E+03  0.7818608E-02  0.1099154E+00
         -2   -1    0    0    0  501 -0.00000000000E+00  0.00000000000E+00  0.50378752534E+02  0.50378752534E+02  0.00000000000E+00 0. -1.
          2   -1    0    0  501    0  0.00000000000E+00 -0.00000000000E+00 -0.37187243560E+03  0.37187243560E+03  0.00000000000E+00 0. -1.
         36    2    1    2    0    0  0.71054273576E-14 -0.35527136788E-14 -0.32149368306E+03  0.42225118813E+03  0.27374783584E+03 0.  0.
         25    2    3    3    0    0 -0.55641056926E+02 -0.54955748068E+01 -0.14639777296E+03  0.19946823928E+03  0.12340640986E+03 0.  0.
         25    2    3    3    0    0  0.55641056926E+02  0.54955748068E+01 -0.17509591010E+03  0.22278294885E+03  0.12588699697E+03 0.  0.
          5    1    4    4  502    0 -0.40306184743E+01  0.31483200870E+02 -0.12975654506E+03  0.13366483759E+03  0.47000000000E+01 0.  1.
         -5    1    4    4    0  502 -0.51610438452E+02 -0.36978775676E+02 -0.16641227899E+02  0.65803401688E+02  0.47000000000E+01 0.  1.
          5    1    5    5  503    0  0.57859757659E+02  0.36171761164E+02 -0.30521616000E+02  0.74898644215E+02  0.47000000000E+01 0.  1.
         -5    1    5    5    0  503 -0.22187007329E+01 -0.30676186357E+02 -0.14457429410E+03  0.14788430463E+03  0.47000000000E+01 0.  1.
<mgrwt>
<rscale>  0 0.27374784E+03</rscale>
<asrwt>0</asrwt>
<pdfrwt beam="1">  1        2 0.57211142E-01 0.27374784E+03</pdfrwt>
<pdfrwt beam="2">  1       -2 0.77505775E-02 0.27374784E+03</pdfrwt>
<totfact> 0.85325039E+03</totfact>
</mgrwt>
</event>
<event>
 8    1  0.2095749E-002  0.3039075E+03  0.7818608E-02  0.1083303E+00
         -2   -1    0    0    0  501 -0.00000000000E+00  0.00000000000E+00  0.16992069267E+02  0.16992069267E+02  0.00000000000E+00 0. -1.
          2   -1    0    0  501    0  0.00000000000E+00 -0.00000000000E+00 -0.13588656008E+04  0.13588656008E+04  0.00000000000E+00 0. -1.
         25    2    1    2    0    0 -0.40273572001E+02 -0.72014271536E+02 -0.78206909485E+03  0.79640051843E+03  0.12575253765E+03 0.  0.
         25    2    1    2    0    0  0.40273572001E+02  0.72014271536E+02 -0.55980443669E+03  0.57945715165E+03  0.12482614850E+03 0.  0.
          5    1    3    3  502    0  0.32795752904E+02 -0.27591705993E+02 -0.49379771581E+03  0.49567644465E+03  0.47000000000E+01 0.  1.
         -5    1    3    3    0  502 -0.73069324905E+02 -0.44422565542E+02 -0.28827137904E+03  0.30072407377E+03  0.47000000000E+01 0.  1.
          5    1    4    4  503    0 -0.26577806407E+02  0.76041381658E+02 -0.34962784348E+03  0.35881804644E+03  0.47000000000E+01 0.  1.
         -5    1    4    4    0  503  0.66851378408E+02 -0.40271101223E+01 -0.21017659321E+03  0.22063910521E+03  0.47000000000E+01 0.  1.
<mgrwt>
<rscale>  0 0.30390748E+03</rscale>
<asrwt>0</asrwt>
<pdfrwt beam="1">  1        2 0.20905615E+00 0.30390748E+03</pdfrwt>
<pdfrwt beam="2">  1       -2 0.26141657E-02 0.30390748E+03</pdfrwt>
<totfact> 0.84815691E+03</totfact>
</mgrwt>
</event>
<event>
 9    1  0.2095749E-002  0.2744233E+03  0.7818608E-02  0.1098774E+00
         -1   -1    0    0    0  501 -0.00000000000E+00  0.00000000000E+00  0.31117051395E+03  0.31117051395E+03  0.00000000000E+00 0.  1.
          1   -1    0    0  501    0  0.00000000000E+00 -0.00000000000E+00 -0.60503907176E+02  0.60503907176E+02  0.00000000000E+00 0.  1.
         36    2    1    2    0    0 -0.53290705182E-14  0.88817841970E-15  0.25066660677E+03  0.37167442112E+03  0.27442326353E+03 0.  0.
         25    2    3    3    0    0 -0.52682318639E+01 -0.68064702575E+01  0.24555148813E+03  0.27581554593E+03  0.12531799450E+03 0.  0.
         25    2    3    3    0    0  0.52682318639E+01  0.68064702575E+01  0.51151186385E+01  0.95858875199E+02  0.95334554131E+02 0.  0.
          5    1    4    4  502    0  0.59237418116E+02 -0.12285170591E+02  0.11590868136E+03  0.13083160756E+03  0.47000000000E+01 0. -1.
         -5    1    4    4    0  502 -0.64505649979E+02  0.54787003335E+01  0.12964280677E+03  0.14498393837E+03  0.47000000000E+01 0. -1.
          5    1    5    5  503    0  0.16281121000E+02  0.10384548213E+02  0.47595487198E+02  0.51578427121E+02  0.47000000000E+01 0.  1.
         -5    1    5    5    0  503 -0.11012889136E+02 -0.35780779558E+01 -0.42480368560E+02  0.44280448078E+02  0.47000000000E+01 0.  1.
<mgrwt>
<rscale>  0 0.27442326E+03</rscale>
<asrwt>0</asrwt>
<pdfrwt beam="1">  1        1 0.93082936E-02 0.27442326E+03</pdfrwt>
<pdfrwt beam="2">  1       -1 0.47872386E-01 0.27442326E+03</pdfrwt>
<totfact> 0.31366587E+03</totfact>
</mgrwt>
</event>
<event>
 9    1  0.2095749E-002  0.2763556E+03  0.7818608E-02  0.1097696E+00
          2   -1    0    0  501    0  0.00000000000E+00  0.00000000000E+00  0.55634039679E+03  0.55634039679E+03  0.00000000000E+00 0.  1.
         -2   -1    0    0    0  501 -0.00000000000E+00 -0.00000000000E+00 -0.34319111719E+02  0.34319111719E+02  0.00000000000E+00 0.  1.
         36    2    1    2    0    0  0.00000000000E+00  0.00000000000E+00  0.52202128507E+03  0.59065950851E+03  0.27635562763E+03 0.  0.
         25    2    3    3    0    0  0.11401778527E+02  0.41013907367E+02  0.18167191169E+03  0.22549129948E+03  0.12660766758E+03 0.  0.
         25    2    3    3    0    0 -0.11401778527E+02 -0.41013907367E+02  0.34034937338E+03  0.36516820903E+03  0.12529159500E+03 0.  0.
          5    1    4    4  502    0 -0.54825044029E+02  0.18513249618E+02  0.11461815374E+03  0.12848321693E+03  0.47000000000E+01 0. -1.
         -5    1    4    4    0  502  0.66226822557E+02  0.22500657749E+02  0.67053757950E+02  0.97008082551E+02  0.47000000000E+01 0. -1.
          5    1    5    5  503    0  0.18779525512E+02 -0.29631716191E+02  0.15420167989E+02  0.38608040143E+02  0.47000000000E+01 0. -1.
         -5    1    5    5    0  503 -0.30181304040E+02 -0.11382191176E+02  0.32492920539E+03  0.32656016889E+03  0.47000000000E+01 0. -1.
<mgrwt>
<rscale>  0 0.27635563E+03</rscale>
<asrwt>0</asrwt>
<pdfrwt beam="1">  1        2 0.85590824E-01 0.27635563E+03</pdfrwt>
<pdfrwt beam="2">  1       -2 0.52798637E-02 0.27635563E+03</pdfrwt>
<totfact> 0.98770817E+03</totfact>
</mgrwt>
</event>
<event>
 9    1  0.2095749E-002  0.2763747E+03  0.7818608E-02  0.1097686E+00
          2   -1    0    0  501    0  0.00000000000E+00  0.00000000000E+00  0.24923246881E+03  0.24923246881E+03  0.00000000000E+00 0.  1.
         -2   -1    0    0    0  501 -0.00000000000E+00 -0.00000000000E+00 -0.76618221511E+02  0.76618221511E+02  0.00000000000E+00 0.  1.
         36    2    1    2    0    0  0.35527136788E-14  0.00000000000E+00  0.17261424730E+03  0.32585069032E+03  0.27637473476E+03 0.  0.
         25    2    3    3    0    0  0.65396471600E+01 -0.12852761167E+02  0.13620726949E+03  0.18675870925E+03  0.12695839777E+03 0.  0.
         25    2    3    3    0    0 -0.65396471600E+01  0.12852761167E+02  0.36406977812E+02  0.13909198107E+03  0.13346591591E+03 0.  0.
          5    1    4    4  502    0 -0.36761474120E+02 -0.47079642933E+02  0.30077698617E+02  0.67042200980E+02  0.47000000000E+01 0.  1.
         -5    1    4    4    0  502  0.43301121280E+02  0.34226881766E+02  0.10612957087E+03  0.11971650827E+03  0.47000000000E+01 0.  1.
          5    1    5    5  503    0  0.13431328242E+02  0.36207432291E+01 -0.48801921049E+02  0.50963004797E+02  0.47000000000E+01 0. -1.
         -5    1    5    5    0  503 -0.19970975402E+02  0.92320179378E+01  0.85208898861E+02  0.88128976273E+02  0.47000000000E+01 0. -1.
<mgrwt>
<rscale>  0 0.27637473E+03</rscale>
<asrwt>0</asrwt>
<pdfrwt beam="1">  1        2 0.38343456E-01 0.27637473E+03</pdfrwt>
<pdfrwt beam="2">  1       -2 0.11787419E-01 0.27637473E+03</pdfrwt>
<totfact> 0.67614006E+03</totfact>
</mgrwt>
</event>
<event>
 9    1  0.2095749E-002  0.2789564E+03  0.7818608E-02  0.1096260E+00
         -1   -1    0    0    0  501 -0.00000000000E+00  0.00000000000E+00  0.61767226155E+03  0.61767226155E+03  0.00000000000E+00 0. -1.
          1   -1    0    0  501    0  0.00000000000E+00 -0.00000000000E+00 -0.31495946275E+02  0.31495946275E+02  0.00000000000E+00 0. -1.
         36    2    1    2    0    0  0.14210854715E-13 -0.71054273576E-14  0.58617631528E+03  0.64916820783E+03  0.27895642932E+03 0.  0.
         25    2    3    3    0    0  0.41493378480E+02 -0.26608607412E+02  0.24459684055E+03  0.28079834377E+03  0.12880363741E+03 0.  0.
         25    2    3    3    0    0 -0.41493378480E+02  0.26608607412E+02  0.34157947473E+03  0.36836986406E+03  0.12880256497E+03 0.  0.
          5    1    4    4  502    0  0.52935069379E+02 -0.69809770985E+01  0.23563376113E+02  0.58550647351E+02  0.47000000000E+01 0.  1.
         -5    1    4    4    0  502 -0.11441690899E+02 -0.19627630313E+02  0.22103346444E+03  0.22224769642E+03  0.47000000000E+01 0.  1.
          5    1    5    5  503    0 -0.29247993614E+02  0.78456949529E+02  0.19197694607E+03  0.20949504978E+03  0.47000000000E+01 0.  1.
         -5    1    5    5    0  503 -0.12245384866E+02 -0.51848342117E+02  0.14960252866E+03  0.15887481428E+03  0.47000000000E+01 0.  1.
<mgrwt>
<rscale>  0 0.27895643E+03</rscale>
<asrwt>0</asrwt>
<pdfrwt beam="1">  1        1 0.48455307E-02 0.27895643E+03</pdfrwt>
<pdfrwt beam="2">  1       -1 0.95026492E-01 0.27895643E+03</pdfrwt>
<totfact> 0.19612558E+03</totfact>
</mgrwt>
</event>
<event>
 9    1  0.2095749E-002  0.2762498E+03  0.7818608E-02  0.1097755E+00
          2   -1    0    0  501    0  0.00000000000E+00  0.00000000000E+00  0.51465943648E+03  0.51465943648E+03  0.00000000000E+00 0.  1.
         -2   -1    0    0    0  501 -0.00000000000E+00 -0.00000000000E+00 -0.37070115483E+02  0.37070115483E+02  0.00000000000E+00 0.  1.
         36    2    1    2    0    0 -0.10658141036E-13 -0.71054273576E-14  0.47758932100E+03  0.55172955196E+03  0.27624977643E+03 0.  0.
         25    2    3    3    0    0 -0.20707839158E+02  0.42211587534E+02  0.32094605643E+03  0.34788906635E+03  0.12573702168E+03 0.  0.
         25    2    3    3    0    0  0.20707839158E+02 -0.42211587534E+02  0.15664326457E+03  0.20384048562E+03  0.12166839572E+03 0.  0.
          5    1    4    4  502    0 -0.72636494021E+02  0.19977409286E+02  0.21277102173E+03  0.22576260725E+03  0.47000000000E+01 0.  1.
         -5    1    4    4    0  502  0.51928654863E+02  0.22234178248E+02  0.10817503470E+03  0.12212645910E+03  0.47000000000E+01 0.  1.
          5    1    5    5  503    0  0.45911190392E+02 -0.60905847467E+02  0.47033833183E+02  0.89730881656E+02  0.47000000000E+01 0.  1.
         -5    1    5    5    0  503 -0.25203351234E+02  0.18694259933E+02  0.10960943138E+03  0.11410960396E+03  0.47000000000E+01 0.  1.
<mgrwt>
<rscale>  0 0.27624978E+03</rscale>
<asrwt>0</asrwt>
<pdfrwt beam="1">  1        2 0.79178370E-01 0.27624978E+03</pdfrwt>
<pdfrwt beam="2">  1       -2 0.57030951E-02 0.27624978E+03</pdfrwt>
<totfact> 0.95896687E+03</totfact>
</mgrwt>
</event>
<event>
 9    1  0.2095749E-002  0.2757552E+03  0.7818608E-02  0.1098030E+00
         -1   -1    0    0    0  501 -0.00000000000E+00  0.00000000000E+00  0.14868957696E+02  0.14868957696E+02  0.00000000000E+00 0. -1.
          1   -1    0    0  501    0  0.00000000000E+00 -0.00000000000E+00 -0.12785180160E+04  0.12785180160E+04  0.00000000000E+00 0. -1.
         36    2    1    2    0    0  0.00000000000E+00 -0.35527136788E-14 -0.12636490583E+04  0.12933869737E+04  0.27575518340E+03 0.  0.
         25    2    3    3    0    0  0.39639292148E+02 -0.26891096056E+02 -0.47359189075E+03  0.49157302287E+03  0.12272063112E+03 0.  0.
         25    2    3    3    0    0 -0.39639292148E+02  0.26891096056E+02 -0.79005716753E+03  0.80181395080E+03  0.12814397842E+03 0.  0.
          5    1    4    4  502    0  0.83784439439E+02 -0.23119197197E+02 -0.32381839149E+03  0.33531294374E+03  0.47000000000E+01 0.  1.
         -5    1    4    4    0  502 -0.44145147291E+02 -0.37718988597E+01 -0.14977349926E+03  0.15626007914E+03  0.47000000000E+01 0.  1.
          5    1    5    5  503    0 -0.63253092499E+02  0.57161311708E+02 -0.67613571590E+03  0.68150566071E+03  0.47000000000E+01 0. -1.
         -5    1    5    5    0  503  0.23613800351E+02 -0.30270215651E+02 -0.11392145163E+03  0.12030829009E+03  0.47000000000E+01 0. -1.
<mgrwt>
<rscale>  0 0.27575518E+03</rscale>
<asrwt>0</asrwt>
<pdfrwt beam="1">  1        1 0.19669512E+00 0.27575518E+03</pdfrwt>
<pdfrwt beam="2">  1       -1 0.22875314E-02 0.27575518E+03</pdfrwt>
<totfact> 0.56835885E+03</totfact>
</mgrwt>
</event>
<event>
 9    1  0.2095749E-002  0.2745687E+03  0.7818608E-02  0.1098693E+00
         -1   -1    0    0    0  501 -0.00000000000E+00  0.00000000000E+00  0.29075106564E+02  0.29075106564E+02  0.00000000000E+00 0.  1.
          1   -1    0    0  501    0  0.00000000000E+00 -0.00000000000E+00 -0.64821762276E+03  0.64821762276E+03  0.00000000000E+00 0.  1.
         36    2    1    2    0    0  0.00000000000E+00  0.00000000000E+00 -0.61914251620E+03  0.67729272933E+03  0.27456872698E+03 0.  0.
         25    2    3    3    0    0  0.51194746416E+02 -0.19331360041E+02 -0.36933261674E+03  0.39367949599E+03  0.12482932441E+03 0.  0.
         25    2    3    3    0    0 -0.51194746416E+02  0.19331360041E+02 -0.24980989946E+03  0.28361323333E+03  0.12262494328E+03 0.  0.
          5    1    4    4  502    0  0.58201727692E+02  0.33087914139E+02 -0.10913552850E+03  0.12812066480E+03  0.47000000000E+01 0. -1.
         -5    1    4    4    0  502 -0.70069812759E+01 -0.52419274180E+02 -0.26019708825E+03  0.26555883119E+03  0.47000000000E+01 0. -1.
          5    1    5    5  503    0 -0.42146833705E+02  0.20216156770E+02 -0.26286198034E+03  0.26702726321E+03  0.47000000000E+01 0. -1.
         -5    1    5    5    0  503 -0.90479127104E+01 -0.88479672954E+00  0.13052080886E+02  0.16585970129E+02  0.47000000000E+01 0. -1.
<mgrwt>
<rscale>  0 0.27456873E+03</rscale>
<asrwt>0</asrwt>
<pdfrwt beam="1">  1        1 0.99725782E-01 0.27456873E+03</pdfrwt>
<pdfrwt beam="2">  1       -1 0.44730936E-02 0.27456873E+03</pdfrwt>
<totfact> 0.65362609E+03</totfact>
</mgrwt>
</event>
<event>
 9    1  0.2095749E-002  0.2752738E+03  0.7818608E-02  0.1098299E+00
          2   -1    0    0  501    0  0.00000000000E+00  0.00000000000E+00  0.15236982334E+03  0.15236982334E+03  0.00000000000E+00 0. -1.
         -2   -1    0    0    0  501 -0.00000000000E+00 -0.00000000000E+00 -0.12432855679E+03  0.12432855679E+03  0.00000000000E+00 0. -1.
         36    2    1    2    0    0  0.00000000000E+00  0.00000000000E+00  0.28041266548E+02  0.27669838012E+03  0.27527382900E+03 0.  0.
         25    2    3    3    0    0 -0.16726414634E+02  0.49482032078E+02  0.50787499533E+02  0.14208644499E+03  0.12198747188E+03 0.  0.
         25    2    3    3    0    0  0.16726414634E+02 -0.49482032078E+02 -0.22746232984E+02  0.13461193514E+03  0.12196203311E+03 0.  0.
          5    1    4    4  502    0 -0.42359276404E+02 -0.23643855230E+02 -0.10322905915E+01  0.48749316010E+02  0.47000000000E+01 0. -1.
         -5    1    4    4    0  502  0.25632861770E+02  0.73125887308E+02  0.51819790124E+02  0.93337128976E+02  0.47000000000E+01 0. -1.
          5    1    5    5  503    0  0.63645516889E+02 -0.19258840281E+02  0.13342578038E+02  0.67983594622E+02  0.47000000000E+01 0. -1.
         -5    1    5    5    0  503 -0.46919102255E+02 -0.30223191796E+02 -0.36088811023E+02  0.66628340515E+02  0.47000000000E+01 0. -1.
<mgrwt>
<rscale>  0 0.27527383E+03</rscale>
<asrwt>0</asrwt>
<pdfrwt beam="1">  1        2 0.23441511E-01 0.27527383E+03</pdfrwt>
<pdfrwt beam="2">  1       -2 0.19127470E-01 0.27527383E+03</pdfrwt>
<totfact> 0.52158591E+03</totfact>
</mgrwt>
</event>
<event>
 9    1  0.2095749E-002  0.2736051E+03  0.7818608E-02  0.1099234E+00
         -1   -1    0    0    0  501 -0.00000000000E+00  0.00000000000E+00  0.10991947953E+04  0.10991947953E+04  0.00000000000E+00 0. -1.
          1   -1    0    0  501    0  0.00000000000E+00 -0.00000000000E+00 -0.17026039300E+02  0.17026039300E+02  0.00000000000E+00 0. -1.
         36    2    1    2    0    0  0.71054273576E-14 -0.35527136788E-14  0.10821687560E+04  0.11162208346E+04  0.27360507147E+03 0.  0.
         25    2    3    3    0    0 -0.40565697368E+02  0.19328102861E+02  0.42023759802E+03  0.44063143928E+03  0.12464860660E+03 0.  0.
         25    2    3    3    0    0  0.40565697368E+02 -0.19328102861E+02  0.66193115798E+03  0.67558939532E+03  0.12747165099E+03 0.  0.
          5    1    4    4  502    0 -0.10959790144E+02  0.13254320106E+02  0.40685595777E+03  0.40724642954E+03  0.47000000000E+01 0. -1.
         -5    1    4    4    0  502 -0.29605907224E+02  0.60737827550E+01  0.13381640256E+02  0.33385009742E+02  0.47000000000E+01 0. -1.
          5    1    5    5  503    0  0.60687658735E+02  0.37285447328E+02  0.28123219132E+03  0.29014967162E+03  0.47000000000E+01 0. -1.
         -5    1    5    5    0  503 -0.20121961367E+02 -0.56613550189E+02  0.38069896666E+03  0.38543972371E+03  0.47000000000E+01 0. -1.
<mgrwt>
<rscale>  0 0.27360507E+03</rscale>
<asrwt>0</asrwt>
<pdfrwt beam="1">  1        1 0.26193915E-02 0.27360507E+03</pdfrwt>
<pdfrwt beam="2">  1       -1 0.16910684E+00 0.27360507E+03</pdfrwt>
<totfact> 0.11272399E+03</totfact>
</mgrwt>
</event>
<event>
 9    1  0.2095749E-002  0.2744731E+03  0.7818608E-02  0.1098746E+00
          1   -1    0    0  501    0  0.00000000000E+00  0.00000000000E+00  0.30309279945E+03  0.30309279945E+03  0.00000000000E+00 0. -1.
         -1   -1    0    0    0  501 -0.00000000000E+00 -0.00000000000E+00 -0.62138965537E+02  0.62138965537E+02  0.00000000000E+00 0. -1.
         36    2    1    2    0    0 -0.17763568394E-14 -0.39968028887E-14  0.24095383391E+03  0.36523176498E+03  0.27447311722E+03 0.  0.
         25    2    3    3    0    0  0.13885437137E+01  0.36377928724E+01  0.18635268260E+03  0.21957267966E+03  0.11605894086E+03 0.  0.
         25    2    3    3    0    0 -0.13885437137E+01 -0.36377928724E+01  0.54601151313E+02  0.14565908532E+03  0.13498193146E+03 0.  0.
          5    1    4    4  502    0 -0.70618391361E+01  0.56779956900E+02  0.64887668676E+02  0.86639094084E+02  0.47000000000E+01 0. -1.
         -5    1    4    4    0  502  0.84503828498E+01 -0.53142164028E+02  0.12146501392E+03  0.13293358558E+03  0.47000000000E+01 0. -1.
          5    1    5    5  503    0  0.54089695292E+02 -0.24731631229E+01  0.69292681120E+02  0.88064620191E+02  0.47000000000E+01 0.  1.
         -5    1    5    5    0  503 -0.55478239005E+02 -0.11646297495E+01 -0.14691529807E+02  0.57594465130E+02  0.47000000000E+01 0.  1.
<mgrwt>
<rscale>  0 0.27447312E+03</rscale>
<asrwt>0</asrwt>
<pdfrwt beam="1">  1        1 0.46629661E-01 0.27447312E+03</pdfrwt>
<pdfrwt beam="2">  1       -1 0.95598410E-02 0.27447312E+03</pdfrwt>
<totfact> 0.56160503E+03</totfact>
</mgrwt>
</event>
<event>
 9    1  0.2095749E-002  0.2744066E+03  0.7818608E-02  0.1098784E+00
          2   -1    0    0  501    0  0.00000000000E+00  0.00000000000E+00  0.21068196374E+03  0.21068196374E+03  0.00000000000E+00 0.  1.
         -2   -1    0    0    0  501 -0.00000000000E+00 -0.00000000000E+00 -0.89351489137E+02  0.89351489137E+02  0.00000000000E+00 0.  1.
         36    2    1    2    0    0 -0.71054273576E-14  0.00000000000E+00  0.12133047460E+03  0.30003345287E+03  0.27440661212E+03 0.  0.
         25    2    3    3    0    0  0.34221588474E+01 -0.66492224971E+02  0.51992187705E+02  0.14970603584E+03  0.12359523628E+03 0.  0.
         25    2    3    3    0    0 -0.34221588474E+01  0.66492224971E+02  0.69338286895E+02  0.15032741704E+03  0.11557511467E+03 0.  0.
          5    1    4    4  502    0  0.52485720561E+02 -0.46830935044E+02  0.64093987222E+02  0.95278625819E+02  0.47000000000E+01 0.  1.
         -5    1    4    4    0  502 -0.49063561713E+02 -0.19661289927E+02 -0.12101799517E+02  0.54427410017E+02  0.47000000000E+01 0.  1.
          5    1    5    5  503    0 -0.46859913606E+02  0.74060050200E+02  0.36050959155E+02  0.94881527152E+02  0.47000000000E+01 0.  1.
         -5    1    5    5    0  503  0.43437754758E+02 -0.75678252289E+01  0.33287327740E+02  0.55445889886E+02  0.47000000000E+01 0.  1.
<mgrwt>
<rscale>  0 0.27440661E+03</rscale>
<asrwt>0</asrwt>
<pdfrwt beam="1">  1        2 0.32412610E-01 0.27440661E+03</pdfrwt>
<pdfrwt beam="2">  1       -2 0.13746383E-01 0.27440661E+03</pdfrwt>
<totfact> 0.63197590E+03</totfact>
</mgrwt>
</event>
<event>
 9    1  0.2095749E-002  0.2751391E+03  0.7818608E-02  0.1098374E+00
         -2   -1    0    0    0  501 -0.00000000000E+00  0.00000000000E+00  0.17517462102E+02  0.17517462102E+02  0.00000000000E+00 0. -1.
          2   -1    0    0  501    0  0.00000000000E+00 -0.00000000000E+00 -0.10803720445E+04  0.10803720445E+04  0.00000000000E+00 0. -1.
         36    2    1    2    0    0  0.00000000000E+00  0.00000000000E+00 -0.10628545824E+04  0.10978895066E+04  0.27513906552E+03 0.  0.
         25    2    3    3    0    0 -0.26866467915E+01 -0.16681704662E+02 -0.60593244916E+03  0.61896214539E+03  0.12519787195E+03 0.  0.
         25    2    3    3    0    0  0.26866467915E+01  0.16681704662E+02 -0.45692213319E+03  0.47892736117E+03  0.14250643540E+03 0.  0.
          5    1    4    4  502    0  0.20642944503E+02 -0.50120278730E+02 -0.12558374619E+03  0.13686321933E+03  0.47000000000E+01 0. -1.
         -5    1    4    4    0  502 -0.23329591294E+02  0.33438574068E+02 -0.48034870297E+03  0.48209892606E+03  0.47000000000E+01 0. -1.
          5    1    5    5  503    0 -0.23142650058E+02 -0.46833964929E+02 -0.33402757012E+03  0.33812055560E+03  0.47000000000E+01 0. -1.
         -5    1    5    5    0  503  0.25829296850E+02  0.63515669591E+02 -0.12289456308E+03  0.14080680556E+03  0.47000000000E+01 0. -1.
<mgrwt>
<rscale>  0 0.27513907E+03</rscale>
<asrwt>0</asrwt>
<pdfrwt beam="1">  1        2 0.16621106E+00 0.27513907E+03</pdfrwt>
<pdfrwt beam="2">  1       -2 0.26949945E-02 0.27513907E+03</pdfrwt>
<totfact> 0.11640432E+04</totfact>
</mgrwt>
</event>
<event>
 9    1  0.2095749E-002  0.2760832E+03  0.7818608E-02  0.1097848E+00
         -1   -1    0    0    0  501 -0.00000000000E+00  0.00000000000E+00  0.16358249566E+02  0.16358249566E+02  0.00000000000E+00 0.  1.
          1   -1    0    0  501    0  0.00000000000E+00 -0.00000000000E+00 -0.11648850245E+04  0.11648850245E+04  0.00000000000E+00 0.  1.
         36    2    1    2    0    0 -0.17763568394E-14 -0.71054273576E-14 -0.11485267749E+04  0.11812432741E+04  0.27608317549E+03 0.  0.
         25    2    3    3    0    0 -0.86353755603E+01 -0.13185248633E+02 -0.77579201254E+03  0.78637150295E+03  0.12758712096E+03 0.  0.
         25    2    3    3    0    0  0.86353755603E+01  0.13185248633E+02 -0.37273476240E+03  0.39487177113E+03  0.12939896459E+03 0.  0.
          5    1    4    4  502    0 -0.60537201233E+02  0.69494276808E+00 -0.58377139211E+03  0.58692108833E+03  0.47000000000E+01 0.  1.
         -5    1    4    4    0  502  0.51901825672E+02 -0.13880191401E+02 -0.19202062043E+03  0.19945041462E+03  0.47000000000E+01 0.  1.
          5    1    5    5  503    0 -0.25035901181E+00  0.66628819051E+02 -0.27531455387E+03  0.28330135154E+03  0.47000000000E+01 0. -1.
         -5    1    5    5    0  503  0.88857345721E+01 -0.53443570418E+02 -0.97420208527E+02  0.11157041959E+03  0.47000000000E+01 0. -1.
<mgrwt>
<rscale>  0 0.27608318E+03</rscale>
<asrwt>0</asrwt>
<pdfrwt beam="1">  1        1 0.17921315E+00 0.27608318E+03</pdfrwt>
<pdfrwt beam="2">  1       -1 0.25166528E-02 0.27608318E+03</pdfrwt>
<totfact> 0.59277252E+03</totfact>
</mgrwt>
</event>
<event>
 9    1  0.2095749E-002  0.2756476E+03  0.7818608E-02  0.1098090E+00
          1   -1    0    0  501    0  0.00000000000E+00  0.00000000000E+00  0.91039994367E+03  0.91039994367E+03  0.00000000000E+00 0. -1.
         -1   -1    0    0    0  501 -0.00000000000E+00 -0.00000000000E+00 -0.20864890791E+02  0.20864890791E+02  0.00000000000E+00 0. -1.
         36    2    1    2    0    0 -0.71054273576E-14  0.00000000000E+00  0.88953505288E+03  0.93126483446E+03  0.27564756774E+03 0.  0.
         25    2    3    3    0    0 -0.47941685898E+02  0.21960332506E+02  0.34891072436E+03  0.37405755577E+03  0.12409552774E+03 0.  0.
         25    2    3    3    0    0  0.47941685898E+02 -0.21960332506E+02  0.54062432853E+03  0.55720727870E+03  0.12419591534E+03 0.  0.
          5    1    4    4  502    0 -0.51864144621E+02  0.30944153183E+02  0.35597516575E+03  0.36109256257E+03  0.47000000000E+01 0. -1.
         -5    1    4    4    0  502  0.39224587232E+01 -0.89838206777E+01 -0.70644413936E+01  0.12964993197E+02  0.47000000000E+01 0. -1.
          5    1    5    5  503    0 -0.37863271269E+02 -0.14147105953E+02  0.95686502584E+02  0.10397963596E+03  0.47000000000E+01 0.  1.
         -5    1    5    5    0  503  0.85804957166E+02 -0.78132265524E+01  0.44493782594E+03  0.45322764273E+03  0.47000000000E+01 0.  1.
<mgrwt>
<rscale>  0 0.27564757E+03</rscale>
<asrwt>0</asrwt>
<pdfrwt beam="1">  1        1 0.14006150E+00 0.27564757E+03</pdfrwt>
<pdfrwt beam="2">  1       -1 0.32099839E-02 0.27564757E+03</pdfrwt>
<totfact> 0.63875009E+03</totfact>
</mgrwt>
</event>
<event>
 9    1  0.2095749E-002  0.2756811E+03  0.7818608E-02  0.1098071E+00
         -1   -1    0    0    0  501 -0.00000000000E+00  0.00000000000E+00  0.12604223495E+02  0.12604223495E+02  0.00000000000E+00 0. -1.
          1   -1    0    0  501    0  0.00000000000E+00 -0.00000000000E+00 -0.15074327553E+04  0.15074327553E+04  0.00000000000E+00 0. -1.
         36    2    1    2    0    0  0.00000000000E+00  0.00000000000E+00 -0.14948285318E+04  0.15200369788E+04  0.27568111543E+03 0.  0.
         25    2    3    3    0    0 -0.38357785949E+02  0.12169080232E+02 -0.10237008028E+04  0.10321765073E+04  0.12572033424E+03 0.  0.
         25    2    3    3    0    0  0.38357785949E+02 -0.12169080232E+02 -0.47112772903E+03  0.48786047146E+03  0.12011284815E+03 0.  0.
          5    1    4    4  502    0  0.42861350187E+02 -0.89367572059E+01 -0.48028261449E+03  0.48229704618E+03  0.47000000000E+01 0. -1.
         -5    1    4    4    0  502 -0.81219136136E+02  0.21105837437E+02 -0.54341818826E+03  0.54987946114E+03  0.47000000000E+01 0. -1.
          5    1    5    5  503    0  0.41297572850E+02 -0.41229207194E+02 -0.44361149981E+03  0.44745791960E+03  0.47000000000E+01 0.  1.
         -5    1    5    5    0  503 -0.29397869015E+01  0.29060126963E+02 -0.27516229227E+02  0.40402551862E+02  0.47000000000E+01 0.  1.
<mgrwt>
<rscale>  0 0.27568112E+03</rscale>
<asrwt>0</asrwt>
<pdfrwt beam="1">  1        1 0.23191270E+00 0.27568112E+03</pdfrwt>
<pdfrwt beam="2">  1       -1 0.19391115E-02 0.27568112E+03</pdfrwt>
<totfact> 0.50764959E+03</totfact>
</mgrwt>
</event>
<event>
 9    1  0.2095749E-002  0.2754716E+03  0.7818608E-02  0.1098188E+00
         -2   -1    0    0    0  501 -0.00000000000E+00  0.00000000000E+00  0.37771113116E+02  0.37771113116E+02  0.00000000000E+00 0. -1.
          2   -1    0    0  501    0  0.00000000000E+00 -0.00000000000E+00 -0.50226626279E+03  0.50226626279E+03  0.00000000000E+00 0. -1.
         36    2    1    2    0    0  0.00000000000E+00 -0.71054273576E-14 -0.46449514967E+03  0.54003737590E+03  0.27547163793E+03 0.  0.
         25    2    3    3    0    0  0.41379189247E+02  0.50519228729E+02 -0.29579279295E+03  0.32670511395E+03  0.12238637730E+03 0.  0.
         25    2    3    3    0    0 -0.41379189247E+02 -0.50519228729E+02 -0.16870235672E+03  0.21333226195E+03  0.11307404234E+03 0.  0.
          5    1    4    4  502    0  0.59679716112E+02  0.37676771696E+02 -0.69168463855E+02  0.98932168846E+02  0.47000000000E+01 0. -1.
         -5    1    4    4    0  502 -0.18300526865E+02  0.12842457033E+02 -0.22662432909E+03  0.22777294511E+03  0.47000000000E+01 0. -1.
          5    1    5    5  503    0  0.21255454665E+02 -0.62770386974E+02 -0.80921848085E+02  0.10470124799E+03  0.47000000000E+01 0. -1.
         -5    1    5    5    0  503 -0.62634643912E+02  0.12251158244E+02 -0.87780508637E+02  0.10863101396E+03  0.47000000000E+01 0. -1.
<mgrwt>
<rscale>  0 0.27547164E+03</rscale>
<asrwt>0</asrwt>
<pdfrwt beam="1">  1        2 0.77271733E-01 0.27547164E+03</pdfrwt>
<pdfrwt beam="2">  1       -2 0.58109405E-02 0.27547164E+03</pdfrwt>
<totfact> 0.95759590E+03</totfact>
</mgrwt>
</event>
<event>
 9    1  0.2095749E-002  0.2748589E+03  0.7818608E-02  0.1098530E+00
         -1   -1    0    0    0  501 -0.00000000000E+00  0.00000000000E+00  0.21703868714E+02  0.21703868714E+02  0.00000000000E+00 0. -1.
          1   -1    0    0  501    0  0.00000000000E+00 -0.00000000000E+00 -0.87020695492E+03  0.87020695492E+03  0.00000000000E+00 0. -1.
         36    2    1    2    0    0  0.00000000000E+00  0.00000000000E+00 -0.84850308620E+03  0.89191082363E+03  0.27485892748E+03 0.  0.
         25    2    3    3    0    0  0.43424869777E+02 -0.28661635104E+01 -0.34593553005E+03  0.37253348859E+03  0.13120927924E+03 0.  0.
         25    2    3    3    0    0 -0.43424869777E+02  0.28661635104E+01 -0.50256755615E+03  0.51937733504E+03  0.12363144200E+03 0.  0.
          5    1    4    4  502    0  0.20484551427E+02  0.44649888216E+02 -0.29481493290E+03  0.29891665063E+03  0.47000000000E+01 0.  1.
         -5    1    4    4    0  502  0.22940318350E+02 -0.47516051726E+02 -0.51120597155E+02  0.73616837959E+02  0.47000000000E+01 0.  1.
          5    1    5    5  503    0 -0.80484476336E+02  0.26159513086E+02 -0.37390314982E+03  0.38338978404E+03  0.47000000000E+01 0. -1.
         -5    1    5    5    0  503  0.37059606559E+02 -0.23293349576E+02 -0.12866440633E+03  0.13598755100E+03  0.47000000000E+01 0. -1.
<mgrwt>
<rscale>  0 0.27485893E+03</rscale>
<asrwt>0</asrwt>
<pdfrwt beam="1">  1        1 0.13387800E+00 0.27485893E+03</pdfrwt>
<pdfrwt beam="2">  1       -1 0.33390567E-02 0.27485893E+03</pdfrwt>
<totfact> 0.64823679E+03</totfact>
</mgrwt>
</event>
<event>
 9    1  0.2095749E-002  0.2742684E+03  0.7818608E-02  0.1098861E+00
          2   -1    0    0  501    0  0.00000000000E+00  0.00000000000E+00  0.38394057549E+03  0.38394057549E+03  0.00000000000E+00 0.  1.
         -2   -1    0    0    0  501 -0.00000000000E+00 -0.00000000000E+00 -0.48980991702E+02  0.48980991702E+02  0.00000000000E+00 0.  1.
         36    2    1    2    0    0  0.00000000000E+00  0.71054273576E-14  0.33495958378E+03  0.43292156719E+03  0.27426840971E+03 0.  0.
         25    2    3    3    0    0  0.26474622136E+02  0.48634609596E+02  0.14971248933E+03  0.20151400278E+03  0.12299525596E+03 0.  0.
         25    2    3    3    0    0 -0.26474622136E+02 -0.48634609596E+02  0.18524709445E+03  0.23140756441E+03  0.12714851156E+03 0.  0.
          5    1    4    4  502    0 -0.13684518608E+01  0.43910999276E+02 -0.47345047627E+01  0.44435954511E+02  0.47000000000E+01 0.  1.
         -5    1    4    4    0  502  0.27843073996E+02  0.47236103204E+01  0.15444699409E+03  0.15707804827E+03  0.47000000000E+01 0.  1.
          5    1    5    5  503    0 -0.11714067263E+02 -0.70984223525E+02  0.37669099801E+02  0.81345131637E+02  0.47000000000E+01 0.  1.
         -5    1    5    5    0  503 -0.14760554872E+02  0.22349613929E+02  0.14757799465E+03  0.15006243277E+03  0.47000000000E+01 0.  1.
<mgrwt>
<rscale>  0 0.27426841E+03</rscale>
<asrwt>0</asrwt>
<pdfrwt beam="1">  1        2 0.59067779E-01 0.27426841E+03</pdfrwt>
<pdfrwt beam="2">  1       -2 0.75355374E-02 0.27426841E+03</pdfrwt>
<totfact> 0.86125191E+03</totfact>
</mgrwt>
</event>
<event>
 9    1  0.2095749E-002  0.2750034E+03  0.7818608E-02  0.1098450E+00
         -2   -1    0    0    0  501 -0.00000000000E+00  0.00000000000E+00  0.29083785347E+03  0.29083785347E+03  0.00000000000E+00 0.  1.
          2   -1    0    0  501    0  0.00000000000E+00 -0.00000000000E+00 -0.65007772685E+02  0.65007772685E+02  0.00000000000E+00 0.  1.
         36    2    1    2    0    0 -0.71054273576E-14  0.35527136788E-14  0.22583008078E+03  0.35584562615E+03  0.27500342592E+03 0.  0.
         25    2    3    3    0    0 -0.57432030708E+02 -0.59792450977E+00  0.11895779877E+03  0.18121027225E+03  0.12404599637E+03 0.  0.
         25    2    3    3    0    0  0.57432030708E+02  0.59792450977E+00  0.10687228202E+03  0.17463535391E+03  0.12560663401E+03 0.  0.
          5    1    4    4  502    0 -0.88104919285E+01  0.30270799839E+02 -0.15068811235E+02  0.35257696506E+02  0.47000000000E+01 0. -1.
         -5    1    4    4    0  502 -0.48621538779E+02 -0.30868724349E+02  0.13402661000E+03  0.14595257574E+03  0.47000000000E+01 0. -1.
          5    1    5    5  503    0  0.69144400661E+02  0.46224069411E+02  0.93950057143E+02  0.12556399155E+03  0.47000000000E+01 0.  1.
         -5    1    5    5    0  503 -0.11712369954E+02 -0.45626144901E+02  0.12922224873E+02  0.49071362363E+02  0.47000000000E+01 0.  1.
<mgrwt>
<rscale>  0 0.27500343E+03</rscale>
<asrwt>0</asrwt>
<pdfrwt beam="1">  1        2 0.10001196E-01 0.27500343E+03</pdfrwt>
<pdfrwt beam="2">  1       -2 0.44744284E-01 0.27500343E+03</pdfrwt>
<totfact> 0.30567590E+03</totfact>
</mgrwt>
</event>
<event>
 9    1  0.2095749E-002  0.2764133E+03  0.7818608E-02  0.1097664E+00
         -2   -1    0    0    0  501 -0.00000000000E+00  0.00000000000E+00  0.67540090562E+01  0.67540090562E+01  0.00000000000E+00 0. -1.
          2   -1    0    0  501    0  0.00000000000E+00 -0.00000000000E+00 -0.28281098677E+04  0.28281098677E+04  0.00000000000E+00 0. -1.
         36    2    1    2    0    0  0.71054273576E-14  0.00000000000E+00 -0.28213558587E+04  0.28348638768E+04  0.27641331125E+03 0.  0.
         25    2    3    3    0    0 -0.33351343618E+02 -0.14945384394E+02 -0.19010791914E+04  0.19055976934E+04  0.12595554972E+03 0.  0.
         25    2    3    3    0    0  0.33351343618E+02  0.14945384394E+02 -0.92027666729E+03  0.92926618340E+03  0.12365604963E+03 0.  0.
          5    1    4    4  502    0  0.25060301479E+02  0.42086109959E+02 -0.66761392424E+03  0.66942490334E+03  0.47000000000E+01 0. -1.
         -5    1    4    4    0  502 -0.58411645097E+02 -0.57031494352E+02 -0.12334652671E+04  0.12361727900E+04  0.47000000000E+01 0. -1.
          5    1    5    5  503    0 -0.26737240770E+02  0.49583225176E+02 -0.51230636530E+03  0.51541563635E+03  0.47000000000E+01 0. -1.
         -5    1    5    5    0  503  0.60088584388E+02 -0.34637840782E+02 -0.40797030199E+03  0.41385054705E+03  0.47000000000E+01 0. -1.
<mgrwt>
<rscale>  0 0.27641331E+03</rscale>
<asrwt>0</asrwt>
<pdfrwt beam="1">  1        2 0.43509485E+00 0.27641331E+03</pdfrwt>
<pdfrwt beam="2">  1       -2 0.10390759E-02 0.27641331E+03</pdfrwt>
<totfact> 0.52932685E+03</totfact>
</mgrwt>
</event>
<event>
 9    1  0.2095749E-002  0.2751866E+03  0.7818608E-02  0.1098347E+00
         -1   -1    0    0    0  501 -0.00000000000E+00  0.00000000000E+00  0.42372462902E+02  0.42372462902E+02  0.00000000000E+00 0. -1.
          1   -1    0    0  501    0  0.00000000000E+00 -0.00000000000E+00 -0.44679758038E+03  0.44679758038E+03  0.00000000000E+00 0. -1.
         36    2    1    2    0    0 -0.14210854715E-13 -0.71054273576E-14 -0.40442511748E+03  0.48917004328E+03  0.27518658325E+03 0.  0.
         25    2    3    3    0    0 -0.54617963317E+02  0.45490556852E+01 -0.22418530879E+03  0.26257281123E+03  0.12522624603E+03 0.  0.
         25    2    3    3    0    0  0.54617963317E+02 -0.45490556852E+01 -0.18023980869E+03  0.22659723206E+03  0.12592101141E+03 0.  0.
          5    1    4    4  502    0 -0.36205103096E+02  0.55013375358E+02 -0.58085560385E+02  0.87939202201E+02  0.47000000000E+01 0. -1.
         -5    1    4    4    0  502 -0.18412860221E+02 -0.50464319673E+02 -0.16609974840E+03  0.17463360902E+03  0.47000000000E+01 0. -1.
          5    1    5    5  503    0  0.20643425827E+02 -0.64660215691E+02 -0.85354126600E+02  0.10915361401E+03  0.47000000000E+01 0.  1.
         -5    1    5    5    0  503  0.33974537491E+02  0.60111160006E+02 -0.94885682091E+02  0.11744361805E+03  0.47000000000E+01 0.  1.
<mgrwt>
<rscale>  0 0.27518658E+03</rscale>
<asrwt>0</asrwt>
<pdfrwt beam="1">  1        1 0.68738084E-01 0.27518658E+03</pdfrwt>
<pdfrwt beam="2">  1       -1 0.65188409E-02 0.27518658E+03</pdfrwt>
<totfact> 0.61438279E+03</totfact>
</mgrwt>
</event>
<event>
 9    1  0.2095749E-002  0.2755062E+03  0.7818608E-02  0.1098169E+00
          2   -1    0    0  501    0  0.00000000000E+00  0.00000000000E+00  0.13657641030E+04  0.13657641030E+04  0.00000000000E+00 0. -1.
         -2   -1    0    0    0  501 -0.00000000000E+00 -0.00000000000E+00 -0.13893991618E+02  0.13893991618E+02  0.00000000000E+00 0. -1.
         36    2    1    2    0    0  0.53290705182E-14 -0.71054273576E-14  0.13518701113E+04  0.13796580946E+04  0.27550618867E+03 0.  0.
         25    2    3    3    0    0 -0.43958442810E+01 -0.27894562466E+02  0.97260063719E+03  0.98110827830E+03  0.12579357781E+03 0.  0.
         25    2    3    3    0    0  0.43958442810E+01  0.27894562466E+02  0.37926947416E+03  0.39854981629E+03  0.11916036242E+03 0.  0.
          5    1    4    4  502    0  0.10202479391E+02 -0.28479473268E+01  0.42971137474E+01  0.12359473139E+02  0.47000000000E+01 0.  1.
         -5    1    4    4    0  502 -0.14598323672E+02 -0.25046615139E+02  0.96830352344E+03  0.96874880516E+03  0.47000000000E+01 0.  1.
          5    1    5    5  503    0  0.39371346431E+02 -0.24499630104E+02  0.25414090178E+03  0.25837960978E+03  0.47000000000E+01 0. -1.
         -5    1    5    5    0  503 -0.34975502150E+02  0.52394192570E+02  0.12512857238E+03  0.14017020650E+03  0.47000000000E+01 0. -1.
<mgrwt>
<rscale>  0 0.27550619E+03</rscale>
<asrwt>0</asrwt>
<pdfrwt beam="1">  1        2 0.21011745E+00 0.27550619E+03</pdfrwt>
<pdfrwt beam="2">  1       -2 0.21375383E-02 0.27550619E+03</pdfrwt>
<totfact> 0.11303546E+04</totfact>
</mgrwt>
</event>
<event>
 9    1  0.2095749E-002  0.2755104E+03  0.7818608E-02  0.1098167E+00
          1   -1    0    0  501    0  0.00000000000E+00  0.00000000000E+00  0.13243448941E+04  0.13243448941E+04  0.00000000000E+00 0.  1.
         -1   -1    0    0    0  501 -0.00000000000E+00 -0.00000000000E+00 -0.14328972793E+02  0.14328972793E+02  0.00000000000E+00 0.  1.
         36    2    1    2    0    0 -0.35527136788E-14  0.00000000000E+00  0.13100159214E+04  0.13386738669E+04  0.27551044958E+03 0.  0.
         25    2    3    3    0    0 -0.23521732016E+02  0.66829241404E+02  0.72123083747E+03  0.73515724501E+03  0.12354284518E+03 0.  0.
         25    2    3    3    0    0  0.23521732016E+02 -0.66829241404E+02  0.58878508388E+03  0.60351662192E+03  0.11200454702E+03 0.  0.
          5    1    4    4  502    0 -0.53275548307E+01  0.23083969817E+02  0.64384850354E+03  0.64430135652E+03  0.47000000000E+01 0.  1.
         -5    1    4    4    0  502 -0.18194177185E+02  0.43745271587E+02  0.77382333933E+02  0.90855888497E+02  0.47000000000E+01 0.  1.
          5    1    5    5  503    0 -0.59754835085E+01 -0.70674275311E+02  0.17856978865E+03  0.19219734392E+03  0.47000000000E+01 0.  1.
         -5    1    5    5    0  503  0.29497215525E+02  0.38450339074E+01  0.41021529524E+03  0.41131927800E+03  0.47000000000E+01 0.  1.
<mgrwt>
<rscale>  0 0.27551045E+03</rscale>
<asrwt>0</asrwt>
<pdfrwt beam="1">  1        1 0.20374527E+00 0.27551045E+03</pdfrwt>
<pdfrwt beam="2">  1       -1 0.22044584E-02 0.27551045E+03</pdfrwt>
<totfact> 0.55826221E+03</totfact>
</mgrwt>
</event>
<event>
 9    1  0.2095749E-002  0.2765481E+03  0.7818608E-02  0.1097589E+00
         -1   -1    0    0    0  501 -0.00000000000E+00  0.00000000000E+00  0.89986046804E+02  0.89986046804E+02  0.00000000000E+00 0.  1.
          1   -1    0    0  501    0  0.00000000000E+00 -0.00000000000E+00 -0.21247421259E+03  0.21247421259E+03  0.00000000000E+00 0.  1.
         36    2    1    2    0    0  0.00000000000E+00  0.35527136788E-14 -0.12248816579E+03  0.30246025940E+03  0.27654811110E+03 0.  0.
         25    2    3    3    0    0  0.27228664823E+02 -0.44648244235E+01  0.37447877191E+01  0.12443435589E+03  0.12127881367E+03 0.  0.
         25    2    3    3    0    0 -0.27228664823E+02  0.44648244235E+01 -0.12623295351E+03  0.17802590350E+03  0.12246276545E+03 0.  0.
          5    1    4    4  502    0  0.56310647682E+02  0.40241432893E+02  0.11558544460E+02  0.70327462017E+02  0.47000000000E+01 0. -1.
         -5    1    4    4    0  502 -0.29081982859E+02 -0.44706257317E+02 -0.78137567407E+01  0.54106893874E+02  0.47000000000E+01 0. -1.
          5    1    5    5  503    0 -0.69566707267E+02  0.16504083245E+02 -0.10917175139E+03  0.13058511716E+03  0.47000000000E+01 0. -1.
         -5    1    5    5    0  503  0.42338042444E+02 -0.12039258821E+02 -0.17061202120E+02  0.47440786342E+02  0.47000000000E+01 0. -1.
<mgrwt>
<rscale>  0 0.27654811E+03</rscale>
<asrwt>0</asrwt>
<pdfrwt beam="1">  1        1 0.32688340E-01 0.27654811E+03</pdfrwt>
<pdfrwt beam="2">  1       -1 0.13844007E-01 0.27654811E+03</pdfrwt>
<totfact> 0.49279849E+03</totfact>
</mgrwt>
</event>
<event>
 9    1  0.2095749E-002  0.2728165E+03  0.7818608E-02  0.1099678E+00
         -1   -1    0    0    0  501 -0.00000000000E+00  0.00000000000E+00  0.16256216902E+02  0.16256216902E+02  0.00000000000E+00 0.  1.
          1   -1    0    0  501    0  0.00000000000E+00 -0.00000000000E+00 -0.11446214311E+04  0.11446214311E+04  0.00000000000E+00 0.  1.
         36    2    1    2    0    0  0.71054273576E-14 -0.35527136788E-14 -0.11283652142E+04  0.11608776480E+04  0.27281652629E+03 0.  0.
         25    2    3    3    0    0 -0.48322265386E+02 -0.20016219473E+02 -0.52138943934E+03  0.53880025110E+03  0.12539167742E+03 0.  0.
         25    2    3    3    0    0  0.48322265386E+02  0.20016219473E+02 -0.60697577484E+03  0.62207739687E+03  0.12579748044E+03 0.  0.
          5    1    4    4  502    0 -0.71687527601E+01 -0.20710807060E+02 -0.47901802827E+03  0.47954216702E+03  0.47000000000E+01 0.  1.
         -5    1    4    4    0  502 -0.41153512625E+02  0.69458758748E+00 -0.42371411065E+02  0.59258084081E+02  0.47000000000E+01 0.  1.
          5    1    5    5  503    0  0.30175087733E+02  0.29462509727E+02 -0.59757037524E+03  0.59907513616E+03  0.47000000000E+01 0.  1.
         -5    1    5    5    0  503  0.18147177653E+02 -0.94462902542E+01 -0.94053995981E+01  0.23002260714E+02  0.47000000000E+01 0.  1.
<mgrwt>
<rscale>  0 0.27281653E+03</rscale>
<asrwt>0</asrwt>
<pdfrwt beam="1">  1        1 0.17609559E+00 0.27281653E+03</pdfrwt>
<pdfrwt beam="2">  1       -1 0.25009566E-02 0.27281653E+03</pdfrwt>
<totfact> 0.61822669E+03</totfact>
</mgrwt>
</event>
<event>
 9    1  0.2095749E-002  0.2752109E+03  0.7818608E-02  0.1098334E+00
         -2   -1    0    0    0  501 -0.00000000000E+00  0.00000000000E+00  0.16253193045E+02  0.16253193045E+02  0.00000000000E+00 0.  1.
          2   -1    0    0  501    0  0.00000000000E+00 -0.00000000000E+00 -0.11650181910E+04  0.11650181910E+04  0.00000000000E+00 0.  1.
         36    2    1    2    0    0 -0.71054273576E-14  0.22204460493E-14 -0.11487649980E+04  0.11812713841E+04  0.27521094135E+03 0.  0.
         25    2    3    3    0    0 -0.55211034779E+02  0.38885003173E+01 -0.56489133847E+03  0.58074299190E+03  0.12286911562E+03 0.  0.
         25    2    3    3    0    0  0.55211034779E+02 -0.38885003173E+01 -0.58387365954E+03  0.60052839219E+03  0.12908338673E+03 0.  0.
          5    1    4    4  502    0 -0.21859470293E+02 -0.58737215290E+02 -0.23365493696E+03  0.24195994807E+03  0.47000000000E+01 0. -1.
         -5    1    4    4    0  502 -0.33351564487E+02  0.62625715608E+02 -0.33123640150E+03  0.33878304384E+03  0.47000000000E+01 0. -1.
          5    1    5    5  503    0  0.53549035277E+02  0.45912493479E+00 -0.78676557851E+02  0.95287988383E+02  0.47000000000E+01 0.  1.
         -5    1    5    5    0  503  0.16619995023E+01 -0.43476252521E+01 -0.50519710168E+03  0.50524040381E+03  0.47000000000E+01 0.  1.
<mgrwt>
<rscale>  0 0.27521094E+03</rscale>
<asrwt>0</asrwt>
<pdfrwt beam="1">  1        2 0.17923361E+00 0.27521094E+03</pdfrwt>
<pdfrwt beam="2">  1       -2 0.25004906E-02 0.27521094E+03</pdfrwt>
<totfact> 0.11610278E+04</totfact>
</mgrwt>
</event>
<event>
 9    1  0.2095749E-002  0.2748338E+03  0.7818608E-02  0.1098545E+00
         -1   -1    0    0    0  501 -0.00000000000E+00  0.00000000000E+00  0.69399819254E+01  0.69399819254E+01  0.00000000000E+00 0.  1.
          1   -1    0    0  501    0  0.00000000000E+00 -0.00000000000E+00 -0.27209583544E+04  0.27209583544E+04  0.00000000000E+00 0.  1.
         36    2    1    2    0    0  0.71054273576E-14  0.17763568394E-14 -0.27140183724E+04  0.27278983363E+04  0.27483378103E+03 0.  0.
         25    2    3    3    0    0 -0.24761634772E+02 -0.14808956441E+02 -0.93262672990E+03  0.94177083739E+03  0.12769983982E+03 0.  0.
         25    2    3    3    0    0  0.24761634772E+02  0.14808956441E+02 -0.17813916425E+04  0.17861274989E+04  0.12673915916E+03 0.  0.
          5    1    4    4  502    0 -0.54852792769E+02 -0.39457268243E+00 -0.17635613821E+03  0.18474999877E+03  0.47000000000E+01 0.  1.
         -5    1    4    4    0  502  0.30091157997E+02 -0.14414383759E+02 -0.75627059169E+03  0.75702083862E+03  0.47000000000E+01 0.  1.
          5    1    5    5  503    0  0.30856144297E+02  0.44009868702E+02 -0.32691550012E+03  0.33133790064E+03  0.47000000000E+01 0.  1.
         -5    1    5    5    0  503 -0.60945095254E+01 -0.29200912261E+02 -0.14544761424E+04  0.14547895982E+04  0.47000000000E+01 0.  1.
<mgrwt>
<rscale>  0 0.27483378E+03</rscale>
<asrwt>0</asrwt>
<pdfrwt beam="1">  1        1 0.41860932E+00 0.27483378E+03</pdfrwt>
<pdfrwt beam="2">  1       -1 0.10676887E-02 0.27483378E+03</pdfrwt>
<totfact> 0.19275526E+03</totfact>
</mgrwt>
</event>
<event>
 9    1  0.2095749E-002  0.2766698E+03  0.7818608E-02  0.1097522E+00
         -1   -1    0    0    0  501 -0.00000000000E+00  0.00000000000E+00  0.13564568000E+04  0.13564568000E+04  0.00000000000E+00 0.  1.
          1   -1    0    0  501    0  0.00000000000E+00 -0.00000000000E+00 -0.14107742577E+02  0.14107742577E+02  0.00000000000E+00 0.  1.
         36    2    1    2    0    0  0.00000000000E+00  0.00000000000E+00  0.13423490574E+04  0.13705645426E+04  0.27666979128E+03 0.  0.
         25    2    3    3    0    0  0.26365996481E+02 -0.50465185872E+02  0.61437912935E+03  0.62959309459E+03  0.12523517642E+03 0.  0.
         25    2    3    3    0    0 -0.26365996481E+02  0.50465185872E+02  0.72796992808E+03  0.74097144800E+03  0.12592287246E+03 0.  0.
          5    1    4    4  502    0 -0.41344005976E+01 -0.68515041804E+02  0.16466657103E+03  0.17846168731E+03  0.47000000000E+01 0.  1.
         -5    1    4    4    0  502  0.30500397078E+02  0.18049855932E+02  0.44971255832E+03  0.45113140728E+03  0.47000000000E+01 0.  1.
          5    1    5    5  503    0  0.42621255159E+02  0.45687135541E+02  0.45708379393E+03  0.46135839693E+03  0.47000000000E+01 0. -1.
         -5    1    5    5    0  503 -0.68987251640E+02  0.47780503313E+01  0.27088613415E+03  0.27961305107E+03  0.47000000000E+01 0. -1.
<mgrwt>
<rscale>  0 0.27666979E+03</rscale>
<asrwt>0</asrwt>
<pdfrwt beam="1">  1        1 0.21704230E-02 0.27666979E+03</pdfrwt>
<pdfrwt beam="2">  1       -1 0.20868556E+00 0.27666979E+03</pdfrwt>
<totfact> 0.78773193E+02</totfact>
</mgrwt>
</event>
<event>
 9    1  0.2095749E-002  0.2751088E+03  0.7818608E-02  0.1098391E+00
          2   -1    0    0  501    0  0.00000000000E+00  0.00000000000E+00  0.13754743404E+04  0.13754743404E+04  0.00000000000E+00 0.  1.
         -2   -1    0    0    0  501 -0.00000000000E+00 -0.00000000000E+00 -0.13756133924E+02  0.13756133924E+02  0.00000000000E+00 0.  1.
         36    2    1    2    0    0 -0.14210854715E-13  0.35527136788E-14  0.13617182065E+04  0.13892304743E+04  0.27510877293E+03 0.  0.
         25    2    3    3    0    0  0.59122389825E+02 -0.14328306141E+02  0.74277036627E+03  0.75506616468E+03  0.12131091752E+03 0.  0.
         25    2    3    3    0    0 -0.59122389825E+02  0.14328306141E+02  0.61894784019E+03  0.63416430962E+03  0.12396445211E+03 0.  0.
          5    1    4    4  502    0  0.12561214050E+02  0.19576037085E+02  0.23224712953E+02  0.33203653686E+02  0.47000000000E+01 0. -1.
         -5    1    4    4    0  502  0.46561175775E+02 -0.33904343226E+02  0.71954565332E+03  0.72186251100E+03  0.47000000000E+01 0. -1.
          5    1    5    5  503    0 -0.97346694655E+02  0.20570958187E+01  0.45212870142E+03  0.46251817614E+03  0.47000000000E+01 0. -1.
         -5    1    5    5    0  503  0.38224304830E+02  0.12271210322E+02  0.16681913877E+03  0.17164613349E+03  0.47000000000E+01 0. -1.
<mgrwt>
<rscale>  0 0.27510877E+03</rscale>
<asrwt>0</asrwt>
<pdfrwt beam="1">  1        2 0.21161133E+00 0.27510877E+03</pdfrwt>
<pdfrwt beam="2">  1       -2 0.21163294E-02 0.27510877E+03</pdfrwt>
<totfact> 0.11331329E+04</totfact>
</mgrwt>
</event>
<event>
 9    1  0.2095749E-002  0.2755768E+03  0.7818608E-02  0.1098130E+00
         -1   -1    0    0    0  501 -0.00000000000E+00  0.00000000000E+00  0.38102061254E+02  0.38102061254E+02  0.00000000000E+00 0.  1.
          1   -1    0    0  501    0  0.00000000000E+00 -0.00000000000E+00 -0.49828375203E+03  0.49828375203E+03  0.00000000000E+00 0.  1.
         36    2    1    2    0    0  0.00000000000E+00 -0.71054273576E-14 -0.46018169077E+03  0.53638581328E+03  0.27557676275E+03 0.  0.
         25    2    3    3    0    0 -0.50057556108E+02 -0.35909824485E+02 -0.21678389074E+03  0.25579261823E+03  0.12099311485E+03 0.  0.
         25    2    3    3    0    0  0.50057556108E+02  0.35909824485E+02 -0.24339780004E+03  0.28059319505E+03  0.12527879959E+03 0.  0.
          5    1    4    4  502    0 -0.82626698458E+02 -0.12958204699E+02 -0.90634773594E+02  0.12341733489E+03  0.47000000000E+01 0. -1.
         -5    1    4    4    0  502  0.32569142350E+02 -0.22951619786E+02 -0.12614911714E+03  0.13237528334E+03  0.47000000000E+01 0. -1.
          5    1    5    5  503    0  0.81389193602E+02 -0.11448360408E+02 -0.13465352910E+03  0.15782562749E+03  0.47000000000E+01 0. -1.
         -5    1    5    5    0  503 -0.31331637493E+02  0.47358184893E+02 -0.10874427093E+03  0.12276756756E+03  0.47000000000E+01 0. -1.
<mgrwt>
<rscale>  0 0.27557676E+03</rscale>
<asrwt>0</asrwt>
<pdfrwt beam="1">  1        1 0.76659031E-01 0.27557676E+03</pdfrwt>
<pdfrwt beam="2">  1       -1 0.58618562E-02 0.27557676E+03</pdfrwt>
<totfact> 0.62499137E+03</totfact>
</mgrwt>
</event>
<event>
 9    1  0.2095749E-002  0.2755514E+03  0.7818608E-02  0.1098144E+00
          2   -1    0    0  501    0  0.00000000000E+00  0.00000000000E+00  0.64956199308E+03  0.64956199308E+03  0.00000000000E+00 0. -1.
         -2   -1    0    0    0  501 -0.00000000000E+00 -0.00000000000E+00 -0.29222990158E+02  0.29222990158E+02  0.00000000000E+00 0. -1.
         36    2    1    2    0    0  0.00000000000E+00  0.00000000000E+00  0.62033900292E+03  0.67878498324E+03  0.27555140160E+03 0.  0.
         25    2    3    3    0    0  0.52009701239E+02  0.24372562451E+02  0.32495710025E+03  0.35337380092E+03  0.12639974428E+03 0.  0.
         25    2    3    3    0    0 -0.52009701239E+02 -0.24372562451E+02  0.29538190268E+03  0.32541118232E+03  0.12386661506E+03 0.  0.
          5    1    4    4  502    0  0.92989194765E+02  0.27045622202E+02  0.21296277258E+03  0.23399506091E+03  0.47000000000E+01 0. -1.
         -5    1    4    4    0  502 -0.40979493527E+02 -0.26730597511E+01  0.11199432766E+03  0.11937874001E+03  0.47000000000E+01 0. -1.
          5    1    5    5  503    0 -0.54578875578E+02  0.12623860088E+02  0.27898233383E+03  0.28458996485E+03  0.47000000000E+01 0.  1.
         -5    1    5    5    0  503  0.25691743392E+01 -0.36996422539E+02  0.16399568847E+02  0.40821217471E+02  0.47000000000E+01 0.  1.
<mgrwt>
<rscale>  0 0.27555140E+03</rscale>
<asrwt>0</asrwt>
<pdfrwt beam="1">  1        2 0.99932604E-01 0.27555140E+03</pdfrwt>
<pdfrwt beam="2">  1       -2 0.44958451E-02 0.27555140E+03</pdfrwt>
<totfact> 0.10527253E+04</totfact>
</mgrwt>
</event>
<event>
 9    1  0.2095749E-002  0.2751266E+03  0.7818608E-02  0.1098381E+00
          1   -1    0    0  501    0  0.00000000000E+00  0.00000000000E+00  0.47449566538E+03  0.47449566538E+03  0.00000000000E+00 0. -1.
         -1   -1    0    0    0  501 -0.00000000000E+00 -0.00000000000E+00 -0.39881643742E+02  0.39881643742E+02  0.00000000000E+00 0. -1.
         36    2    1    2    0    0  0.00000000000E+00  0.00000000000E+00  0.43461402163E+03  0.51437730912E+03  0.27512664054E+03 0.  0.
         25    2    3    3    0    0  0.60932783233E+02 -0.39838902452E+01  0.26693307766E+03  0.29470959381E+03  0.10895779589E+03 0.  0.
         25    2    3    3    0    0 -0.60932783233E+02  0.39838902452E+01  0.16768094398E+03  0.21966771531E+03  0.12809500662E+03 0.  0.
          5    1    4    4  502    0  0.40369550693E+02 -0.43071259280E+02  0.22825994995E+03  0.23581672704E+03  0.47000000000E+01 0. -1.
         -5    1    4    4    0  502  0.20563232540E+02  0.39087369034E+02  0.38673127705E+02  0.58892866775E+02  0.47000000000E+01 0. -1.
          5    1    5    5  503    0 -0.56813186351E+02 -0.41368839552E+02  0.33703373351E+02  0.78084098281E+02  0.47000000000E+01 0.  1.
         -5    1    5    5    0  503 -0.41195968823E+01  0.45352729797E+02  0.13397757063E+03  0.14158361702E+03  0.47000000000E+01 0.  1.
<mgrwt>
<rscale>  0 0.27512664E+03</rscale>
<asrwt>0</asrwt>
<pdfrwt beam="1">  1        1 0.72999329E-01 0.27512664E+03</pdfrwt>
<pdfrwt beam="2">  1       -1 0.61356378E-02 0.27512664E+03</pdfrwt>
<totfact> 0.62233795E+03</totfact>
</mgrwt>
</event>
<event>
 9    1  0.2095749E-002  0.2749672E+03  0.7818608E-02  0.1098470E+00
          1   -1    0    0  501    0  0.00000000000E+00  0.00000000000E+00  0.10669567979E+04  0.10669567979E+04  0.00000000000E+00 0.  1.
         -1   -1    0    0    0  501 -0.00000000000E+00 -0.00000000000E+00 -0.17715557085E+02  0.17715557085E+02  0.00000000000E+00 0.  1.
         36    2    1    2    0    0  0.00000000000E+00  0.00000000000E+00  0.10492412408E+04  0.10846723550E+04  0.27496715484E+03 0.  0.
         25    2    3    3    0    0 -0.33795758635E+02  0.36141545940E+02  0.64242619582E+03  0.65612319779E+03  0.12384615035E+03 0.  0.
         25    2    3    3    0    0  0.33795758635E+02 -0.36141545940E+02  0.40681504498E+03  0.42854915719E+03  0.12532970380E+03 0.  0.
          5    1    4    4  502    0 -0.40810062157E+02 -0.17541724915E+01  0.58707470175E+03  0.58851281527E+03  0.47000000000E+01 0. -1.
         -5    1    4    4    0  502  0.70143035219E+01  0.37895718432E+02  0.55351494068E+02  0.67610382523E+02  0.47000000000E+01 0. -1.
          5    1    5    5  503    0  0.22639212354E+02 -0.14626057544E+02  0.40257080413E+03  0.40349943970E+03  0.47000000000E+01 0. -1.
         -5    1    5    5    0  503  0.11156546281E+02 -0.21515488396E+02  0.42442408500E+01  0.25049717488E+02  0.47000000000E+01 0. -1.
<mgrwt>
<rscale>  0 0.27496715E+03</rscale>
<asrwt>0</asrwt>
<pdfrwt beam="1">  1        1 0.16414715E+00 0.27496715E+03</pdfrwt>
<pdfrwt beam="2">  1       -1 0.27254711E-02 0.27496715E+03</pdfrwt>
<totfact> 0.61971603E+03</totfact>
</mgrwt>
</event>
<event>
 9    1  0.2095749E-002  0.2751476E+03  0.7818608E-02  0.1098369E+00
         -1   -1    0    0    0  501 -0.00000000000E+00  0.00000000000E+00  0.17718925571E+02  0.17718925571E+02  0.00000000000E+00 0. -1.
          1   -1    0    0  501    0  0.00000000000E+00 -0.00000000000E+00 -0.10681543795E+04  0.10681543795E+04  0.00000000000E+00 0. -1.
         36    2    1    2    0    0  0.00000000000E+00 -0.53290705182E-14 -0.10504354540E+04  0.10858733051E+04  0.27514758185E+03 0.  0.
         25    2    3    3    0    0  0.52328217424E+02 -0.50464887764E+01 -0.46226715691E+03  0.48241431845E+03  0.12754975853E+03 0.  0.
         25    2    3    3    0    0 -0.52328217424E+02  0.50464887764E+01 -0.58816829704E+03  0.60345898664E+03  0.12432656002E+03 0.  0.
          5    1    4    4  502    0  0.17430194391E+02  0.60381414552E+02 -0.23535489141E+03  0.24364675620E+03  0.47000000000E+01 0.  1.
         -5    1    4    4    0  502  0.34898023034E+02 -0.65427903329E+02 -0.22691226551E+03  0.23876756225E+03  0.47000000000E+01 0.  1.
          5    1    5    5  503    0  0.23137680119E+02  0.11095708253E+02 -0.39604934601E+03  0.39690759813E+03  0.47000000000E+01 0. -1.
         -5    1    5    5    0  503 -0.75465897543E+02 -0.60492194764E+01 -0.19211895103E+03  0.20655138851E+03  0.47000000000E+01 0. -1.
<mgrwt>
<rscale>  0 0.27514758E+03</rscale>
<asrwt>0</asrwt>
<pdfrwt beam="1">  1        1 0.16433148E+00 0.27514758E+03</pdfrwt>
<pdfrwt beam="2">  1       -1 0.27259880E-02 0.27514758E+03</pdfrwt>
<totfact> 0.61830616E+03</totfact>
</mgrwt>
</event>
<event>
 9    1  0.2095749E-002  0.2760048E+03  0.7818608E-02  0.1097891E+00
          2   -1    0    0  501    0  0.00000000000E+00  0.00000000000E+00  0.78914931118E+03  0.78914931118E+03  0.00000000000E+00 0. -1.
         -2   -1    0    0    0  501 -0.00000000000E+00 -0.00000000000E+00 -0.24133156402E+02  0.24133156402E+02  0.00000000000E+00 0. -1.
         36    2    1    2    0    0  0.71054273576E-14 -0.71054273576E-14  0.76501615478E+03  0.81328246759E+03  0.27600480975E+03 0.  0.
         25    2    3    3    0    0  0.36037954835E+02 -0.41334265437E+02  0.38351682437E+03  0.40825185794E+03  0.12875235627E+03 0.  0.
         25    2    3    3    0    0 -0.36037954835E+02  0.41334265437E+02  0.38149933041E+03  0.40503060965E+03  0.12450220866E+03 0.  0.
          5    1    4    4  502    0 -0.43163090024E+02 -0.41602462586E+02  0.18210369162E+03  0.19177502896E+03  0.47000000000E+01 0.  1.
         -5    1    4    4    0  502  0.79201044859E+02  0.26819714926E+00  0.20141313276E+03  0.21647682898E+03  0.47000000000E+01 0.  1.
          5    1    5    5  503    0  0.19073146957E+02  0.58627888775E+01  0.29834549778E+03  0.29904896467E+03  0.47000000000E+01 0. -1.
         -5    1    5    5    0  503 -0.55111101793E+02  0.35471476560E+02  0.83153832634E+02  0.10598164498E+03  0.47000000000E+01 0. -1.
<mgrwt>
<rscale>  0 0.27600481E+03</rscale>
<asrwt>0</asrwt>
<pdfrwt beam="1">  1        2 0.12140757E+00 0.27600481E+03</pdfrwt>
<pdfrwt beam="2">  1       -2 0.37127939E-02 0.27600481E+03</pdfrwt>
<totfact> 0.11066800E+04</totfact>
</mgrwt>
</event>
<event>
 9    1  0.2095749E-002  0.2751444E+03  0.7818608E-02  0.1098371E+00
          1   -1    0    0  501    0  0.00000000000E+00  0.00000000000E+00  0.13533164223E+03  0.13533164223E+03  0.00000000000E+00 0.  1.
         -1   -1    0    0    0  501 -0.00000000000E+00 -0.00000000000E+00 -0.13984982104E+03  0.13984982104E+03  0.00000000000E+00 0.  1.
         36    2    1    2    0    0  0.14210854715E-13 -0.35527136788E-14 -0.45181788097E+01  0.27518146326E+03  0.27514436899E+03 0.  0.
         25    2    3    3    0    0 -0.51490307581E+02 -0.24064231371E+01 -0.34545633444E+02  0.13681381483E+03  0.12193267196E+03 0.  0.
         25    2    3    3    0    0  0.51490307581E+02  0.24064231371E+01  0.30027454635E+02  0.13836764843E+03  0.12484756887E+03 0.  0.
          5    1    4    4  502    0 -0.37403272696E+02 -0.17044986023E+02 -0.78180548204E+02  0.88452385352E+02  0.47000000000E+01 0. -1.
         -5    1    4    4    0  502 -0.14087034885E+02  0.14638562886E+02  0.43634914760E+02  0.48361429479E+02  0.47000000000E+01 0. -1.
          5    1    5    5  503    0  0.63613627496E+02 -0.39497053939E+02 -0.13877763281E+02  0.76298054934E+02  0.47000000000E+01 0.  1.
         -5    1    5    5    0  503 -0.12123319915E+02  0.41903477076E+02  0.43905217916E+02  0.62069593499E+02  0.47000000000E+01 0.  1.
<mgrwt>
<rscale>  0 0.27514437E+03</rscale>
<asrwt>0</asrwt>
<pdfrwt beam="1">  1        1 0.20820253E-01 0.27514437E+03</pdfrwt>
<pdfrwt beam="2">  1       -1 0.21515357E-01 0.27514437E+03</pdfrwt>
<totfact> 0.43061705E+03</totfact>
</mgrwt>
</event>
<event>
 9    1  0.2095749E-002  0.2750473E+03  0.7818608E-02  0.1098425E+00
         -1   -1    0    0    0  501 -0.00000000000E+00  0.00000000000E+00  0.23764348532E+02  0.23764348532E+02  0.00000000000E+00 0. -1.
          1   -1    0    0  501    0  0.00000000000E+00 -0.00000000000E+00 -0.79584543628E+03  0.79584543628E+03  0.00000000000E+00 0. -1.
         36    2    1    2    0    0  0.00000000000E+00 -0.71054273576E-14 -0.77208108775E+03  0.81960978481E+03  0.27504725649E+03 0.  0.
         25    2    3    3    0    0  0.35795203511E+02  0.42590897196E+02 -0.38018406933E+03  0.40386325692E+03  0.12437975156E+03 0.  0.
         25    2    3    3    0    0 -0.35795203511E+02 -0.42590897196E+02 -0.39189701842E+03  0.41574652789E+03  0.12714802905E+03 0.  0.
          5    1    4    4  502    0  0.55921114924E+02  0.61098032205E+02 -0.14504810923E+03  0.16709633337E+03  0.47000000000E+01 0.  1.
         -5    1    4    4    0  502 -0.20125911413E+02 -0.18507135008E+02 -0.23513596010E+03  0.23676692355E+03  0.47000000000E+01 0.  1.
          5    1    5    5  503    0 -0.81483785197E+02 -0.44151570070E+02 -0.25765166295E+03  0.27385294925E+03  0.47000000000E+01 0.  1.
         -5    1    5    5    0  503  0.45688581686E+02  0.15606728734E+01 -0.13424535547E+03  0.14189357865E+03  0.47000000000E+01 0.  1.
<mgrwt>
<rscale>  0 0.27504726E+03</rscale>
<asrwt>0</asrwt>
<pdfrwt beam="1">  1        1 0.12243774E+00 0.27504726E+03</pdfrwt>
<pdfrwt beam="2">  1       -1 0.36560541E-02 0.27504726E+03</pdfrwt>
<totfact> 0.65194539E+03</totfact>
</mgrwt>
</event>
<event>
 9    1  0.2095749E-002  0.2763803E+03  0.7818608E-02  0.1097683E+00
          1   -1    0    0  501    0  0.00000000000E+00  0.00000000000E+00  0.93337484294E+02  0.93337484294E+02  0.00000000000E+00 0. -1.
         -1   -1    0    0    0  501 -0.00000000000E+00 -0.00000000000E+00 -0.20459648474E+03  0.20459648474E+03  0.00000000000E+00 0. -1.
         36    2    1    2    0    0  0.00000000000E+00 -0.35527136788E-14 -0.11125900045E+03  0.29793396904E+03  0.27638032623E+03 0.  0.
         25    2    3    3    0    0 -0.35956604496E+02 -0.69017795483E+01 -0.53349266892E+01  0.13140357319E+03  0.12608697648E+03 0.  0.
         25    2    3    3    0    0  0.35956604496E+02  0.69017795483E+01 -0.10592407376E+03  0.16653039585E+03  0.12317447532E+03 0.  0.
          5    1    4    4  502    0 -0.41045665839E+02  0.26339918855E+02 -0.53452902699E+02  0.72510970317E+02  0.47000000000E+01 0. -1.
         -5    1    4    4    0  502  0.50890613429E+01 -0.33241698403E+02  0.48117976010E+02  0.58892602875E+02  0.47000000000E+01 0. -1.
          5    1    5    5  503    0  0.33248384875E+02 -0.17016859605E+02 -0.12806844722E+03  0.13348650037E+03  0.47000000000E+01 0. -1.
         -5    1    5    5    0  503  0.27082196212E+01  0.23918639154E+02  0.22144373458E+02  0.33043895478E+02  0.47000000000E+01 0. -1.
<mgrwt>
<rscale>  0 0.27638033E+03</rscale>
<asrwt>0</asrwt>
<pdfrwt beam="1">  1        1 0.14359613E-01 0.27638033E+03</pdfrwt>
<pdfrwt beam="2">  1       -1 0.31476381E-01 0.27638033E+03</pdfrwt>
<totfact> 0.36952866E+03</totfact>
</mgrwt>
</event>
<event>
 9    1  0.2095749E-002  0.2742504E+03  0.7818608E-02  0.1098871E+00
         -2   -1    0    0    0  501 -0.00000000000E+00  0.00000000000E+00  0.77389895058E+01  0.77389895058E+01  0.00000000000E+00 0.  1.
          2   -1    0    0  501    0  0.00000000000E+00 -0.00000000000E+00 -0.24296865834E+04  0.24296865834E+04  0.00000000000E+00 0.  1.
         36    2    1    2    0    0  0.00000000000E+00  0.00000000000E+00 -0.24219475939E+04  0.24374255729E+04  0.27425038903E+03 0.  0.
         25    2    3    3    0    0  0.36083915672E+02  0.19362939709E+02 -0.87912851547E+03  0.88776126656E+03  0.11651672538E+03 0.  0.
         25    2    3    3    0    0 -0.36083915672E+02 -0.19362939709E+02 -0.15428190784E+04  0.15496643063E+04  0.13961296930E+03 0.  0.
          5    1    4    4  502    0  0.22068822267E+02 -0.48768606809E+02 -0.39539886089E+03  0.39903353132E+03  0.47000000000E+01 0. -1.
         -5    1    4    4    0  502  0.14015093405E+02  0.68131546518E+02 -0.48372965458E+03  0.48872773524E+03  0.47000000000E+01 0. -1.
          5    1    5    5  503    0  0.24780055315E+01 -0.64941720578E+02 -0.39958668315E+03  0.40486439079E+03  0.47000000000E+01 0.  1.
         -5    1    5    5    0  503 -0.38561921203E+02  0.45578780868E+02 -0.11432323953E+04  0.11447999156E+04  0.47000000000E+01 0.  1.
<mgrwt>
<rscale>  0 0.27425039E+03</rscale>
<asrwt>0</asrwt>
<pdfrwt beam="1">  1        2 0.37379827E+00 0.27425039E+03</pdfrwt>
<pdfrwt beam="2">  1       -2 0.11906127E-02 0.27425039E+03</pdfrwt>
<totfact> 0.72455816E+03</totfact>
</mgrwt>
</event>
<event>
 9    1  0.2095749E-002  0.2752423E+03  0.7818608E-02  0.1098316E+00
         -1   -1    0    0    0  501 -0.00000000000E+00  0.00000000000E+00  0.20177348454E+02  0.20177348454E+02  0.00000000000E+00 0.  1.
          1   -1    0    0  501    0  0.00000000000E+00 -0.00000000000E+00 -0.93865551576E+03  0.93865551576E+03  0.00000000000E+00 0.  1.
         36    2    1    2    0    0 -0.35527136788E-14  0.00000000000E+00 -0.91847816731E+03  0.95883286422E+03  0.27524228905E+03 0.  0.
         25    2    3    3    0    0  0.14124712617E+02 -0.34156267814E+02 -0.30221010040E+03  0.32884888067E+03  0.12427583592E+03 0.  0.
         25    2    3    3    0    0 -0.14124712617E+02  0.34156267814E+02 -0.61626806691E+03  0.62998398355E+03  0.12540865641E+03 0.  0.
          5    1    4    4  502    0  0.44649385967E+02 -0.45541551893E+02 -0.72010475854E+02  0.96307835864E+02  0.47000000000E+01 0.  1.
         -5    1    4    4    0  502 -0.30524673350E+02  0.11385284078E+02 -0.23019962455E+03  0.23254104480E+03  0.47000000000E+01 0.  1.
          5    1    5    5  503    0 -0.55494619826E+02  0.64100420504E+01 -0.13578271817E+03  0.14690057189E+03  0.47000000000E+01 0. -1.
         -5    1    5    5    0  503  0.41369907209E+02  0.27746225764E+02 -0.48048534874E+03  0.48308341166E+03  0.47000000000E+01 0. -1.
<mgrwt>
<rscale>  0 0.27524229E+03</rscale>
<asrwt>0</asrwt>
<pdfrwt beam="1">  1        1 0.14440851E+00 0.27524229E+03</pdfrwt>
<pdfrwt beam="2">  1       -1 0.31042081E-02 0.27524229E+03</pdfrwt>
<totfact> 0.63811680E+03</totfact>
</mgrwt>
</event>
<event>
 9    1  0.2095749E-002  0.2750494E+03  0.7818608E-02  0.1098424E+00
          1   -1    0    0  501    0  0.00000000000E+00  0.00000000000E+00  0.23951610134E+04  0.23951610134E+04  0.00000000000E+00 0. -1.
         -1   -1    0    0    0  501 -0.00000000000E+00 -0.00000000000E+00 -0.78963581322E+01  0.78963581322E+01  0.00000000000E+00 0. -1.
         36    2    1    2    0    0  0.00000000000E+00  0.00000000000E+00  0.23872646553E+04  0.24030573715E+04  0.27504944389E+03 0.  0.
         25    2    3    3    0    0 -0.43643556655E+02 -0.30148753281E+02  0.12631997452E+04  0.12707628198E+04  0.12787040522E+03 0.  0.
         25    2    3    3    0    0  0.43643556655E+02  0.30148753281E+02  0.11240649101E+04  0.11322945517E+04  0.12552020751E+03 0.  0.
          5    1    4    4  502    0 -0.67774148504E+02 -0.60243377939E+02  0.10599176437E+04  0.10637998408E+04  0.47000000000E+01 0. -1.
         -5    1    4    4    0  502  0.24130591848E+02  0.30094624658E+02  0.20328210150E+03  0.20696297902E+03  0.47000000000E+01 0. -1.
          5    1    5    5  503    0  0.20608554900E+02  0.63787990778E+01  0.27713205746E+02  0.35433224316E+02  0.47000000000E+01 0.  1.
         -5    1    5    5    0  503  0.23035001755E+02  0.23769954203E+02  0.10963517043E+04  0.10968613274E+04  0.47000000000E+01 0.  1.
<mgrwt>
<rscale>  0 0.27504944E+03</rscale>
<asrwt>0</asrwt>
<pdfrwt beam="1">  1        1 0.36848573E+00 0.27504944E+03</pdfrwt>
<pdfrwt beam="2">  1       -1 0.12148262E-02 0.27504944E+03</pdfrwt>
<totfact> 0.26395892E+03</totfact>
</mgrwt>
</event>
<event>
 9    1  0.2095749E-002  0.2743555E+03  0.7818608E-02  0.1098812E+00
         -2   -1    0    0    0  501 -0.00000000000E+00  0.00000000000E+00  0.72003831829E+02  0.72003831829E+02  0.00000000000E+00 0. -1.
          2   -1    0    0  501    0  0.00000000000E+00 -0.00000000000E+00 -0.26134361063E+03  0.26134361063E+03  0.00000000000E+00 0. -1.
         36    2    1    2    0    0 -0.14210854715E-13  0.00000000000E+00 -0.18933977880E+03  0.33334744246E+03  0.27435554588E+03 0.  0.
         25    2    3    3    0    0  0.47748811172E+02 -0.20709840745E+02 -0.97376413938E+02  0.16707682054E+03  0.12539398509E+03 0.  0.
         25    2    3    3    0    0 -0.47748811172E+02  0.20709840745E+02 -0.91963364859E+02  0.16627062192E+03  0.12837372303E+03 0.  0.
          5    1    4    4  502    0  0.10961302720E+01 -0.61708522662E+02 -0.14795783050E+02  0.63640776761E+02  0.47000000000E+01 0. -1.
         -5    1    4    4    0  502  0.46652680900E+02  0.40998681916E+02 -0.82580630888E+02  0.10343604378E+03  0.47000000000E+01 0. -1.
          5    1    5    5  503    0 -0.22487395811E+02  0.69296447844E+02 -0.19955437581E+02  0.75683486595E+02  0.47000000000E+01 0.  1.
         -5    1    5    5    0  503 -0.25261415362E+02 -0.48586607099E+02 -0.72007927278E+02  0.90587135324E+02  0.47000000000E+01 0.  1.
<mgrwt>
<rscale>  0 0.27435555E+03</rscale>
<asrwt>0</asrwt>
<pdfrwt beam="1">  1        2 0.40206709E-01 0.27435555E+03</pdfrwt>
<pdfrwt beam="2">  1       -2 0.11077513E-01 0.27435555E+03</pdfrwt>
<totfact> 0.70964649E+03</totfact>
</mgrwt>
</event>
<event>
 9    1  0.2095749E-002  0.2746162E+03  0.7818608E-02  0.1098666E+00
          2   -1    0    0  501    0  0.00000000000E+00  0.00000000000E+00  0.12675229037E+03  0.12675229037E+03  0.00000000000E+00 0.  1.
         -2   -1    0    0    0  501 -0.00000000000E+00 -0.00000000000E+00 -0.14874300249E+03  0.14874300249E+03  0.00000000000E+00 0.  1.
         36    2    1    2    0    0  0.00000000000E+00  0.71054273576E-14 -0.21990712112E+02  0.27549529286E+03  0.27461621396E+03 0.  0.
         25    2    3    3    0    0  0.57920275964E+00  0.39641483856E+02  0.29233513948E+02  0.13396423529E+03  0.12457943362E+03 0.  0.
         25    2    3    3    0    0 -0.57920275964E+00 -0.39641483856E+02 -0.51224226060E+02  0.14153105757E+03  0.12583853227E+03 0.  0.
          5    1    4    4  502    0  0.27478719868E+02 -0.32006440097E+02  0.37767889271E+02  0.56815453120E+02  0.47000000000E+01 0.  1.
         -5    1    4    4    0  502 -0.26899517109E+02  0.71647923954E+02 -0.85343753231E+01  0.77148782166E+02  0.47000000000E+01 0.  1.
          5    1    5    5  503    0 -0.21031947424E+02  0.39715770119E+02 -0.79565657183E+00  0.45193011385E+02  0.47000000000E+01 0.  1.
         -5    1    5    5    0  503  0.20452744664E+02 -0.79357253976E+02 -0.50428569488E+02  0.96338046189E+02  0.47000000000E+01 0.  1.
<mgrwt>
<rscale>  0 0.27461621E+03</rscale>
<asrwt>0</asrwt>
<pdfrwt beam="1">  1        2 0.19500352E-01 0.27461621E+03</pdfrwt>
<pdfrwt beam="2">  1       -2 0.22883539E-01 0.27461621E+03</pdfrwt>
<totfact> 0.47221019E+03</totfact>
</mgrwt>
</event>
<event>
 9    1  0.2095749E-002  0.2739436E+03  0.7818608E-02  0.1099044E+00
          1   -1    0    0  501    0  0.00000000000E+00  0.00000000000E+00  0.16434975584E+03  0.16434975584E+03  0.00000000000E+00 0. -1.
         -1   -1    0    0    0  501 -0.00000000000E+00 -0.00000000000E+00 -0.11415452159E+03  0.11415452159E+03  0.00000000000E+00 0. -1.
         36    2    1    2    0    0  0.15543122345E-14 -0.14210854715E-13  0.50195234254E+02  0.27850427743E+03  0.27394355441E+03 0.  0.
         25    2    3    3    0    0  0.13465604399E+01 -0.52221188602E+02  0.46276490375E+02  0.14274505187E+03  0.12452216874E+03 0.  0.
         25    2    3    3    0    0 -0.13465604399E+01  0.52221188602E+02  0.39187438791E+01  0.13575922556E+03  0.12524513965E+03 0.  0.
          5    1    4    4  502    0  0.45455515143E+02 -0.24075303802E+02 -0.22382680307E+02  0.56292970146E+02  0.47000000000E+01 0. -1.
         -5    1    4    4    0  502 -0.44108954703E+02 -0.28145884800E+02  0.68659170682E+02  0.86452081727E+02  0.47000000000E+01 0. -1.
          5    1    5    5  503    0 -0.26058999774E+01 -0.31556953821E+02 -0.31280296319E+02  0.44756887593E+02  0.47000000000E+01 0.  1.
         -5    1    5    5    0  503  0.12593395375E+01  0.83778142423E+02  0.35199040199E+02  0.91002337963E+02  0.47000000000E+01 0.  1.
<mgrwt>
<rscale>  0 0.27394355E+03</rscale>
<asrwt>0</asrwt>
<pdfrwt beam="1">  1        1 0.25284578E-01 0.27394355E+03</pdfrwt>
<pdfrwt beam="2">  1       -1 0.17562234E-01 0.27394355E+03</pdfrwt>
<totfact> 0.46679739E+03</totfact>
</mgrwt>
</event>
<event>
 9    1  0.2095749E-002  0.2751112E+03  0.7818608E-02  0.1098389E+00
         -2   -1    0    0    0  501 -0.00000000000E+00  0.00000000000E+00  0.22325525082E+03  0.22325525082E+03  0.00000000000E+00 0. -1.
          2   -1    0    0  501    0  0.00000000000E+00 -0.00000000000E+00 -0.84752936917E+02  0.84752936917E+02  0.00000000000E+00 0. -1.
         36    2    1    2    0    0 -0.17763568394E-14 -0.88817841970E-15  0.13850231390E+03  0.30800818774E+03  0.27511116436E+03 0.  0.
         25    2    3    3    0    0  0.14384073139E+02 -0.43153496847E+01 -0.23702850468E+01  0.11840048521E+03  0.11742032552E+03 0.  0.
         25    2    3    3    0    0 -0.14384073139E+02  0.43153496847E+01  0.14087259895E+03  0.18960770252E+03  0.12601772859E+03 0.  0.
          5    1    4    4  502    0  0.76773448078E+01  0.98433622632E+00 -0.59631079307E+02  0.60314725900E+02  0.47000000000E+01 0. -1.
         -5    1    4    4    0  502  0.67067283307E+01 -0.52996859110E+01  0.57260794260E+02  0.58085759313E+02  0.47000000000E+01 0. -1.
          5    1    5    5  503    0  0.28813686971E+02  0.29247367391E+02  0.13313418244E+01  0.41346094461E+02  0.47000000000E+01 0.  1.
         -5    1    5    5    0  503 -0.43197760110E+02 -0.24932017706E+02  0.13954125712E+03  0.14826160806E+03  0.47000000000E+01 0.  1.
<mgrwt>
<rscale>  0 0.27511116E+03</rscale>
<asrwt>0</asrwt>
<pdfrwt beam="1">  1        2 0.13038913E-01 0.27511116E+03</pdfrwt>
<pdfrwt beam="2">  1       -2 0.34346962E-01 0.27511116E+03</pdfrwt>
<totfact> 0.36548685E+03</totfact>
</mgrwt>
</event>
<event>
 9    1  0.2095749E-002  0.2748067E+03  0.7818608E-02  0.1098560E+00
          2   -1    0    0  501    0  0.00000000000E+00  0.00000000000E+00  0.39747383409E+03  0.39747383409E+03  0.00000000000E+00 0. -1.
         -2   -1    0    0    0  501 -0.00000000000E+00 -0.00000000000E+00 -0.47499192472E+02  0.47499192472E+02  0.00000000000E+00 0. -1.
         36    2    1    2    0    0 -0.71054273576E-14  0.35527136788E-14  0.34997464161E+03  0.44497302656E+03  0.27480674044E+03 0.  0.
         25    2    3    3    0    0  0.22320728349E+02 -0.17865866348E+02  0.21557537143E+03  0.26017896186E+03  0.14283888593E+03 0.  0.
         25    2    3    3    0    0 -0.22320728349E+02  0.17865866348E+02  0.13439927019E+03  0.18479406470E+03  0.12356487538E+03 0.  0.
          5    1    4    4  502    0  0.74595621280E+02  0.13317929305E+02  0.16218749042E+03  0.17907748604E+03  0.47000000000E+01 0.  1.
         -5    1    4    4    0  502 -0.52274892931E+02 -0.31183795653E+02  0.53387881002E+02  0.81101475820E+02  0.47000000000E+01 0.  1.
          5    1    5    5  503    0  0.26174605903E+01  0.31190396113E+02  0.14921069774E+03  0.15253069930E+03  0.47000000000E+01 0.  1.
         -5    1    5    5    0  503 -0.24938188940E+02 -0.13324529765E+02 -0.14811427549E+02  0.32263365402E+02  0.47000000000E+01 0.  1.
<mgrwt>
<rscale>  0 0.27480674E+03</rscale>
<asrwt>0</asrwt>
<pdfrwt beam="1">  1        2 0.61149818E-01 0.27480674E+03</pdfrwt>
<pdfrwt beam="2">  1       -2 0.73075683E-02 0.27480674E+03</pdfrwt>
<totfact> 0.87012185E+03</totfact>
</mgrwt>
</event>
<event>
 9    1  0.2095749E-002  0.2747793E+03  0.7818608E-02  0.1098575E+00
          1   -1    0    0  501    0  0.00000000000E+00  0.00000000000E+00  0.25152897114E+04  0.25152897114E+04  0.00000000000E+00 0.  1.
         -1   -1    0    0    0  501 -0.00000000000E+00 -0.00000000000E+00 -0.75044711760E+01  0.75044711760E+01  0.00000000000E+00 0.  1.
         36    2    1    2    0    0  0.17763568394E-14 -0.71054273576E-14  0.25077852402E+04  0.25227941826E+04  0.27477932337E+03 0.  0.
         25    2    3    3    0    0  0.29818892092E+01  0.42228748788E+02  0.12210281434E+04  0.12289905351E+04  0.13310090006E+03 0.  0.
         25    2    3    3    0    0 -0.29818892092E+01 -0.42228748788E+02  0.12867570968E+04  0.12938036474E+04  0.12803082836E+03 0.  0.
          5    1    4    4  502    0 -0.35916883624E+02  0.50517725075E+02  0.10947584039E+04  0.10965218265E+04  0.47000000000E+01 0. -1.
         -5    1    4    4    0  502  0.38898772834E+02 -0.82889762870E+01  0.12626973954E+03  0.13246870868E+03  0.47000000000E+01 0. -1.
          5    1    5    5  503    0  0.78175797212E+01  0.28299932934E+02  0.90005925778E+03  0.90055025306E+03  0.47000000000E+01 0. -1.
         -5    1    5    5    0  503 -0.10799468930E+02 -0.70528681722E+02  0.38669783902E+03  0.39325339436E+03  0.47000000000E+01 0. -1.
<mgrwt>
<rscale>  0 0.27477932E+03</rscale>
<asrwt>0</asrwt>
<pdfrwt beam="1">  1        1 0.38696698E+00 0.27477932E+03</pdfrwt>
<pdfrwt beam="2">  1       -1 0.11545360E-02 0.27477932E+03</pdfrwt>
<totfact> 0.23657699E+03</totfact>
</mgrwt>
</event>
<event>
 9    1  0.2095749E-002  0.2748393E+03  0.7818608E-02  0.1098541E+00
          1   -1    0    0  501    0  0.00000000000E+00  0.00000000000E+00  0.57560091538E+03  0.57560091538E+03  0.00000000000E+00 0.  1.
         -1   -1    0    0    0  501 -0.00000000000E+00 -0.00000000000E+00 -0.32807726196E+02  0.32807726196E+02  0.00000000000E+00 0.  1.
         36    2    1    2    0    0 -0.71054273576E-14  0.35527136788E-14  0.54279318918E+03  0.60840864158E+03  0.27483927834E+03 0.  0.
         25    2    3    3    0    0  0.48413039109E+02 -0.12818518029E+02  0.38907604627E+03  0.40710227330E+03  0.10882993330E+03 0.  0.
         25    2    3    3    0    0 -0.48413039109E+02  0.12818518029E+02  0.15371714291E+03  0.20130636828E+03  0.11994647608E+03 0.  0.
          5    1    4    4  502    0  0.46972273325E+02 -0.40117687311E+01  0.53849781377E+02  0.71724317382E+02  0.47000000000E+01 0. -1.
         -5    1    4    4    0  502  0.14407657845E+01 -0.88067492977E+01  0.33522626489E+03  0.33537795591E+03  0.47000000000E+01 0. -1.
          5    1    5    5  503    0 -0.76138032838E+02 -0.23307613153E+02  0.71099989770E+02  0.10685290553E+03  0.47000000000E+01 0. -1.
         -5    1    5    5    0  503  0.27724993728E+02  0.36126131182E+02  0.82617153144E+02  0.94453462748E+02  0.47000000000E+01 0. -1.
<mgrwt>
<rscale>  0 0.27483928E+03</rscale>
<asrwt>0</asrwt>
<pdfrwt beam="1">  1        1 0.88553980E-01 0.27483928E+03</pdfrwt>
<pdfrwt beam="2">  1       -1 0.50473429E-02 0.27483928E+03</pdfrwt>
<totfact> 0.64408711E+03</totfact>
</mgrwt>
</event>
<event>
 9    1  0.2095749E-002  0.2752563E+03  0.7818608E-02  0.1098308E+00
          3   -1    0    0  501    0  0.00000000000E+00  0.00000000000E+00  0.24320353747E+02  0.24320353747E+02  0.00000000000E+00 0. -1.
         -3   -1    0    0    0  501 -0.00000000000E+00 -0.00000000000E+00 -0.77883351090E+03  0.77883351090E+03  0.00000000000E+00 0. -1.
         36    2    1    2    0    0 -0.35527136788E-14  0.00000000000E+00 -0.75451315715E+03  0.80315386464E+03  0.27525629145E+03 0.  0.
         25    2    3    3    0    0 -0.80646527354E+00 -0.44898474846E+02 -0.28360938067E+03  0.31361784837E+03  0.12611641679E+03 0.  0.
         25    2    3    3    0    0  0.80646527354E+00  0.44898474846E+02 -0.47090377648E+03  0.48953601627E+03  0.12601040075E+03 0.  0.
          5    1    4    4  502    0  0.23538476469E+02  0.29528142742E+02 -0.17821658448E+03  0.18223394874E+03  0.47000000000E+01 0. -1.
         -5    1    4    4    0  502 -0.24344941743E+02 -0.74426617589E+02 -0.10539279619E+03  0.13138389963E+03  0.47000000000E+01 0. -1.
          5    1    5    5  503    0  0.44542205182E+02  0.44292099022E+02 -0.11673844434E+03  0.13264898215E+03  0.47000000000E+01 0.  1.
         -5    1    5    5    0  503 -0.43735739908E+02  0.60637582470E+00 -0.35416533214E+03  0.35688703413E+03  0.47000000000E+01 0.  1.
<mgrwt>
<rscale>  0 0.27525629E+03</rscale>
<asrwt>0</asrwt>
<pdfrwt beam="1">  1        3 0.37415931E-02 0.27525629E+03</pdfrwt>
<pdfrwt beam="2">  1       -3 0.11982053E+00 0.27525629E+03</pdfrwt>
<totfact> 0.54271098E+02</totfact>
</mgrwt>
</event>
<event>
 9    1  0.2095749E-002  0.2751060E+03  0.7818608E-02  0.1098392E+00
         -2   -1    0    0    0  501 -0.00000000000E+00  0.00000000000E+00  0.17573199809E+03  0.17573199809E+03  0.00000000000E+00 0.  1.
          2   -1    0    0  501    0  0.00000000000E+00 -0.00000000000E+00 -0.10766864137E+03  0.10766864137E+03  0.00000000000E+00 0.  1.
         36    2    1    2    0    0  0.71054273576E-14  0.00000000000E+00  0.68063356724E+02  0.28340063946E+03  0.27510598307E+03 0.  0.
         25    2    3    3    0    0  0.24869415243E+02 -0.30923182571E+02 -0.12668136351E+02  0.12703943013E+03  0.12001584935E+03 0.  0.
         25    2    3    3    0    0 -0.24869415243E+02  0.30923182571E+02  0.80731493075E+02  0.15636120933E+03  0.12789262205E+03 0.  0.
          5    1    4    4  502    0  0.57056267380E+02 -0.48822140795E+02 -0.35771035359E+02  0.83310719897E+02  0.47000000000E+01 0.  1.
         -5    1    4    4    0  502 -0.32186852136E+02  0.17898958224E+02  0.23102899008E+02  0.43728710232E+02  0.47000000000E+01 0.  1.
          5    1    5    5  503    0 -0.37667397972E+02 -0.31127711511E+02  0.78751895853E+02  0.92799344794E+02  0.47000000000E+01 0.  1.
         -5    1    5    5    0  503  0.12797982728E+02  0.62050894082E+02  0.19795972221E+01  0.63561864537E+02  0.47000000000E+01 0.  1.
<mgrwt>
<rscale>  0 0.27510598E+03</rscale>
<asrwt>0</asrwt>
<pdfrwt beam="1">  1        2 0.16564406E-01 0.27510598E+03</pdfrwt>
<pdfrwt beam="2">  1       -2 0.27035692E-01 0.27510598E+03</pdfrwt>
<totfact> 0.42528882E+03</totfact>
</mgrwt>
</event>
<event>
 9    1  0.2095749E-002  0.2726673E+03  0.7818608E-02  0.1099763E+00
         -1   -1    0    0    0  501 -0.00000000000E+00  0.00000000000E+00  0.81006759430E+02  0.81006759430E+02  0.00000000000E+00 0.  1.
          1   -1    0    0  501    0  0.00000000000E+00 -0.00000000000E+00 -0.22944838345E+03  0.22944838345E+03  0.00000000000E+00 0.  1.
         36    2    1    2    0    0  0.00000000000E+00  0.00000000000E+00 -0.14844162402E+03  0.31045514288E+03  0.27266734311E+03 0.  0.
         25    2    3    3    0    0 -0.42920832858E+02 -0.10208831913E+02 -0.11643988603E+03  0.17194921809E+03  0.11858274918E+03 0.  0.
         25    2    3    3    0    0  0.42920832858E+02  0.10208831913E+02 -0.32001737990E+02  0.13850592478E+03  0.12733170000E+03 0.  0.
          5    1    4    4  502    0 -0.56686657561E+02  0.23345128673E+02 -0.13836572667E+02  0.63023114183E+02  0.47000000000E+01 0.  1.
         -5    1    4    4    0  502  0.13765824702E+02 -0.33553960586E+02 -0.10260331336E+03  0.10892610391E+03  0.47000000000E+01 0.  1.
          5    1    5    5  503    0 -0.16273659155E+02 -0.22012923996E+01 -0.66541188938E+02  0.68698598937E+02  0.47000000000E+01 0. -1.
         -5    1    5    5    0  503  0.59194492014E+02  0.12410124313E+02  0.34539450948E+02  0.69807325848E+02  0.47000000000E+01 0. -1.
<mgrwt>
<rscale>  0 0.27266734E+03</rscale>
<asrwt>0</asrwt>
<pdfrwt beam="1">  1        1 0.35299752E-01 0.27266734E+03</pdfrwt>
<pdfrwt beam="2">  1       -1 0.12462578E-01 0.27266734E+03</pdfrwt>
<totfact> 0.52753516E+03</totfact>
</mgrwt>
</event>
<event>
 9    1  0.2095749E-002  0.2747494E+03  0.7818608E-02  0.1098592E+00
         -2   -1    0    0    0  501 -0.00000000000E+00  0.00000000000E+00  0.91861826721E+01  0.91861826721E+01  0.00000000000E+00 0.  1.
          2   -1    0    0  501    0  0.00000000000E+00 -0.00000000000E+00 -0.20543688405E+04  0.20543688405E+04  0.00000000000E+00 0.  1.
         36    2    1    2    0    0  0.00000000000E+00  0.35527136788E-14 -0.20451826578E+04  0.20635550232E+04  0.27474939450E+03 0.  0.
         25    2    3    3    0    0 -0.49691927732E+02  0.30534795516E+02 -0.12208495984E+04  0.12276109523E+04  0.11468760583E+03 0.  0.
         25    2    3    3    0    0  0.49691927732E+02 -0.30534795516E+02 -0.82433305945E+03  0.83594407087E+03  0.12599934644E+03 0.  0.
          5    1    4    4  502    0  0.26112944863E+02  0.40459557796E+01 -0.90319361452E+02  0.94222782280E+02  0.47000000000E+01 0. -1.
         -5    1    4    4    0  502 -0.75804872595E+02  0.26488839736E+02 -0.11305302369E+04  0.11333881700E+04  0.47000000000E+01 0. -1.
          5    1    5    5  503    0  0.41512862965E+02 -0.77396287233E+02 -0.61264316743E+03  0.61892426327E+03  0.47000000000E+01 0. -1.
         -5    1    5    5    0  503  0.81790647672E+01  0.46861491717E+02 -0.21168989202E+03  0.21701980760E+03  0.47000000000E+01 0. -1.
<mgrwt>
<rscale>  0 0.27474939E+03</rscale>
<asrwt>0</asrwt>
<pdfrwt beam="1">  1        2 0.31605690E+00 0.27474939E+03</pdfrwt>
<pdfrwt beam="2">  1       -2 0.14132582E-02 0.27474939E+03</pdfrwt>
<totfact> 0.89530325E+03</totfact>
</mgrwt>
</event>
<event>
 9    1  0.2095749E-002  0.2757622E+03  0.7818608E-02  0.1098026E+00
         -1   -1    0    0    0  501 -0.00000000000E+00  0.00000000000E+00  0.72633844679E+02  0.72633844679E+02  0.00000000000E+00 0. -1.
          1   -1    0    0  501    0  0.00000000000E+00 -0.00000000000E+00 -0.26174013809E+03  0.26174013809E+03  0.00000000000E+00 0. -1.
         36    2    1    2    0    0  0.00000000000E+00  0.00000000000E+00 -0.18910629341E+03  0.33437398277E+03  0.27576216228E+03 0.  0.
         25    2    3    3    0    0 -0.44620505297E+02 -0.46481389151E+02 -0.11970935658E+03  0.18465711698E+03  0.12496564235E+03 0.  0.
         25    2    3    3    0    0  0.44620505297E+02  0.46481389151E+02 -0.69396936836E+02  0.14971686579E+03  0.11596420151E+03 0.  0.
          5    1    4    4  502    0 -0.71347362588E+02 -0.57875915736E+02 -0.12454110777E+03  0.15483102175E+03  0.47000000000E+01 0.  1.
         -5    1    4    4    0  502  0.26726857291E+02  0.11394526585E+02  0.48317511978E+01  0.29826095226E+02  0.47000000000E+01 0.  1.
          5    1    5    5  503    0 -0.23935251157E+02 -0.14610366797E+02  0.79939514128E+01  0.29535611134E+02  0.47000000000E+01 0. -1.
         -5    1    5    5    0  503  0.68555756454E+02  0.61091755947E+02 -0.77390888249E+02  0.12018125466E+03  0.47000000000E+01 0. -1.
<mgrwt>
<rscale>  0 0.27576216E+03</rscale>
<asrwt>0</asrwt>
<pdfrwt beam="1">  1        1 0.40267714E-01 0.27576216E+03</pdfrwt>
<pdfrwt beam="2">  1       -1 0.11174437E-01 0.27576216E+03</pdfrwt>
<totfact> 0.53033746E+03</totfact>
</mgrwt>
</event>
<event>
 9    1  0.2095749E-002  0.2752686E+03  0.7818608E-02  0.1098302E+00
          2   -1    0    0  501    0  0.00000000000E+00  0.00000000000E+00  0.17554356835E+04  0.17554356835E+04  0.00000000000E+00 0. -1.
         -2   -1    0    0    0  501 -0.00000000000E+00 -0.00000000000E+00 -0.10791163977E+02  0.10791163977E+02  0.00000000000E+00 0. -1.
         36    2    1    2    0    0  0.00000000000E+00  0.71054273576E-14  0.17446445196E+04  0.17662268475E+04  0.27526855478E+03 0.  0.
         25    2    3    3    0    0  0.27504267416E+02 -0.31029082660E+02  0.72730342540E+03  0.73972786839E+03  0.12848252017E+03 0.  0.
         25    2    3    3    0    0 -0.27504267416E+02  0.31029082660E+02  0.10173410942E+04  0.10264989791E+04  0.13037623849E+03 0.  0.
          5    1    4    4  502    0 -0.18726956999E+02  0.43251963204E+02  0.26172665110E+03  0.26597812153E+03  0.47000000000E+01 0.  1.
         -5    1    4    4    0  502  0.46231224415E+02 -0.74281045864E+02  0.46557677430E+03  0.47374974686E+03  0.47000000000E+01 0.  1.
          5    1    5    5  503    0 -0.32229253830E+02 -0.29559330035E+02  0.78704045099E+03  0.78826850773E+03  0.47000000000E+01 0. -1.
         -5    1    5    5    0  503  0.47249864139E+01  0.60588412695E+02  0.23030064319E+03  0.23823047140E+03  0.47000000000E+01 0. -1.
<mgrwt>
<rscale>  0 0.27526855E+03</rscale>
<asrwt>0</asrwt>
<pdfrwt beam="1">  1        2 0.27006680E+00 0.27526855E+03</pdfrwt>
<pdfrwt beam="2">  1       -2 0.16601805E-02 0.27526855E+03</pdfrwt>
<totfact> 0.10155841E+04</totfact>
</mgrwt>
</event>
<event>
 9    1  0.2095749E-002  0.2732193E+03  0.7818608E-02  0.1099451E+00
          2   -1    0    0  501    0  0.00000000000E+00  0.00000000000E+00  0.81268913425E+03  0.81268913425E+03  0.00000000000E+00 0.  1.
         -2   -1    0    0    0  501 -0.00000000000E+00 -0.00000000000E+00 -0.22963513922E+02  0.22963513922E+02  0.00000000000E+00 0.  1.
         36    2    1    2    0    0 -0.71054273576E-14 -0.35527136788E-14  0.78972562033E+03  0.83565264817E+03  0.27321931300E+03 0.  0.
         25    2    3    3    0    0  0.57858987640E+02  0.69117474458E+01  0.37470170749E+03  0.39861234560E+03  0.12286170179E+03 0.  0.
         25    2    3    3    0    0 -0.57858987640E+02 -0.69117474458E+01  0.41502391284E+03  0.43704030257E+03  0.12395137409E+03 0.  0.
          5    1    4    4  502    0  0.40044035080E+02  0.34694258173E+02  0.35685835457E+03  0.36080076430E+03  0.47000000000E+01 0. -1.
         -5    1    4    4    0  502  0.17814952561E+02 -0.27782510728E+02  0.17843352924E+02  0.37811581303E+02  0.47000000000E+01 0. -1.
          5    1    5    5  503    0 -0.37508547803E+02  0.55448097912E+02  0.15647123024E+03  0.17025486370E+03  0.47000000000E+01 0.  1.
         -5    1    5    5    0  503 -0.20350439837E+02 -0.62359845358E+02  0.25855268259E+03  0.26678543887E+03  0.47000000000E+01 0.  1.
<mgrwt>
<rscale>  0 0.27321931E+03</rscale>
<asrwt>0</asrwt>
<pdfrwt beam="1">  1        2 0.12502908E+00 0.27321931E+03</pdfrwt>
<pdfrwt beam="2">  1       -2 0.35328489E-02 0.27321931E+03</pdfrwt>
<totfact> 0.11479875E+04</totfact>
</mgrwt>
</event>
<event>
 9    1  0.2095749E-002  0.2748857E+03  0.7818608E-02  0.1098515E+00
         -1   -1    0    0    0  501 -0.00000000000E+00  0.00000000000E+00  0.23914861012E+02  0.23914861012E+02  0.00000000000E+00 0. -1.
          1   -1    0    0  501    0  0.00000000000E+00 -0.00000000000E+00 -0.78990801258E+03  0.78990801258E+03  0.00000000000E+00 0. -1.
         36    2    1    2    0    0  0.00000000000E+00  0.00000000000E+00 -0.76599315157E+03  0.81382287360E+03  0.27488572414E+03 0.  0.
         25    2    3    3    0    0 -0.10348735349E+02  0.67501561249E+02 -0.36476459893E+03  0.39181112586E+03  0.12569482336E+03 0.  0.
         25    2    3    3    0    0  0.10348735349E+02 -0.67501561249E+02 -0.40122855264E+03  0.42201174774E+03  0.11156167209E+03 0.  0.
          5    1    4    4  502    0 -0.36442604636E+02  0.21638457302E+02 -0.28247476995E+02  0.51149743143E+02  0.47000000000E+01 0.  1.
         -5    1    4    4    0  502  0.26093869288E+02  0.45863103947E+02 -0.33651712194E+03  0.34066138272E+03  0.47000000000E+01 0.  1.
          5    1    5    5  503    0 -0.44140793789E+01 -0.91668635689E+01 -0.32305354776E+03  0.32324789281E+03  0.47000000000E+01 0.  1.
         -5    1    5    5    0  503  0.14762814727E+02 -0.58334697680E+02 -0.78175004879E+02  0.98763854926E+02  0.47000000000E+01 0.  1.
<mgrwt>
<rscale>  0 0.27488572E+03</rscale>
<asrwt>0</asrwt>
<pdfrwt beam="1">  1        1 0.12152432E+00 0.27488572E+03</pdfrwt>
<pdfrwt beam="2">  1       -1 0.36792091E-02 0.27488572E+03</pdfrwt>
<totfact> 0.65332088E+03</totfact>
</mgrwt>
</event>
<event>
 9    1  0.2095749E-002  0.2742523E+03  0.7818608E-02  0.1098870E+00
          2   -1    0    0  501    0  0.00000000000E+00  0.00000000000E+00  0.78921267795E+03  0.78921267795E+03  0.00000000000E+00 0.  1.
         -2   -1    0    0    0  501 -0.00000000000E+00 -0.00000000000E+00 -0.23825751738E+02  0.23825751738E+02  0.00000000000E+00 0.  1.
         36    2    1    2    0    0  0.35527136788E-14 -0.71054273576E-14  0.76538692621E+03  0.81303842969E+03  0.27425233150E+03 0.  0.
         25    2    3    3    0    0  0.20907537235E+02  0.15568893360E+01  0.53874807809E+03  0.55231732078E+03  0.11985567224E+03 0.  0.
         25    2    3    3    0    0 -0.20907537235E+02 -0.15568893360E+01  0.22663884812E+03  0.26072110891E+03  0.12716438234E+03 0.  0.
          5    1    4    4  502    0  0.43451559993E+02  0.44417866131E+02  0.40950317056E+03  0.41421723962E+03  0.47000000000E+01 0.  1.
         -5    1    4    4    0  502 -0.22544022758E+02 -0.42860976795E+02  0.12924490753E+03  0.13810008116E+03  0.47000000000E+01 0.  1.
          5    1    5    5  503    0  0.19604505723E+02 -0.39781366224E+02  0.18687703763E+03  0.19212498780E+03  0.47000000000E+01 0. -1.
         -5    1    5    5    0  503 -0.40512042957E+02  0.38224476888E+02  0.39761810491E+02  0.68596121111E+02  0.47000000000E+01 0. -1.
<mgrwt>
<rscale>  0 0.27425233E+03</rscale>
<asrwt>0</asrwt>
<pdfrwt beam="1">  1        2 0.12141732E+00 0.27425233E+03</pdfrwt>
<pdfrwt beam="2">  1       -2 0.36655009E-02 0.27425233E+03</pdfrwt>
<totfact> 0.11277901E+04</totfact>
</mgrwt>
</event>
<event>
 9    1  0.2095749E-002  0.2751599E+03  0.7818608E-02  0.1098362E+00
          1   -1    0    0  501    0  0.00000000000E+00  0.00000000000E+00  0.11511811502E+03  0.11511811502E+03  0.00000000000E+00 0.  1.
         -1   -1    0    0    0  501 -0.00000000000E+00 -0.00000000000E+00 -0.16442454038E+03  0.16442454038E+03  0.00000000000E+00 0.  1.
         36    2    1    2    0    0  0.00000000000E+00  0.00000000000E+00 -0.49306425356E+02  0.27954265540E+03  0.27515990370E+03 0.  0.
         25    2    3    3    0    0  0.96090890110E+01 -0.62959024396E+02 -0.41422335065E+02  0.13493520243E+03  0.11151468813E+03 0.  0.
         25    2    3    3    0    0 -0.96090890110E+01  0.62959024396E+02 -0.78840902913E+01  0.14460745297E+03  0.12958774336E+03 0.  0.
          5    1    4    4  502    0 -0.48068808401E+02 -0.11837777084E+02 -0.63621962986E+01  0.50132931783E+02  0.47000000000E+01 0. -1.
         -5    1    4    4    0  502  0.57677897412E+02 -0.51121247312E+02 -0.35060138766E+02  0.84802270647E+02  0.47000000000E+01 0. -1.
          5    1    5    5  503    0 -0.63738182547E+02  0.47508186468E+02  0.19269675895E+02  0.81932863400E+02  0.47000000000E+01 0. -1.
         -5    1    5    5    0  503  0.54129093536E+02  0.15450837928E+02 -0.27153766186E+02  0.62674589570E+02  0.47000000000E+01 0. -1.
<mgrwt>
<rscale>  0 0.27515990E+03</rscale>
<asrwt>0</asrwt>
<pdfrwt beam="1">  1        1 0.17710479E-01 0.27515990E+03</pdfrwt>
<pdfrwt beam="2">  1       -1 0.25296083E-01 0.27515990E+03</pdfrwt>
<totfact> 0.40624006E+03</totfact>
</mgrwt>
</event>
<event>
 9    1  0.2095749E-002  0.2716627E+03  0.7818608E-02  0.1100332E+00
         -1   -1    0    0    0  501 -0.00000000000E+00  0.00000000000E+00  0.27109181743E+02  0.27109181743E+02  0.00000000000E+00 0.  1.
          1   -1    0    0  501    0  0.00000000000E+00 -0.00000000000E+00 -0.68058699868E+03  0.68058699868E+03  0.00000000000E+00 0.  1.
         36    2    1    2    0    0  0.00000000000E+00  0.71054273576E-14 -0.65347781694E+03  0.70769618042E+03  0.27166270734E+03 0.  0.
         25    2    3    3    0    0  0.47338871951E+02  0.29279791198E+02 -0.29311879839E+03  0.32253795058E+03  0.12253091292E+03 0.  0.
         25    2    3    3    0    0 -0.47338871951E+02 -0.29279791198E+02 -0.36035901854E+03  0.38515822984E+03  0.12405629690E+03 0.  0.
          5    1    4    4  502    0  0.46242632826E+02 -0.18655284885E+02 -0.37891280621E+02  0.62803183772E+02  0.47000000000E+01 0.  1.
         -5    1    4    4    0  502  0.10962391252E+01  0.47935076083E+02 -0.25522751777E+03  0.25973476681E+03  0.47000000000E+01 0.  1.
          5    1    5    5  503    0 -0.49437256059E+01 -0.73909422834E+02 -0.19410867109E+03  0.20781556582E+03  0.47000000000E+01 0. -1.
         -5    1    5    5    0  503 -0.42395146346E+02  0.44629631635E+02 -0.16625034745E+03  0.17734266402E+03  0.47000000000E+01 0. -1.
<mgrwt>
<rscale>  0 0.27166271E+03</rscale>
<asrwt>0</asrwt>
<pdfrwt beam="1">  1        1 0.10470569E+00 0.27166271E+03</pdfrwt>
<pdfrwt beam="2">  1       -1 0.41706434E-02 0.27166271E+03</pdfrwt>
<totfact> 0.67637534E+03</totfact>
</mgrwt>
</event>
<event>
 9    1  0.2095749E-002  0.2742647E+03  0.7818608E-02  0.1098863E+00
          1   -1    0    0  501    0  0.00000000000E+00  0.00000000000E+00  0.16643149609E+03  0.16643149609E+03  0.00000000000E+00 0. -1.
         -1   -1    0    0    0  501 -0.00000000000E+00 -0.00000000000E+00 -0.11299110948E+03  0.11299110948E+03  0.00000000000E+00 0. -1.
         36    2    1    2    0    0  0.00000000000E+00  0.00000000000E+00  0.53440386610E+02  0.27942260556E+03  0.27426468526E+03 0.  0.
         25    2    3    3    0    0 -0.18959055203E+02 -0.74966530465E+01  0.27630621176E+02  0.12897103650E+03  0.12431585357E+03 0.  0.
         25    2    3    3    0    0  0.18959055203E+02  0.74966530465E+01  0.25809765434E+02  0.15045156906E+03  0.14681241453E+03 0.  0.
          5    1    4    4  502    0 -0.12965775110E+02  0.42861427227E+02  0.55058148323E+02  0.71124559506E+02  0.47000000000E+01 0.  1.
         -5    1    4    4    0  502 -0.59932800932E+01 -0.50358080273E+02 -0.27427527147E+02  0.57846476993E+02  0.47000000000E+01 0.  1.
          5    1    5    5  503    0  0.42153462099E+02 -0.24129843967E+02  0.73688716100E+02  0.88381449509E+02  0.47000000000E+01 0. -1.
         -5    1    5    5    0  503 -0.23194406896E+02  0.31626497013E+02 -0.47878950666E+02  0.62070119555E+02  0.47000000000E+01 0. -1.
<mgrwt>
<rscale>  0 0.27426469E+03</rscale>
<asrwt>0</asrwt>
<pdfrwt beam="1">  1        1 0.25604846E-01 0.27426469E+03</pdfrwt>
<pdfrwt beam="2">  1       -1 0.17383248E-01 0.27426469E+03</pdfrwt>
<totfact> 0.46702221E+03</totfact>
</mgrwt>
</event>
<event>
 9    1  0.2095749E-002  0.2753240E+03  0.7818608E-02  0.1098271E+00
         -1   -1    0    0    0  501 -0.00000000000E+00  0.00000000000E+00  0.15079064836E+03  0.15079064836E+03  0.00000000000E+00 0. -1.
          1   -1    0    0  501    0  0.00000000000E+00 -0.00000000000E+00 -0.12567640701E+03  0.12567640701E+03  0.00000000000E+00 0. -1.
         36    2    1    2    0    0  0.71054273576E-14 -0.35527136788E-14  0.25114241348E+02  0.27646705537E+03  0.27532400474E+03 0.  0.
         25    2    3    3    0    0 -0.28056568570E+02  0.97677044874E+01 -0.47932743790E+02  0.14132474456E+03  0.12958609650E+03 0.  0.
         25    2    3    3    0    0  0.28056568570E+02 -0.97677044874E+01  0.73046985138E+02  0.13514231081E+03  0.10974972912E+03 0.  0.
          5    1    4    4  502    0 -0.78528625551E+02  0.67060287805E+00 -0.14701930092E+02  0.80033939598E+02  0.47000000000E+01 0. -1.
         -5    1    4    4    0  502  0.50472056981E+02  0.90971016094E+01 -0.33230813698E+02  0.61290804960E+02  0.47000000000E+01 0. -1.
          5    1    5    5  503    0  0.54712356910E+02 -0.28557966899E+02  0.80317177373E+02  0.10139989375E+03  0.47000000000E+01 0.  1.
         -5    1    5    5    0  503 -0.26655788340E+02  0.18790262411E+02 -0.72701922350E+01  0.33742417054E+02  0.47000000000E+01 0.  1.
<mgrwt>
<rscale>  0 0.27532400E+03</rscale>
<asrwt>0</asrwt>
<pdfrwt beam="1">  1        1 0.19334832E-01 0.27532400E+03</pdfrwt>
<pdfrwt beam="2">  1       -1 0.23198561E-01 0.27532400E+03</pdfrwt>
<totfact> 0.41855372E+03</totfact>
</mgrwt>
</event>
<event>
 9    1  0.2095749E-002  0.2749868E+03  0.7818608E-02  0.1098459E+00
          2   -1    0    0  501    0  0.00000000000E+00  0.00000000000E+00  0.16997375004E+03  0.16997375004E+03  0.00000000000E+00 0.  1.
         -2   -1    0    0    0  501 -0.00000000000E+00 -0.00000000000E+00 -0.11121969770E+03  0.11121969770E+03  0.00000000000E+00 0.  1.
         36    2    1    2    0    0  0.14210854715E-13  0.00000000000E+00  0.58754052345E+02  0.28119344774E+03  0.27498675675E+03 0.  0.
         25    2    3    3    0    0 -0.51811793913E+02  0.15066675173E+02  0.48529923615E+02  0.14423844741E+03  0.12465195360E+03 0.  0.
         25    2    3    3    0    0  0.51811793913E+02 -0.15066675173E+02  0.10224128730E+02  0.13695500033E+03  0.12546183730E+03 0.  0.
          5    1    4    4  502    0 -0.87626455108E+02  0.38941540274E+01  0.58000619132E+02  0.10526025788E+03  0.47000000000E+01 0. -1.
         -5    1    4    4    0  502  0.35814661194E+02  0.11172521146E+02 -0.94706955171E+01  0.38978189527E+02  0.47000000000E+01 0. -1.
          5    1    5    5  503    0 -0.31494215703E+02  0.13309894774E+02  0.31018340495E+02  0.46403301270E+02  0.47000000000E+01 0.  1.
         -5    1    5    5    0  503  0.83306009616E+02 -0.28376569947E+02 -0.20794211765E+02  0.90551699062E+02  0.47000000000E+01 0.  1.
<mgrwt>
<rscale>  0 0.27498676E+03</rscale>
<asrwt>0</asrwt>
<pdfrwt beam="1">  1        2 0.26149808E-01 0.27498676E+03</pdfrwt>
<pdfrwt beam="2">  1       -2 0.17110723E-01 0.27498676E+03</pdfrwt>
<totfact> 0.55704602E+03</totfact>
</mgrwt>
</event>
<event>
 9    1  0.2095749E-002  0.2777099E+03  0.7818608E-02  0.1096946E+00
          2   -1    0    0  501    0  0.00000000000E+00  0.00000000000E+00  0.13210637270E+03  0.13210637270E+03  0.00000000000E+00 0. -1.
         -2   -1    0    0    0  501 -0.00000000000E+00 -0.00000000000E+00 -0.14594826719E+03  0.14594826719E+03  0.00000000000E+00 0. -1.
         36    2    1    2    0    0 -0.71054273576E-14  0.17763568394E-14 -0.13841894491E+02  0.27805463989E+03  0.27770989309E+03 0.  0.
         25    2    3    3    0    0 -0.56271995979E+02 -0.15739010669E+02 -0.42127776679E+02  0.14041716823E+03  0.12053206037E+03 0.  0.
         25    2    3    3    0    0  0.56271995979E+02  0.15739010669E+02  0.28285882188E+02  0.13763747166E+03  0.12136609282E+03 0.  0.
          5    1    4    4  502    0  0.34596853910E+02 -0.34824837895E+01  0.77470053557E+01  0.35932938730E+02  0.47000000000E+01 0. -1.
         -5    1    4    4    0  502 -0.90868849889E+02 -0.12256526879E+02 -0.49874782035E+02  0.10448422950E+03  0.47000000000E+01 0. -1.
          5    1    5    5  503    0  0.38093670187E+02  0.31959529921E+02  0.71848982358E+02  0.87503745788E+02  0.47000000000E+01 0.  1.
         -5    1    5    5    0  503  0.18178325792E+02 -0.16220519252E+02 -0.43563100170E+02  0.50133725872E+02  0.47000000000E+01 0.  1.
<mgrwt>
<rscale>  0 0.27770989E+03</rscale>
<asrwt>0</asrwt>
<pdfrwt beam="1">  1        2 0.20324057E-01 0.27770989E+03</pdfrwt>
<pdfrwt beam="2">  1       -2 0.22453579E-01 0.27770989E+03</pdfrwt>
<totfact> 0.46563583E+03</totfact>
</mgrwt>
</event>
<event>
 9    1  0.2095749E-002  0.2759720E+03  0.7818608E-02  0.1097910E+00
         -2   -1    0    0    0  501 -0.00000000000E+00  0.00000000000E+00  0.62260019275E+01  0.62260019275E+01  0.00000000000E+00 0.  1.
          2   -1    0    0  501    0  0.00000000000E+00 -0.00000000000E+00 -0.30581634635E+04  0.30581634635E+04  0.00000000000E+00 0.  1.
         36    2    1    2    0    0  0.00000000000E+00 -0.71054273576E-14 -0.30519374616E+04  0.30643894654E+04  0.27597196682E+03 0.  0.
         25    2    3    3    0    0 -0.62530556926E+02 -0.50265369010E+02 -0.16293179533E+04  0.16339078999E+04  0.92419448240E+02 0.  0.
         25    2    3    3    0    0  0.62530556926E+02  0.50265369010E+02 -0.14226195082E+04  0.14304815655E+04  0.12646962574E+03 0.  0.
          5    1    4    4  502    0 -0.56399882864E+02  0.12838443594E+02 -0.86979846095E+03  0.87173231275E+03  0.47000000000E+01 0.  1.
         -5    1    4    4    0  502 -0.61306740613E+01 -0.63103812604E+02 -0.75951949240E+03  0.76217558716E+03  0.47000000000E+01 0.  1.
          5    1    5    5  503    0  0.92836310354E+02  0.10088352545E+02 -0.71988773560E+03  0.72593443040E+03  0.47000000000E+01 0.  1.
         -5    1    5    5    0  503 -0.30305753428E+02  0.40177016465E+02 -0.70273177261E+03  0.70454713510E+03  0.47000000000E+01 0.  1.
<mgrwt>
<rscale>  0 0.27597197E+03</rscale>
<asrwt>0</asrwt>
<pdfrwt beam="1">  1        2 0.47048718E+00 0.27597197E+03</pdfrwt>
<pdfrwt beam="2">  1       -2 0.95784544E-03 0.27597197E+03</pdfrwt>
<totfact> 0.43659852E+03</totfact>
</mgrwt>
</event>
<event>
 9    1  0.2095749E-002  0.2751716E+03  0.7818608E-02  0.1098356E+00
         -2   -1    0    0    0  501 -0.00000000000E+00  0.00000000000E+00  0.71900997127E+02  0.71900997127E+02  0.00000000000E+00 0.  1.
          2   -1    0    0  501    0  0.00000000000E+00 -0.00000000000E+00 -0.26327661434E+03  0.26327661434E+03  0.00000000000E+00 0.  1.
         36    2    1    2    0    0  0.14210854715E-13  0.00000000000E+00 -0.19137561721E+03  0.33517761146E+03  0.27517159076E+03 0.  0.
         25    2    3    3    0    0 -0.34937605239E+02 -0.50915926132E+02 -0.23231622003E+02  0.11536425903E+03  0.94636864949E+02 0.  0.
         25    2    3    3    0    0  0.34937605239E+02  0.50915926132E+02 -0.16814399521E+03  0.21981335243E+03  0.12740658927E+03 0.  0.
          5    1    4    4  502    0 -0.40488233607E+02  0.11408079942E+02 -0.30538608054E+02  0.52193274763E+02  0.47000000000E+01 0.  1.
         -5    1    4    4    0  502  0.55506283677E+01 -0.62324006074E+02  0.73069860513E+01  0.63170984269E+02  0.47000000000E+01 0.  1.
          5    1    5    5  503    0  0.56723735074E+02 -0.20243740406E+02 -0.10906385207E+03  0.12467720311E+03  0.47000000000E+01 0. -1.
         -5    1    5    5    0  503 -0.21786129835E+02  0.71159666538E+02 -0.59080143134E+02  0.95136149322E+02  0.47000000000E+01 0. -1.
<mgrwt>
<rscale>  0 0.27517159E+03</rscale>
<asrwt>0</asrwt>
<pdfrwt beam="1">  1        2 0.40504094E-01 0.27517159E+03</pdfrwt>
<pdfrwt beam="2">  1       -2 0.11061692E-01 0.27517159E+03</pdfrwt>
<totfact> 0.70572936E+03</totfact>
</mgrwt>
</event>
<event>
 9    1  0.2095749E-002  0.2751861E+03  0.7818608E-02  0.1098348E+00
          1   -1    0    0  501    0  0.00000000000E+00  0.00000000000E+00  0.94133775023E+03  0.94133775023E+03  0.00000000000E+00 0.  1.
         -1   -1    0    0    0  501 -0.00000000000E+00 -0.00000000000E+00 -0.20111642528E+02  0.20111642528E+02  0.00000000000E+00 0.  1.
         36    2    1    2    0    0  0.00000000000E+00  0.71054273576E-14  0.92122610770E+03  0.96144939276E+03  0.27518610670E+03 0.  0.
         25    2    3    3    0    0  0.14446594470E+02  0.35726147102E+02  0.59074644718E+03  0.60460440391E+03  0.12280089047E+03 0.  0.
         25    2    3    3    0    0 -0.14446594470E+02 -0.35726147102E+02  0.33047966052E+03  0.35684498884E+03  0.12898247309E+03 0.  0.
          5    1    4    4  502    0 -0.79340065919E+01 -0.38202306607E+02  0.94276528985E+02  0.10213970143E+03  0.47000000000E+01 0.  1.
         -5    1    4    4    0  502  0.22380601062E+02  0.73928453709E+02  0.49646991819E+03  0.50246470248E+03  0.47000000000E+01 0.  1.
          5    1    5    5  503    0  0.10409466582E+02  0.15332298624E+02  0.28020170485E+03  0.28085320325E+03  0.47000000000E+01 0. -1.
         -5    1    5    5    0  503 -0.24856061052E+02 -0.51058445726E+02  0.50277955674E+02  0.75991785594E+02  0.47000000000E+01 0. -1.
<mgrwt>
<rscale>  0 0.27518611E+03</rscale>
<asrwt>0</asrwt>
<pdfrwt beam="1">  1        1 0.14482116E+00 0.27518611E+03</pdfrwt>
<pdfrwt beam="2">  1       -1 0.30940996E-02 0.27518611E+03</pdfrwt>
<totfact> 0.63815477E+03</totfact>
</mgrwt>
</event>
<event>
 9    1  0.2095749E-002  0.2775351E+03  0.7818608E-02  0.1097043E+00
         -1   -1    0    0    0  501 -0.00000000000E+00  0.00000000000E+00  0.82319663398E+02  0.82319663398E+02  0.00000000000E+00 0. -1.
          1   -1    0    0  501    0  0.00000000000E+00 -0.00000000000E+00 -0.23392271414E+03  0.23392271414E+03  0.00000000000E+00 0. -1.
         36    2    1    2    0    0  0.00000000000E+00  0.71054273576E-14 -0.15160305074E+03  0.31624237754E+03  0.27753514436E+03 0.  0.
         25    2    3    3    0    0 -0.58745690861E+02 -0.45973944365E+02 -0.46284451311E+02  0.15323163010E+03  0.12559069342E+03 0.  0.
         25    2    3    3    0    0  0.58745690861E+02  0.45973944365E+02 -0.10531859943E+03  0.16301074744E+03  0.99578294016E+02 0.  0.
          5    1    4    4  502    0  0.11936308786E+02  0.32360138633E+02  0.60994077181E+01  0.35340441625E+02  0.47000000000E+01 0.  1.
         -5    1    4    4    0  502 -0.70681999646E+02 -0.78334082998E+02 -0.52383859029E+02  0.11789118847E+03  0.47000000000E+01 0.  1.
          5    1    5    5  503    0  0.24835909124E+02 -0.17464174453E+02  0.51012740996E+01  0.31143743654E+02  0.47000000000E+01 0. -1.
         -5    1    5    5    0  503  0.33909781736E+02  0.63438118818E+02 -0.11041987353E+03  0.13186700378E+03  0.47000000000E+01 0. -1.
<mgrwt>
<rscale>  0 0.27753514E+03</rscale>
<asrwt>0</asrwt>
<pdfrwt beam="1">  1        1 0.35988109E-01 0.27753514E+03</pdfrwt>
<pdfrwt beam="2">  1       -1 0.12664564E-01 0.27753514E+03</pdfrwt>
<totfact> 0.50236907E+03</totfact>
</mgrwt>
</event>
<event>
 9    1  0.2095749E-002  0.2741971E+03  0.7818608E-02  0.1098901E+00
         -3   -1    0    0    0  501 -0.00000000000E+00  0.00000000000E+00  0.26978370662E+03  0.26978370662E+03  0.00000000000E+00 0. -1.
          3   -1    0    0  501    0  0.00000000000E+00 -0.00000000000E+00 -0.69670663786E+02  0.69670663786E+02  0.00000000000E+00 0. -1.
         36    2    1    2    0    0 -0.35527136788E-14 -0.14210854715E-13  0.20011304283E+03  0.33945437041E+03  0.27419708181E+03 0.  0.
         25    2    3    3    0    0  0.20391197416E+01 -0.40557316448E+02  0.14802941751E+03  0.19633732916E+03  0.12241970611E+03 0.  0.
         25    2    3    3    0    0 -0.20391197416E+01  0.40557316448E+02  0.52083625322E+02  0.14311704125E+03  0.12696743497E+03 0.  0.
          5    1    4    4  502    0  0.32621611862E+02  0.15065090649E+01  0.13959672005E+03  0.14344257868E+03  0.47000000000E+01 0. -1.
         -5    1    4    4    0  502 -0.30582492120E+02 -0.42063825513E+02  0.84326974592E+01  0.52894750472E+02  0.47000000000E+01 0. -1.
          5    1    5    5  503    0 -0.14001050425E+02 -0.44122437204E+02  0.95940981531E+01  0.47507426758E+02  0.47000000000E+01 0.  1.
         -5    1    5    5    0  503  0.11961930683E+02  0.84679753652E+02  0.42489527169E+02  0.95609614492E+02  0.47000000000E+01 0.  1.
<mgrwt>
<rscale>  0 0.27419708E+03</rscale>
<asrwt>0</asrwt>
<pdfrwt beam="1">  1        3 0.10718564E-01 0.27419708E+03</pdfrwt>
<pdfrwt beam="2">  1       -3 0.41505185E-01 0.27419708E+03</pdfrwt>
<totfact> 0.96515039E+02</totfact>
</mgrwt>
</event>
<event>
 9    1  0.2095749E-002  0.2749533E+03  0.7818608E-02  0.1098478E+00
          2   -1    0    0  501    0  0.00000000000E+00  0.00000000000E+00  0.15490441930E+04  0.15490441930E+04  0.00000000000E+00 0. -1.
         -2   -1    0    0    0  501 -0.00000000000E+00 -0.00000000000E+00 -0.12200965521E+02  0.12200965521E+02  0.00000000000E+00 0. -1.
         36    2    1    2    0    0  0.00000000000E+00  0.35527136788E-14  0.15368432274E+04  0.15612451585E+04  0.27495333996E+03 0.  0.
         25    2    3    3    0    0 -0.24298225619E+02 -0.68718461262E+01  0.80877210163E+03  0.81863210791E+03  0.12413134050E+03 0.  0.
         25    2    3    3    0    0  0.24298225619E+02  0.68718461262E+01  0.72807112581E+03  0.74261305057E+03  0.14404496729E+03 0.  0.
          5    1    4    4  502    0 -0.50120529806E+02 -0.53302408910E+02  0.47563610082E+03  0.48125357630E+03  0.47000000000E+01 0. -1.
         -5    1    4    4    0  502  0.25822304187E+02  0.46430562784E+02  0.33313600081E+03  0.33737853161E+03  0.47000000000E+01 0. -1.
          5    1    5    5  503    0  0.65915626276E+02  0.28315507109E+02  0.62720603844E+03  0.63131303043E+03  0.47000000000E+01 0.  1.
         -5    1    5    5    0  503 -0.41617400657E+02 -0.21443660983E+02  0.10086508737E+03  0.11130002014E+03  0.47000000000E+01 0.  1.
<mgrwt>
<rscale>  0 0.27495334E+03</rscale>
<asrwt>0</asrwt>
<pdfrwt beam="1">  1        2 0.23831434E+00 0.27495334E+03</pdfrwt>
<pdfrwt beam="2">  1       -2 0.18770728E-02 0.27495334E+03</pdfrwt>
<totfact> 0.10901988E+04</totfact>
</mgrwt>
</event>
<event>
 9    1  0.2095749E-002  0.2752703E+03  0.7818608E-02  0.1098301E+00
          1   -1    0    0  501    0  0.00000000000E+00  0.00000000000E+00  0.45545180369E+02  0.45545180369E+02  0.00000000000E+00 0. -1.
         -1   -1    0    0    0  501 -0.00000000000E+00 -0.00000000000E+00 -0.41592631250E+03  0.41592631250E+03  0.00000000000E+00 0. -1.
         36    2    1    2    0    0 -0.71054273576E-14 -0.71054273576E-14 -0.37038113213E+03  0.46147149287E+03  0.27527033202E+03 0.  0.
         25    2    3    3    0    0 -0.37392049767E+02 -0.26943743373E+02 -0.25075171769E+03  0.28422103616E+03  0.12562262048E+03 0.  0.
         25    2    3    3    0    0  0.37392049767E+02  0.26943743373E+02 -0.11962941444E+03  0.17725045671E+03  0.12240260174E+03 0.  0.
          5    1    4    4  502    0 -0.25993099025E+02  0.49474408600E+02 -0.95756812538E+02  0.11097213817E+03  0.47000000000E+01 0.  1.
         -5    1    4    4    0  502 -0.11398950741E+02 -0.76418151973E+02 -0.15499490515E+03  0.17324889798E+03  0.47000000000E+01 0.  1.
          5    1    5    5  503    0  0.76312358652E+01 -0.75828285418E+00  0.25195641608E+02  0.26752964505E+02  0.47000000000E+01 0. -1.
         -5    1    5    5    0  503  0.29760813901E+02  0.27702026228E+02 -0.14482505605E+03  0.15049749220E+03  0.47000000000E+01 0. -1.
<mgrwt>
<rscale>  0 0.27527033E+03</rscale>
<asrwt>0</asrwt>
<pdfrwt beam="1">  1        1 0.70069506E-02 0.27527033E+03</pdfrwt>
<pdfrwt beam="2">  1       -1 0.63988666E-01 0.27527033E+03</pdfrwt>
<totfact> 0.26661097E+03</totfact>
</mgrwt>
</event>
<event>
 9    1  0.2095749E-002  0.2749429E+03  0.7818608E-02  0.1098483E+00
         -2   -1    0    0    0  501 -0.00000000000E+00  0.00000000000E+00  0.77498162006E+01  0.77498162006E+01  0.00000000000E+00 0. -1.
          2   -1    0    0  501    0  0.00000000000E+00 -0.00000000000E+00 -0.24385617573E+04  0.24385617573E+04  0.00000000000E+00 0. -1.
         36    2    1    2    0    0  0.00000000000E+00  0.71054273576E-14 -0.24308119411E+04  0.24463115735E+04  0.27494294254E+03 0.  0.
         25    2    3    3    0    0  0.79282250256E+02  0.32148189380E+02 -0.93345955189E+03  0.94185919860E+03  0.91830461649E+02 0.  0.
         25    2    3    3    0    0 -0.79282250256E+02 -0.32148189380E+02 -0.14973523892E+04  0.15044523749E+04  0.11829450362E+03 0.  0.
          5    1    4    4  502    0 -0.72942050366E+01 -0.92145016819E+01 -0.37384148819E+03  0.37405569206E+03  0.47000000000E+01 0.  1.
         -5    1    4    4    0  502  0.86576455293E+02  0.41362691061E+02 -0.55961806370E+03  0.56780350655E+03  0.47000000000E+01 0.  1.
          5    1    5    5  503    0 -0.89654748124E+02 -0.43551208105E+02 -0.14641439065E+04  0.14675401700E+04  0.47000000000E+01 0.  1.
         -5    1    5    5    0  503  0.10372497868E+02  0.11403018725E+02 -0.33208482770E+02  0.36912204973E+02  0.47000000000E+01 0.  1.
<mgrwt>
<rscale>  0 0.27494294E+03</rscale>
<asrwt>0</asrwt>
<pdfrwt beam="1">  1        2 0.37516365E+00 0.27494294E+03</pdfrwt>
<pdfrwt beam="2">  1       -2 0.11922785E-02 0.27494294E+03</pdfrwt>
<totfact> 0.71508734E+03</totfact>
</mgrwt>
</event>
<event>
 9    1  0.2095749E-002  0.2748504E+03  0.7818608E-02  0.1098535E+00
         -3   -1    0    0    0  501 -0.00000000000E+00  0.00000000000E+00  0.16714525986E+03  0.16714525986E+03  0.00000000000E+00 0. -1.
          3   -1    0    0  501    0  0.00000000000E+00 -0.00000000000E+00 -0.11298966223E+03  0.11298966223E+03  0.00000000000E+00 0. -1.
         36    2    1    2    0    0 -0.35527136788E-14 -0.17763568394E-14  0.54155597633E+02  0.28013492209E+03  0.27485040626E+03 0.  0.
         25    2    3    3    0    0 -0.30196425414E+02 -0.61681726636E+01  0.80677983334E+02  0.15257504846E+03  0.12577892492E+03 0.  0.
         25    2    3    3    0    0  0.30196425414E+02  0.61681726636E+01 -0.26522385701E+02  0.12755987363E+03  0.12090580613E+03 0.  0.
          5    1    4    4  502    0  0.26955292836E+02 -0.19481582749E+02  0.87103697971E+02  0.93355578722E+02  0.47000000000E+01 0.  1.
         -5    1    4    4    0  502 -0.57151718251E+02  0.13313410085E+02 -0.64257146372E+01  0.59219469735E+02  0.47000000000E+01 0.  1.
          5    1    5    5  503    0  0.54952355032E+02  0.41273854827E+02 -0.43119652042E+02  0.81269224237E+02  0.47000000000E+01 0.  1.
         -5    1    5    5    0  503 -0.24755929618E+02 -0.35105682163E+02  0.16597266341E+02  0.46290649395E+02  0.47000000000E+01 0.  1.
<mgrwt>
<rscale>  0 0.27485041E+03</rscale>
<asrwt>0</asrwt>
<pdfrwt beam="1">  1        3 0.17383025E-01 0.27485041E+03</pdfrwt>
<pdfrwt beam="2">  1       -3 0.25714655E-01 0.27485041E+03</pdfrwt>
<totfact> 0.10427830E+03</totfact>
</mgrwt>
</event>
<event>
 9    1  0.2095749E-002  0.2764693E+03  0.7818608E-02  0.1097633E+00
          2   -1    0    0  501    0  0.00000000000E+00  0.00000000000E+00  0.55342511304E+03  0.55342511304E+03  0.00000000000E+00 0.  1.
         -2   -1    0    0    0  501 -0.00000000000E+00 -0.00000000000E+00 -0.34528289022E+02  0.34528289022E+02  0.00000000000E+00 0.  1.
         36    2    1    2    0    0  0.71054273576E-14  0.71054273576E-14  0.51889682402E+03  0.58795340206E+03  0.27646932745E+03 0.  0.
         25    2    3    3    0    0 -0.32434512268E+02 -0.42535727156E+02  0.32885433436E+03  0.35562862639E+03  0.12435940259E+03 0.  0.
         25    2    3    3    0    0  0.32434512268E+02  0.42535727156E+02  0.19004248966E+03  0.23232477567E+03  0.12246374093E+03 0.  0.
          5    1    4    4  502    0  0.16227175997E+02  0.12851963840E+02  0.23608287232E+03  0.23703524383E+03  0.47000000000E+01 0.  1.
         -5    1    4    4    0  502 -0.48661688265E+02 -0.55387690996E+02  0.92771462041E+02  0.11859338256E+03  0.47000000000E+01 0.  1.
          5    1    5    5  503    0  0.32814878746E+02  0.44739862265E+02  0.15630160262E+02  0.57834794479E+02  0.47000000000E+01 0. -1.
         -5    1    5    5    0  503 -0.38036647776E+00 -0.22041351093E+01  0.17441232940E+03  0.17448998119E+03  0.47000000000E+01 0. -1.
<mgrwt>
<rscale>  0 0.27646933E+03</rscale>
<asrwt>0</asrwt>
<pdfrwt beam="1">  1        2 0.85142319E-01 0.27646933E+03</pdfrwt>
<pdfrwt beam="2">  1       -2 0.53120449E-02 0.27646933E+03</pdfrwt>
<totfact> 0.98450134E+03</totfact>
</mgrwt>
</event>
<event>
 9    1  0.2095749E-002  0.2752045E+03  0.7818608E-02  0.1098337E+00
         -3   -1    0    0    0  501 -0.00000000000E+00  0.00000000000E+00  0.79429202061E+02  0.79429202061E+02  0.00000000000E+00 0. -1.
          3   -1    0    0  501    0  0.00000000000E+00 -0.00000000000E+00 -0.23838051193E+03  0.23838051193E+03  0.00000000000E+00 0. -1.
         36    2    1    2    0    0  0.71054273576E-14 -0.35527136788E-14 -0.15895130987E+03  0.31780971399E+03  0.27520446108E+03 0.  0.
         25    2    3    3    0    0  0.51800535664E+02 -0.13400183840E+02 -0.72126128991E+02  0.15513139217E+03  0.12649391263E+03 0.  0.
         25    2    3    3    0    0 -0.51800535664E+02  0.13400183840E+02 -0.86825180875E+02  0.16267832181E+03  0.12673895981E+03 0.  0.
          5    1    4    4  502    0  0.40241089561E+02 -0.44851111658E+02 -0.96195830599E+02  0.11360763764E+03  0.47000000000E+01 0. -1.
         -5    1    4    4    0  502  0.11559446103E+02  0.31450927819E+02  0.24069701608E+02  0.41523754531E+02  0.47000000000E+01 0. -1.
          5    1    5    5  503    0 -0.92413001834E+02 -0.46444712122E+01 -0.54087495044E+02  0.10728131776E+03  0.47000000000E+01 0. -1.
         -5    1    5    5    0  503  0.40612466170E+02  0.18044655052E+02 -0.32737685831E+02  0.55397004052E+02  0.47000000000E+01 0. -1.
<mgrwt>
<rscale>  0 0.27520446E+03</rscale>
<asrwt>0</asrwt>
<pdfrwt beam="1">  1        3 0.36673926E-01 0.27520446E+03</pdfrwt>
<pdfrwt beam="2">  1       -3 0.12219877E-01 0.27520446E+03</pdfrwt>
<totfact> 0.98415871E+02</totfact>
</mgrwt>
</event>
<event>
 9    1  0.2095749E-002  0.2747369E+03  0.7818608E-02  0.1098599E+00
         -1   -1    0    0    0  501 -0.00000000000E+00  0.00000000000E+00  0.36593351730E+02  0.36593351730E+02  0.00000000000E+00 0.  1.
          1   -1    0    0  501    0  0.00000000000E+00 -0.00000000000E+00 -0.51566991374E+03  0.51566991374E+03  0.00000000000E+00 0.  1.
         36    2    1    2    0    0 -0.71054273576E-14 -0.71054273576E-14 -0.47907656201E+03  0.55226326547E+03  0.27473689618E+03 0.  0.
         25    2    3    3    0    0  0.42235122136E+02  0.35611019195E+02 -0.26043865492E+03  0.29382467821E+03  0.12430888272E+03 0.  0.
         25    2    3    3    0    0 -0.42235122136E+02 -0.35611019195E+02 -0.21863790709E+03  0.25843858726E+03  0.12623794491E+03 0.  0.
          5    1    4    4  502    0 -0.23299987098E+02 -0.79737836271E+01 -0.17797934546E+03  0.17973649611E+03  0.47000000000E+01 0.  1.
         -5    1    4    4    0  502  0.65535109234E+02  0.43584802822E+02 -0.82459309460E+02  0.11408818211E+03  0.47000000000E+01 0.  1.
          5    1    5    5  503    0 -0.38919582313E+02 -0.61820483220E+02 -0.21971016304E+03  0.23158400587E+03  0.47000000000E+01 0.  1.
         -5    1    5    5    0  503 -0.33155398235E+01  0.26209464025E+02  0.10722559414E+01  0.26854581389E+02  0.47000000000E+01 0.  1.
<mgrwt>
<rscale>  0 0.27473690E+03</rscale>
<asrwt>0</asrwt>
<pdfrwt beam="1">  1        1 0.79333835E-01 0.27473690E+03</pdfrwt>
<pdfrwt beam="2">  1       -1 0.56297462E-02 0.27473690E+03</pdfrwt>
<totfact> 0.63446418E+03</totfact>
</mgrwt>
</event>
<event>
 9    1  0.2095749E-002  0.2754168E+03  0.7818608E-02  0.1098219E+00
          2   -1    0    0  501    0  0.00000000000E+00  0.00000000000E+00  0.17576994886E+03  0.17576994886E+03  0.00000000000E+00 0.  1.
         -2   -1    0    0    0  501 -0.00000000000E+00 -0.00000000000E+00 -0.10788879335E+03  0.10788879335E+03  0.00000000000E+00 0.  1.
         36    2    1    2    0    0 -0.35527136788E-14  0.00000000000E+00  0.67881155514E+02  0.28365874221E+03  0.27541683092E+03 0.  0.
         25    2    3    3    0    0  0.14904348732E+02  0.40814856600E+02 -0.20244922904E+00  0.13535802162E+03  0.12819423115E+03 0.  0.
         25    2    3    3    0    0 -0.14904348732E+02 -0.40814856600E+02  0.68083604743E+02  0.14830072059E+03  0.12437738686E+03 0.  0.
          5    1    4    4  502    0 -0.18452874564E+02  0.71302628872E+02  0.31202019490E+02  0.80126334522E+02  0.47000000000E+01 0. -1.
         -5    1    4    4    0  502  0.33357223296E+02 -0.30487772271E+02 -0.31404468719E+02  0.55231687097E+02  0.47000000000E+01 0. -1.
          5    1    5    5  503    0 -0.53869695166E+01  0.30941655412E+02  0.68782859547E+02  0.75759997675E+02  0.47000000000E+01 0. -1.
         -5    1    5    5    0  503 -0.95173792153E+01 -0.71756512013E+02 -0.69925480415E+00  0.72540722912E+02  0.47000000000E+01 0. -1.
<mgrwt>
<rscale>  0 0.27541683E+03</rscale>
<asrwt>0</asrwt>
<pdfrwt beam="1">  1        2 0.27041531E-01 0.27541683E+03</pdfrwt>
<pdfrwt beam="2">  1       -2 0.16598276E-01 0.27541683E+03</pdfrwt>
<totfact> 0.56473507E+03</totfact>
</mgrwt>
</event>
<event>
 9    1  0.2095749E-002  0.2749672E+03  0.7818608E-02  0.1098470E+00
         -2   -1    0    0    0  501 -0.00000000000E+00  0.00000000000E+00  0.20866630987E+02  0.20866630987E+02  0.00000000000E+00 0. -1.
          2   -1    0    0  501    0  0.00000000000E+00 -0.00000000000E+00 -0.90583595976E+03  0.90583595976E+03  0.00000000000E+00 0. -1.
         36    2    1    2    0    0  0.71054273576E-14  0.00000000000E+00 -0.88496932877E+03  0.92670259075E+03  0.27496723228E+03 0.  0.
         25    2    3    3    0    0  0.57493346441E+02  0.11403023564E+02 -0.42382093060E+03  0.44549474606E+03  0.12412040010E+03 0.  0.
         25    2    3    3    0    0 -0.57493346441E+02 -0.11403023564E+02 -0.46114839817E+03  0.48120784469E+03  0.12436893028E+03 0.  0.
          5    1    4    4  502    0 -0.31869155203E+01  0.25362076688E+02 -0.11411440758E+02  0.28384896418E+02  0.47000000000E+01 0. -1.
         -5    1    4    4    0  502  0.60680261961E+02 -0.13959053124E+02 -0.41240948984E+03  0.41710984964E+03  0.47000000000E+01 0. -1.
          5    1    5    5  503    0 -0.66441491952E+01  0.93823862862E+01  0.38103620982E+01  0.12991641554E+02  0.47000000000E+01 0.  1.
         -5    1    5    5    0  503 -0.50849197246E+02 -0.20785409850E+02 -0.46495876027E+03  0.46821620313E+03  0.47000000000E+01 0.  1.
<mgrwt>
<rscale>  0 0.27496723E+03</rscale>
<asrwt>0</asrwt>
<pdfrwt beam="1">  1        2 0.13935936E+00 0.27496723E+03</pdfrwt>
<pdfrwt beam="2">  1       -2 0.32102513E-02 0.27496723E+03</pdfrwt>
<totfact> 0.11492197E+04</totfact>
</mgrwt>
</event>
<event>
 9    1  0.2095749E-002  0.2793553E+03  0.7818608E-02  0.1096042E+00
          2   -1    0    0  501    0  0.00000000000E+00  0.00000000000E+00  0.94324268380E+03  0.94324268380E+03  0.00000000000E+00 0. -1.
         -2   -1    0    0    0  501 -0.00000000000E+00 -0.00000000000E+00 -0.20683797582E+02  0.20683797582E+02  0.00000000000E+00 0. -1.
         36    2    1    2    0    0 -0.10658141036E-13 -0.35527136788E-14  0.92255888622E+03  0.96392648138E+03  0.27935526300E+03 0.  0.
         25    2    3    3    0    0  0.29269549432E+02  0.26059326829E+02  0.61954424177E+03  0.63317753358E+03  0.12467127369E+03 0.  0.
         25    2    3    3    0    0 -0.29269549432E+02 -0.26059326829E+02  0.30301464445E+03  0.33074894781E+03  0.12665384591E+03 0.  0.
          5    1    4    4  502    0  0.37515907216E+02 -0.14985994370E+02  0.62659710585E+02  0.74701758026E+02  0.47000000000E+01 0.  1.
         -5    1    4    4    0  502 -0.82463577843E+01  0.41045321199E+02  0.55688453118E+03  0.55847577555E+03  0.47000000000E+01 0.  1.
          5    1    5    5  503    0  0.44590174368E+02  0.15370398592E+02  0.97122926827E+02  0.10807166936E+03  0.47000000000E+01 0.  1.
         -5    1    5    5    0  503 -0.73859723800E+02 -0.41429725421E+02  0.20589171763E+03  0.22267727845E+03  0.47000000000E+01 0.  1.
<mgrwt>
<rscale>  0 0.27935526E+03</rscale>
<asrwt>0</asrwt>
<pdfrwt beam="1">  1        2 0.14511423E+00 0.27935526E+03</pdfrwt>
<pdfrwt beam="2">  1       -2 0.31821234E-02 0.27935526E+03</pdfrwt>
<totfact> 0.11027919E+04</totfact>
</mgrwt>
</event>
<event>
 8    1  0.2095749E-002  0.3070634E+03  0.7818608E-02  0.1081762E+00
          2   -1    0    0  501    0  0.00000000000E+00  0.00000000000E+00  0.15544020870E+04  0.15544020870E+04  0.00000000000E+00 0. -1.
         -2   -1    0    0    0  501 -0.00000000000E+00 -0.00000000000E+00 -0.15164659580E+02  0.15164659580E+02  0.00000000000E+00 0. -1.
         25    2    1    2    0    0 -0.73079049457E+00 -0.47368705935E+02  0.11160813096E+04  0.11240647805E+04  0.12505923746E+03 0.  0.
         25    2    1    2    0    0  0.73079049457E+00  0.47368705935E+02  0.42315611782E+03  0.44550196603E+03  0.13102127053E+03 0.  0.
          5    1    3    3  502    0  0.45787766795E+02 -0.58397849825E+02  0.43652158171E+03  0.44280922501E+03  0.47000000000E+01 0. -1.
         -5    1    3    3    0  502 -0.46518557289E+02  0.11029143890E+02  0.67955972784E+03  0.68125555550E+03  0.47000000000E+01 0. -1.
          5    1    4    4  503    0 -0.33492806508E+02  0.80123888646E+02  0.32462937414E+03  0.33607726220E+03  0.47000000000E+01 0.  1.
         -5    1    4    4    0  503  0.34223597002E+02 -0.32755182711E+02  0.98526743681E+02  0.10942470382E+03  0.47000000000E+01 0.  1.
<mgrwt>
<rscale>  0 0.30706337E+03</rscale>
<asrwt>0</asrwt>
<pdfrwt beam="1">  1        2 0.23913866E+00 0.30706337E+03</pdfrwt>
<pdfrwt beam="2">  1       -2 0.23330258E-02 0.30706337E+03</pdfrwt>
<totfact> 0.78715112E+03</totfact>
</mgrwt>
</event>
<event>
 9    1  0.2095749E-002  0.2741513E+03  0.7818608E-02  0.1098927E+00
          2   -1    0    0  501    0  0.00000000000E+00  0.00000000000E+00  0.12664053854E+03  0.12664053854E+03  0.00000000000E+00 0. -1.
         -2   -1    0    0    0  501 -0.00000000000E+00 -0.00000000000E+00 -0.14837062374E+03  0.14837062374E+03  0.00000000000E+00 0. -1.
         36    2    1    2    0    0  0.00000000000E+00  0.00000000000E+00 -0.21730085194E+02  0.27501116228E+03  0.27415131365E+03 0.  0.
         25    2    3    3    0    0  0.32420245114E+02  0.63625214387E+02 -0.93769765715E+01  0.13807078195E+03  0.11779801755E+03 0.  0.
         25    2    3    3    0    0 -0.32420245114E+02 -0.63625214387E+02 -0.12353108623E+02  0.13694038034E+03  0.11619306466E+03 0.  0.
          5    1    4    4  502    0 -0.13730724654E+02 -0.23221387426E+02  0.21573739857E+02  0.34860893347E+02  0.47000000000E+01 0. -1.
         -5    1    4    4    0  502  0.46150969768E+02  0.86846601814E+02 -0.30950716428E+02  0.10320988860E+03  0.47000000000E+01 0. -1.
          5    1    5    5  503    0  0.32456118449E+02 -0.53510558741E+02  0.16763160739E+02  0.64960550179E+02  0.47000000000E+01 0.  1.
         -5    1    5    5    0  503 -0.64876363563E+02 -0.10114655646E+02 -0.29116269362E+02  0.71979830158E+02  0.47000000000E+01 0.  1.
<mgrwt>
<rscale>  0 0.27415131E+03</rscale>
<asrwt>0</asrwt>
<pdfrwt beam="1">  1        2 0.19483160E-01 0.27415131E+03</pdfrwt>
<pdfrwt beam="2">  1       -2 0.22826250E-01 0.27415131E+03</pdfrwt>
<totfact> 0.47472932E+03</totfact>
</mgrwt>
</event>
<event>
 9    1  0.2095749E-002  0.2740123E+03  0.7818608E-02  0.1099005E+00
         -1   -1    0    0    0  501 -0.00000000000E+00  0.00000000000E+00  0.61887670063E+02  0.61887670063E+02  0.00000000000E+00 0. -1.
          1   -1    0    0  501    0  0.00000000000E+00 -0.00000000000E+00 -0.30330243589E+03  0.30330243589E+03  0.00000000000E+00 0. -1.
         36    2    1    2    0    0  0.14210854715E-13 -0.71054273576E-14 -0.24141476583E+03  0.36519010596E+03  0.27401227040E+03 0.  0.
         25    2    3    3    0    0 -0.53495405666E+02 -0.39314682487E+02 -0.11192322306E+03  0.18016410199E+03  0.12459892897E+03 0.  0.
         25    2    3    3    0    0  0.53495405666E+02  0.39314682487E+02 -0.12949154277E+03  0.18502600396E+03  0.11427668094E+03 0.  0.
          5    1    4    4  502    0 -0.78227472901E+02 -0.73612496915E+01 -0.11501138102E+03  0.13936797795E+03  0.47000000000E+01 0. -1.
         -5    1    4    4    0  502  0.24732067235E+02 -0.31953432796E+02  0.30881579648E+01  0.40796124041E+02  0.47000000000E+01 0. -1.
          5    1    5    5  503    0  0.80206526706E+02 -0.46069005379E+01 -0.81695540875E+02  0.11467589920E+03  0.47000000000E+01 0.  1.
         -5    1    5    5    0  503 -0.26711121040E+02  0.43921583025E+02 -0.47796001895E+02  0.70350104760E+02  0.47000000000E+01 0.  1.
<mgrwt>
<rscale>  0 0.27401227E+03</rscale>
<asrwt>0</asrwt>
<pdfrwt beam="1">  1        1 0.46661913E-01 0.27401227E+03</pdfrwt>
<pdfrwt beam="2">  1       -1 0.95211800E-02 0.27401227E+03</pdfrwt>
<totfact> 0.56460131E+03</totfact>
</mgrwt>
</event>
<event>
 9    1  0.2095749E-002  0.2751734E+03  0.7818608E-02  0.1098355E+00
         -2   -1    0    0    0  501 -0.00000000000E+00  0.00000000000E+00  0.12898260461E+03  0.12898260461E+03  0.00000000000E+00 0. -1.
          2   -1    0    0  501    0  0.00000000000E+00 -0.00000000000E+00 -0.14676473601E+03  0.14676473601E+03  0.00000000000E+00 0. -1.
         36    2    1    2    0    0  0.00000000000E+00 -0.35527136788E-14 -0.17782131405E+02  0.27574734062E+03  0.27517338473E+03 0.  0.
         25    2    3    3    0    0 -0.43522389794E+02  0.27253014337E+02  0.39044877067E+01  0.13964031476E+03  0.12979694633E+03 0.  0.
         25    2    3    3    0    0  0.43522389794E+02 -0.27253014337E+02 -0.21686619111E+02  0.13610702587E+03  0.12416878770E+03 0.  0.
          5    1    4    4  502    0 -0.79383911725E+02  0.51353711981E+01 -0.30211383064E+02  0.85223207782E+02  0.47000000000E+01 0. -1.
         -5    1    4    4    0  502  0.35861521930E+02  0.22117643139E+02  0.34115870771E+02  0.54417106976E+02  0.47000000000E+01 0. -1.
          5    1    5    5  503    0 -0.32932603535E+02  0.10488641640E+01 -0.40385496384E+02  0.52332922810E+02  0.47000000000E+01 0. -1.
         -5    1    5    5    0  503  0.76454993330E+02 -0.28301878501E+02  0.18698877272E+02  0.83774103057E+02  0.47000000000E+01 0. -1.
<mgrwt>
<rscale>  0 0.27517338E+03</rscale>
<asrwt>0</asrwt>
<pdfrwt beam="1">  1        2 0.22579190E-01 0.27517338E+03</pdfrwt>
<pdfrwt beam="2">  1       -2 0.19843478E-01 0.27517338E+03</pdfrwt>
<totfact> 0.51104590E+03</totfact>
</mgrwt>
</event>
<event>
 9    1  0.2095749E-002  0.2750975E+03  0.7818608E-02  0.1098397E+00
          1   -1    0    0  501    0  0.00000000000E+00  0.00000000000E+00  0.49940447806E+03  0.49940447806E+03  0.00000000000E+00 0.  1.
         -1   -1    0    0    0  501 -0.00000000000E+00 -0.00000000000E+00 -0.37884446128E+02  0.37884446128E+02  0.00000000000E+00 0.  1.
         36    2    1    2    0    0  0.00000000000E+00  0.17763568394E-14  0.46152003194E+03  0.53728892419E+03  0.27509752485E+03 0.  0.
         25    2    3    3    0    0 -0.31424097102E+02  0.41705793484E+01  0.13221096172E+03  0.18389402737E+03  0.12382409819E+03 0.  0.
         25    2    3    3    0    0  0.31424097102E+02 -0.41705793484E+01  0.32930907022E+03  0.35339489683E+03  0.12425225053E+03 0.  0.
          5    1    4    4  502    0  0.22520099840E+02  0.95273201709E+01  0.12678985068E+03  0.12921176790E+03  0.47000000000E+01 0. -1.
         -5    1    4    4    0  502 -0.53944196942E+02 -0.53567408225E+01  0.54211110329E+01  0.54682259470E+02  0.47000000000E+01 0. -1.
          5    1    5    5  503    0 -0.16918519202E+01 -0.21969208102E+02  0.62951520013E+00  0.22538739027E+02  0.47000000000E+01 0.  1.
         -5    1    5    5    0  503  0.33115949023E+02  0.17798628754E+02  0.32867955502E+03  0.33085615780E+03  0.47000000000E+01 0.  1.
<mgrwt>
<rscale>  0 0.27509752E+03</rscale>
<asrwt>0</asrwt>
<pdfrwt beam="1">  1        1 0.76831453E-01 0.27509752E+03</pdfrwt>
<pdfrwt beam="2">  1       -1 0.58283767E-02 0.27509752E+03</pdfrwt>
<totfact> 0.62849701E+03</totfact>
</mgrwt>
</event>
<event>
 9    1  0.2095749E-002  0.2754340E+03  0.7818608E-02  0.1098209E+00
         -1   -1    0    0    0  501 -0.00000000000E+00  0.00000000000E+00  0.37595008975E+02  0.37595008975E+02  0.00000000000E+00 0. -1.
          1   -1    0    0  501    0  0.00000000000E+00 -0.00000000000E+00 -0.50448122404E+03  0.50448122404E+03  0.00000000000E+00 0. -1.
         36    2    1    2    0    0  0.00000000000E+00  0.00000000000E+00 -0.46688621507E+03  0.54207623302E+03  0.27543402945E+03 0.  0.
         25    2    3    3    0    0  0.44054109853E+01 -0.52776220115E+02 -0.23153123564E+03  0.26818064999E+03  0.12453678531E+03 0.  0.
         25    2    3    3    0    0 -0.44054109853E+01  0.52776220115E+02 -0.23535497943E+03  0.27389558303E+03  0.12969998846E+03 0.  0.
          5    1    4    4  502    0 -0.49207016924E+02 -0.62952598838E+02 -0.12578638633E+03  0.14909280734E+03  0.47000000000E+01 0. -1.
         -5    1    4    4    0  502  0.53612427910E+02  0.10176378723E+02 -0.10574484931E+03  0.11908784265E+03  0.47000000000E+01 0. -1.
          5    1    5    5  503    0 -0.57823074757E+02  0.62759341565E+02 -0.14828573485E+03  0.17115195613E+03  0.47000000000E+01 0.  1.
         -5    1    5    5    0  503  0.53417663772E+02 -0.99831214506E+01 -0.87069244574E+02  0.10274362689E+03  0.47000000000E+01 0.  1.
<mgrwt>
<rscale>  0 0.27543403E+03</rscale>
<asrwt>0</asrwt>
<pdfrwt beam="1">  1        1 0.77612499E-01 0.27543403E+03</pdfrwt>
<pdfrwt beam="2">  1       -1 0.57838473E-02 0.27543403E+03</pdfrwt>
<totfact> 0.62732968E+03</totfact>
</mgrwt>
</event>
<event>
 9    1  0.2095749E-002  0.2748586E+03  0.7818608E-02  0.1098531E+00
          2   -1    0    0  501    0  0.00000000000E+00  0.00000000000E+00  0.10494103836E+03  0.10494103836E+03  0.00000000000E+00 0.  1.
         -2   -1    0    0    0  501 -0.00000000000E+00 -0.00000000000E+00 -0.17997551634E+03  0.17997551634E+03  0.00000000000E+00 0.  1.
         36    2    1    2    0    0 -0.71054273576E-14 -0.35527136788E-14 -0.75034477980E+02  0.28491655471E+03  0.27485863687E+03 0.  0.
         25    2    3    3    0    0  0.34861408134E+02  0.23263562404E+02 -0.86418868117E+00  0.13251598229E+03  0.12571088906E+03 0.  0.
         25    2    3    3    0    0 -0.34861408134E+02 -0.23263562404E+02 -0.74170289299E+02  0.15240057242E+03  0.12636530990E+03 0.  0.
          5    1    4    4  502    0  0.75230498498E+02 -0.42660692308E+01  0.21607300834E+02  0.78528929066E+02  0.47000000000E+01 0.  1.
         -5    1    4    4    0  502 -0.40369090364E+02  0.27529631635E+02 -0.22471489515E+02  0.53987053224E+02  0.47000000000E+01 0.  1.
          5    1    5    5  503    0 -0.68154905371E+02  0.16876671449E+01 -0.85085552046E+02  0.10913102452E+03  0.47000000000E+01 0.  1.
         -5    1    5    5    0  503  0.33293497236E+02 -0.24951229549E+02  0.10915262747E+02  0.43269547895E+02  0.47000000000E+01 0.  1.
<mgrwt>
<rscale>  0 0.27485864E+03</rscale>
<asrwt>0</asrwt>
<pdfrwt beam="1">  1        2 0.16144775E-01 0.27485864E+03</pdfrwt>
<pdfrwt beam="2">  1       -2 0.27688541E-01 0.27485864E+03</pdfrwt>
<totfact> 0.41995546E+03</totfact>
</mgrwt>
</event>
<event>
 9    1  0.2095749E-002  0.2750638E+03  0.7818608E-02  0.1098416E+00
         -3   -1    0    0    0  501 -0.00000000000E+00  0.00000000000E+00  0.12186077547E+03  0.12186077547E+03  0.00000000000E+00 0. -1.
          3   -1    0    0  501    0  0.00000000000E+00 -0.00000000000E+00 -0.15521829254E+03  0.15521829254E+03  0.00000000000E+00 0. -1.
         36    2    1    2    0    0  0.00000000000E+00 -0.71054273576E-14 -0.33357517069E+02  0.27707906801E+03  0.27506378530E+03 0.  0.
         25    2    3    3    0    0 -0.19805487255E+02  0.46828401005E+02  0.19009876677E+01  0.13716668335E+03  0.12738103784E+03 0.  0.
         25    2    3    3    0    0  0.19805487255E+02 -0.46828401005E+02 -0.35258504737E+02  0.13991238466E+03  0.12548767572E+03 0.  0.
          5    1    4    4  502    0 -0.37589007070E+02 -0.35184329669E+02  0.10236029847E+02  0.52704239050E+02  0.47000000000E+01 0.  1.
         -5    1    4    4    0  502  0.17783519815E+02  0.82012730674E+02 -0.83350421795E+01  0.84462444304E+02  0.47000000000E+01 0.  1.
          5    1    5    5  503    0 -0.12119288963E+02 -0.28804658361E+01  0.42729380710E+02  0.44755605507E+02  0.47000000000E+01 0. -1.
         -5    1    5    5    0  503  0.31924776219E+02 -0.43947935169E+02 -0.77987885447E+02  0.95156779153E+02  0.47000000000E+01 0. -1.
<mgrwt>
<rscale>  0 0.27506379E+03</rscale>
<asrwt>0</asrwt>
<pdfrwt beam="1">  1        3 0.23879737E-01 0.27506379E+03</pdfrwt>
<pdfrwt beam="2">  1       -3 0.18747812E-01 0.27506379E+03</pdfrwt>
<totfact> 0.10450220E+03</totfact>
</mgrwt>
</event>
<event>
 9    1  0.2095749E-002  0.2739721E+03  0.7818608E-02  0.1099028E+00
         -1   -1    0    0    0  501 -0.00000000000E+00  0.00000000000E+00  0.23992249221E+02  0.23992249221E+02  0.00000000000E+00 0. -1.
          1   -1    0    0  501    0  0.00000000000E+00 -0.00000000000E+00 -0.78213528652E+03  0.78213528652E+03  0.00000000000E+00 0. -1.
         36    2    1    2    0    0  0.00000000000E+00  0.00000000000E+00 -0.75814303730E+03  0.80612753574E+03  0.27397214982E+03 0.  0.
         25    2    3    3    0    0 -0.22098654282E+02  0.54929589281E+02 -0.37923098754E+03  0.40380018260E+03  0.12543059939E+03 0.  0.
         25    2    3    3    0    0  0.22098654282E+02 -0.54929589281E+02 -0.37891204976E+03  0.40232735314E+03  0.12160323733E+03 0.  0.
          5    1    4    4  502    0  0.53082793606E+01  0.43576851720E+02 -0.30226383741E+02  0.53505552138E+02  0.47000000000E+01 0. -1.
         -5    1    4    4    0  502 -0.27406933643E+02  0.11352737561E+02 -0.34900460380E+03  0.35029463046E+03  0.47000000000E+01 0. -1.
          5    1    5    5  503    0 -0.27913500535E+02 -0.75733576193E+02 -0.23074180015E+03  0.24449663885E+03  0.47000000000E+01 0.  1.
         -5    1    5    5    0  503  0.50012154817E+02  0.20803986912E+02 -0.14817024962E+03  0.15783071429E+03  0.47000000000E+01 0.  1.
<mgrwt>
<rscale>  0 0.27397215E+03</rscale>
<asrwt>0</asrwt>
<pdfrwt beam="1">  1        1 0.12032850E+00 0.27397215E+03</pdfrwt>
<pdfrwt beam="2">  1       -1 0.36911154E-02 0.27397215E+03</pdfrwt>
<totfact> 0.66004167E+03</totfact>
</mgrwt>
</event>
<event>
 9    1  0.2095749E-002  0.2737904E+03  0.7818608E-02  0.1099130E+00
         -2   -1    0    0    0  501 -0.00000000000E+00  0.00000000000E+00  0.87564026231E+02  0.87564026231E+02  0.00000000000E+00 0. -1.
          2   -1    0    0  501    0  0.00000000000E+00 -0.00000000000E+00 -0.21401828029E+03  0.21401828029E+03  0.00000000000E+00 0. -1.
         36    2    1    2    0    0  0.00000000000E+00  0.71054273576E-14 -0.12645425406E+03  0.30158230652E+03  0.27379044768E+03 0.  0.
         25    2    3    3    0    0 -0.16892265390E+02  0.52571645599E+02 -0.39937244272E+02  0.15048498288E+03  0.13417011606E+03 0.  0.
         25    2    3    3    0    0  0.16892265390E+02 -0.52571645599E+02 -0.86517009790E+02  0.15109732364E+03  0.11088769850E+03 0.  0.
          5    1    4    4  502    0  0.40210616848E+02 -0.12354443973E+02  0.18317495323E+02  0.46120999860E+02  0.47000000000E+01 0.  1.
         -5    1    4    4    0  502 -0.57102882238E+02  0.64926089572E+02 -0.58254739595E+02  0.10436398302E+03  0.47000000000E+01 0.  1.
          5    1    5    5  503    0  0.30495451610E+00 -0.43961199766E+02 -0.11126718171E+03  0.11972951101E+03  0.47000000000E+01 0. -1.
         -5    1    5    5    0  503  0.16587310874E+02 -0.86104458322E+01  0.24750171915E+02  0.31367812632E+02  0.47000000000E+01 0. -1.
<mgrwt>
<rscale>  0 0.27379045E+03</rscale>
<asrwt>0</asrwt>
<pdfrwt beam="1">  1        2 0.32925889E-01 0.27379045E+03</pdfrwt>
<pdfrwt beam="2">  1       -2 0.13471389E-01 0.27379045E+03</pdfrwt>
<totfact> 0.64205815E+03</totfact>
</mgrwt>
</event>
<event>
 9    1  0.2095749E-002  0.2748800E+03  0.7818608E-02  0.1098519E+00
          2   -1    0    0  501    0  0.00000000000E+00  0.00000000000E+00  0.65476856494E+03  0.65476856494E+03  0.00000000000E+00 0.  1.
         -2   -1    0    0    0  501 -0.00000000000E+00 -0.00000000000E+00 -0.28849512857E+02  0.28849512857E+02  0.00000000000E+00 0.  1.
         36    2    1    2    0    0  0.35527136788E-14  0.00000000000E+00  0.62591905209E+03  0.68361807780E+03  0.27488000388E+03 0.  0.
         25    2    3    3    0    0 -0.26090268092E+02 -0.53364297361E+02  0.34676173566E+03  0.37332954806E+03  0.12491116768E+03 0.  0.
         25    2    3    3    0    0  0.26090268092E+02  0.53364297361E+02  0.27915731642E+03  0.31028852974E+03  0.12174446211E+03 0.  0.
          5    1    4    4  502    0  0.38735731864E+02  0.10653006668E+02  0.16592815922E+03  0.17078696524E+03  0.47000000000E+01 0.  1.
         -5    1    4    4    0  502 -0.64825999956E+02 -0.64017304029E+02  0.18083357644E+03  0.20254258282E+03  0.47000000000E+01 0.  1.
          5    1    5    5  503    0  0.20052099499E+02  0.21516156214E+02  0.57795182395E+00  0.29790194710E+02  0.47000000000E+01 0. -1.
         -5    1    5    5    0  503  0.60381685929E+01  0.31848141147E+02  0.27857936460E+03  0.28049833503E+03  0.47000000000E+01 0. -1.
<mgrwt>
<rscale>  0 0.27488000E+03</rscale>
<asrwt>0</asrwt>
<pdfrwt beam="1">  1        2 0.10073361E+00 0.27488000E+03</pdfrwt>
<pdfrwt beam="2">  1       -2 0.44383871E-02 0.27488000E+03</pdfrwt>
<totfact> 0.10631678E+04</totfact>
</mgrwt>
</event>
<event>
 9    1  0.2095749E-002  0.2748220E+03  0.7818608E-02  0.1098551E+00
          2   -1    0    0  501    0  0.00000000000E+00  0.00000000000E+00  0.16226002632E+03  0.16226002632E+03  0.00000000000E+00 0. -1.
         -2   -1    0    0    0  501 -0.00000000000E+00 -0.00000000000E+00 -0.11636742300E+03  0.11636742300E+03  0.00000000000E+00 0. -1.
         36    2    1    2    0    0  0.00000000000E+00  0.14210854715E-13  0.45892603314E+02  0.27862744932E+03  0.27482198689E+03 0.  0.
         25    2    3    3    0    0 -0.29516121258E+02  0.49343867683E+02  0.40417826067E+02  0.14146139531E+03  0.12276688074E+03 0.  0.
         25    2    3    3    0    0  0.29516121258E+02 -0.49343867683E+02  0.54747772472E+01  0.13716605402E+03  0.12441275858E+03 0.  0.
          5    1    4    4  502    0 -0.13064420797E+02  0.74137418800E+02  0.67300353801E+02  0.10108641639E+03  0.47000000000E+01 0. -1.
         -5    1    4    4    0  502 -0.16451700461E+02 -0.24793551117E+02 -0.26882527734E+02  0.40374978915E+02  0.47000000000E+01 0. -1.
          5    1    5    5  503    0 -0.24171831905E+01 -0.81384150001E+02  0.28240434483E+02  0.86306632339E+02  0.47000000000E+01 0.  1.
         -5    1    5    5    0  503  0.31933304449E+02  0.32040282318E+02 -0.22765657235E+02  0.50859421678E+02  0.47000000000E+01 0.  1.
<mgrwt>
<rscale>  0 0.27482199E+03</rscale>
<asrwt>0</asrwt>
<pdfrwt beam="1">  1        2 0.24963081E-01 0.27482199E+03</pdfrwt>
<pdfrwt beam="2">  1       -2 0.17902681E-01 0.27482199E+03</pdfrwt>
<totfact> 0.54366902E+03</totfact>
</mgrwt>
</event>
<event>
 9    1  0.2095749E-002  0.2748529E+03  0.7818608E-02  0.1098534E+00
         -1   -1    0    0    0  501 -0.00000000000E+00  0.00000000000E+00  0.18385437530E+02  0.18385437530E+02  0.00000000000E+00 0.  1.
          1   -1    0    0  501    0  0.00000000000E+00 -0.00000000000E+00 -0.10272279629E+04  0.10272279629E+04  0.00000000000E+00 0.  1.
         36    2    1    2    0    0 -0.35527136788E-14  0.00000000000E+00 -0.10088425254E+04  0.10456134005E+04  0.27485294644E+03 0.  0.
         25    2    3    3    0    0 -0.14465477798E+02 -0.30096126382E+02 -0.68912819070E+03  0.70124921403E+03  0.12545026937E+03 0.  0.
         25    2    3    3    0    0  0.14465477798E+02  0.30096126382E+02 -0.31971433470E+03  0.34436418643E+03  0.12350874549E+03 0.  0.
          5    1    4    4  502    0  0.22833746398E+02  0.11694815366E+02 -0.30098716935E+02  0.39826767910E+02  0.47000000000E+01 0.  1.
         -5    1    4    4    0  502 -0.37299224195E+02 -0.41790941748E+02 -0.65902947376E+03  0.66142244612E+03  0.47000000000E+01 0.  1.
          5    1    5    5  503    0 -0.38068670461E+02  0.38269805304E+02 -0.25395231067E+03  0.25966838036E+03  0.47000000000E+01 0.  1.
         -5    1    5    5    0  503  0.52534148259E+02 -0.81736789224E+01 -0.65762024035E+02  0.84695806068E+02  0.47000000000E+01 0.  1.
<mgrwt>
<rscale>  0 0.27485295E+03</rscale>
<asrwt>0</asrwt>
<pdfrwt beam="1">  1        1 0.15803512E+00 0.27485295E+03</pdfrwt>
<pdfrwt beam="2">  1       -1 0.28285280E-02 0.27485295E+03</pdfrwt>
<totfact> 0.62753491E+03</totfact>
</mgrwt>
</event>
<event>
 9    1  0.2095749E-002  0.2745809E+03  0.7818608E-02  0.1098686E+00
         -2   -1    0    0    0  501 -0.00000000000E+00  0.00000000000E+00  0.40165296831E+02  0.40165296831E+02  0.00000000000E+00 0.  1.
          2   -1    0    0  501    0  0.00000000000E+00 -0.00000000000E+00 -0.46927750522E+03  0.46927750522E+03  0.00000000000E+00 0.  1.
         36    2    1    2    0    0  0.00000000000E+00  0.00000000000E+00 -0.42911220839E+03  0.50944280205E+03  0.27458091917E+03 0.  0.
         25    2    3    3    0    0  0.19786119036E+02  0.45697000359E+02 -0.16012661770E+03  0.20911684543E+03  0.12493844484E+03 0.  0.
         25    2    3    3    0    0 -0.19786119036E+02 -0.45697000359E+02 -0.26898559069E+03  0.30032595662E+03  0.12394646373E+03 0.  0.
          5    1    4    4  502    0 -0.13233801192E+01  0.46369861975E+02  0.90807627609E+00  0.46635073036E+02  0.47000000000E+01 0.  1.
         -5    1    4    4    0  502  0.21109499155E+02 -0.67286161588E+00 -0.16103469397E+03  0.16248177239E+03  0.47000000000E+01 0.  1.
          5    1    5    5  503    0 -0.14201704780E+02 -0.71153058681E+02 -0.26341387197E+03  0.27326434844E+03  0.47000000000E+01 0. -1.
         -5    1    5    5    0  503 -0.55844142558E+01  0.25456058322E+02 -0.55717187144E+01  0.27061608180E+02  0.47000000000E+01 0. -1.
<mgrwt>
<rscale>  0 0.27458092E+03</rscale>
<asrwt>0</asrwt>
<pdfrwt beam="1">  1        2 0.72196538E-01 0.27458092E+03</pdfrwt>
<pdfrwt beam="2">  1       -2 0.61792766E-02 0.27458092E+03</pdfrwt>
<totfact> 0.93979704E+03</totfact>
</mgrwt>
</event>
<event>
 9    1  0.2095749E-002  0.2750576E+03  0.7818608E-02  0.1098419E+00
         -2   -1    0    0    0  501 -0.00000000000E+00  0.00000000000E+00  0.19758963251E+02  0.19758963251E+02  0.00000000000E+00 0.  1.
          2   -1    0    0  501    0  0.00000000000E+00 -0.00000000000E+00 -0.95724533516E+03  0.95724533516E+03  0.00000000000E+00 0.  1.
         36    2    1    2    0    0  0.35527136788E-14 -0.71054273576E-14 -0.93748637191E+03  0.97700429841E+03  0.27505763323E+03 0.  0.
         25    2    3    3    0    0  0.82649760406E+01  0.58504701330E+02 -0.46397023147E+03  0.48442925239E+03  0.12614362835E+03 0.  0.
         25    2    3    3    0    0 -0.82649760406E+01 -0.58504701330E+02 -0.47351614044E+03  0.49257504602E+03  0.12215371791E+03 0.  0.
          5    1    4    4  502    0 -0.34752648357E+02 -0.26467292201E+02 -0.14473047154E+03  0.15125231739E+03  0.47000000000E+01 0. -1.
         -5    1    4    4    0  502  0.43017624398E+02  0.84971993531E+02 -0.31923975993E+03  0.33317693500E+03  0.47000000000E+01 0. -1.
          5    1    5    5  503    0 -0.11815152457E+02 -0.89314194891E+02 -0.42729889190E+03  0.43671850918E+03  0.47000000000E+01 0. -1.
         -5    1    5    5    0  503  0.35501764164E+01  0.30809493560E+02 -0.46217248537E+02  0.55856536845E+02  0.47000000000E+01 0. -1.
<mgrwt>
<rscale>  0 0.27505763E+03</rscale>
<asrwt>0</asrwt>
<pdfrwt beam="1">  1        2 0.14726852E+00 0.27505763E+03</pdfrwt>
<pdfrwt beam="2">  1       -2 0.30398405E-02 0.27505763E+03</pdfrwt>
<totfact> 0.11563569E+04</totfact>
</mgrwt>
</event>
<event>
 9    1  0.2095749E-002  0.2745408E+03  0.7818608E-02  0.1098709E+00
         -2   -1    0    0    0  501 -0.00000000000E+00  0.00000000000E+00  0.74846612303E+01  0.74846612303E+01  0.00000000000E+00 0. -1.
          2   -1    0    0  501    0  0.00000000000E+00 -0.00000000000E+00 -0.25175699971E+04  0.25175699971E+04  0.00000000000E+00 0. -1.
         36    2    1    2    0    0  0.71054273576E-14  0.00000000000E+00 -0.25100853358E+04  0.25250546583E+04  0.27454076966E+03 0.  0.
         25    2    3    3    0    0  0.27926136060E+02  0.72489478005E+02 -0.14849103077E+04  0.14913689700E+04  0.11483984238E+03 0.  0.
         25    2    3    3    0    0 -0.27926136060E+02 -0.72489478005E+02 -0.10251750282E+04  0.10336856883E+04  0.10718054996E+03 0.  0.
          5    1    4    4  502    0  0.37661034792E+02 -0.22727302404E-01 -0.10206719537E+04  0.10213773451E+04  0.47000000000E+01 0. -1.
         -5    1    4    4    0  502 -0.97348987320E+01  0.72512205307E+02 -0.46423835400E+03  0.46999162492E+03  0.47000000000E+01 0. -1.
          5    1    5    5  503    0  0.39560048397E+02 -0.31978577910E+02 -0.50351641300E+03  0.50610126955E+03  0.47000000000E+01 0. -1.
         -5    1    5    5    0  503 -0.67486184458E+02 -0.40510900094E+02 -0.52165861519E+03  0.52758441876E+03  0.47000000000E+01 0. -1.
<mgrwt>
<rscale>  0 0.27454077E+03</rscale>
<asrwt>0</asrwt>
<pdfrwt beam="1">  1        2 0.38731895E+00 0.27454077E+03</pdfrwt>
<pdfrwt beam="2">  1       -2 0.11514849E-02 0.27454077E+03</pdfrwt>
<totfact> 0.68107448E+03</totfact>
</mgrwt>
</event>
<event>
 9    1  0.2095749E-002  0.2749402E+03  0.7818608E-02  0.1098485E+00
         -2   -1    0    0    0  501 -0.00000000000E+00  0.00000000000E+00  0.20146199861E+02  0.20146199861E+02  0.00000000000E+00 0. -1.
          2   -1    0    0  501    0  0.00000000000E+00 -0.00000000000E+00 -0.93804448790E+03  0.93804448790E+03  0.00000000000E+00 0. -1.
         36    2    1    2    0    0  0.00000000000E+00  0.00000000000E+00 -0.91789828804E+03  0.95819068776E+03  0.27494022428E+03 0.  0.
         25    2    3    3    0    0  0.36193051354E+02  0.60767892236E+02 -0.52086750159E+03  0.53598343066E+03  0.10475022688E+03 0.  0.
         25    2    3    3    0    0 -0.36193051354E+02 -0.60767892236E+02 -0.39703078645E+03  0.42220725710E+03  0.12499139518E+03 0.  0.
          5    1    4    4  502    0 -0.11479543241E+02  0.40762497899E+02 -0.42352829845E+03  0.42566614939E+03  0.47000000000E+01 0. -1.
         -5    1    4    4    0  502  0.47672594596E+02  0.20005394337E+02 -0.97339203139E+02  0.11031728127E+03  0.47000000000E+01 0. -1.
          5    1    5    5  503    0 -0.60738065974E+02 -0.31980177066E+02 -0.92412711418E+02  0.11521303579E+03  0.47000000000E+01 0. -1.
         -5    1    5    5    0  503  0.24545014619E+02 -0.28787715170E+02 -0.30461807503E+03  0.30699422132E+03  0.47000000000E+01 0. -1.
<mgrwt>
<rscale>  0 0.27494022E+03</rscale>
<asrwt>0</asrwt>
<pdfrwt beam="1">  1        2 0.14431457E+00 0.27494022E+03</pdfrwt>
<pdfrwt beam="2">  1       -2 0.30994147E-02 0.27494022E+03</pdfrwt>
<totfact> 0.11550644E+04</totfact>
</mgrwt>
</event>
<event>
 9    1  0.2095749E-002  0.2684726E+03  0.7818608E-02  0.1102157E+00
         -2   -1    0    0    0  501 -0.00000000000E+00  0.00000000000E+00  0.39898633675E+03  0.39898633675E+03  0.00000000000E+00 0. -1.
          2   -1    0    0  501    0  0.00000000000E+00 -0.00000000000E+00 -0.45162905852E+02  0.45162905852E+02  0.00000000000E+00 0. -1.
         36    2    1    2    0    0  0.35527136788E-14 -0.71054273576E-14  0.35382343090E+03  0.44414924261E+03  0.26847258604E+03 0.  0.
         25    2    3    3    0    0  0.11896141801E+02  0.27290031776E+02  0.11497873163E+03  0.17194730733E+03  0.12433625274E+03 0.  0.
         25    2    3    3    0    0 -0.11896141801E+02 -0.27290031776E+02  0.23884469927E+03  0.27220193528E+03  0.12712528929E+03 0.  0.
          5    1    4    4  502    0 -0.13695832620E+02 -0.46253847965E+02  0.32125594799E+02  0.58147554755E+02  0.47000000000E+01 0. -1.
         -5    1    4    4    0  502  0.25591974421E+02  0.73543879741E+02  0.82853136836E+02  0.11379975257E+03  0.47000000000E+01 0. -1.
          5    1    5    5  503    0 -0.53104091996E+02  0.25547065570E+02  0.77813293696E+02  0.97722545105E+02  0.47000000000E+01 0.  1.
         -5    1    5    5    0  503  0.41207950195E+02 -0.52837097346E+02  0.16103140557E+03  0.17447939017E+03  0.47000000000E+01 0.  1.
<mgrwt>
<rscale>  0 0.26847259E+03</rscale>
<asrwt>0</asrwt>
<pdfrwt beam="1">  1        2 0.69481396E-02 0.26847259E+03</pdfrwt>
<pdfrwt beam="2">  1       -2 0.61382511E-01 0.26847259E+03</pdfrwt>
<totfact> 0.25615878E+03</totfact>
</mgrwt>
</event>
<event>
 9    1  0.2095749E-002  0.2699030E+03  0.7818608E-02  0.1101335E+00
          2   -1    0    0  501    0  0.00000000000E+00  0.00000000000E+00  0.25426260276E+03  0.25426260276E+03  0.00000000000E+00 0. -1.
         -2   -1    0    0    0  501 -0.00000000000E+00 -0.00000000000E+00 -0.71626348798E+02  0.71626348798E+02  0.00000000000E+00 0. -1.
         36    2    1    2    0    0  0.00000000000E+00  0.00000000000E+00  0.18263625396E+03  0.32588895156E+03  0.26990295939E+03 0.  0.
         25    2    3    3    0    0 -0.87160865917E+01  0.24777107634E+02  0.14426835892E+03  0.19107580249E+03  0.12250194971E+03 0.  0.
         25    2    3    3    0    0  0.87160865917E+01 -0.24777107634E+02  0.38367895038E+02  0.13481314907E+03  0.12654096002E+03 0.  0.
          5    1    4    4  502    0  0.99067097490E+01  0.58330902083E+02  0.14014423253E+03  0.15219439197E+03  0.47000000000E+01 0. -1.
         -5    1    4    4    0  502 -0.18622796341E+02 -0.33553794449E+02  0.41241263919E+01  0.38881410519E+02  0.47000000000E+01 0. -1.
          5    1    5    5  503    0 -0.70493877145E+01 -0.68271689902E+01  0.83139807445E+02  0.83848802529E+02  0.47000000000E+01 0. -1.
         -5    1    5    5    0  503  0.15765474306E+02 -0.17949938643E+02 -0.44771912407E+02  0.50964346538E+02  0.47000000000E+01 0. -1.
<mgrwt>
<rscale>  0 0.26990296E+03</rscale>
<asrwt>0</asrwt>
<pdfrwt beam="1">  1        2 0.39117323E-01 0.26990296E+03</pdfrwt>
<pdfrwt beam="2">  1       -2 0.11019438E-01 0.26990296E+03</pdfrwt>
<totfact> 0.73669568E+03</totfact>
</mgrwt>
</event>
<event>
 9    1  0.2095749E-002  0.2752303E+03  0.7818608E-02  0.1098323E+00
          2   -1    0    0  501    0  0.00000000000E+00  0.00000000000E+00  0.80670459296E+02  0.80670459296E+02  0.00000000000E+00 0.  1.
         -2   -1    0    0    0  501 -0.00000000000E+00 -0.00000000000E+00 -0.23475667980E+03  0.23475667980E+03  0.00000000000E+00 0.  1.
         36    2    1    2    0    0  0.71054273576E-14  0.00000000000E+00 -0.15408622050E+03  0.31542713910E+03  0.27523029762E+03 0.  0.
         25    2    3    3    0    0  0.52998418042E+02  0.20484752652E+02 -0.45558066496E+02  0.14060933949E+03  0.12027880745E+03 0.  0.
         25    2    3    3    0    0 -0.52998418042E+02 -0.20484752652E+02 -0.10852815401E+03  0.17481779961E+03  0.12471746246E+03 0.  0.
          5    1    4    4  502    0  0.33822381083E+02  0.48907614206E+00  0.38803168718E+02  0.51691087821E+02  0.47000000000E+01 0.  1.
         -5    1    4    4    0  502  0.19176036959E+02  0.19995676510E+02 -0.84361235214E+02  0.88918251666E+02  0.47000000000E+01 0.  1.
          5    1    5    5  503    0 -0.91267127324E+02 -0.25827445881E+01 -0.55877134139E+02  0.10714804347E+03  0.47000000000E+01 0. -1.
         -5    1    5    5    0  503  0.38268709282E+02 -0.17902008064E+02 -0.52651019869E+02  0.67669756141E+02  0.47000000000E+01 0. -1.
<mgrwt>
<rscale>  0 0.27523030E+03</rscale>
<asrwt>0</asrwt>
<pdfrwt beam="1">  1        2 0.12410840E-01 0.27523030E+03</pdfrwt>
<pdfrwt beam="2">  1       -2 0.36116412E-01 0.27523030E+03</pdfrwt>
<totfact> 0.35325158E+03</totfact>
</mgrwt>
</event>
<event>
 9    1  0.2095749E-002  0.2738564E+03  0.7818608E-02  0.1099093E+00
         -1   -1    0    0    0  501 -0.00000000000E+00  0.00000000000E+00  0.20998835624E+02  0.20998835624E+02  0.00000000000E+00 0.  1.
          1   -1    0    0  501    0  0.00000000000E+00 -0.00000000000E+00 -0.89287487426E+03  0.89287487426E+03  0.00000000000E+00 0.  1.
         36    2    1    2    0    0 -0.71054273576E-14  0.00000000000E+00 -0.87187603864E+03  0.91387370989E+03  0.27385640557E+03 0.  0.
         25    2    3    3    0    0  0.27833103634E+01  0.45650831902E+02 -0.33208285365E+03  0.35790149184E+03  0.12539023447E+03 0.  0.
         25    2    3    3    0    0 -0.27833103634E+01 -0.45650831902E+02 -0.53979318499E+03  0.55597221805E+03  0.12504670892E+03 0.  0.
          5    1    4    4  502    0  0.52840959926E+02  0.60951498558E+02 -0.20831985856E+03  0.22344239905E+03  0.47000000000E+01 0. -1.
         -5    1    4    4    0  502 -0.50057649563E+02 -0.15300666656E+02 -0.12376299509E+03  0.13445909279E+03  0.47000000000E+01 0. -1.
          5    1    5    5  503    0  0.34169176736E+02 -0.20689100815E+02 -0.47765004843E+03  0.47934041171E+03  0.47000000000E+01 0. -1.
         -5    1    5    5    0  503 -0.36952487100E+02 -0.24961731087E+02 -0.62143136559E+02  0.76631806341E+02  0.47000000000E+01 0. -1.
<mgrwt>
<rscale>  0 0.27385641E+03</rscale>
<asrwt>0</asrwt>
<pdfrwt beam="1">  1        1 0.13736537E+00 0.27385641E+03</pdfrwt>
<pdfrwt beam="2">  1       -1 0.32305901E-02 0.27385641E+03</pdfrwt>
<totfact> 0.65300418E+03</totfact>
</mgrwt>
</event>
<event>
 9    1  0.2095749E-002  0.2687128E+03  0.7818608E-02  0.1102019E+00
          2   -1    0    0  501    0  0.00000000000E+00  0.00000000000E+00  0.80152078125E+03  0.80152078125E+03  0.00000000000E+00 0.  1.
         -2   -1    0    0    0  501 -0.00000000000E+00 -0.00000000000E+00 -0.22521745255E+02  0.22521745255E+02  0.00000000000E+00 0.  1.
         36    2    1    2    0    0  0.17763568394E-14  0.00000000000E+00  0.77899903600E+03  0.82404252651E+03  0.26871283447E+03 0.  0.
         25    2    3    3    0    0  0.14747266750E+02 -0.24390282468E+02  0.25712799061E+03  0.28737184388E+03  0.12512156227E+03 0.  0.
         25    2    3    3    0    0 -0.14747266750E+02  0.24390282468E+02  0.52187104539E+03  0.53667068263E+03  0.12187561619E+03 0.  0.
          5    1    4    4  502    0  0.29544514364E+02  0.44578856258E+02  0.77005404152E+02  0.93872653221E+02  0.47000000000E+01 0.  1.
         -5    1    4    4    0  502 -0.14797247614E+02 -0.68969138726E+02  0.18012258645E+03  0.19349919066E+03  0.47000000000E+01 0.  1.
          5    1    5    5  503    0 -0.53707640756E+01 -0.47676098634E+02  0.14427108250E+03  0.15211209924E+03  0.47000000000E+01 0. -1.
         -5    1    5    5    0  503 -0.93765026746E+01  0.72066381103E+02  0.37759996289E+03  0.38455858339E+03  0.47000000000E+01 0. -1.
<mgrwt>
<rscale>  0 0.26871283E+03</rscale>
<asrwt>0</asrwt>
<pdfrwt beam="1">  1        2 0.12331087E+00 0.26871283E+03</pdfrwt>
<pdfrwt beam="2">  1       -2 0.34648845E-02 0.26871283E+03</pdfrwt>
<totfact> 0.12021767E+04</totfact>
</mgrwt>
</event>
<event>
 9    1  0.2095749E-002  0.2747966E+03  0.7818608E-02  0.1098565E+00
          2   -1    0    0  501    0  0.00000000000E+00  0.00000000000E+00  0.29322740436E+03  0.29322740436E+03  0.00000000000E+00 0. -1.
         -2   -1    0    0    0  501 -0.00000000000E+00 -0.00000000000E+00 -0.64381055739E+02  0.64381055739E+02  0.00000000000E+00 0. -1.
         36    2    1    2    0    0  0.71054273576E-14  0.00000000000E+00  0.22884634862E+03  0.35760846010E+03  0.27479657832E+03 0.  0.
         25    2    3    3    0    0 -0.11725897556E+01 -0.44153286887E+02  0.15368602707E+03  0.20522990293E+03  0.12864303491E+03 0.  0.
         25    2    3    3    0    0  0.11725897556E+01  0.44153286887E+02  0.75160321550E+02  0.15237855717E+03  0.12497705005E+03 0.  0.
          5    1    4    4  502    0 -0.54902775140E+02 -0.58111603731E+02  0.96311735776E+02  0.12525699044E+03  0.47000000000E+01 0. -1.
         -5    1    4    4    0  502  0.53730185384E+02  0.13958316845E+02  0.57374291297E+02  0.79972912491E+02  0.47000000000E+01 0. -1.
          5    1    5    5  503    0 -0.29325384690E+02 -0.50715600738E+01  0.87883128045E+02  0.92904429947E+02  0.47000000000E+01 0. -1.
         -5    1    5    5    0  503  0.30497974445E+02  0.49224846961E+02 -0.12722806496E+02  0.59474127221E+02  0.47000000000E+01 0. -1.
<mgrwt>
<rscale>  0 0.27479658E+03</rscale>
<asrwt>0</asrwt>
<pdfrwt beam="1">  1        2 0.45111908E-01 0.27479658E+03</pdfrwt>
<pdfrwt beam="2">  1       -2 0.99047780E-02 0.27479658E+03</pdfrwt>
<totfact> 0.74957092E+03</totfact>
</mgrwt>
</event>
<event>
 9    1  0.2095749E-002  0.2752223E+03  0.7818608E-02  0.1098327E+00
         -3   -1    0    0    0  501 -0.00000000000E+00  0.00000000000E+00  0.61467418661E+03  0.61467418661E+03  0.00000000000E+00 0.  1.
          3   -1    0    0  501    0  0.00000000000E+00 -0.00000000000E+00 -0.30807906548E+02  0.30807906548E+02  0.00000000000E+00 0.  1.
         36    2    1    2    0    0 -0.71054273576E-14 -0.35527136788E-14  0.58386628006E+03  0.64548209316E+03  0.27522227307E+03 0.  0.
         25    2    3    3    0    0 -0.18843678380E+02  0.13677984675E+02  0.17525249198E+03  0.21834722050E+03  0.12814016261E+03 0.  0.
         25    2    3    3    0    0  0.18843678380E+02 -0.13677984675E+02  0.40861378808E+03  0.42713487266E+03  0.12221620249E+03 0.  0.
          5    1    4    4  502    0 -0.27767254578E+02 -0.30288988414E+02  0.16755789758E+03  0.17258673845E+03  0.47000000000E+01 0.  1.
         -5    1    4    4    0  502  0.89235761984E+01  0.43966973088E+02  0.76945943996E+01  0.45760482053E+02  0.47000000000E+01 0.  1.
          5    1    5    5  503    0  0.65783184693E+02  0.78069277468E+01  0.29300175761E+03  0.30043384542E+03  0.47000000000E+01 0.  1.
         -5    1    5    5    0  503 -0.46939506313E+02 -0.21484912421E+02  0.11561203047E+03  0.12670102724E+03  0.47000000000E+01 0.  1.
<mgrwt>
<rscale>  0 0.27522227E+03</rscale>
<asrwt>0</asrwt>
<pdfrwt beam="1">  1        3 0.47396784E-02 0.27522227E+03</pdfrwt>
<pdfrwt beam="2">  1       -3 0.94565250E-01 0.27522227E+03</pdfrwt>
<totfact> 0.64755193E+02</totfact>
</mgrwt>
</event>
<event>
 9    1  0.2095749E-002  0.2750306E+03  0.7818608E-02  0.1098434E+00
          2   -1    0    0  501    0  0.00000000000E+00  0.00000000000E+00  0.84340243049E+03  0.84340243049E+03  0.00000000000E+00 0.  1.
         -2   -1    0    0    0  501 -0.00000000000E+00 -0.00000000000E+00 -0.22421635160E+02  0.22421635160E+02  0.00000000000E+00 0.  1.
         36    2    1    2    0    0  0.17763568394E-14  0.14210854715E-13  0.82098079533E+03  0.86582406565E+03  0.27503062804E+03 0.  0.
         25    2    3    3    0    0 -0.11324773984E+01 -0.56326007121E+02  0.38376304837E+03  0.40704427235E+03  0.12343848985E+03 0.  0.
         25    2    3    3    0    0  0.11324773984E+01  0.56326007121E+02  0.43721774697E+03  0.45877979331E+03  0.12706549060E+03 0.  0.
          5    1    4    4  502    0  0.30409206599E+02  0.18215530341E+02  0.23424798499E+03  0.23696146071E+03  0.47000000000E+01 0.  1.
         -5    1    4    4    0  502 -0.31541683998E+02 -0.74541537462E+02  0.14951506337E+03  0.17008281163E+03  0.47000000000E+01 0.  1.
          5    1    5    5  503    0  0.59584500540E+01  0.51898951808E+02  0.44469937787E+03  0.44778190116E+03  0.47000000000E+01 0. -1.
         -5    1    5    5    0  503 -0.48259726556E+01  0.44270553126E+01 -0.74816309018E+01  0.10997892151E+02  0.47000000000E+01 0. -1.
<mgrwt>
<rscale>  0 0.27503063E+03</rscale>
<asrwt>0</asrwt>
<pdfrwt beam="1">  1        2 0.12975420E+00 0.27503063E+03</pdfrwt>
<pdfrwt beam="2">  1       -2 0.34494830E-02 0.27503063E+03</pdfrwt>
<totfact> 0.11343886E+04</totfact>
</mgrwt>
</event>
<event>
 9    1  0.2095749E-002  0.2681678E+03  0.7818608E-02  0.1102333E+00
         -2   -1    0    0    0  501 -0.00000000000E+00  0.00000000000E+00  0.15011880184E+03  0.15011880184E+03  0.00000000000E+00 0. -1.
          2   -1    0    0  501    0  0.00000000000E+00 -0.00000000000E+00 -0.11976172778E+03  0.11976172778E+03  0.00000000000E+00 0. -1.
         36    2    1    2    0    0  0.00000000000E+00  0.35527136788E-14  0.30357074059E+02  0.26988052961E+03  0.26816776152E+03 0.  0.
         25    2    3    3    0    0 -0.40050726577E+02  0.16728398418E+02  0.11943607090E+02  0.13397093401E+03  0.12618106592E+03 0.  0.
         25    2    3    3    0    0  0.40050726577E+02 -0.16728398418E+02  0.18413466968E+02  0.13590959560E+03  0.12746945672E+03 0.  0.
          5    1    4    4  502    0 -0.15526838354E+02 -0.46640232371E+02 -0.26205902666E+02  0.55903786271E+02  0.47000000000E+01 0. -1.
         -5    1    4    4    0  502 -0.24523888223E+02  0.63368630789E+02  0.38149509756E+02  0.78067147740E+02  0.47000000000E+01 0. -1.
          5    1    5    5  503    0  0.10120198227E+02  0.12309153705E+02 -0.51640747845E+02  0.54247493169E+02  0.47000000000E+01 0.  1.
         -5    1    5    5    0  503  0.29930528350E+02 -0.29037552122E+02  0.70054214814E+02  0.81662102432E+02  0.47000000000E+01 0.  1.
<mgrwt>
<rscale>  0 0.26816776E+03</rscale>
<asrwt>0</asrwt>
<pdfrwt beam="1">  1        2 0.18424881E-01 0.26816776E+03</pdfrwt>
<pdfrwt beam="2">  1       -2 0.23095200E-01 0.26816776E+03</pdfrwt>
<totfact> 0.49566755E+03</totfact>
</mgrwt>
</event>
<event>
 9    1  0.2095749E-002  0.2749352E+03  0.7818608E-02  0.1098488E+00
         -1   -1    0    0    0  501 -0.00000000000E+00  0.00000000000E+00  0.40835374528E+02  0.40835374528E+02  0.00000000000E+00 0.  1.
          1   -1    0    0  501    0  0.00000000000E+00 -0.00000000000E+00 -0.46276876860E+03  0.46276876860E+03  0.00000000000E+00 0.  1.
         36    2    1    2    0    0 -0.35527136788E-14  0.35527136788E-14 -0.42193339407E+03  0.50360414313E+03  0.27493516316E+03 0.  0.
         25    2    3    3    0    0 -0.26229445948E+02  0.18672789897E+02 -0.30173796105E+03  0.32749997080E+03  0.12318188510E+03 0.  0.
         25    2    3    3    0    0  0.26229445948E+02 -0.18672789897E+02 -0.12019543302E+03  0.17610417233E+03  0.12461573125E+03 0.  0.
          5    1    4    4  502    0 -0.10670905609E+02  0.24331525421E+02 -0.30800501739E+03  0.30918452758E+03  0.47000000000E+01 0.  1.
         -5    1    4    4    0  502 -0.15558540339E+02 -0.56587355243E+01  0.62670563411E+01  0.18315443221E+02  0.47000000000E+01 0.  1.
          5    1    5    5  503    0  0.50260611859E+02 -0.15111303495E+02  0.70469263388E+00  0.52697886005E+02  0.47000000000E+01 0. -1.
         -5    1    5    5    0  503 -0.24031165911E+02 -0.35614864024E+01 -0.12090012565E+03  0.12340628632E+03  0.47000000000E+01 0. -1.
<mgrwt>
<rscale>  0 0.27493516E+03</rscale>
<asrwt>0</asrwt>
<pdfrwt beam="1">  1        1 0.71195195E-01 0.27493516E+03</pdfrwt>
<pdfrwt beam="2">  1       -1 0.62823653E-02 0.27493516E+03</pdfrwt>
<totfact> 0.62055171E+03</totfact>
</mgrwt>
</event>
<event>
 9    1  0.2095749E-002  0.2744251E+03  0.7818608E-02  0.1098773E+00
          3   -1    0    0  501    0  0.00000000000E+00  0.00000000000E+00  0.19299052657E+02  0.19299052657E+02  0.00000000000E+00 0. -1.
         -3   -1    0    0    0  501 -0.00000000000E+00 -0.00000000000E+00 -0.97555458949E+03  0.97555458949E+03  0.00000000000E+00 0. -1.
         36    2    1    2    0    0 -0.71054273576E-14 -0.35527136788E-14 -0.95625553684E+03  0.99485364215E+03  0.27442506731E+03 0.  0.
         25    2    3    3    0    0 -0.54094677393E+02 -0.14369151242E+02 -0.47885397798E+03  0.49836146160E+03  0.12621532215E+03 0.  0.
         25    2    3    3    0    0  0.54094677393E+02  0.14369151242E+02 -0.47740155885E+03  0.49649218055E+03  0.12433635962E+03 0.  0.
          5    1    4    4  502    0  0.22286901242E+02 -0.48279792896E+02 -0.21618178883E+03  0.22267532461E+03  0.47000000000E+01 0. -1.
         -5    1    4    4    0  502 -0.76381578635E+02  0.33910641655E+02 -0.26267218915E+03  0.27568613699E+03  0.47000000000E+01 0. -1.
          5    1    5    5  503    0  0.22409422820E+02 -0.30525467824E+02 -0.39795105211E+03  0.39977633283E+03  0.47000000000E+01 0.  1.
         -5    1    5    5    0  503  0.31685254573E+02  0.44894619066E+02 -0.79450506743E+02  0.96715847720E+02  0.47000000000E+01 0.  1.
<mgrwt>
<rscale>  0 0.27442507E+03</rscale>
<asrwt>0</asrwt>
<pdfrwt beam="1">  1        3 0.29690854E-02 0.27442507E+03</pdfrwt>
<pdfrwt beam="2">  1       -3 0.15008530E+00 0.27442507E+03</pdfrwt>
<totfact> 0.44816036E+02</totfact>
</mgrwt>
</event>
<event>
 9    1  0.2095749E-002  0.2746762E+03  0.7818608E-02  0.1098633E+00
          2   -1    0    0  501    0  0.00000000000E+00  0.00000000000E+00  0.40431966200E+03  0.40431966200E+03  0.00000000000E+00 0.  1.
         -2   -1    0    0    0  501 -0.00000000000E+00 -0.00000000000E+00 -0.46650586083E+02  0.46650586083E+02  0.00000000000E+00 0.  1.
         36    2    1    2    0    0 -0.35527136788E-14  0.00000000000E+00  0.35766907592E+03  0.45097024808E+03  0.27467616713E+03 0.  0.
         25    2    3    3    0    0 -0.17376989331E+02  0.58653679845E+02  0.14697032523E+03  0.19535168020E+03  0.11322450505E+03 0.  0.
         25    2    3    3    0    0  0.17376989331E+02 -0.58653679845E+02  0.21069875069E+03  0.25561856788E+03  0.13116659172E+03 0.  0.
          5    1    4    4  502    0 -0.24072255687E+02  0.10108764479E+02  0.14357518996E+03  0.14600543067E+03  0.47000000000E+01 0. -1.
         -5    1    4    4    0  502  0.66952663560E+01  0.48544915366E+02  0.33951352662E+01  0.49346249533E+02  0.47000000000E+01 0. -1.
          5    1    5    5  503    0  0.39607515169E+02  0.20676475512E+02  0.22762483137E+02  0.50363603287E+02  0.47000000000E+01 0.  1.
         -5    1    5    5    0  503 -0.22230525838E+02 -0.79330155357E+02  0.18793626755E+03  0.20525496459E+03  0.47000000000E+01 0.  1.
<mgrwt>
<rscale>  0 0.27467617E+03</rscale>
<asrwt>0</asrwt>
<pdfrwt beam="1">  1        2 0.62203023E-01 0.27467617E+03</pdfrwt>
<pdfrwt beam="2">  1       -2 0.71770135E-02 0.27467617E+03</pdfrwt>
<totfact> 0.87833330E+03</totfact>
</mgrwt>
</event>
<event>
 9    1  0.2095749E-002  0.2745978E+03  0.7818608E-02  0.1098677E+00
          2   -1    0    0  501    0  0.00000000000E+00  0.00000000000E+00  0.11254490687E+04  0.11254490687E+04  0.00000000000E+00 0.  1.
         -2   -1    0    0    0  501 -0.00000000000E+00 -0.00000000000E+00 -0.16749742811E+02  0.16749742811E+02  0.00000000000E+00 0.  1.
         36    2    1    2    0    0 -0.71054273576E-14  0.00000000000E+00  0.11086993259E+04  0.11421988115E+04  0.27459775999E+03 0.  0.
         25    2    3    3    0    0  0.38147595541E+02 -0.23162878724E+02  0.73954336221E+03  0.75149417141E+03  0.12580678471E+03 0.  0.
         25    2    3    3    0    0 -0.38147595541E+02  0.23162878724E+02  0.36915596367E+03  0.39070464009E+03  0.11992594498E+03 0.  0.
          5    1    4    4  502    0  0.23892976625E+02 -0.61135298676E+02  0.64706870510E+03  0.65040633314E+03  0.47000000000E+01 0. -1.
         -5    1    4    4    0  502  0.14254618916E+02  0.37972419951E+02  0.92474657114E+02  0.10108783827E+03  0.47000000000E+01 0. -1.
          5    1    5    5  503    0 -0.68548304930E+02  0.40310560817E+02  0.32282008304E+03  0.33250369537E+03  0.47000000000E+01 0.  1.
         -5    1    5    5    0  503  0.30400709389E+02 -0.17147682093E+02  0.46335880628E+02  0.58200944718E+02  0.47000000000E+01 0.  1.
<mgrwt>
<rscale>  0 0.27459776E+03</rscale>
<asrwt>0</asrwt>
<pdfrwt beam="1">  1        2 0.17314595E+00 0.27459776E+03</pdfrwt>
<pdfrwt beam="2">  1       -2 0.25768844E-02 0.27459776E+03</pdfrwt>
<totfact> 0.11704137E+04</totfact>
</mgrwt>
</event>
<event>
 9    1  0.2095749E-002  0.2765541E+03  0.7818608E-02  0.1097586E+00
          2   -1    0    0  501    0  0.00000000000E+00  0.00000000000E+00  0.58429439724E+03  0.58429439724E+03  0.00000000000E+00 0.  1.
         -2   -1    0    0    0  501 -0.00000000000E+00 -0.00000000000E+00 -0.32724149769E+02  0.32724149769E+02  0.00000000000E+00 0.  1.
         36    2    1    2    0    0 -0.71054273576E-14  0.35527136788E-14  0.55157024747E+03  0.61701854700E+03  0.27655406245E+03 0.  0.
         25    2    3    3    0    0 -0.39708603905E+02 -0.65534709037E+01  0.36354538008E+03  0.38671309115E+03  0.12554700427E+03 0.  0.
         25    2    3    3    0    0  0.39708603905E+02  0.65534709037E+01  0.18802486738E+03  0.23030545585E+03  0.12675776519E+03 0.  0.
          5    1    4    4  502    0  0.26353084941E+02  0.37837577232E+02  0.83069676308E+02  0.95125330268E+02  0.47000000000E+01 0. -1.
         -5    1    4    4    0  502 -0.66061688846E+02 -0.44391048135E+02  0.28047570378E+03  0.29158776088E+03  0.47000000000E+01 0. -1.
          5    1    5    5  503    0  0.16582743567E+02  0.34321838672E+02  0.18996871060E+03  0.19381222098E+03  0.47000000000E+01 0.  1.
         -5    1    5    5    0  503  0.23125860338E+02 -0.27768367768E+02 -0.19438432205E+01  0.36493234871E+02  0.47000000000E+01 0.  1.
<mgrwt>
<rscale>  0 0.27655406E+03</rscale>
<asrwt>0</asrwt>
<pdfrwt beam="1">  1        2 0.89891438E-01 0.27655406E+03</pdfrwt>
<pdfrwt beam="2">  1       -2 0.50344850E-02 0.27655406E+03</pdfrwt>
<totfact> 0.10038324E+04</totfact>
</mgrwt>
</event>
<event>
 9    1  0.2095749E-002  0.2749712E+03  0.7818608E-02  0.1098468E+00
          2   -1    0    0  501    0  0.00000000000E+00  0.00000000000E+00  0.14883948689E+04  0.14883948689E+04  0.00000000000E+00 0. -1.
         -2   -1    0    0    0  501 -0.00000000000E+00 -0.00000000000E+00 -0.12699781029E+02  0.12699781029E+02  0.00000000000E+00 0. -1.
         36    2    1    2    0    0 -0.71054273576E-14  0.71054273576E-14  0.14756950878E+04  0.15010946499E+04  0.27497119063E+03 0.  0.
         25    2    3    3    0    0  0.32486413418E+02 -0.46110104110E+02  0.78197925937E+03  0.79379256998E+03  0.12423193358E+03 0.  0.
         25    2    3    3    0    0 -0.32486413418E+02  0.46110104110E+02  0.69371582847E+03  0.70730207991E+03  0.12590898626E+03 0.  0.
          5    1    4    4  502    0 -0.15545384835E+02 -0.71367009534E+02  0.30247329006E+03  0.31120265140E+03  0.47000000000E+01 0.  1.
         -5    1    4    4    0  502  0.48031798253E+02  0.25256905425E+02  0.47950596931E+03  0.48258991859E+03  0.47000000000E+01 0.  1.
          5    1    5    5  503    0 -0.77292312595E+02  0.10693455235E+02  0.46447807172E+03  0.47101000061E+03  0.47000000000E+01 0. -1.
         -5    1    5    5    0  503  0.44805899177E+02  0.35416648874E+02  0.22923775675E+03  0.23629207930E+03  0.47000000000E+01 0. -1.
<mgrwt>
<rscale>  0 0.27497119E+03</rscale>
<asrwt>0</asrwt>
<pdfrwt beam="1">  1        2 0.22898369E+00 0.27497119E+03</pdfrwt>
<pdfrwt beam="2">  1       -2 0.19538136E-02 0.27497119E+03</pdfrwt>
<totfact> 0.11074527E+04</totfact>
</mgrwt>
</event>
<event>
 9    1  0.2095749E-002  0.2733553E+03  0.7818608E-02  0.1099374E+00
          2   -1    0    0  501    0  0.00000000000E+00  0.00000000000E+00  0.31008822736E+04  0.31008822736E+04  0.00000000000E+00 0.  1.
         -2   -1    0    0    0  501 -0.00000000000E+00 -0.00000000000E+00 -0.60243452387E+01  0.60243452387E+01  0.00000000000E+00 0.  1.
         36    2    1    2    0    0 -0.71054273576E-14 -0.17763568394E-14  0.30948579284E+04  0.31069066189E+04  0.27335533915E+03 0.  0.
         25    2    3    3    0    0  0.58218862592E+02 -0.50404068325E+01  0.17546012563E+04  0.17600174975E+04  0.12498472415E+03 0.  0.
         25    2    3    3    0    0 -0.58218862592E+02  0.50404068325E+01  0.13402566721E+04  0.13468891214E+04  0.12003131460E+03 0.  0.
          5    1    4    4  502    0  0.92624536351E+02  0.49495042175E+01  0.93028296936E+03  0.93490764004E+03  0.47000000000E+01 0. -1.
         -5    1    4    4    0  502 -0.34405673759E+02 -0.99899110500E+01  0.82431828691E+03  0.82510985744E+03  0.47000000000E+01 0. -1.
          5    1    5    5  503    0 -0.44744369621E+02 -0.12159750751E+02  0.16595515127E+03  0.17237494129E+03  0.47000000000E+01 0. -1.
         -5    1    5    5    0  503 -0.13474492971E+02  0.17200157583E+02  0.11743015208E+04  0.11745141801E+04  0.47000000000E+01 0. -1.
<mgrwt>
<rscale>  0 0.27335534E+03</rscale>
<asrwt>0</asrwt>
<pdfrwt beam="1">  1        2 0.47705754E+00 0.27335534E+03</pdfrwt>
<pdfrwt beam="2">  1       -2 0.92682482E-03 0.27335534E+03</pdfrwt>
<totfact> 0.43173618E+03</totfact>
</mgrwt>
</event>
<event>
 9    1  0.2095749E-002  0.2752160E+03  0.7818608E-02  0.1098331E+00
          1   -1    0    0  501    0  0.00000000000E+00  0.00000000000E+00  0.17216984026E+03  0.17216984026E+03  0.00000000000E+00 0. -1.
         -1   -1    0    0    0  501 -0.00000000000E+00 -0.00000000000E+00 -0.10998417963E+03  0.10998417963E+03  0.00000000000E+00 0. -1.
         36    2    1    2    0    0  0.00000000000E+00  0.00000000000E+00  0.62185660636E+02  0.28215401989E+03  0.27521597801E+03 0.  0.
         25    2    3    3    0    0 -0.26877890646E+02 -0.49333079561E+02  0.36171387685E+02  0.14233875399E+03  0.12568125499E+03 0.  0.
         25    2    3    3    0    0  0.26877890646E+02  0.49333079561E+02  0.26014272951E+02  0.13981526590E+03  0.12536104832E+03 0.  0.
          5    1    4    4  502    0 -0.44606025991E+02 -0.83635317001E+02  0.40534247570E+02  0.10319728209E+03  0.47000000000E+01 0. -1.
         -5    1    4    4    0  502  0.17728135345E+02  0.34302237440E+02 -0.43628598852E+01  0.39141471901E+02  0.47000000000E+01 0. -1.
          5    1    5    5  503    0  0.19996158009E+02 -0.36075766187E+02 -0.15720126160E+02  0.44390535113E+02  0.47000000000E+01 0. -1.
         -5    1    5    5    0  503  0.68817326366E+01  0.85408845748E+02  0.41734399111E+02  0.95424730784E+02  0.47000000000E+01 0. -1.
<mgrwt>
<rscale>  0 0.27521598E+03</rscale>
<asrwt>0</asrwt>
<pdfrwt beam="1">  1        1 0.26487668E-01 0.27521598E+03</pdfrwt>
<pdfrwt beam="2">  1       -1 0.16920643E-01 0.27521598E+03</pdfrwt>
<totfact> 0.46716227E+03</totfact>
</mgrwt>
</event>
<event>
 8    1  0.2095749E-002  0.2990987E+03  0.7818608E-02  0.1085692E+00
          2   -1    0    0  501    0  0.00000000000E+00  0.00000000000E+00  0.73989933153E+03  0.73989933153E+03  0.00000000000E+00 0. -1.
         -2   -1    0    0    0  501 -0.00000000000E+00 -0.00000000000E+00 -0.30227093913E+02  0.30227093913E+02  0.00000000000E+00 0. -1.
         25    2    1    2    0    0 -0.49095984837E+02  0.19032452679E+02  0.18469818131E+03  0.22793459663E+03  0.12275223900E+03 0.  0.
         25    2    1    2    0    0  0.49095984837E+02 -0.19032452679E+02  0.52497405631E+03  0.54219182881E+03  0.12490624266E+03 0.  0.
          5    1    3    3  502    0 -0.42006865215E+02  0.19543819092E+02  0.20271990108E+03  0.20799996606E+03  0.47000000000E+01 0. -1.
         -5    1    3    3    0  502 -0.70891196226E+01 -0.51136641305E+00 -0.18021719765E+02  0.19934630569E+02  0.47000000000E+01 0. -1.
          5    1    4    4  503    0 -0.23952699421E+02 -0.27201736945E+02  0.52247315086E+02  0.63761573350E+02  0.47000000000E+01 0. -1.
         -5    1    4    4    0  503  0.73048684258E+02  0.81692842660E+01  0.47272674122E+03  0.47843025546E+03  0.47000000000E+01 0. -1.
<mgrwt>
<rscale>  0 0.29909869E+03</rscale>
<asrwt>0</asrwt>
<pdfrwt beam="1">  1        2 0.11383065E+00 0.29909869E+03</pdfrwt>
<pdfrwt beam="2">  1       -2 0.46503227E-02 0.29909869E+03</pdfrwt>
<totfact> 0.85638621E+03</totfact>
</mgrwt>
</event>
<event>
 9    1  0.2095749E-002  0.2747670E+03  0.7818608E-02  0.1098582E+00
          2   -1    0    0  501    0  0.00000000000E+00  0.00000000000E+00  0.31897988762E+03  0.31897988762E+03  0.00000000000E+00 0. -1.
         -2   -1    0    0    0  501 -0.00000000000E+00 -0.00000000000E+00 -0.59170569744E+02  0.59170569744E+02  0.00000000000E+00 0. -1.
         36    2    1    2    0    0  0.00000000000E+00  0.14210854715E-13  0.25980931787E+03  0.37815045736E+03  0.27476696808E+03 0.  0.
         25    2    3    3    0    0 -0.21077356682E+02 -0.57644098416E+02  0.12628623923E+03  0.18786889592E+03  0.12481750994E+03 0.  0.
         25    2    3    3    0    0  0.21077356682E+02  0.57644098416E+02  0.13352307864E+03  0.19028156145E+03  0.12087829850E+03 0.  0.
          5    1    4    4  502    0 -0.86009936759E+01 -0.16752758090E+01 -0.24520364974E+02  0.26459817454E+02  0.47000000000E+01 0.  1.
         -5    1    4    4    0  502 -0.12476363006E+02 -0.55968822607E+02  0.15080660420E+03  0.16140907846E+03  0.47000000000E+01 0.  1.
          5    1    5    5  503    0  0.58076369376E+02  0.60852771916E+02  0.48093476396E+02  0.97010293276E+02  0.47000000000E+01 0.  1.
         -5    1    5    5    0  503 -0.36999012694E+02 -0.32086734999E+01  0.85429602246E+02  0.93271268169E+02  0.47000000000E+01 0.  1.
<mgrwt>
<rscale>  0 0.27476697E+03</rscale>
<asrwt>0</asrwt>
<pdfrwt beam="1">  1        2 0.49073828E-01 0.27476697E+03</pdfrwt>
<pdfrwt beam="2">  1       -2 0.91031647E-02 0.27476697E+03</pdfrwt>
<totfact> 0.78253504E+03</totfact>
</mgrwt>
</event>
<event>
 9    1  0.2095749E-002  0.2747145E+03  0.7818608E-02  0.1098611E+00
          3   -1    0    0  501    0  0.00000000000E+00  0.00000000000E+00  0.34389652104E+02  0.34389652104E+02  0.00000000000E+00 0. -1.
         -3   -1    0    0    0  501 -0.00000000000E+00 -0.00000000000E+00 -0.54862476319E+03  0.54862476319E+03  0.00000000000E+00 0. -1.
         36    2    1    2    0    0  0.00000000000E+00 -0.71054273576E-14 -0.51423511109E+03  0.58301441530E+03  0.27471450447E+03 0.  0.
         25    2    3    3    0    0 -0.32593928471E+02 -0.27177069498E+02 -0.17311417331E+03  0.21855983747E+03  0.12648686997E+03 0.  0.
         25    2    3    3    0    0  0.32593928471E+02  0.27177069498E+02 -0.34112093778E+03  0.36445457783E+03  0.12108958596E+03 0.  0.
          5    1    4    4  502    0 -0.49345625163E+02  0.40111804623E+02 -0.87996578641E+02  0.10867122639E+03  0.47000000000E+01 0. -1.
         -5    1    4    4    0  502  0.16751696692E+02 -0.67288874121E+02 -0.85117594668E+02  0.10988861108E+03  0.47000000000E+01 0. -1.
          5    1    5    5  503    0 -0.33216234807E+02  0.29277808253E+02 -0.23718305644E+03  0.24132633626E+03  0.47000000000E+01 0. -1.
         -5    1    5    5    0  503  0.65810163278E+02 -0.21007387544E+01 -0.10393788134E+03  0.12312824157E+03  0.47000000000E+01 0. -1.
<mgrwt>
<rscale>  0 0.27471450E+03</rscale>
<asrwt>0</asrwt>
<pdfrwt beam="1">  1        3 0.52907157E-02 0.27471450E+03</pdfrwt>
<pdfrwt beam="2">  1       -3 0.84403809E-01 0.27471450E+03</pdfrwt>
<totfact> 0.70081545E+02</totfact>
</mgrwt>
</event>
<event>
 9    1  0.2095749E-002  0.2754976E+03  0.7818608E-02  0.1098174E+00
         -1   -1    0    0    0  501 -0.00000000000E+00  0.00000000000E+00  0.20111841869E+02  0.20111841869E+02  0.00000000000E+00 0. -1.
          1   -1    0    0  501    0  0.00000000000E+00 -0.00000000000E+00 -0.94346052675E+03  0.94346052675E+03  0.00000000000E+00 0. -1.
         36    2    1    2    0    0  0.00000000000E+00 -0.17763568394E-14 -0.92334868488E+03  0.96357236862E+03  0.27549757838E+03 0.  0.
         25    2    3    3    0    0  0.37111498711E+02 -0.15673499289E+02 -0.29156570258E+03  0.31836268898E+03  0.12133145058E+03 0.  0.
         25    2    3    3    0    0 -0.37111498711E+02  0.15673499289E+02 -0.63178298230E+03  0.64520967963E+03  0.12459081849E+03 0.  0.
          5    1    4    4  502    0 -0.35060447907E+02 -0.20830174585E+02 -0.43050998559E+02  0.59486214013E+02  0.47000000000E+01 0.  1.
         -5    1    4    4    0  502  0.72171946619E+02  0.51566752959E+01 -0.24851470402E+03  0.25887647497E+03  0.47000000000E+01 0.  1.
          5    1    5    5  503    0 -0.56454300073E+02  0.12728256881E+02 -0.61822604748E+03  0.62094656155E+03  0.47000000000E+01 0.  1.
         -5    1    5    5    0  503  0.19342801362E+02  0.29452424081E+01 -0.13556934820E+02  0.24263118082E+02  0.47000000000E+01 0.  1.
<mgrwt>
<rscale>  0 0.27549758E+03</rscale>
<asrwt>0</asrwt>
<pdfrwt beam="1">  1        1 0.14514776E+00 0.27549758E+03</pdfrwt>
<pdfrwt beam="2">  1       -1 0.30941298E-02 0.27549758E+03</pdfrwt>
<totfact> 0.63576813E+03</totfact>
</mgrwt>
</event>
<event>
 9    1  0.2095749E-002  0.2748202E+03  0.7818608E-02  0.1098552E+00
         -1   -1    0    0    0  501 -0.00000000000E+00  0.00000000000E+00  0.10165547574E+03  0.10165547574E+03  0.00000000000E+00 0.  1.
          1   -1    0    0  501    0  0.00000000000E+00 -0.00000000000E+00 -0.18574048421E+03  0.18574048421E+03  0.00000000000E+00 0.  1.
         36    2    1    2    0    0  0.00000000000E+00  0.00000000000E+00 -0.84085008476E+02  0.28739595995E+03  0.27482021241E+03 0.  0.
         25    2    3    3    0    0 -0.13665468934E+02  0.53957466102E+02 -0.28198109239E+02  0.13908708292E+03  0.12430579263E+03 0.  0.
         25    2    3    3    0    0  0.13665468934E+02 -0.53957466102E+02 -0.55886899236E+02  0.14830887703E+03  0.12559468266E+03 0.  0.
          5    1    4    4  502    0 -0.54005554427E+02  0.50709419749E+02  0.19112262274E+02  0.76651247410E+02  0.47000000000E+01 0.  1.
         -5    1    4    4    0  502  0.40340085493E+02  0.32480463535E+01 -0.47310371514E+02  0.62435835507E+02  0.47000000000E+01 0.  1.
          5    1    5    5  503    0 -0.17217455584E+02 -0.24728038577E+02  0.35862472508E+02  0.47075722013E+02  0.47000000000E+01 0. -1.
         -5    1    5    5    0  503  0.30882924518E+02 -0.29229427525E+02 -0.91749371744E+02  0.10123315502E+03  0.47000000000E+01 0. -1.
<mgrwt>
<rscale>  0 0.27482021E+03</rscale>
<asrwt>0</asrwt>
<pdfrwt beam="1">  1        1 0.28575459E-01 0.27482021E+03</pdfrwt>
<pdfrwt beam="2">  1       -1 0.15639304E-01 0.27482021E+03</pdfrwt>
<totfact> 0.48119610E+03</totfact>
</mgrwt>
</event>
<event>
 9    1  0.2095749E-002  0.2748096E+03  0.7818608E-02  0.1098558E+00
          2   -1    0    0  501    0  0.00000000000E+00  0.00000000000E+00  0.50455488990E+03  0.50455488990E+03  0.00000000000E+00 0.  1.
         -2   -1    0    0    0  501 -0.00000000000E+00 -0.00000000000E+00 -0.37419270209E+02  0.37419270209E+02  0.00000000000E+00 0.  1.
         36    2    1    2    0    0  0.71054273576E-14  0.00000000000E+00  0.46713561969E+03  0.54197416011E+03  0.27480957596E+03 0.  0.
         25    2    3    3    0    0  0.28456084922E+02  0.13577406396E+02  0.12862195546E+03  0.18066739681E+03  0.12289428836E+03 0.  0.
         25    2    3    3    0    0 -0.28456084922E+02 -0.13577406396E+02  0.33851366423E+03  0.36130676330E+03  0.12229873915E+03 0.  0.
          5    1    4    4  502    0  0.14754238249E+02  0.72027995487E+01 -0.22763135652E+02  0.28457305079E+02  0.47000000000E+01 0.  1.
         -5    1    4    4    0  502  0.13701846673E+02  0.63746068471E+01  0.15138509111E+03  0.15221009173E+03  0.47000000000E+01 0.  1.
          5    1    5    5  503    0 -0.39129298684E+02 -0.43531437720E+02  0.72220244297E+02  0.93080297441E+02  0.47000000000E+01 0.  1.
         -5    1    5    5    0  503  0.10673213762E+02  0.29954031324E+02  0.26629341994E+03  0.26822646586E+03  0.47000000000E+01 0.  1.
<mgrwt>
<rscale>  0 0.27480958E+03</rscale>
<asrwt>0</asrwt>
<pdfrwt beam="1">  1        2 0.77623824E-01 0.27480958E+03</pdfrwt>
<pdfrwt beam="2">  1       -2 0.57568112E-02 0.27480958E+03</pdfrwt>
<totfact> 0.96639192E+03</totfact>
</mgrwt>
</event>
<event>
 9    1  0.2095749E-002  0.2731648E+03  0.7818608E-02  0.1099482E+00
          2   -1    0    0  501    0  0.00000000000E+00  0.00000000000E+00  0.43247338079E+03  0.43247338079E+03  0.00000000000E+00 0. -1.
         -2   -1    0    0    0  501 -0.00000000000E+00 -0.00000000000E+00 -0.43135029497E+02  0.43135029497E+02  0.00000000000E+00 0. -1.
         36    2    1    2    0    0 -0.35527136788E-14 -0.14210854715E-13  0.38933835129E+03  0.47560841029E+03  0.27316480035E+03 0.  0.
         25    2    3    3    0    0 -0.46938611961E+01  0.54990641365E+02  0.18854302066E+03  0.23183970557E+03  0.12310635836E+03 0.  0.
         25    2    3    3    0    0  0.46938611961E+01 -0.54990641365E+02  0.20079533063E+03  0.24376870471E+03  0.12672179617E+03 0.  0.
          5    1    4    4  502    0 -0.31316719953E+02 -0.10661070081E+02  0.34441826388E+01  0.33590888019E+02  0.47000000000E+01 0.  1.
         -5    1    4    4    0  502  0.26622858757E+02  0.65651711446E+02  0.18509883802E+03  0.19824881755E+03  0.47000000000E+01 0.  1.
          5    1    5    5  503    0  0.36458533672E+02  0.18737713593E+02  0.13080822260E+03  0.13716124703E+03  0.47000000000E+01 0. -1.
         -5    1    5    5    0  503 -0.31764672476E+02 -0.73728354958E+02  0.69987108032E+02  0.10660745768E+03  0.47000000000E+01 0. -1.
<mgrwt>
<rscale>  0 0.27316480E+03</rscale>
<asrwt>0</asrwt>
<pdfrwt beam="1">  1        2 0.66534363E-01 0.27316480E+03</pdfrwt>
<pdfrwt beam="2">  1       -2 0.66361587E-02 0.27316480E+03</pdfrwt>
<totfact> 0.92108009E+03</totfact>
</mgrwt>
</event>
<event>
 9    1  0.2095749E-002  0.2740176E+03  0.7818608E-02  0.1099002E+00
         -2   -1    0    0    0  501 -0.00000000000E+00  0.00000000000E+00  0.19479015619E+02  0.19479015619E+02  0.00000000000E+00 0.  1.
          2   -1    0    0  501    0  0.00000000000E+00 -0.00000000000E+00 -0.96367346937E+03  0.96367346937E+03  0.00000000000E+00 0.  1.
         36    2    1    2    0    0  0.71054273576E-14  0.35527136788E-14 -0.94419445376E+03  0.98315248499E+03  0.27401759477E+03 0.  0.
         25    2    3    3    0    0  0.53237286754E+02  0.26382452886E+02 -0.46238185437E+03  0.48249913471E+03  0.12441138705E+03 0.  0.
         25    2    3    3    0    0 -0.53237286754E+02 -0.26382452886E+02 -0.48181259939E+03  0.50065335028E+03  0.12239343814E+03 0.  0.
          5    1    4    4  502    0 -0.18441967180E+02  0.29419908492E+02 -0.36519494797E+02  0.50610282250E+02  0.47000000000E+01 0.  1.
         -5    1    4    4    0  502  0.71679253934E+02 -0.30374556058E+01 -0.42586235957E+03  0.43188885246E+03  0.47000000000E+01 0.  1.
          5    1    5    5  503    0  0.34293556689E+02 -0.30631667455E+02 -0.20991300874E+03  0.21494163933E+03  0.47000000000E+01 0. -1.
         -5    1    5    5    0  503 -0.87530843443E+02  0.42492145687E+01 -0.27189959065E+03  0.28571171095E+03  0.47000000000E+01 0. -1.
<mgrwt>
<rscale>  0 0.27401759E+03</rscale>
<asrwt>0</asrwt>
<pdfrwt beam="1">  1        2 0.14825747E+00 0.27401759E+03</pdfrwt>
<pdfrwt beam="2">  1       -2 0.29967715E-02 0.27401759E+03</pdfrwt>
<totfact> 0.11701688E+04</totfact>
</mgrwt>
</event>
<event>
 9    1  0.2095749E-002  0.2746261E+03  0.7818608E-02  0.1098661E+00
          1   -1    0    0  501    0  0.00000000000E+00  0.00000000000E+00  0.16539313644E+03  0.16539313644E+03  0.00000000000E+00 0. -1.
         -1   -1    0    0    0  501 -0.00000000000E+00 -0.00000000000E+00 -0.11400036404E+03  0.11400036404E+03  0.00000000000E+00 0. -1.
         36    2    1    2    0    0  0.00000000000E+00  0.14210854715E-13  0.51392772407E+02  0.27939350048E+03  0.27462612959E+03 0.  0.
         25    2    3    3    0    0  0.12849533734E+02  0.46116621942E+02  0.52422686770E+02  0.14268842462E+03  0.12377396777E+03 0.  0.
         25    2    3    3    0    0 -0.12849533734E+02 -0.46116621942E+02 -0.10299143634E+01  0.13670507585E+03  0.12804438177E+03 0.  0.
          5    1    4    4  502    0 -0.29454975695E+02  0.32169044395E+02  0.79174588008E+02  0.90516011825E+02  0.47000000000E+01 0. -1.
         -5    1    4    4    0  502  0.42304509429E+02  0.13947577546E+02 -0.26751901238E+02  0.52172412799E+02  0.47000000000E+01 0. -1.
          5    1    5    5  503    0 -0.23422065974E+02 -0.38313958857E+01  0.58192666584E+02  0.63021815374E+02  0.47000000000E+01 0.  1.
         -5    1    5    5    0  503  0.10572532240E+02 -0.42285226056E+02 -0.59222580947E+02  0.73683260478E+02  0.47000000000E+01 0.  1.
<mgrwt>
<rscale>  0 0.27462613E+03</rscale>
<asrwt>0</asrwt>
<pdfrwt beam="1">  1        1 0.25445098E-01 0.27462613E+03</pdfrwt>
<pdfrwt beam="2">  1       -1 0.17538518E-01 0.27462613E+03</pdfrwt>
<totfact> 0.46409830E+03</totfact>
</mgrwt>
</event>
<event>
 9    1  0.2095749E-002  0.2750728E+03  0.7818608E-02  0.1098411E+00
         -1   -1    0    0    0  501 -0.00000000000E+00  0.00000000000E+00  0.41880985310E+03  0.41880985310E+03  0.00000000000E+00 0. -1.
          1   -1    0    0  501    0  0.00000000000E+00 -0.00000000000E+00 -0.45166706737E+02  0.45166706737E+02  0.00000000000E+00 0. -1.
         36    2    1    2    0    0 -0.71054273576E-14  0.71054273576E-14  0.37364314636E+03  0.46397655983E+03  0.27507280355E+03 0.  0.
         25    2    3    3    0    0  0.53629556275E+02  0.15484721488E+02  0.15166459128E+03  0.20286468721E+03  0.12262147920E+03 0.  0.
         25    2    3    3    0    0 -0.53629556275E+02 -0.15484721488E+02  0.22197855508E+03  0.26111187263E+03  0.12565438793E+03 0.  0.
          5    1    4    4  502    0  0.37541770160E+02  0.67609660446E+02  0.10755465111E+03  0.13255392739E+03  0.47000000000E+01 0.  1.
         -5    1    4    4    0  502  0.16087786115E+02 -0.52124938958E+02  0.44109940177E+02  0.70310759816E+02  0.47000000000E+01 0.  1.
          5    1    5    5  503    0 -0.26082855615E+02  0.41682267216E+02  0.27598544141E+02  0.56581767346E+02  0.47000000000E+01 0.  1.
         -5    1    5    5    0  503 -0.27546700659E+02 -0.57166988704E+02  0.19438001094E+03  0.20453010528E+03  0.47000000000E+01 0.  1.
<mgrwt>
<rscale>  0 0.27507280E+03</rscale>
<asrwt>0</asrwt>
<pdfrwt beam="1">  1        1 0.69487244E-02 0.27507280E+03</pdfrwt>
<pdfrwt beam="2">  1       -1 0.64432282E-01 0.27507280E+03</pdfrwt>
<totfact> 0.26604852E+03</totfact>
</mgrwt>
</event>
<event>
 9    1  0.2095749E-002  0.2769057E+03  0.7818608E-02  0.1097391E+00
          1   -1    0    0  501    0  0.00000000000E+00  0.00000000000E+00  0.22762872826E+04  0.22762872826E+04  0.00000000000E+00 0.  1.
         -1   -1    0    0    0  501 -0.00000000000E+00 -0.00000000000E+00 -0.84212502523E+01  0.84212502523E+01  0.00000000000E+00 0.  1.
         36    2    1    2    0    0 -0.17763568394E-14  0.35527136788E-14  0.22678660324E+04  0.22847085329E+04  0.27690565074E+03 0.  0.
         25    2    3    3    0    0  0.61525595269E+01 -0.24372690823E+02  0.15795575317E+04  0.15846539918E+04  0.12447648719E+03 0.  0.
         25    2    3    3    0    0 -0.61525595269E+01  0.24372690823E+02  0.68830850067E+03  0.70005454103E+03  0.12520337967E+03 0.  0.
          5    1    4    4  502    0  0.32234807572E+02 -0.24764044403E+02  0.17029680853E+03  0.17514403703E+03  0.47000000000E+01 0.  1.
         -5    1    4    4    0  502 -0.26082248045E+02  0.39135357956E+00  0.14092607232E+04  0.14095099548E+04  0.47000000000E+01 0.  1.
          5    1    5    5  503    0 -0.15516651252E+02  0.51451433932E+02  0.12683001642E+03  0.13782583061E+03  0.47000000000E+01 0. -1.
         -5    1    5    5    0  503  0.93640917249E+01 -0.27078743109E+02  0.56147848425E+03  0.56222871042E+03  0.47000000000E+01 0. -1.
<mgrwt>
<rscale>  0 0.27690565E+03</rscale>
<asrwt>0</asrwt>
<pdfrwt beam="1">  1        1 0.35019755E+00 0.27690565E+03</pdfrwt>
<pdfrwt beam="2">  1       -1 0.12955788E-02 0.27690565E+03</pdfrwt>
<totfact> 0.28781302E+03</totfact>
</mgrwt>
</event>
<event>
 9    1  0.2095749E-002  0.2758688E+03  0.7818608E-02  0.1097967E+00
         -2   -1    0    0    0  501 -0.00000000000E+00  0.00000000000E+00  0.11858679829E+02  0.11858679829E+02  0.00000000000E+00 0.  1.
          2   -1    0    0  501    0  0.00000000000E+00 -0.00000000000E+00 -0.16043864237E+04  0.16043864237E+04  0.00000000000E+00 0.  1.
         36    2    1    2    0    0  0.14210854715E-13  0.35527136788E-14 -0.15925277439E+04  0.16162451035E+04  0.27586884508E+03 0.  0.
         25    2    3    3    0    0 -0.60337958851E+02 -0.22066141727E+02 -0.84849715214E+03  0.85973358871E+03  0.12274706705E+03 0.  0.
         25    2    3    3    0    0  0.60337958851E+02  0.22066141727E+02 -0.74403059173E+03  0.75651151482E+03  0.12083280491E+03 0.  0.
          5    1    4    4  502    0 -0.78825330999E+02 -0.51900966703E+02 -0.72903333560E+03  0.73513185046E+03  0.47000000000E+01 0.  1.
         -5    1    4    4    0  502  0.18487372148E+02  0.29834824975E+02 -0.11946381654E+03  0.12460173824E+03  0.47000000000E+01 0.  1.
          5    1    5    5  503    0  0.73766920987E+02  0.60387704359E+02 -0.55015519977E+03  0.55837359116E+03  0.47000000000E+01 0. -1.
         -5    1    5    5    0  503 -0.13428962135E+02 -0.38321562632E+02 -0.19387539196E+03  0.19813792367E+03  0.47000000000E+01 0. -1.
<mgrwt>
<rscale>  0 0.27586885E+03</rscale>
<asrwt>0</asrwt>
<pdfrwt beam="1">  1        2 0.24682853E+00 0.27586885E+03</pdfrwt>
<pdfrwt beam="2">  1       -2 0.18244134E-02 0.27586885E+03</pdfrwt>
<totfact> 0.10624112E+04</totfact>
</mgrwt>
</event>
<event>
 9    1  0.2095749E-002  0.2768890E+03  0.7818608E-02  0.1097400E+00
         -1   -1    0    0    0  501 -0.00000000000E+00  0.00000000000E+00  0.29408207080E+02  0.29408207080E+02  0.00000000000E+00 0. -1.
          1   -1    0    0  501    0  0.00000000000E+00 -0.00000000000E+00 -0.65175263287E+03  0.65175263287E+03  0.00000000000E+00 0. -1.
         36    2    1    2    0    0  0.00000000000E+00  0.00000000000E+00 -0.62234442579E+03  0.68116083995E+03  0.27688897697E+03 0.  0.
         25    2    3    3    0    0  0.14929063980E+02  0.23477073654E+02 -0.18228035664E+03  0.22250134083E+03  0.12452577371E+03 0.  0.
         25    2    3    3    0    0 -0.14929063980E+02 -0.23477073654E+02 -0.44006406915E+03  0.45865949912E+03  0.12624619295E+03 0.  0.
          5    1    4    4  502    0  0.59195309913E+02  0.48178487091E+02 -0.11574504281E+03  0.13872366874E+03  0.47000000000E+01 0. -1.
         -5    1    4    4    0  502 -0.44266245933E+02 -0.24701413437E+02 -0.66535313833E+02  0.83777672095E+02  0.47000000000E+01 0. -1.
          5    1    5    5  503    0  0.46425860961E+02 -0.37201754534E+02 -0.28664204575E+03  0.29278846203E+03  0.47000000000E+01 0. -1.
         -5    1    5    5    0  503 -0.61354924940E+02  0.13724680880E+02 -0.15342202341E+03  0.16587103709E+03  0.47000000000E+01 0. -1.
<mgrwt>
<rscale>  0 0.27688898E+03</rscale>
<asrwt>0</asrwt>
<pdfrwt beam="1">  1        1 0.10026963E+00 0.27688898E+03</pdfrwt>
<pdfrwt beam="2">  1       -1 0.45243397E-02 0.27688898E+03</pdfrwt>
<totfact> 0.63779883E+03</totfact>
</mgrwt>
</event>
<event>
 9    1  0.2095749E-002  0.2747672E+03  0.7818608E-02  0.1098582E+00
         -1   -1    0    0    0  501 -0.00000000000E+00  0.00000000000E+00  0.81454978890E+01  0.81454978890E+01  0.00000000000E+00 0. -1.
          1   -1    0    0  501    0  0.00000000000E+00 -0.00000000000E+00 -0.23171401151E+04  0.23171401151E+04  0.00000000000E+00 0. -1.
         36    2    1    2    0    0 -0.14210854715E-13  0.00000000000E+00 -0.23089946172E+04  0.23252856130E+04  0.27476724635E+03 0.  0.
         25    2    3    3    0    0  0.38813247195E+02 -0.38169558698E+02 -0.13803813764E+04  0.13867281453E+04  0.12082558217E+03 0.  0.
         25    2    3    3    0    0 -0.38813247195E+02  0.38169558698E+02 -0.92861324076E+03  0.93855746763E+03  0.12491671530E+03 0.  0.
          5    1    4    4  502    0  0.29469867848E+02 -0.78423943178E+02 -0.68787503565E+03  0.69297398410E+03  0.47000000000E+01 0. -1.
         -5    1    4    4    0  502  0.93433793473E+01  0.40254384481E+02 -0.69250634079E+03  0.69375416124E+03  0.47000000000E+01 0. -1.
          5    1    5    5  503    0  0.27263030273E+02 -0.30263702143E+02 -0.27280609175E+03  0.27587029232E+03  0.47000000000E+01 0.  1.
         -5    1    5    5    0  503 -0.66076277468E+02  0.68433260840E+02 -0.65580714901E+03  0.66268717531E+03  0.47000000000E+01 0.  1.
<mgrwt>
<rscale>  0 0.27476725E+03</rscale>
<asrwt>0</asrwt>
<pdfrwt beam="1">  1        1 0.35648314E+00 0.27476725E+03</pdfrwt>
<pdfrwt beam="2">  1       -1 0.12531534E-02 0.27476725E+03</pdfrwt>
<totfact> 0.28401164E+03</totfact>
</mgrwt>
</event>
<event>
 9    1  0.2095749E-002  0.2762298E+03  0.7818608E-02  0.1097766E+00
          1   -1    0    0  501    0  0.00000000000E+00  0.00000000000E+00  0.18914701394E+03  0.18914701394E+03  0.00000000000E+00 0. -1.
         -1   -1    0    0    0  501 -0.00000000000E+00 -0.00000000000E+00 -0.10085135293E+03  0.10085135293E+03  0.00000000000E+00 0. -1.
         36    2    1    2    0    0  0.71054273576E-14  0.71054273576E-14  0.88295661002E+02  0.28999836687E+03  0.27622984820E+03 0.  0.
         25    2    3    3    0    0  0.60665696024E+01 -0.49840436482E+02  0.29933159848E+02  0.14572843443E+03  0.13349123629E+03 0.  0.
         25    2    3    3    0    0 -0.60665696024E+01  0.49840436482E+02  0.58362501154E+02  0.14426993244E+03  0.12201130887E+03 0.  0.
          5    1    4    4  502    0 -0.39084037020E+02  0.21453791790E+02  0.40668818789E+02  0.60529909579E+02  0.47000000000E+01 0. -1.
         -5    1    4    4    0  502  0.45150606622E+02 -0.71294228272E+02 -0.10735658941E+02  0.85198524847E+02  0.47000000000E+01 0. -1.
          5    1    5    5  503    0  0.56676773014E+02  0.24584863247E+02  0.40961358707E+02  0.74273784118E+02  0.47000000000E+01 0.  1.
         -5    1    5    5    0  503 -0.62743342616E+02  0.25255573235E+02  0.17401142447E+02  0.69996148327E+02  0.47000000000E+01 0.  1.
<mgrwt>
<rscale>  0 0.27622985E+03</rscale>
<asrwt>0</asrwt>
<pdfrwt beam="1">  1        1 0.29099541E-01 0.27622985E+03</pdfrwt>
<pdfrwt beam="2">  1       -1 0.15515593E-01 0.27622985E+03</pdfrwt>
<totfact> 0.47632873E+03</totfact>
</mgrwt>
</event>
<event>
 9    1  0.2095749E-002  0.2750910E+03  0.7818608E-02  0.1098401E+00
         -2   -1    0    0    0  501 -0.00000000000E+00  0.00000000000E+00  0.39246692610E+02  0.39246692610E+02  0.00000000000E+00 0.  1.
          2   -1    0    0  501    0  0.00000000000E+00 -0.00000000000E+00 -0.48204730321E+03  0.48204730321E+03  0.00000000000E+00 0.  1.
         36    2    1    2    0    0  0.00000000000E+00  0.00000000000E+00 -0.44280061060E+03  0.52129399582E+03  0.27509098373E+03 0.  0.
         25    2    3    3    0    0 -0.39774687206E+02 -0.13258231765E+00 -0.30633311757E+03  0.33298118352E+03  0.12431591344E+03 0.  0.
         25    2    3    3    0    0  0.39774687206E+02  0.13258231765E+00 -0.13646749303E+03  0.18831281230E+03  0.12351637666E+03 0.  0.
          5    1    4    4  502    0 -0.67638390807E+02  0.31526490306E+02 -0.11626533737E+03  0.13823382428E+03  0.47000000000E+01 0.  1.
         -5    1    4    4    0  502  0.27863703601E+02 -0.31659072624E+02 -0.19006778020E+03  0.19474735924E+03  0.47000000000E+01 0.  1.
          5    1    5    5  503    0 -0.48217092584E+01 -0.53745173133E+02 -0.87125595149E+02  0.10259021320E+03  0.47000000000E+01 0.  1.
         -5    1    5    5    0  503  0.44596396465E+02  0.53877755451E+02 -0.49341897878E+02  0.85722599099E+02  0.47000000000E+01 0.  1.
<mgrwt>
<rscale>  0 0.27509098E+03</rscale>
<asrwt>0</asrwt>
<pdfrwt beam="1">  1        2 0.74161124E-01 0.27509098E+03</pdfrwt>
<pdfrwt beam="2">  1       -2 0.60379527E-02 0.27509098E+03</pdfrwt>
<totfact> 0.94527050E+03</totfact>
</mgrwt>
</event>
<event>
 9    1  0.2095749E-002  0.2756129E+03  0.7818608E-02  0.1098109E+00
          1   -1    0    0  501    0  0.00000000000E+00  0.00000000000E+00  0.33947407057E+03  0.33947407057E+03  0.00000000000E+00 0.  1.
         -1   -1    0    0    0  501 -0.00000000000E+00 -0.00000000000E+00 -0.55941309247E+02  0.55941309247E+02  0.00000000000E+00 0.  1.
         36    2    1    2    0    0  0.00000000000E+00  0.00000000000E+00  0.28353276132E+03  0.39541537982E+03  0.27561294573E+03 0.  0.
         25    2    3    3    0    0 -0.22314229867E+02  0.19086474103E+01  0.21196005375E+03  0.25031114608E+03  0.13125181018E+03 0.  0.
         25    2    3    3    0    0  0.22314229867E+02 -0.19086474103E+01  0.71572707571E+02  0.14510423374E+03  0.12422165025E+03 0.  0.
          5    1    4    4  502    0  0.40725014792E+02  0.14972936190E+02  0.16450053081E+03  0.17019174564E+03  0.47000000000E+01 0. -1.
         -5    1    4    4    0  502 -0.63039244659E+02 -0.13064288780E+02  0.47459522942E+02  0.80119400437E+02  0.47000000000E+01 0. -1.
          5    1    5    5  503    0 -0.45795166760E+00 -0.13695027648E+02 -0.33684216241E+02  0.36667150500E+02  0.47000000000E+01 0.  1.
         -5    1    5    5    0  503  0.22772181535E+02  0.11786380237E+02  0.10525692381E+03  0.10843708324E+03  0.47000000000E+01 0.  1.
<mgrwt>
<rscale>  0 0.27561295E+03</rscale>
<asrwt>0</asrwt>
<pdfrwt beam="1">  1        1 0.52226779E-01 0.27561295E+03</pdfrwt>
<pdfrwt beam="2">  1       -1 0.86063555E-02 0.27561295E+03</pdfrwt>
<totfact> 0.57218284E+03</totfact>
</mgrwt>
</event>
