<event>
 8    1  0.7984035E-001  0.3580674E+03  0.7818608E-02  0.1059352E+00
          2   -1    0    0  501    0  0.00000000000E+00  0.00000000000E+00  0.78668169336E+03  0.78668169336E+03  0.00000000000E+00 0. -1.
         -2   -1    0    0    0  501 -0.00000000000E+00 -0.00000000000E+00 -0.40744636908E+02  0.40744636908E+02  0.00000000000E+00 0. -1.
         25    2    1    2    0    0  0.95503592148E+02  0.81009326621E+02  0.43000800607E+03  0.46554056196E+03  0.12703417822E+03 0.  0.
         25    2    1    2    0    0 -0.95503592148E+02 -0.81009326621E+02  0.31592905038E+03  0.36188576831E+03  0.12436517726E+03 0.  0.
          5    1    3    3  502    0 -0.20117011307E+02  0.71345573129E+01  0.10709452983E+02  0.24338825674E+02  0.47000000000E+01 0.  1.
         -5    1    3    3    0  502  0.11562060345E+03  0.73874769308E+02  0.41929855308E+03  0.44120173629E+03  0.47000000000E+01 0.  1.
          5    1    4    4  503    0 -0.73198911812E+02 -0.68094674808E+02  0.32007755951E+03  0.33536055154E+03  0.47000000000E+01 0.  1.
         -5    1    4    4    0  503 -0.22304680335E+02 -0.12914651813E+02 -0.41485091305E+01  0.26525216763E+02  0.47000000000E+01 0.  1.
<mgrwt>
<rscale>  0 0.35806737E+03</rscale>
<asrwt>0</asrwt>
<pdfrwt beam="1">  1        2 0.12102794E+00 0.35806737E+03</pdfrwt>
<pdfrwt beam="2">  1       -2 0.62684063E-02 0.35806737E+03</pdfrwt>
<totfact> 0.50363875E+03</totfact>
</mgrwt>
</event>
<event>
 9    1  0.7984035E-001  0.2745852E+03  0.7818608E-02  0.1098684E+00
         -1   -1    0    0    0  501 -0.00000000000E+00  0.00000000000E+00  0.40991773349E+02  0.40991773349E+02  0.00000000000E+00 0.  1.
          1   -1    0    0  501    0  0.00000000000E+00 -0.00000000000E+00 -0.45983035814E+03  0.45983035814E+03  0.00000000000E+00 0.  1.
         35    2    1    2    0    0  0.00000000000E+00 -0.71054273576E-14 -0.41883858479E+03  0.50082213149E+03  0.27458522771E+03 0.  0.
         25    2    3    3    0    0 -0.47828807676E+01  0.56656880947E+02 -0.22356553128E+03  0.26257023042E+03  0.12541411810E+03 0.  0.
         25    2    3    3    0    0  0.47828807676E+01 -0.56656880947E+02 -0.19527305351E+03  0.23825190107E+03  0.12409482192E+03 0.  0.
          5    1    4    4  502    0  0.55374939951E+02  0.41558113550E+01 -0.11425788717E+03  0.12712438603E+03  0.47000000000E+01 0. -1.
         -5    1    4    4    0  502 -0.60157820719E+02  0.52501069592E+02 -0.10930764411E+03  0.13544584439E+03  0.47000000000E+01 0. -1.
          5    1    5    5  503    0 -0.55247959741E+02 -0.41408602451E+01 -0.94551541239E+02  0.10968850318E+03  0.47000000000E+01 0. -1.
         -5    1    5    5    0  503  0.60030840508E+02 -0.52516020702E+02 -0.10072151227E+03  0.12856339789E+03  0.47000000000E+01 0. -1.
<mgrwt>
<rscale>  0 0.27458523E+03</rscale>
<asrwt>0</asrwt>
<pdfrwt beam="1">  1        1 0.70743135E-01 0.27458523E+03</pdfrwt>
<pdfrwt beam="2">  1       -1 0.63064264E-02 0.27458523E+03</pdfrwt>
<totfact> 0.62211782E+03</totfact>
</mgrwt>
</event>
<event>
 9    1  0.7984035E-001  0.2744432E+03  0.7818608E-02  0.1098763E+00
         -2   -1    0    0    0  501 -0.00000000000E+00  0.00000000000E+00  0.26384873102E+02  0.26384873102E+02  0.00000000000E+00 0.  1.
          2   -1    0    0  501    0  0.00000000000E+00 -0.00000000000E+00 -0.71365766325E+03  0.71365766325E+03  0.00000000000E+00 0.  1.
         35    2    1    2    0    0  0.00000000000E+00  0.71054273576E-14 -0.68727279015E+03  0.74004253635E+03  0.27444319546E+03 0.  0.
         25    2    3    3    0    0 -0.31812263782E+02 -0.31729600239E+02 -0.45800890873E+03  0.47673868256E+03  0.12445410125E+03 0.  0.
         25    2    3    3    0    0  0.31812263782E+02  0.31729600239E+02 -0.22926388142E+03  0.26330385379E+03  0.12144218558E+03 0.  0.
          5    1    4    4  502    0 -0.72989117561E+02 -0.69052622198E+01 -0.17754160888E+03  0.19214111172E+03  0.47000000000E+01 0.  1.
         -5    1    4    4    0  502  0.41176853779E+02 -0.24824338019E+02 -0.28046729985E+03  0.28459757084E+03  0.47000000000E+01 0.  1.
          5    1    5    5  503    0  0.51128401431E+02 -0.28170696485E+02 -0.15585060811E+03  0.16649085146E+03  0.47000000000E+01 0. -1.
         -5    1    5    5    0  503 -0.19316137649E+02  0.59900296724E+02 -0.73413273310E+02  0.96813002326E+02  0.47000000000E+01 0. -1.
<mgrwt>
<rscale>  0 0.27444320E+03</rscale>
<asrwt>0</asrwt>
<pdfrwt beam="1">  1        2 0.10979349E+00 0.27444320E+03</pdfrwt>
<pdfrwt beam="2">  1       -2 0.40592110E-02 0.27444320E+03</pdfrwt>
<totfact> 0.10964977E+04</totfact>
</mgrwt>
</event>
<event>
 9    1  0.7984035E-001  0.2764630E+03  0.7818608E-02  0.1097637E+00
         -2   -1    0    0    0  501 -0.00000000000E+00  0.00000000000E+00  0.52107002680E+01  0.52107002680E+01  0.00000000000E+00 0.  1.
          2   -1    0    0  501    0  0.00000000000E+00 -0.00000000000E+00 -0.36670605888E+04  0.36670605888E+04  0.00000000000E+00 0.  1.
         35    2    1    2    0    0  0.00000000000E+00  0.00000000000E+00 -0.36618498885E+04  0.36722712891E+04  0.27646304341E+03 0.  0.
         25    2    3    3    0    0  0.56403064659E+02 -0.10664491122E+02 -0.16613925559E+04  0.16670963207E+04  0.12525925420E+03 0.  0.
         25    2    3    3    0    0 -0.56403064659E+02  0.10664491122E+02 -0.20004573327E+04  0.20051749684E+04  0.12490827371E+03 0.  0.
          5    1    4    4  502    0  0.35263255645E+01  0.86721521669E+01 -0.13824536569E+04  0.13824933435E+04  0.47000000000E+01 0. -1.
         -5    1    4    4    0  502  0.52876739094E+02 -0.19336643289E+02 -0.27893889895E+03  0.28460297725E+03  0.47000000000E+01 0. -1.
          5    1    5    5  503    0 -0.23551738411E+02 -0.52144051932E+02 -0.12630303228E+04  0.12643343596E+04  0.47000000000E+01 0.  1.
         -5    1    5    5    0  503 -0.32851326248E+02  0.62808543054E+02 -0.73742700985E+03  0.74084060875E+03  0.47000000000E+01 0.  1.
<mgrwt>
<rscale>  0 0.27646304E+03</rscale>
<asrwt>0</asrwt>
<pdfrwt beam="1">  1        2 0.56416399E+00 0.27646304E+03</pdfrwt>
<pdfrwt beam="2">  1       -2 0.80164502E-03 0.27646304E+03</pdfrwt>
<totfact> 0.22959995E+03</totfact>
</mgrwt>
</event>
<event>
 9    1  0.7984035E-001  0.2774686E+03  0.7818608E-02  0.1097080E+00
         -1   -1    0    0    0  501 -0.00000000000E+00  0.00000000000E+00  0.42539703513E+02  0.42539703513E+02  0.00000000000E+00 0.  1.
          1   -1    0    0  501    0  0.00000000000E+00 -0.00000000000E+00 -0.45245275726E+03  0.45245275726E+03  0.00000000000E+00 0.  1.
         35    2    1    2    0    0  0.00000000000E+00  0.00000000000E+00 -0.40991305375E+03  0.49499246077E+03  0.27746860109E+03 0.  0.
         25    2    3    3    0    0  0.53815498002E+02  0.16484656460E+02 -0.26109795892E+03  0.29523299783E+03  0.12578762710E+03 0.  0.
         25    2    3    3    0    0 -0.53815498002E+02 -0.16484656460E+02 -0.14881509482E+03  0.19975946294E+03  0.12078931601E+03 0.  0.
          5    1    4    4  502    0 -0.17007672060E+02 -0.38844149243E+02 -0.49853524014E+02  0.65617015293E+02  0.47000000000E+01 0.  1.
         -5    1    4    4    0  502  0.70823170062E+02  0.55328805703E+02 -0.21124443491E+03  0.22961598254E+03  0.47000000000E+01 0.  1.
          5    1    5    5  503    0 -0.32313665107E+02 -0.21537589536E+02  0.91628211322E+01  0.40175714141E+02  0.47000000000E+01 0. -1.
         -5    1    5    5    0  503 -0.21501832895E+02  0.50529330763E+01 -0.15797791596E+03  0.15958374880E+03  0.47000000000E+01 0. -1.
<mgrwt>
<rscale>  0 0.27746860E+03</rscale>
<asrwt>0</asrwt>
<pdfrwt beam="1">  1        1 0.69608116E-01 0.27746860E+03</pdfrwt>
<pdfrwt beam="2">  1       -1 0.65445698E-02 0.27746860E+03</pdfrwt>
<totfact> 0.60095060E+03</totfact>
</mgrwt>
</event>
<event>
 9    1  0.7984035E-001  0.2742903E+03  0.7818608E-02  0.1098849E+00
         -3   -1    0    0    0  501 -0.00000000000E+00  0.00000000000E+00  0.17216238341E+03  0.17216238341E+03  0.00000000000E+00 0. -1.
          3   -1    0    0  501    0  0.00000000000E+00 -0.00000000000E+00 -0.10925031454E+03  0.10925031454E+03  0.00000000000E+00 0. -1.
         35    2    1    2    0    0  0.14210854715E-13 -0.35527136788E-14  0.62912068873E+02  0.28141269795E+03  0.27429031729E+03 0.  0.
         25    2    3    3    0    0 -0.48349635508E+02  0.28841128195E+02  0.20790411257E+02  0.13880801724E+03  0.12516359902E+03 0.  0.
         25    2    3    3    0    0  0.48349635508E+02 -0.28841128195E+02  0.42121657616E+02  0.14260468072E+03  0.12406596226E+03 0.  0.
          5    1    4    4  502    0  0.19325159920E+01  0.33209488861E+02 -0.44746860557E+02  0.55955127541E+02  0.47000000000E+01 0. -1.
         -5    1    4    4    0  502 -0.50282151500E+02 -0.43683606659E+01  0.65537271814E+02  0.82852889697E+02  0.47000000000E+01 0. -1.
          5    1    5    5  503    0  0.13512935983E+02  0.43691605807E+02 -0.94235749130E+01  0.46930263381E+02  0.47000000000E+01 0.  1.
         -5    1    5    5    0  503  0.34836699525E+02 -0.72532734003E+02  0.51545232529E+02  0.95674417334E+02  0.47000000000E+01 0.  1.
<mgrwt>
<rscale>  0 0.27429032E+03</rscale>
<asrwt>0</asrwt>
<pdfrwt beam="1">  1        3 0.16807741E-01 0.27429032E+03</pdfrwt>
<pdfrwt beam="2">  1       -3 0.26486520E-01 0.27429032E+03</pdfrwt>
<totfact> 0.10473743E+03</totfact>
</mgrwt>
</event>
<event>
 9    1  0.7984035E-001  0.2760862E+03  0.7818608E-02  0.1097846E+00
          2   -1    0    0  501    0  0.00000000000E+00  0.00000000000E+00  0.24648965002E+04  0.24648965002E+04  0.00000000000E+00 0. -1.
         -2   -1    0    0    0  501 -0.00000000000E+00 -0.00000000000E+00 -0.77309119675E+01  0.77309119675E+01  0.00000000000E+00 0. -1.
         35    2    1    2    0    0  0.00000000000E+00 -0.35527136788E-14  0.24571655882E+04  0.24726274122E+04  0.27608620286E+03 0.  0.
         25    2    3    3    0    0  0.27196448455E+02 -0.88631110863E+01  0.75973043597E+03  0.77042629207E+03  0.12469215945E+03 0.  0.
         25    2    3    3    0    0 -0.27196448455E+02  0.88631110863E+01  0.16974351523E+04  0.17022011201E+04  0.12403368725E+03 0.  0.
          5    1    4    4  502    0  0.12788580509E+02  0.57791548912E+02  0.37467901306E+03  0.37935453569E+03  0.47000000000E+01 0.  1.
         -5    1    4    4    0  502  0.14407867946E+02 -0.66654659999E+02  0.38505142291E+03  0.39107175639E+03  0.47000000000E+01 0.  1.
          5    1    5    5  503    0  0.40900647586E+02 -0.27326132719E+02  0.58228625399E+03  0.58437911674E+03  0.47000000000E+01 0. -1.
         -5    1    5    5    0  503 -0.68097096041E+02  0.36189243806E+02  0.11151488983E+04  0.11178220034E+04  0.47000000000E+01 0. -1.
<mgrwt>
<rscale>  0 0.27608620E+03</rscale>
<asrwt>0</asrwt>
<pdfrwt beam="1">  1        2 0.37921422E+00 0.27608620E+03</pdfrwt>
<pdfrwt beam="2">  1       -2 0.11893730E-02 0.27608620E+03</pdfrwt>
<totfact> 0.69430180E+03</totfact>
</mgrwt>
</event>
<event>
 9    1  0.7984035E-001  0.2749075E+03  0.7818608E-02  0.1098503E+00
          1   -1    0    0  501    0  0.00000000000E+00  0.00000000000E+00  0.55142028422E+03  0.55142028422E+03  0.00000000000E+00 0.  1.
         -1   -1    0    0    0  501 -0.00000000000E+00 -0.00000000000E+00 -0.34263397049E+02  0.34263397049E+02  0.00000000000E+00 0.  1.
         35    2    1    2    0    0  0.71054273576E-14 -0.14210854715E-13  0.51715688717E+03  0.58568368126E+03  0.27490749090E+03 0.  0.
         25    2    3    3    0    0  0.30378733024E+02  0.46607574494E+02  0.23882451168E+03  0.27501194493E+03  0.12449614071E+03 0.  0.
         25    2    3    3    0    0 -0.30378733024E+02 -0.46607574494E+02  0.27833237549E+03  0.31067173634E+03  0.12630472317E+03 0.  0.
          5    1    4    4  502    0  0.78804457807E+02  0.34359555848E+02  0.14596880020E+03  0.16946888293E+03  0.47000000000E+01 0.  1.
         -5    1    4    4    0  502 -0.48425724783E+02  0.12248018646E+02  0.92855711478E+02  0.10554306200E+03  0.47000000000E+01 0.  1.
          5    1    5    5  503    0 -0.20524282137E+02 -0.87622362555E+02  0.14475971372E+03  0.17051800284E+03  0.47000000000E+01 0. -1.
         -5    1    5    5    0  503 -0.98544508871E+01  0.41014788061E+02  0.13357266177E+03  0.14015373350E+03  0.47000000000E+01 0. -1.
<mgrwt>
<rscale>  0 0.27490749E+03</rscale>
<asrwt>0</asrwt>
<pdfrwt beam="1">  1        1 0.84833884E-01 0.27490749E+03</pdfrwt>
<pdfrwt beam="2">  1       -1 0.52712922E-02 0.27490749E+03</pdfrwt>
<totfact> 0.63991887E+03</totfact>
</mgrwt>
</event>
<event>
 9    1  0.7984035E-001  0.2708653E+03  0.7818608E-02  0.1100785E+00
         -1   -1    0    0    0  501 -0.00000000000E+00  0.00000000000E+00  0.93254160148E+02  0.93254160148E+02  0.00000000000E+00 0.  1.
          1   -1    0    0  501    0  0.00000000000E+00 -0.00000000000E+00 -0.19668825099E+03  0.19668825099E+03  0.00000000000E+00 0.  1.
         35    2    1    2    0    0  0.14210854715E-13 -0.71054273576E-14 -0.10343409084E+03  0.28994241113E+03  0.27086526286E+03 0.  0.
         25    2    3    3    0    0 -0.78218816290E+01 -0.51169094792E+02 -0.56740665564E+02  0.14676574038E+03  0.12506486848E+03 0.  0.
         25    2    3    3    0    0  0.78218816290E+01  0.51169094792E+02 -0.46693425275E+02  0.14317667075E+03  0.12505928590E+03 0.  0.
          5    1    4    4  502    0 -0.40172128922E+02  0.17585196472E+02  0.10338898650E+02  0.45299248364E+02  0.47000000000E+01 0.  1.
         -5    1    4    4    0  502  0.32350247293E+02 -0.68754291264E+02 -0.67079564215E+02  0.10146649202E+03  0.47000000000E+01 0.  1.
          5    1    5    5  503    0 -0.57736150246E+02  0.13097473381E+02 -0.20950392752E+02  0.62976311504E+02  0.47000000000E+01 0. -1.
         -5    1    5    5    0  503  0.65558031875E+02  0.38071621411E+02 -0.25743032522E+02  0.80200359248E+02  0.47000000000E+01 0. -1.
<mgrwt>
<rscale>  0 0.27086526E+03</rscale>
<asrwt>0</asrwt>
<pdfrwt beam="1">  1        1 0.30259730E-01 0.27086526E+03</pdfrwt>
<pdfrwt beam="2">  1       -1 0.14346794E-01 0.27086526E+03</pdfrwt>
<totfact> 0.51303064E+03</totfact>
</mgrwt>
</event>
<event>
 9    1  0.7984035E-001  0.2750210E+03  0.7818608E-02  0.1098440E+00
          2   -1    0    0  501    0  0.00000000000E+00  0.00000000000E+00  0.88531436145E+03  0.88531436145E+03  0.00000000000E+00 0.  1.
         -2   -1    0    0    0  501 -0.00000000000E+00 -0.00000000000E+00 -0.21358666734E+02  0.21358666734E+02  0.00000000000E+00 0.  1.
         35    2    1    2    0    0  0.35527136788E-14  0.71054273576E-14  0.86395569471E+03  0.90667302818E+03  0.27502097666E+03 0.  0.
         25    2    3    3    0    0 -0.20112406633E+02  0.54137711674E+02  0.46401664241E+03  0.48391406860E+03  0.12460329303E+03 0.  0.
         25    2    3    3    0    0  0.20112406633E+02 -0.54137711674E+02  0.39993905231E+03  0.42275895958E+03  0.12425172683E+03 0.  0.
          5    1    4    4  502    0 -0.82101925743E+01 -0.40621397733E+02  0.13838790138E+03  0.14453652294E+03  0.47000000000E+01 0.  1.
         -5    1    4    4    0  502 -0.11902214059E+02  0.94759109407E+02  0.32562874103E+03  0.33937754566E+03  0.47000000000E+01 0.  1.
          5    1    5    5  503    0  0.37817601477E+02 -0.89419115408E+02  0.28960564545E+03  0.30548235474E+03  0.47000000000E+01 0. -1.
         -5    1    5    5    0  503 -0.17705194844E+02  0.35281403734E+02  0.11033340686E+03  0.11727660484E+03  0.47000000000E+01 0. -1.
<mgrwt>
<rscale>  0 0.27502098E+03</rscale>
<asrwt>0</asrwt>
<pdfrwt beam="1">  1        2 0.13620218E+00 0.27502098E+03</pdfrwt>
<pdfrwt beam="2">  1       -2 0.32859494E-02 0.27502098E+03</pdfrwt>
<totfact> 0.11444409E+04</totfact>
</mgrwt>
</event>
<event>
 9    1  0.7984035E-001  0.2694902E+03  0.7818608E-02  0.1101572E+00
         -2   -1    0    0    0  501 -0.00000000000E+00  0.00000000000E+00  0.12446697609E+03  0.12446697609E+03  0.00000000000E+00 0. -1.
          2   -1    0    0  501    0  0.00000000000E+00 -0.00000000000E+00 -0.14587193403E+03  0.14587193403E+03  0.00000000000E+00 0. -1.
         35    2    1    2    0    0  0.00000000000E+00  0.71054273576E-14 -0.21404957940E+02  0.27033891011E+03  0.26949017440E+03 0.  0.
         25    2    3    3    0    0 -0.22384105049E+02 -0.25562128429E+02 -0.46317691472E+02  0.13768580006E+03  0.12513025384E+03 0.  0.
         25    2    3    3    0    0  0.22384105049E+02  0.25562128429E+02  0.24912733532E+02  0.13265311005E+03  0.12578446941E+03 0.  0.
          5    1    4    4  502    0 -0.27878364376E+02 -0.71762909510E+02 -0.86032247278E+01  0.77609431497E+02  0.47000000000E+01 0.  1.
         -5    1    4    4    0  502  0.54942593263E+01  0.46200781080E+02 -0.37714466744E+02  0.60076368563E+02  0.47000000000E+01 0.  1.
          5    1    5    5  503    0 -0.45700493120E+02  0.37990873560E+02  0.20884241736E+02  0.63167104557E+02  0.47000000000E+01 0. -1.
         -5    1    5    5    0  503  0.68084598169E+02 -0.12428745131E+02  0.40284917963E+01  0.69486005494E+02  0.47000000000E+01 0. -1.
<mgrwt>
<rscale>  0 0.26949017E+03</rscale>
<asrwt>0</asrwt>
<pdfrwt beam="1">  1        2 0.22441836E-01 0.26949017E+03</pdfrwt>
<pdfrwt beam="2">  1       -2 0.19148765E-01 0.26949017E+03</pdfrwt>
<totfact> 0.54640142E+03</totfact>
</mgrwt>
</event>
<event>
 9    1  0.7984035E-001  0.2760565E+03  0.7818608E-02  0.1097863E+00
         -1   -1    0    0    0  501 -0.00000000000E+00  0.00000000000E+00  0.22825176020E+03  0.22825176020E+03  0.00000000000E+00 0. -1.
          1   -1    0    0  501    0  0.00000000000E+00 -0.00000000000E+00 -0.83468333094E+02  0.83468333094E+02  0.00000000000E+00 0. -1.
         35    2    1    2    0    0  0.00000000000E+00  0.00000000000E+00  0.14478342711E+03  0.31172009330E+03  0.27605647212E+03 0.  0.
         25    2    3    3    0    0  0.36798142591E+02 -0.27585145164E+02  0.11392588008E+03  0.17520614073E+03  0.12491213739E+03 0.  0.
         25    2    3    3    0    0 -0.36798142591E+02  0.27585145164E+02  0.30857547029E+02  0.13651395256E+03  0.12477510771E+03 0.  0.
          5    1    4    4  502    0  0.37613973450E+02 -0.47797911471E+02  0.13343064766E+03  0.14671495859E+03  0.47000000000E+01 0.  1.
         -5    1    4    4    0  502 -0.81583085892E+00  0.20212766307E+02 -0.19504767577E+02  0.28491182145E+02  0.47000000000E+01 0.  1.
          5    1    5    5  503    0  0.33920657213E+02  0.48030562682E+02  0.17682840980E+02  0.61581805774E+02  0.47000000000E+01 0. -1.
         -5    1    5    5    0  503 -0.70718799803E+02 -0.20445417518E+02  0.13174706049E+02  0.74932146790E+02  0.47000000000E+01 0. -1.
<mgrwt>
<rscale>  0 0.27605647E+03</rscale>
<asrwt>0</asrwt>
<pdfrwt beam="1">  1        1 0.12841282E-01 0.27605647E+03</pdfrwt>
<pdfrwt beam="2">  1       -1 0.35115655E-01 0.27605647E+03</pdfrwt>
<totfact> 0.35459846E+03</totfact>
</mgrwt>
</event>
<event>
 9    1  0.7984035E-001  0.2799865E+03  0.7818608E-02  0.1095696E+00
          1   -1    0    0  501    0  0.00000000000E+00  0.00000000000E+00  0.43268110902E+03  0.43268110902E+03  0.00000000000E+00 0.  1.
         -1   -1    0    0    0  501 -0.00000000000E+00 -0.00000000000E+00 -0.45294589381E+02  0.45294589381E+02  0.00000000000E+00 0.  1.
         35    2    1    2    0    0  0.00000000000E+00 -0.35527136788E-14  0.38738651964E+03  0.47797569840E+03  0.27998652229E+03 0.  0.
         25    2    3    3    0    0  0.38841384022E+02 -0.10112328204E+02  0.26751265598E+03  0.29862014342E+03  0.12649133035E+03 0.  0.
         25    2    3    3    0    0 -0.38841384022E+02  0.10112328204E+02  0.11987386366E+03  0.17935555498E+03  0.12723112677E+03 0.  0.
          5    1    4    4  502    0 -0.44570422889E+02  0.90133409829E+01  0.11361245266E+03  0.12246486154E+03  0.47000000000E+01 0.  1.
         -5    1    4    4    0  502  0.83411806911E+02 -0.19125669187E+02  0.15390020332E+03  0.17615528189E+03  0.47000000000E+01 0.  1.
          5    1    5    5  503    0 -0.41432929523E+02 -0.30905304056E+02 -0.67405405242E+00  0.51907319489E+02  0.47000000000E+01 0. -1.
         -5    1    5    5    0  503  0.25915455018E+01  0.41017632260E+02  0.12054791771E+03  0.12744823549E+03  0.47000000000E+01 0. -1.
<mgrwt>
<rscale>  0 0.27998652E+03</rscale>
<asrwt>0</asrwt>
<pdfrwt beam="1">  1        1 0.66566322E-01 0.27998652E+03</pdfrwt>
<pdfrwt beam="2">  1       -1 0.69683987E-02 0.27998652E+03</pdfrwt>
<totfact> 0.57926677E+03</totfact>
</mgrwt>
</event>
<event>
 9    1  0.7984035E-001  0.2765430E+03  0.7818608E-02  0.1097592E+00
         -3   -1    0    0    0  501 -0.00000000000E+00  0.00000000000E+00  0.37177712227E+03  0.37177712227E+03  0.00000000000E+00 0.  1.
          3   -1    0    0  501    0  0.00000000000E+00 -0.00000000000E+00 -0.51425998265E+02  0.51425998265E+02  0.00000000000E+00 0.  1.
         35    2    1    2    0    0  0.00000000000E+00  0.00000000000E+00  0.32035112401E+03  0.42320312054E+03  0.27654301398E+03 0.  0.
         25    2    3    3    0    0  0.42061152867E+02 -0.37159615716E+02  0.16099762455E+03  0.21228067010E+03  0.12646292012E+03 0.  0.
         25    2    3    3    0    0 -0.42061152867E+02  0.37159615716E+02  0.15935349946E+03  0.21092245044E+03  0.12627258091E+03 0.  0.
          5    1    4    4  502    0  0.20876082359E+02 -0.81158703427E+02  0.12832956017E+03  0.15333985774E+03  0.47000000000E+01 0.  1.
         -5    1    4    4    0  502  0.21185070508E+02  0.43999087711E+02  0.32668064382E+02  0.58940812366E+02  0.47000000000E+01 0.  1.
          5    1    5    5  503    0 -0.28751133825E+02 -0.25708706612E+02  0.13749943190E+03  0.14288369069E+03  0.47000000000E+01 0. -1.
         -5    1    5    5    0  503 -0.13310019042E+02  0.62868322329E+02  0.21854067553E+02  0.68038759747E+02  0.47000000000E+01 0. -1.
<mgrwt>
<rscale>  0 0.27654301E+03</rscale>
<asrwt>0</asrwt>
<pdfrwt beam="1">  1        3 0.79116923E-02 0.27654301E+03</pdfrwt>
<pdfrwt beam="2">  1       -3 0.57196479E-01 0.27654301E+03</pdfrwt>
<totfact> 0.83947786E+02</totfact>
</mgrwt>
</event>
<event>
 9    1  0.7984035E-001  0.2797033E+03  0.7818608E-02  0.1095851E+00
          4   -1    0    0  501    0  0.00000000000E+00  0.00000000000E+00  0.20123866742E+03  0.20123866742E+03  0.00000000000E+00 0. -1.
         -4   -1    0    0    0  501 -0.00000000000E+00 -0.00000000000E+00 -0.97190514853E+02  0.97190514853E+02  0.00000000000E+00 0. -1.
         35    2    1    2    0    0  0.35527136788E-14 -0.71054273576E-14  0.10404815257E+03  0.29842918227E+03  0.27970334067E+03 0.  0.
         25    2    3    3    0    0 -0.12886870626E+02 -0.59098950703E+02  0.71243914515E+02  0.15569686198E+03  0.12452734666E+03 0.  0.
         25    2    3    3    0    0  0.12886870626E+02  0.59098950703E+02  0.32804238052E+02  0.14273232030E+03  0.12505054904E+03 0.  0.
          5    1    4    4  502    0 -0.40428779754E+02 -0.34089757909E+02  0.96740779733E+02  0.11035155771E+03  0.47000000000E+01 0. -1.
         -5    1    4    4    0  502  0.27541909129E+02 -0.25009192794E+02 -0.25496865218E+02  0.45345304262E+02  0.47000000000E+01 0. -1.
          5    1    5    5  503    0 -0.88846692524E+00 -0.26580558481E+02 -0.26247825014E+02  0.37661037965E+02  0.47000000000E+01 0. -1.
         -5    1    5    5    0  503  0.13775337551E+02  0.85679509184E+02  0.59052063066E+02  0.10507128233E+03  0.47000000000E+01 0. -1.
<mgrwt>
<rscale>  0 0.27970334E+03</rscale>
<asrwt>0</asrwt>
<pdfrwt beam="1">  1        4 0.30959795E-01 0.27970334E+03</pdfrwt>
<pdfrwt beam="2">  1       -4 0.14952387E-01 0.27970334E+03</pdfrwt>
<totfact> 0.71328450E+02</totfact>
</mgrwt>
</event>
<event>
 9    1  0.7984035E-001  0.2756123E+03  0.7818608E-02  0.1098110E+00
         -2   -1    0    0    0  501 -0.00000000000E+00  0.00000000000E+00  0.15197917303E+02  0.15197917303E+02  0.00000000000E+00 0.  1.
          2   -1    0    0  501    0  0.00000000000E+00 -0.00000000000E+00 -0.12495483853E+04  0.12495483853E+04  0.00000000000E+00 0.  1.
         35    2    1    2    0    0 -0.17763568394E-14 -0.35527136788E-14 -0.12343504680E+04  0.12647463026E+04  0.27561228584E+03 0.  0.
         25    2    3    3    0    0  0.24274661032E+01 -0.23250197102E+02 -0.37444864679E+03  0.39543350316E+03  0.12493759274E+03 0.  0.
         25    2    3    3    0    0 -0.24274661032E+01  0.23250197102E+02 -0.85990182124E+03  0.86931279948E+03  0.12540788216E+03 0.  0.
          5    1    4    4  502    0  0.61380766134E+02  0.36033985246E+01 -0.19971357189E+03  0.20901718525E+03  0.47000000000E+01 0.  1.
         -5    1    4    4    0  502 -0.58953300031E+02 -0.26853595626E+02 -0.17473507490E+03  0.18641631791E+03  0.47000000000E+01 0.  1.
          5    1    5    5  503    0 -0.16220179809E+02  0.32811366050E+02 -0.69247914498E+02  0.78466831447E+02  0.47000000000E+01 0.  1.
         -5    1    5    5    0  503  0.13792713706E+02 -0.95611689487E+01 -0.79065390674E+03  0.79084596803E+03  0.47000000000E+01 0.  1.
<mgrwt>
<rscale>  0 0.27561229E+03</rscale>
<asrwt>0</asrwt>
<pdfrwt beam="1">  1        2 0.19223821E+00 0.27561229E+03</pdfrwt>
<pdfrwt beam="2">  1       -2 0.23381412E-02 0.27561229E+03</pdfrwt>
<totfact> 0.11482019E+04</totfact>
</mgrwt>
</event>
<event>
 9    1  0.7984035E-001  0.2757442E+03  0.7818608E-02  0.1098036E+00
         -4   -1    0    0    0  501 -0.00000000000E+00  0.00000000000E+00  0.12262075389E+03  0.12262075389E+03  0.00000000000E+00 0. -1.
          4   -1    0    0  501    0  0.00000000000E+00 -0.00000000000E+00 -0.15502032517E+03  0.15502032517E+03  0.00000000000E+00 0. -1.
         35    2    1    2    0    0  0.00000000000E+00  0.00000000000E+00 -0.32399571280E+02  0.27764107905E+03  0.27574415054E+03 0.  0.
         25    2    3    3    0    0 -0.55291173912E+02 -0.18036615918E+02 -0.72937037027E+01  0.13783437178E+03  0.12475048098E+03 0.  0.
         25    2    3    3    0    0  0.55291173912E+02  0.18036615918E+02 -0.25105867577E+02  0.13980670727E+03  0.12463216834E+03 0.  0.
          5    1    4    4  502    0  0.26567281846E+02  0.10756005457E+02  0.31342257880E+02  0.42731010368E+02  0.47000000000E+01 0.  1.
         -5    1    4    4    0  502 -0.81858455758E+02 -0.28792621374E+02 -0.38635961583E+02  0.95103361413E+02  0.47000000000E+01 0.  1.
          5    1    5    5  503    0 -0.27172886550E+02 -0.30243606635E+02 -0.15044204806E+02  0.43605729028E+02  0.47000000000E+01 0.  1.
         -5    1    5    5    0  503  0.82464060462E+02  0.48280222553E+02 -0.10061662771E+02  0.96200978245E+02  0.47000000000E+01 0.  1.
<mgrwt>
<rscale>  0 0.27574415E+03</rscale>
<asrwt>0</asrwt>
<pdfrwt beam="1">  1        4 0.23849281E-01 0.27574415E+03</pdfrwt>
<pdfrwt beam="2">  1       -4 0.18864731E-01 0.27574415E+03</pdfrwt>
<totfact> 0.76907968E+02</totfact>
</mgrwt>
</event>
<event>
 9    1  0.7984035E-001  0.2726896E+03  0.7818608E-02  0.1099750E+00
         -2   -1    0    0    0  501 -0.00000000000E+00  0.00000000000E+00  0.40526734443E+02  0.40526734443E+02  0.00000000000E+00 0.  1.
          2   -1    0    0  501    0  0.00000000000E+00 -0.00000000000E+00 -0.45870715765E+03  0.45870715765E+03  0.00000000000E+00 0.  1.
         35    2    1    2    0    0  0.35527136788E-14  0.71054273576E-14 -0.41818042321E+03  0.49923389210E+03  0.27268959031E+03 0.  0.
         25    2    3    3    0    0  0.24859738484E+02  0.35884896412E+02 -0.14851244240E+03  0.19891241552E+03  0.12491785747E+03 0.  0.
         25    2    3    3    0    0 -0.24859738484E+02 -0.35884896412E+02 -0.26966798081E+03  0.30032147657E+03  0.12476552820E+03 0.  0.
          5    1    4    4  502    0  0.39636274905E+02 -0.38264328459E+02 -0.76520947374E+02  0.94407301136E+02  0.47000000000E+01 0.  1.
         -5    1    4    4    0  502 -0.14776536421E+02  0.74149224871E+02 -0.71991495022E+02  0.10450511439E+03  0.47000000000E+01 0.  1.
          5    1    5    5  503    0 -0.52698995463E+02  0.17804407351E+02 -0.59556179980E+02  0.81628485333E+02  0.47000000000E+01 0.  1.
         -5    1    5    5    0  503  0.27839256979E+02 -0.53689303763E+02 -0.21011180084E+03  0.21869299124E+03  0.47000000000E+01 0.  1.
<mgrwt>
<rscale>  0 0.27268959E+03</rscale>
<asrwt>0</asrwt>
<pdfrwt beam="1">  1        2 0.70570330E-01 0.27268959E+03</pdfrwt>
<pdfrwt beam="2">  1       -2 0.62348824E-02 0.27268959E+03</pdfrwt>
<totfact> 0.95033103E+03</totfact>
</mgrwt>
</event>
<event>
 9    1  0.7984035E-001  0.2810834E+03  0.7818608E-02  0.1095099E+00
         -1   -1    0    0    0  501 -0.00000000000E+00  0.00000000000E+00  0.13198317782E+03  0.13198317782E+03  0.00000000000E+00 0. -1.
          1   -1    0    0  501    0  0.00000000000E+00 -0.00000000000E+00 -0.14965517007E+03  0.14965517007E+03  0.00000000000E+00 0. -1.
         35    2    1    2    0    0  0.00000000000E+00 -0.35527136788E-14 -0.17671992245E+02  0.28163834789E+03  0.28108336786E+03 0.  0.
         25    2    3    3    0    0  0.10440420074E+02 -0.31582719135E+02  0.40914401772E+02  0.13968423402E+03  0.12934924214E+03 0.  0.
         25    2    3    3    0    0 -0.10440420074E+02  0.31582719135E+02 -0.58586394017E+02  0.14195411387E+03  0.12494852684E+03 0.  0.
          5    1    4    4  502    0  0.44571240223E+02  0.34093878860E+02  0.30052887912E+01  0.56392462187E+02  0.47000000000E+01 0. -1.
         -5    1    4    4    0  502 -0.34130820149E+02 -0.65676597995E+02  0.37909112981E+02  0.83291771834E+02  0.47000000000E+01 0. -1.
          5    1    5    5  503    0  0.26140160959E+02  0.60493695836E+02  0.10908356142E+01  0.66076282986E+02  0.47000000000E+01 0. -1.
         -5    1    5    5    0  503 -0.36580581033E+02 -0.28910976701E+02 -0.59677229632E+02  0.75877830879E+02  0.47000000000E+01 0. -1.
<mgrwt>
<rscale>  0 0.28108337E+03</rscale>
<asrwt>0</asrwt>
<pdfrwt beam="1">  1        1 0.23023872E-01 0.28108337E+03</pdfrwt>
<pdfrwt beam="2">  1       -1 0.20305104E-01 0.28108337E+03</pdfrwt>
<totfact> 0.41630084E+03</totfact>
</mgrwt>
</event>
<event>
 9    1  0.7984035E-001  0.2755097E+03  0.7818608E-02  0.1098167E+00
         -2   -1    0    0    0  501 -0.00000000000E+00  0.00000000000E+00  0.28588491054E+03  0.28588491054E+03  0.00000000000E+00 0. -1.
          2   -1    0    0  501    0  0.00000000000E+00 -0.00000000000E+00 -0.66377774566E+02  0.66377774566E+02  0.00000000000E+00 0. -1.
         35    2    1    2    0    0  0.71054273576E-14  0.00000000000E+00  0.21950713597E+03  0.35226268510E+03  0.27550973953E+03 0.  0.
         25    2    3    3    0    0  0.39604422450E+02  0.22328768369E+01  0.55076402733E+02  0.14241959612E+03  0.12520557178E+03 0.  0.
         25    2    3    3    0    0 -0.39604422450E+02 -0.22328768369E+01  0.16443073324E+03  0.20984308898E+03  0.12419001548E+03 0.  0.
          5    1    4    4  502    0  0.81231435243E+02  0.18330326723E+02  0.20831906250E+02  0.85968629554E+02  0.47000000000E+01 0.  1.
         -5    1    4    4    0  502 -0.41627012792E+02 -0.16097449887E+02  0.34244496483E+02  0.56450966566E+02  0.47000000000E+01 0.  1.
          5    1    5    5  503    0  0.92677337333E+01  0.53501440999E+02  0.53728850794E+02  0.76532179409E+02  0.47000000000E+01 0.  1.
         -5    1    5    5    0  503 -0.48872156184E+02 -0.55734317836E+02  0.11070188244E+03  0.13331090957E+03  0.47000000000E+01 0.  1.
<mgrwt>
<rscale>  0 0.27550974E+03</rscale>
<asrwt>0</asrwt>
<pdfrwt beam="1">  1        2 0.10211966E-01 0.27550974E+03</pdfrwt>
<pdfrwt beam="2">  1       -2 0.43982293E-01 0.27550974E+03</pdfrwt>
<totfact> 0.30801966E+03</totfact>
</mgrwt>
</event>
<event>
 9    1  0.7984035E-001  0.2691477E+03  0.7818608E-02  0.1101768E+00
         -1   -1    0    0    0  501 -0.00000000000E+00  0.00000000000E+00  0.21045906802E+02  0.21045906802E+02  0.00000000000E+00 0. -1.
          1   -1    0    0  501    0  0.00000000000E+00 -0.00000000000E+00 -0.86050579725E+03  0.86050579725E+03  0.00000000000E+00 0. -1.
         35    2    1    2    0    0  0.00000000000E+00 -0.71054273576E-14 -0.83945989045E+03  0.88155170405E+03  0.26914772755E+03 0.  0.
         25    2    3    3    0    0  0.27548890732E+02  0.31719744937E+02 -0.39755105100E+03  0.42047270903E+03  0.13032796048E+03 0.  0.
         25    2    3    3    0    0 -0.27548890732E+02 -0.31719744937E+02 -0.44190883945E+03  0.46107899503E+03  0.12468092747E+03 0.  0.
          5    1    4    4  502    0 -0.49268070743E+02  0.27916556754E+02 -0.12638073725E+03  0.13856715947E+03  0.47000000000E+01 0. -1.
         -5    1    4    4    0  502  0.76816961474E+02  0.38031881837E+01 -0.27117031375E+03  0.28190554956E+03  0.47000000000E+01 0. -1.
          5    1    5    5  503    0 -0.58025133201E+02  0.26594821150E+02 -0.18184531994E+03  0.19277969545E+03  0.47000000000E+01 0. -1.
         -5    1    5    5    0  503  0.30476242469E+02 -0.58314566087E+02 -0.26006351951E+03  0.26829929958E+03  0.47000000000E+01 0. -1.
<mgrwt>
<rscale>  0 0.26914773E+03</rscale>
<asrwt>0</asrwt>
<pdfrwt beam="1">  1        1 0.13238551E+00 0.26914773E+03</pdfrwt>
<pdfrwt beam="2">  1       -1 0.32378317E-02 0.26914773E+03</pdfrwt>
<totfact> 0.69031377E+03</totfact>
</mgrwt>
</event>
<event>
 9    1  0.7984035E-001  0.2930601E+03  0.7818608E-02  0.1088762E+00
         -2   -1    0    0    0  501 -0.00000000000E+00  0.00000000000E+00  0.10915685132E+03  0.10915685132E+03  0.00000000000E+00 0. -1.
          2   -1    0    0  501    0  0.00000000000E+00 -0.00000000000E+00 -0.19669908792E+03  0.19669908792E+03  0.00000000000E+00 0. -1.
         35    2    1    2    0    0  0.00000000000E+00 -0.53290705182E-14 -0.87542236597E+02  0.30585593923E+03  0.29306008322E+03 0.  0.
         25    2    3    3    0    0 -0.66027593861E+02  0.13171900752E+02 -0.61963993250E+01  0.14171956842E+03  0.12455078718E+03 0.  0.
         25    2    3    3    0    0  0.66027593861E+02 -0.13171900752E+02 -0.81345837272E+02  0.16413637082E+03  0.12566010052E+03 0.  0.
          5    1    4    4  502    0 -0.42302410374E+02  0.68813290360E+02 -0.37580737557E+01  0.80999851679E+02  0.47000000000E+01 0. -1.
         -5    1    4    4    0  502 -0.23725183487E+02 -0.55641389608E+02 -0.24383255693E+01  0.60719716737E+02  0.47000000000E+01 0. -1.
          5    1    5    5  503    0  0.81846178359E+02  0.38112324914E+01 -0.10323988688E+03  0.13188588495E+03  0.47000000000E+01 0.  1.
         -5    1    5    5    0  503 -0.15818584498E+02 -0.16983133243E+02  0.21894049613E+02  0.32250485868E+02  0.47000000000E+01 0.  1.
<mgrwt>
<rscale>  0 0.29306008E+03</rscale>
<asrwt>0</asrwt>
<pdfrwt beam="1">  1        2 0.30261398E-01 0.29306008E+03</pdfrwt>
<pdfrwt beam="2">  1       -2 0.16793362E-01 0.29306008E+03</pdfrwt>
<totfact> 0.49014105E+03</totfact>
</mgrwt>
</event>
<event>
 9    1  0.7984035E-001  0.2747556E+03  0.7818608E-02  0.1098588E+00
         -2   -1    0    0    0  501 -0.00000000000E+00  0.00000000000E+00  0.90292646578E+01  0.90292646578E+01  0.00000000000E+00 0.  1.
          2   -1    0    0  501    0  0.00000000000E+00 -0.00000000000E+00 -0.20901656577E+04  0.20901656577E+04  0.00000000000E+00 0.  1.
         35    2    1    2    0    0 -0.71054273576E-14  0.00000000000E+00 -0.20811363930E+04  0.20991949223E+04  0.27475559249E+03 0.  0.
         25    2    3    3    0    0  0.37785974351E+02 -0.12310517628E+02 -0.86098633623E+03  0.87202566893E+03  0.13248383820E+03 0.  0.
         25    2    3    3    0    0 -0.37785974351E+02  0.12310517628E+02 -0.12201500568E+04  0.12271692534E+04  0.12489550326E+03 0.  0.
          5    1    4    4  502    0 -0.11462068858E+02 -0.52105047777E+02 -0.17262075304E+03  0.18073828982E+03  0.47000000000E+01 0. -1.
         -5    1    4    4    0  502  0.49248043209E+02  0.39794530149E+02 -0.68836558319E+03  0.69128737910E+03  0.47000000000E+01 0. -1.
          5    1    5    5  503    0 -0.76698777096E+02  0.35220996194E+02 -0.71371907039E+03  0.71870732738E+03  0.47000000000E+01 0. -1.
         -5    1    5    5    0  503  0.38912802745E+02 -0.22910478566E+02 -0.50643098639E+03  0.50846192603E+03  0.47000000000E+01 0. -1.
<mgrwt>
<rscale>  0 0.27475559E+03</rscale>
<asrwt>0</asrwt>
<pdfrwt beam="1">  1        2 0.32156384E+00 0.27475559E+03</pdfrwt>
<pdfrwt beam="2">  1       -2 0.13891181E-02 0.27475559E+03</pdfrwt>
<totfact> 0.87904632E+03</totfact>
</mgrwt>
</event>
<event>
 9    1  0.7984035E-001  0.2759905E+03  0.7818608E-02  0.1097899E+00
         -2   -1    0    0    0  501 -0.00000000000E+00  0.00000000000E+00  0.25226682489E+02  0.25226682489E+02  0.00000000000E+00 0.  1.
          2   -1    0    0  501    0  0.00000000000E+00 -0.00000000000E+00 -0.75486286368E+03  0.75486286368E+03  0.00000000000E+00 0.  1.
         35    2    1    2    0    0  0.00000000000E+00 -0.71054273576E-14 -0.72963618119E+03  0.78008954617E+03  0.27599047654E+03 0.  0.
         25    2    3    3    0    0  0.13222705891E+02 -0.39390088942E+02 -0.48230736193E+03  0.50007789689E+03  0.12542365215E+03 0.  0.
         25    2    3    3    0    0 -0.13222705891E+02  0.39390088942E+02 -0.24732881926E+03  0.28001164928E+03  0.12453336839E+03 0.  0.
          5    1    4    4  502    0 -0.51657203414E+02  0.27960282674E+01 -0.14651442046E+03  0.15545047392E+03  0.47000000000E+01 0.  1.
         -5    1    4    4    0  502  0.64879909306E+02 -0.42186117209E+02 -0.33579294147E+03  0.34462742297E+03  0.47000000000E+01 0.  1.
          5    1    5    5  503    0 -0.61714623903E+02  0.15069929360E+02 -0.19238191861E+03  0.20265411465E+03  0.47000000000E+01 0. -1.
         -5    1    5    5    0  503  0.48491918012E+02  0.24320159582E+02 -0.54946900641E+02  0.77357534634E+02  0.47000000000E+01 0. -1.
<mgrwt>
<rscale>  0 0.27599048E+03</rscale>
<asrwt>0</asrwt>
<pdfrwt beam="1">  1        2 0.11613275E+00 0.27599048E+03</pdfrwt>
<pdfrwt beam="2">  1       -2 0.38810281E-02 0.27599048E+03</pdfrwt>
<totfact> 0.10948478E+04</totfact>
</mgrwt>
</event>
<event>
 9    1  0.7984035E-001  0.2780116E+03  0.7818608E-02  0.1096780E+00
          2   -1    0    0  501    0  0.00000000000E+00  0.00000000000E+00  0.10019362550E+03  0.10019362550E+03  0.00000000000E+00 0. -1.
         -2   -1    0    0    0  501 -0.00000000000E+00 -0.00000000000E+00 -0.19285275549E+03  0.19285275549E+03  0.00000000000E+00 0. -1.
         35    2    1    2    0    0 -0.35527136788E-14  0.71054273576E-14 -0.92659129988E+02  0.29304638099E+03  0.27801163113E+03 0.  0.
         25    2    3    3    0    0 -0.26906839473E+02  0.46970734507E+02 -0.64427540539E+02  0.15337262056E+03  0.12822645924E+03 0.  0.
         25    2    3    3    0    0  0.26906839473E+02 -0.46970734507E+02 -0.28231589450E+02  0.13967376043E+03  0.12562447532E+03 0.  0.
          5    1    4    4  502    0  0.38607069214E+01  0.87487761982E+02 -0.46222714276E+02  0.99134468625E+02  0.47000000000E+01 0. -1.
         -5    1    4    4    0  502 -0.30767546395E+02 -0.40517027475E+02 -0.18204826262E+02  0.54238151939E+02  0.47000000000E+01 0. -1.
          5    1    5    5  503    0  0.53404490665E+02 -0.43877626715E+02  0.29966036128E+02  0.75480719860E+02  0.47000000000E+01 0. -1.
         -5    1    5    5    0  503 -0.26497651192E+02 -0.30931077920E+01 -0.58197625578E+02  0.64193040568E+02  0.47000000000E+01 0. -1.
<mgrwt>
<rscale>  0 0.27801163E+03</rscale>
<asrwt>0</asrwt>
<pdfrwt beam="1">  1        2 0.15414404E-01 0.27801163E+03</pdfrwt>
<pdfrwt beam="2">  1       -2 0.29669655E-01 0.27801163E+03</pdfrwt>
<totfact> 0.39169101E+03</totfact>
</mgrwt>
</event>
<event>
 9    1  0.7984035E-001  0.2721710E+03  0.7818608E-02  0.1100043E+00
         -1   -1    0    0    0  501 -0.00000000000E+00  0.00000000000E+00  0.69096128179E+01  0.69096128179E+01  0.00000000000E+00 0. -1.
          1   -1    0    0  501    0  0.00000000000E+00 -0.00000000000E+00 -0.26802168652E+04  0.26802168652E+04  0.00000000000E+00 0. -1.
         35    2    1    2    0    0 -0.35527136788E-14 -0.71054273576E-14 -0.26733072524E+04  0.26871264781E+04  0.27217098160E+03 0.  0.
         25    2    3    3    0    0  0.17123655425E+02 -0.45166544909E+02 -0.10694314926E+04  0.10777044046E+04  0.12421686706E+03 0.  0.
         25    2    3    3    0    0 -0.17123655425E+02  0.45166544909E+02 -0.16038757598E+04  0.16094220734E+04  0.12445369061E+03 0.  0.
          5    1    4    4  502    0  0.39158197296E+01  0.34506020094E+02 -0.62422466420E+03  0.62520758190E+03  0.47000000000E+01 0. -1.
         -5    1    4    4    0  502  0.13207835696E+02 -0.79672565002E+02 -0.44520682840E+03  0.45249682274E+03  0.47000000000E+01 0. -1.
          5    1    5    5  503    0 -0.15409889955E+02 -0.38426233653E+02 -0.30269598865E+03  0.30555030958E+03  0.47000000000E+01 0. -1.
         -5    1    5    5    0  503 -0.17137654707E+01  0.83592778562E+02 -0.13011797712E+04  0.13038717638E+04  0.47000000000E+01 0. -1.
<mgrwt>
<rscale>  0 0.27217098E+03</rscale>
<asrwt>0</asrwt>
<pdfrwt beam="1">  1        1 0.41234172E+00 0.27217098E+03</pdfrwt>
<pdfrwt beam="2">  1       -1 0.10630156E-02 0.27217098E+03</pdfrwt>
<totfact> 0.20674568E+03</totfact>
</mgrwt>
</event>
<event>
 9    1  0.7984035E-001  0.2731649E+03  0.7818608E-02  0.1099482E+00
         -2   -1    0    0    0  501 -0.00000000000E+00  0.00000000000E+00  0.57017012547E+01  0.57017012547E+01  0.00000000000E+00 0. -1.
          2   -1    0    0  501    0  0.00000000000E+00 -0.00000000000E+00 -0.32717888279E+04  0.32717888279E+04  0.00000000000E+00 0. -1.
         35    2    1    2    0    0  0.00000000000E+00 -0.71054273576E-14 -0.32660871266E+04  0.32774905291E+04  0.27316487670E+03 0.  0.
         25    2    3    3    0    0 -0.50181555970E+02  0.22355754902E+02 -0.19012490149E+04  0.19058817965E+04  0.12091169149E+03 0.  0.
         25    2    3    3    0    0  0.50181555970E+02 -0.22355754902E+02 -0.13648381117E+04  0.13716087327E+04  0.12453704651E+03 0.  0.
          5    1    4    4  502    0  0.18607509018E+02 -0.37073212082E+02 -0.57799362863E+03  0.57949925555E+03  0.47000000000E+01 0.  1.
         -5    1    4    4    0  502 -0.68789064988E+02  0.59428966985E+02 -0.13232553863E+04  0.13263825409E+04  0.47000000000E+01 0.  1.
          5    1    5    5  503    0  0.91061298419E+02 -0.18444529623E+02 -0.10397116841E+04  0.10438653346E+04  0.47000000000E+01 0.  1.
         -5    1    5    5    0  503 -0.40879742448E+02 -0.39112252793E+01 -0.32512642763E+03  0.32774339806E+03  0.47000000000E+01 0.  1.
<mgrwt>
<rscale>  0 0.27316488E+03</rscale>
<asrwt>0</asrwt>
<pdfrwt beam="1">  1        2 0.50335121E+00 0.27316488E+03</pdfrwt>
<pdfrwt beam="2">  1       -2 0.87718641E-03 0.27316488E+03</pdfrwt>
<totfact> 0.36701975E+03</totfact>
</mgrwt>
</event>
<event>
 9    1  0.7984035E-001  0.2707251E+03  0.7818608E-02  0.1100865E+00
         -1   -1    0    0    0  501 -0.00000000000E+00  0.00000000000E+00  0.66038321981E+03  0.66038321981E+03  0.00000000000E+00 0. -1.
          1   -1    0    0  501    0  0.00000000000E+00 -0.00000000000E+00 -0.27746049136E+02  0.27746049136E+02  0.00000000000E+00 0. -1.
         35    2    1    2    0    0  0.88817841970E-15  0.00000000000E+00  0.63263717067E+03  0.68812926895E+03  0.27072513932E+03 0.  0.
         25    2    3    3    0    0  0.23162765576E+01  0.85798325082E+01  0.45100028472E+03  0.46740771423E+03  0.12243257672E+03 0.  0.
         25    2    3    3    0    0 -0.23162765576E+01 -0.85798325082E+01  0.18163688595E+03  0.22072155471E+03  0.12508823971E+03 0.  0.
          5    1    4    4  502    0 -0.23854902807E+02 -0.43281309556E+02  0.32263251806E+03  0.32642941022E+03  0.47000000000E+01 0. -1.
         -5    1    4    4    0  502  0.26171179365E+02  0.51861142064E+02  0.12836776666E+03  0.14097830401E+03  0.47000000000E+01 0. -1.
          5    1    5    5  503    0 -0.71866577135E+01 -0.65205307686E+02  0.74686082317E+02  0.99516235316E+02  0.47000000000E+01 0.  1.
         -5    1    5    5    0  503  0.48703811559E+01  0.56625475178E+02  0.10695080363E+03  0.12120531940E+03  0.47000000000E+01 0.  1.
<mgrwt>
<rscale>  0 0.27072514E+03</rscale>
<asrwt>0</asrwt>
<pdfrwt beam="1">  1        1 0.42686234E-02 0.27072514E+03</pdfrwt>
<pdfrwt beam="2">  1       -1 0.10159741E+00 0.27072514E+03</pdfrwt>
<totfact> 0.20161176E+03</totfact>
</mgrwt>
</event>
<event>
 9    1  0.7984035E-001  0.2756154E+03  0.7818608E-02  0.1098108E+00
         -2   -1    0    0    0  501 -0.00000000000E+00  0.00000000000E+00  0.12978321558E+03  0.12978321558E+03  0.00000000000E+00 0. -1.
          2   -1    0    0  501    0  0.00000000000E+00 -0.00000000000E+00 -0.14632834918E+03  0.14632834918E+03  0.00000000000E+00 0. -1.
         35    2    1    2    0    0  0.00000000000E+00  0.00000000000E+00 -0.16545133595E+02  0.27611156476E+03  0.27561541094E+03 0.  0.
         25    2    3    3    0    0 -0.96634548867E+01  0.55035550763E+02 -0.15696313840E+02  0.13786263957E+03  0.12504974575E+03 0.  0.
         25    2    3    3    0    0  0.96634548867E+01 -0.55035550763E+02 -0.84881975476E+00  0.13824892519E+03  0.12645058566E+03 0.  0.
          5    1    4    4  502    0 -0.21313340461E+02  0.45543518498E+02 -0.67168164891E+02  0.84036438130E+02  0.47000000000E+01 0.  1.
         -5    1    4    4    0  502  0.11649885574E+02  0.94920322652E+01  0.51471851051E+02  0.53826201436E+02  0.47000000000E+01 0.  1.
          5    1    5    5  503    0 -0.13869408252E+02 -0.67149946371E+02  0.47072247158E+02  0.83302834498E+02  0.47000000000E+01 0. -1.
         -5    1    5    5    0  503  0.23532863138E+02  0.12114395608E+02 -0.47921066913E+02  0.54946090693E+02  0.47000000000E+01 0. -1.
<mgrwt>
<rscale>  0 0.27561541E+03</rscale>
<asrwt>0</asrwt>
<pdfrwt beam="1">  1        2 0.22512054E-01 0.27561541E+03</pdfrwt>
<pdfrwt beam="2">  1       -2 0.19966649E-01 0.27561541E+03</pdfrwt>
<totfact> 0.50740060E+03</totfact>
</mgrwt>
</event>
<event>
 9    1  0.7984035E-001  0.2750586E+03  0.7818608E-02  0.1098419E+00
         -2   -1    0    0    0  501 -0.00000000000E+00  0.00000000000E+00  0.45875861812E+02  0.45875861812E+02  0.00000000000E+00 0. -1.
          2   -1    0    0  501    0  0.00000000000E+00 -0.00000000000E+00 -0.41229323191E+03  0.41229323191E+03  0.00000000000E+00 0. -1.
         35    2    1    2    0    0  0.00000000000E+00  0.00000000000E+00 -0.36641737010E+03  0.45816909372E+03  0.27505859255E+03 0.  0.
         25    2    3    3    0    0  0.43562611639E+02  0.27076391508E+02 -0.22501826528E+03  0.26250184621E+03  0.12507264866E+03 0.  0.
         25    2    3    3    0    0 -0.43562611639E+02 -0.27076391508E+02 -0.14139910481E+03  0.19566724751E+03  0.12514444772E+03 0.  0.
          5    1    4    4  502    0  0.60315834456E+02 -0.46976822292E+01 -0.37099988194E+02  0.71123605283E+02  0.47000000000E+01 0. -1.
         -5    1    4    4    0  502 -0.16753222817E+02  0.31774073737E+02 -0.18791827709E+03  0.19137824093E+03  0.47000000000E+01 0. -1.
          5    1    5    5  503    0  0.39129099407E+02 -0.33471501487E+01 -0.81934075274E+02  0.90981165774E+02  0.47000000000E+01 0.  1.
         -5    1    5    5    0  503 -0.82691711047E+02 -0.23729241359E+02 -0.59465029540E+02  0.10468608174E+03  0.47000000000E+01 0.  1.
<mgrwt>
<rscale>  0 0.27505859E+03</rscale>
<asrwt>0</asrwt>
<pdfrwt beam="1">  1        2 0.63429730E-01 0.27505859E+03</pdfrwt>
<pdfrwt beam="2">  1       -2 0.70578247E-02 0.27505859E+03</pdfrwt>
<totfact> 0.88251228E+03</totfact>
</mgrwt>
</event>
<event>
 9    1  0.7984035E-001  0.2714244E+03  0.7818608E-02  0.1100467E+00
         -2   -1    0    0    0  501 -0.00000000000E+00  0.00000000000E+00  0.10104336433E+02  0.10104336433E+02  0.00000000000E+00 0. -1.
          2   -1    0    0  501    0  0.00000000000E+00 -0.00000000000E+00 -0.18227624337E+04  0.18227624337E+04  0.00000000000E+00 0. -1.
         35    2    1    2    0    0  0.00000000000E+00  0.00000000000E+00 -0.18126580973E+04  0.18328667701E+04  0.27142442681E+03 0.  0.
         25    2    3    3    0    0  0.40268020891E+02 -0.25689695370E+02 -0.10660702366E+04  0.10744240289E+04  0.12489904193E+03 0.  0.
         25    2    3    3    0    0 -0.40268020891E+02  0.25689695370E+02 -0.74658786067E+03  0.75844274118E+03  0.12474166905E+03 0.  0.
          5    1    4    4  502    0 -0.92771108530E+01  0.41266263822E+02 -0.55102757939E+03  0.55266848342E+03  0.47000000000E+01 0. -1.
         -5    1    4    4    0  502  0.49545131744E+02 -0.66955959192E+02 -0.51504265719E+03  0.52175554552E+03  0.47000000000E+01 0. -1.
          5    1    5    5  503    0 -0.18299585410E+02  0.73580702009E+02 -0.53378307283E+03  0.53916180631E+03  0.47000000000E+01 0.  1.
         -5    1    5    5    0  503 -0.21968435481E+02 -0.47891006639E+02 -0.21280478784E+03  0.21928093488E+03  0.47000000000E+01 0.  1.
<mgrwt>
<rscale>  0 0.27142443E+03</rscale>
<asrwt>0</asrwt>
<pdfrwt beam="1">  1        2 0.28042489E+00 0.27142443E+03</pdfrwt>
<pdfrwt beam="2">  1       -2 0.15545138E-02 0.27142443E+03</pdfrwt>
<totfact> 0.10306181E+04</totfact>
</mgrwt>
</event>
<event>
 9    1  0.7984035E-001  0.2705041E+03  0.7818608E-02  0.1100991E+00
         -1   -1    0    0    0  501 -0.00000000000E+00  0.00000000000E+00  0.51835587212E+02  0.51835587212E+02  0.00000000000E+00 0. -1.
          1   -1    0    0  501    0  0.00000000000E+00 -0.00000000000E+00 -0.35290658155E+03  0.35290658155E+03  0.00000000000E+00 0. -1.
         35    2    1    2    0    0  0.71054273576E-14  0.00000000000E+00 -0.30107099434E+03  0.40474216876E+03  0.27050412112E+03 0.  0.
         25    2    3    3    0    0 -0.20255189547E+02  0.44278483513E+02 -0.17195471412E+03  0.21824720078E+03  0.12526994904E+03 0.  0.
         25    2    3    3    0    0  0.20255189547E+02 -0.44278483513E+02 -0.12911628021E+03  0.18649496798E+03  0.12545318832E+03 0.  0.
          5    1    4    4  502    0 -0.57329264757E+02 -0.15027199783E+02 -0.50453618769E+02  0.77975117684E+02  0.47000000000E+01 0.  1.
         -5    1    4    4    0  502  0.37074075210E+02  0.59305683296E+02 -0.12150109535E+03  0.14027208309E+03  0.47000000000E+01 0.  1.
          5    1    5    5  503    0 -0.38836399451E+02  0.21825264293E+02 -0.54250984185E+02  0.70355293822E+02  0.47000000000E+01 0.  1.
         -5    1    5    5    0  503  0.59091588998E+02 -0.66103747806E+02 -0.74865296029E+02  0.11613967416E+03  0.47000000000E+01 0.  1.
<mgrwt>
<rscale>  0 0.27050412E+03</rscale>
<asrwt>0</asrwt>
<pdfrwt beam="1">  1        1 0.54293322E-01 0.27050412E+03</pdfrwt>
<pdfrwt beam="2">  1       -1 0.79747054E-02 0.27050412E+03</pdfrwt>
<totfact> 0.61172889E+03</totfact>
</mgrwt>
</event>
<event>
 9    1  0.7984035E-001  0.2671126E+03  0.7818608E-02  0.1102944E+00
          1   -1    0    0  501    0  0.00000000000E+00  0.00000000000E+00  0.79852139708E+03  0.79852139708E+03  0.00000000000E+00 0. -1.
         -1   -1    0    0    0  501 -0.00000000000E+00 -0.00000000000E+00 -0.22337884905E+02  0.22337884905E+02  0.00000000000E+00 0. -1.
         35    2    1    2    0    0 -0.71054273576E-14 -0.71054273576E-14  0.77618351217E+03  0.82085928198E+03  0.26711255352E+03 0.  0.
         25    2    3    3    0    0 -0.29570597586E+02  0.26987979829E+02  0.42412553213E+03  0.44492012315E+03  0.12833034591E+03 0.  0.
         25    2    3    3    0    0  0.29570597586E+02 -0.26987979829E+02  0.35205798004E+03  0.37593915884E+03  0.12562905132E+03 0.  0.
          5    1    4    4  502    0 -0.72427003456E+02 -0.12319588224E+02  0.27789087606E+03  0.28747673311E+03  0.47000000000E+01 0.  1.
         -5    1    4    4    0  502  0.42856405870E+02  0.39307568053E+02  0.14623465607E+03  0.15744339004E+03  0.47000000000E+01 0.  1.
          5    1    5    5  503    0  0.18081940750E+02  0.46547870781E+02  0.85308810894E+02  0.98961326142E+02  0.47000000000E+01 0.  1.
         -5    1    5    5    0  503  0.11488656836E+02 -0.73535850610E+02  0.26674916915E+03  0.27697783269E+03  0.47000000000E+01 0.  1.
<mgrwt>
<rscale>  0 0.26711255E+03</rscale>
<asrwt>0</asrwt>
<pdfrwt beam="1">  1        1 0.12284942E+00 0.26711255E+03</pdfrwt>
<pdfrwt beam="2">  1       -1 0.34365983E-02 0.26711255E+03</pdfrwt>
<totfact> 0.71033412E+03</totfact>
</mgrwt>
</event>
<event>
 9    1  0.7984035E-001  0.2851384E+03  0.7818608E-02  0.1092915E+00
          1   -1    0    0  501    0  0.00000000000E+00  0.00000000000E+00  0.38453569651E+02  0.38453569651E+02  0.00000000000E+00 0. -1.
         -1   -1    0    0    0  501 -0.00000000000E+00 -0.00000000000E+00 -0.52858500069E+03  0.52858500069E+03  0.00000000000E+00 0. -1.
         35    2    1    2    0    0  0.35527136788E-14  0.35527136788E-14 -0.49013143104E+03  0.56703857034E+03  0.28513842351E+03 0.  0.
         25    2    3    3    0    0  0.66523996140E+01 -0.14350604050E+02 -0.11299557011E+03  0.16934482608E+03  0.12513783200E+03 0.  0.
         25    2    3    3    0    0 -0.66523996140E+01  0.14350604050E+02 -0.37713586093E+03  0.39769374427E+03  0.12521446552E+03 0.  0.
          5    1    4    4  502    0  0.61972450891E+02 -0.67226242580E+01 -0.30350973435E+02  0.69491365901E+02  0.47000000000E+01 0.  1.
         -5    1    4    4    0  502 -0.55320051277E+02 -0.76279797916E+01 -0.82644596678E+02  0.99853460176E+02  0.47000000000E+01 0.  1.
          5    1    5    5  503    0 -0.43684014995E+01  0.47803359914E+02 -0.35259085692E+03  0.35587448143E+03  0.47000000000E+01 0. -1.
         -5    1    5    5    0  503 -0.22839981145E+01 -0.33452755864E+02 -0.24545004005E+02  0.41819262833E+02  0.47000000000E+01 0. -1.
<mgrwt>
<rscale>  0 0.28513842E+03</rscale>
<asrwt>0</asrwt>
<pdfrwt beam="1">  1        1 0.59159341E-02 0.28513842E+03</pdfrwt>
<pdfrwt beam="2">  1       -1 0.81320765E-01 0.28513842E+03</pdfrwt>
<totfact> 0.20759977E+03</totfact>
</mgrwt>
</event>
<event>
 9    1  0.7984035E-001  0.2825938E+03  0.7818608E-02  0.1094281E+00
          2   -1    0    0  501    0  0.00000000000E+00  0.00000000000E+00  0.44666029909E+03  0.44666029909E+03  0.00000000000E+00 0.  1.
         -2   -1    0    0    0  501 -0.00000000000E+00 -0.00000000000E+00 -0.44697970465E+02  0.44697970465E+02  0.00000000000E+00 0.  1.
         35    2    1    2    0    0  0.00000000000E+00  0.00000000000E+00  0.40196232863E+03  0.49135826956E+03  0.28259376396E+03 0.  0.
         25    2    3    3    0    0  0.26290387972E+02 -0.60715690141E+02  0.23766893144E+03  0.27270519660E+03  0.11620681457E+03 0.  0.
         25    2    3    3    0    0 -0.26290387972E+02  0.60715690141E+02  0.16429339719E+03  0.21865307295E+03  0.12821570272E+03 0.  0.
          5    1    4    4  502    0 -0.14811921654E+02 -0.79361779611E+02  0.10527273009E+03  0.13274834382E+03  0.47000000000E+01 0. -1.
         -5    1    4    4    0  502  0.41102309625E+02  0.18646089469E+02  0.13239620135E+03  0.13995685279E+03  0.47000000000E+01 0. -1.
          5    1    5    5  503    0 -0.55164059047E+01  0.18889372405E+02 -0.20016592249E+02  0.28460377532E+02  0.47000000000E+01 0.  1.
         -5    1    5    5    0  503 -0.20773982067E+02  0.41826317736E+02  0.18430998943E+03  0.19019269542E+03  0.47000000000E+01 0.  1.
<mgrwt>
<rscale>  0 0.28259376E+03</rscale>
<asrwt>0</asrwt>
<pdfrwt beam="1">  1        2 0.68716966E-01 0.28259376E+03</pdfrwt>
<pdfrwt beam="2">  1       -2 0.68766111E-02 0.28259376E+03</pdfrwt>
<totfact> 0.84249047E+03</totfact>
</mgrwt>
</event>
<event>
 9    1  0.7984035E-001  0.2625759E+03  0.7818608E-02  0.1105605E+00
         -1   -1    0    0    0  501 -0.00000000000E+00  0.00000000000E+00  0.85789125186E+03  0.85789125186E+03  0.00000000000E+00 0.  1.
          1   -1    0    0  501    0  0.00000000000E+00 -0.00000000000E+00 -0.20091733517E+02  0.20091733517E+02  0.00000000000E+00 0.  1.
         35    2    1    2    0    0  0.00000000000E+00  0.71054273576E-14  0.83779951834E+03  0.87798298538E+03  0.26257587413E+03 0.  0.
         25    2    3    3    0    0 -0.11286502040E+02  0.32009355229E+02  0.49104456516E+03  0.50796537378E+03  0.12550725890E+03 0.  0.
         25    2    3    3    0    0  0.11286502040E+02 -0.32009355229E+02  0.34675495318E+03  0.37001761160E+03  0.12458752499E+03 0.  0.
          5    1    4    4  502    0  0.48853498229E+02 -0.15703962945E+02  0.23680444167E+03  0.24234626537E+03  0.47000000000E+01 0. -1.
         -5    1    4    4    0  502 -0.60140000269E+02  0.47713318174E+02  0.25424012349E+03  0.26561910841E+03  0.47000000000E+01 0. -1.
          5    1    5    5  503    0 -0.26538916957E+02 -0.37841490897E+02  0.31934889225E+03  0.32271054759E+03  0.47000000000E+01 0.  1.
         -5    1    5    5    0  503  0.37825418997E+02  0.58321356680E+01  0.27406060934E+02  0.47307064004E+02  0.47000000000E+01 0.  1.
<mgrwt>
<rscale>  0 0.26257587E+03</rscale>
<asrwt>0</asrwt>
<pdfrwt beam="1">  1        1 0.30910366E-02 0.26257587E+03</pdfrwt>
<pdfrwt beam="2">  1       -1 0.13198324E+00 0.26257587E+03</pdfrwt>
<totfact> 0.17101345E+03</totfact>
</mgrwt>
</event>
<event>
 9    1  0.7984035E-001  0.2682087E+03  0.7818608E-02  0.1102309E+00
         -2   -1    0    0    0  501 -0.00000000000E+00  0.00000000000E+00  0.77910889504E+02  0.77910889504E+02  0.00000000000E+00 0. -1.
          2   -1    0    0  501    0  0.00000000000E+00 -0.00000000000E+00 -0.23082743699E+03  0.23082743699E+03  0.00000000000E+00 0. -1.
         35    2    1    2    0    0  0.00000000000E+00  0.00000000000E+00 -0.15291654749E+03  0.30873832650E+03  0.26820865712E+03 0.  0.
         25    2    3    3    0    0  0.50291510668E+01  0.45498294656E+02 -0.56251727777E+02  0.14460991047E+03  0.12510948066E+03 0.  0.
         25    2    3    3    0    0 -0.50291510668E+01 -0.45498294656E+02 -0.96664819712E+02  0.16412841603E+03  0.12449362394E+03 0.  0.
          5    1    4    4  502    0 -0.13805732345E+02 -0.36597331663E+02 -0.44504205113E+02  0.59436328984E+02  0.47000000000E+01 0.  1.
         -5    1    4    4    0  502  0.18834883412E+02  0.82095626319E+02 -0.11747522664E+02  0.85173581483E+02  0.47000000000E+01 0.  1.
          5    1    5    5  503    0  0.80983606271E+01  0.28256872823E+02  0.11969576608E+02  0.32084187239E+02  0.47000000000E+01 0. -1.
         -5    1    5    5    0  503 -0.13127511694E+02 -0.73755167480E+02 -0.10863439632E+03  0.13204422879E+03  0.47000000000E+01 0. -1.
<mgrwt>
<rscale>  0 0.26820866E+03</rscale>
<asrwt>0</asrwt>
<pdfrwt beam="1">  1        2 0.35511913E-01 0.26820866E+03</pdfrwt>
<pdfrwt beam="2">  1       -2 0.11986291E-01 0.26820866E+03</pdfrwt>
<totfact> 0.71431600E+03</totfact>
</mgrwt>
</event>
<event>
 9    1  0.7984035E-001  0.2753938E+03  0.7818608E-02  0.1098232E+00
          1   -1    0    0  501    0  0.00000000000E+00  0.00000000000E+00  0.91293611455E+02  0.91293611455E+02  0.00000000000E+00 0.  1.
         -1   -1    0    0    0  501 -0.00000000000E+00 -0.00000000000E+00 -0.20768640296E+03  0.20768640296E+03  0.00000000000E+00 0.  1.
         35    2    1    2    0    0  0.00000000000E+00  0.00000000000E+00 -0.11639279150E+03  0.29898001441E+03  0.27539383999E+03 0.  0.
         25    2    3    3    0    0  0.24941265442E+02 -0.46893410595E+02 -0.91012251829E+02  0.16119533319E+03  0.12198215763E+03 0.  0.
         25    2    3    3    0    0 -0.24941265442E+02  0.46893410595E+02 -0.25380539676E+02  0.13778468123E+03  0.12457683536E+03 0.  0.
          5    1    4    4  502    0 -0.15351690710E+02  0.50142771911E+01 -0.93762428999E+02  0.95259122793E+02  0.47000000000E+01 0.  1.
         -5    1    4    4    0  502  0.40292956152E+02 -0.51907687786E+02  0.27501771708E+01  0.65936210395E+02  0.47000000000E+01 0.  1.
          5    1    5    5  503    0 -0.41205312574E+02 -0.30455042220E+02  0.75984862676E+01  0.52011675367E+02  0.47000000000E+01 0. -1.
         -5    1    5    5    0  503  0.16264047132E+02  0.77348452815E+02 -0.32979025944E+02  0.85773005859E+02  0.47000000000E+01 0. -1.
<mgrwt>
<rscale>  0 0.27539384E+03</rscale>
<asrwt>0</asrwt>
<pdfrwt beam="1">  1        1 0.14045171E-01 0.27539384E+03</pdfrwt>
<pdfrwt beam="2">  1       -1 0.31951754E-01 0.27539384E+03</pdfrwt>
<totfact> 0.37077205E+03</totfact>
</mgrwt>
</event>
<event>
 9    1  0.7984035E-001  0.2769652E+03  0.7818608E-02  0.1097358E+00
          2   -1    0    0  501    0  0.00000000000E+00  0.00000000000E+00  0.20591184913E+03  0.20591184913E+03  0.00000000000E+00 0. -1.
         -2   -1    0    0    0  501 -0.00000000000E+00 -0.00000000000E+00 -0.93134166274E+02  0.93134166274E+02  0.00000000000E+00 0. -1.
         35    2    1    2    0    0  0.00000000000E+00  0.00000000000E+00  0.11277768285E+03  0.29904601540E+03  0.27696518478E+03 0.  0.
         25    2    3    3    0    0  0.19863414010E+02 -0.42537697638E+02  0.10008250791E+03  0.16670144554E+03  0.12477520835E+03 0.  0.
         25    2    3    3    0    0 -0.19863414010E+02  0.42537697638E+02  0.12695174942E+02  0.13234456986E+03  0.12308495752E+03 0.  0.
          5    1    4    4  502    0  0.62572202620E+02 -0.10166508991E+02  0.92699949601E+02  0.11240110810E+03  0.47000000000E+01 0.  1.
         -5    1    4    4    0  502 -0.42708788610E+02 -0.32371188647E+02  0.73825583100E+01  0.54300337440E+02  0.47000000000E+01 0.  1.
          5    1    5    5  503    0 -0.45673309977E+02 -0.29163832118E+02  0.13283356226E+02  0.55992123559E+02  0.47000000000E+01 0.  1.
         -5    1    5    5    0  503  0.25809895966E+02  0.71701529756E+02 -0.58818128401E+00  0.76352446303E+02  0.47000000000E+01 0.  1.
<mgrwt>
<rscale>  0 0.27696518E+03</rscale>
<asrwt>0</asrwt>
<pdfrwt beam="1">  1        2 0.31678746E-01 0.27696518E+03</pdfrwt>
<pdfrwt beam="2">  1       -2 0.14328333E-01 0.27696518E+03</pdfrwt>
<totfact> 0.60557373E+03</totfact>
</mgrwt>
</event>
<event>
 9    1  0.7984035E-001  0.2758844E+03  0.7818608E-02  0.1097958E+00
         -4   -1    0    0    0  501 -0.00000000000E+00  0.00000000000E+00  0.10353457723E+03  0.10353457723E+03  0.00000000000E+00 0.  1.
          4   -1    0    0  501    0  0.00000000000E+00 -0.00000000000E+00 -0.18378451377E+03  0.18378451377E+03  0.00000000000E+00 0.  1.
         35    2    1    2    0    0  0.00000000000E+00  0.00000000000E+00 -0.80249936535E+02  0.28731909100E+03  0.27588441010E+03 0.  0.
         25    2    3    3    0    0 -0.18708942826E+02  0.16329655891E+02 -0.91980047314E+02  0.15565620528E+03  0.12309282243E+03 0.  0.
         25    2    3    3    0    0  0.18708942826E+02 -0.16329655891E+02  0.11730110779E+02  0.13166288572E+03  0.12876660194E+03 0.  0.
          5    1    4    4  502    0 -0.58019540534E+02  0.47117940924E+02 -0.62014889556E+02  0.97233245175E+02  0.47000000000E+01 0.  1.
         -5    1    4    4    0  502  0.39310597708E+02 -0.30788285032E+02 -0.29965157758E+02  0.58422960100E+02  0.47000000000E+01 0.  1.
          5    1    5    5  503    0  0.66284215006E+02  0.21474217781E+02  0.11106228174E+02  0.70711933169E+02  0.47000000000E+01 0. -1.
         -5    1    5    5    0  503 -0.47575272181E+02 -0.37803873672E+02  0.62388260468E+00  0.60950952553E+02  0.47000000000E+01 0. -1.
<mgrwt>
<rscale>  0 0.27588441E+03</rscale>
<asrwt>0</asrwt>
<pdfrwt beam="1">  1        4 0.28274540E-01 0.27588441E+03</pdfrwt>
<pdfrwt beam="2">  1       -4 0.15928397E-01 0.27588441E+03</pdfrwt>
<totfact> 0.75674250E+02</totfact>
</mgrwt>
</event>
<event>
 9    1  0.7984035E-001  0.2738556E+03  0.7818608E-02  0.1099093E+00
          2   -1    0    0  501    0  0.00000000000E+00  0.00000000000E+00  0.28545917282E+04  0.28545917282E+04  0.00000000000E+00 0.  1.
         -2   -1    0    0    0  501 -0.00000000000E+00 -0.00000000000E+00 -0.65680905480E+01  0.65680905480E+01  0.00000000000E+00 0.  1.
         35    2    1    2    0    0  0.00000000000E+00  0.00000000000E+00  0.28480236376E+04  0.28611598187E+04  0.27385556009E+03 0.  0.
         25    2    3    3    0    0  0.86251051878E+01  0.51394354340E+02  0.12378535524E+04  0.12453039744E+04  0.12563757146E+03 0.  0.
         25    2    3    3    0    0 -0.86251051878E+01 -0.51394354340E+02  0.16101700852E+04  0.16158558443E+04  0.12500653657E+03 0.  0.
          5    1    4    4  502    0 -0.50790133809E+02 -0.15759365026E+01  0.32591755937E+03  0.32988856721E+03  0.47000000000E+01 0.  1.
         -5    1    4    4    0  502  0.59415238996E+02  0.52970290842E+02  0.91193599304E+03  0.91541540720E+03  0.47000000000E+01 0.  1.
          5    1    5    5  503    0  0.44764336392E+02 -0.45494629060E+02  0.46094091436E+03  0.46536246477E+03  0.47000000000E+01 0. -1.
         -5    1    5    5    0  503 -0.53389441580E+02 -0.58997252797E+01  0.11492291708E+04  0.11504933795E+04  0.47000000000E+01 0. -1.
<mgrwt>
<rscale>  0 0.27385556E+03</rscale>
<asrwt>0</asrwt>
<pdfrwt beam="1">  1        2 0.43916697E+00 0.27385556E+03</pdfrwt>
<pdfrwt beam="2">  1       -2 0.10104777E-02 0.27385556E+03</pdfrwt>
<totfact> 0.53229597E+03</totfact>
</mgrwt>
</event>
<event>
 9    1  0.7984035E-001  0.2761594E+03  0.7818608E-02  0.1097805E+00
         -2   -1    0    0    0  501 -0.00000000000E+00  0.00000000000E+00  0.13627455543E+04  0.13627455543E+04  0.00000000000E+00 0. -1.
          2   -1    0    0  501    0  0.00000000000E+00 -0.00000000000E+00 -0.13990871238E+02  0.13990871238E+02  0.00000000000E+00 0. -1.
         35    2    1    2    0    0  0.14210854715E-13 -0.71054273576E-14  0.13487546830E+04  0.13767364255E+04  0.27615935675E+03 0.  0.
         25    2    3    3    0    0 -0.49503766532E+02  0.28076865966E+02  0.59688171762E+03  0.61244102891E+03  0.12480903714E+03 0.  0.
         25    2    3    3    0    0  0.49503766532E+02 -0.28076865966E+02  0.75187296542E+03  0.76429539661E+03  0.12488219989E+03 0.  0.
          5    1    4    4  502    0 -0.39005913981E+02  0.63536715217E+02  0.53505879267E+03  0.54024844018E+03  0.47000000000E+01 0.  1.
         -5    1    4    4    0  502 -0.10497852550E+02 -0.35459849251E+02  0.61822924954E+02  0.72192588725E+02  0.47000000000E+01 0.  1.
          5    1    5    5  503    0  0.15158930432E+02  0.48187683072E+02  0.36087002427E+03  0.36441886668E+03  0.47000000000E+01 0. -1.
         -5    1    5    5    0  503  0.34344836100E+02 -0.76264549039E+02  0.39100294115E+03  0.39987652994E+03  0.47000000000E+01 0. -1.
<mgrwt>
<rscale>  0 0.27615936E+03</rscale>
<asrwt>0</asrwt>
<pdfrwt beam="1">  1        2 0.21524428E-02 0.27615936E+03</pdfrwt>
<pdfrwt beam="2">  1       -2 0.20965306E+00 0.27615936E+03</pdfrwt>
<totfact> 0.62071837E+02</totfact>
</mgrwt>
</event>
<event>
 9    1  0.7984035E-001  0.2641415E+03  0.7818608E-02  0.1104680E+00
          1   -1    0    0  501    0  0.00000000000E+00  0.00000000000E+00  0.11922411258E+04  0.11922411258E+04  0.00000000000E+00 0.  1.
         -1   -1    0    0    0  501 -0.00000000000E+00 -0.00000000000E+00 -0.14630165793E+02  0.14630165793E+02  0.00000000000E+00 0.  1.
         35    2    1    2    0    0  0.00000000000E+00  0.35527136788E-14  0.11776109600E+04  0.12068712916E+04  0.26414151765E+03 0.  0.
         25    2    3    3    0    0 -0.97825919379E+01  0.12819457264E+02  0.39236406206E+03  0.41180261804E+03  0.12398306918E+03 0.  0.
         25    2    3    3    0    0  0.97825919379E+01 -0.12819457264E+02  0.78524689799E+03  0.79506867359E+03  0.12353731149E+03 0.  0.
          5    1    4    4  502    0  0.31601907915E+02 -0.11516602257E+02  0.27324046129E+02  0.43589060649E+02  0.47000000000E+01 0. -1.
         -5    1    4    4    0  502 -0.41384499852E+02  0.24336059521E+02  0.36504001593E+03  0.36821355739E+03  0.47000000000E+01 0. -1.
          5    1    5    5  503    0  0.43134758360E+02  0.24890691479E+02  0.15668056599E+03  0.16447201482E+03  0.47000000000E+01 0. -1.
         -5    1    5    5    0  503 -0.33352166422E+02 -0.37710148743E+02  0.62856633200E+03  0.63059665877E+03  0.47000000000E+01 0. -1.
<mgrwt>
<rscale>  0 0.26414152E+03</rscale>
<asrwt>0</asrwt>
<pdfrwt beam="1">  1        1 0.18342164E+00 0.26414152E+03</pdfrwt>
<pdfrwt beam="2">  1       -1 0.22507957E-02 0.26414152E+03</pdfrwt>
<totfact> 0.66746310E+03</totfact>
</mgrwt>
</event>
<event>
 9    1  0.7984035E-001  0.2753193E+03  0.7818608E-02  0.1098273E+00
          2   -1    0    0  501    0  0.00000000000E+00  0.00000000000E+00  0.87078299713E+03  0.87078299713E+03  0.00000000000E+00 0. -1.
         -2   -1    0    0    0  501 -0.00000000000E+00 -0.00000000000E+00 -0.21762224174E+02  0.21762224174E+02  0.00000000000E+00 0. -1.
         35    2    1    2    0    0  0.71054273576E-14  0.71054273576E-14  0.84902077295E+03  0.89254522130E+03  0.27531926769E+03 0.  0.
         25    2    3    3    0    0 -0.37170448403E+02  0.32537003127E+02  0.44560058161E+03  0.46731227977E+03  0.13183546443E+03 0.  0.
         25    2    3    3    0    0  0.37170448403E+02 -0.32537003127E+02  0.40342019134E+03  0.42523294153E+03  0.12503961364E+03 0.  0.
          5    1    4    4  502    0  0.38386695830E+02 -0.14867983762E+02  0.70955887494E+02  0.82167045267E+02  0.47000000000E+01 0.  1.
         -5    1    4    4    0  502 -0.75557144233E+02  0.47404986889E+02  0.37464469412E+03  0.38514523450E+03  0.47000000000E+01 0.  1.
          5    1    5    5  503    0  0.23264237390E+02 -0.78019726958E+02  0.30658940015E+03  0.31724982714E+03  0.47000000000E+01 0.  1.
         -5    1    5    5    0  503  0.13906211014E+02  0.45482723831E+02  0.96830791193E+02  0.10798311440E+03  0.47000000000E+01 0.  1.
<mgrwt>
<rscale>  0 0.27531927E+03</rscale>
<asrwt>0</asrwt>
<pdfrwt beam="1">  1        2 0.13396659E+00 0.27531927E+03</pdfrwt>
<pdfrwt beam="2">  1       -2 0.33480352E-02 0.27531927E+03</pdfrwt>
<totfact> 0.11375831E+04</totfact>
</mgrwt>
</event>
<event>
 9    1  0.7984035E-001  0.2761362E+03  0.7818608E-02  0.1097818E+00
         -1   -1    0    0    0  501 -0.00000000000E+00  0.00000000000E+00  0.70970704201E+02  0.70970704201E+02  0.00000000000E+00 0.  1.
          1   -1    0    0  501    0  0.00000000000E+00 -0.00000000000E+00 -0.26860092489E+03  0.26860092489E+03  0.00000000000E+00 0.  1.
         35    2    1    2    0    0  0.35527136788E-14 -0.35527136788E-14 -0.19763022069E+03  0.33957162909E+03  0.27613617502E+03 0.  0.
         25    2    3    3    0    0 -0.16528863540E+02 -0.27655573070E+02 -0.38125398528E+02  0.13457616387E+03  0.12497665309E+03 0.  0.
         25    2    3    3    0    0  0.16528863540E+02  0.27655573070E+02 -0.15950482216E+03  0.20499546521E+03  0.12467284554E+03 0.  0.
          5    1    4    4  502    0  0.27127571447E+02  0.78928589561E+01 -0.65729279148E+02  0.71698190301E+02  0.47000000000E+01 0.  1.
         -5    1    4    4    0  502 -0.43656434987E+02 -0.35548432026E+02  0.27603880619E+02  0.62877973572E+02  0.47000000000E+01 0.  1.
          5    1    5    5  503    0  0.34655052028E+02  0.39004881526E+02 -0.93042825358E+01  0.53207265363E+02  0.47000000000E+01 0. -1.
         -5    1    5    5    0  503 -0.18126188488E+02 -0.11349308456E+02 -0.15020053962E+03  0.15178819985E+03  0.47000000000E+01 0. -1.
<mgrwt>
<rscale>  0 0.27613618E+03</rscale>
<asrwt>0</asrwt>
<pdfrwt beam="1">  1        1 0.41323219E-01 0.27613618E+03</pdfrwt>
<pdfrwt beam="2">  1       -1 0.10918570E-01 0.27613618E+03</pdfrwt>
<totfact> 0.53224454E+03</totfact>
</mgrwt>
</event>
<event>
 9    1  0.7984035E-001  0.2736469E+03  0.7818608E-02  0.1099210E+00
          4   -1    0    0  501    0  0.00000000000E+00  0.00000000000E+00  0.48847481076E+02  0.48847481076E+02  0.00000000000E+00 0.  1.
         -4   -1    0    0    0  501 -0.00000000000E+00 -0.00000000000E+00 -0.38324715548E+03  0.38324715548E+03  0.00000000000E+00 0.  1.
         35    2    1    2    0    0  0.00000000000E+00  0.14210854715E-13 -0.33439967441E+03  0.43209463656E+03  0.27364691246E+03 0.  0.
         25    2    3    3    0    0 -0.45934631542E+02  0.27551270381E+02 -0.16809205765E+03  0.21731744324E+03  0.12689707804E+03 0.  0.
         25    2    3    3    0    0  0.45934631542E+02 -0.27551270381E+02 -0.16630761676E+03  0.21477719332E+03  0.12490779201E+03 0.  0.
          5    1    4    4  502    0 -0.17349047180E+02  0.74801027225E+02 -0.66940095270E+02  0.10197671041E+03  0.47000000000E+01 0. -1.
         -5    1    4    4    0  502 -0.28585584362E+02 -0.47249756844E+02 -0.10115196238E+03  0.11534073283E+03  0.47000000000E+01 0. -1.
          5    1    5    5  503    0 -0.45111507903E+01  0.40891550751E+02 -0.95281217731E+02  0.10388970044E+03  0.47000000000E+01 0.  1.
         -5    1    5    5    0  503  0.50445782333E+02 -0.68442821132E+02 -0.71026399025E+02  0.11088749288E+03  0.47000000000E+01 0.  1.
<mgrwt>
<rscale>  0 0.27364691E+03</rscale>
<asrwt>0</asrwt>
<pdfrwt beam="1">  1        4 0.75149971E-02 0.27364691E+03</pdfrwt>
<pdfrwt beam="2">  1       -4 0.58961101E-01 0.27364691E+03</pdfrwt>
<totfact> 0.63167456E+02</totfact>
</mgrwt>
</event>
<event>
 9    1  0.7984035E-001  0.2752033E+03  0.7818608E-02  0.1098338E+00
          2   -1    0    0  501    0  0.00000000000E+00  0.00000000000E+00  0.17309038518E+03  0.17309038518E+03  0.00000000000E+00 0.  1.
         -2   -1    0    0    0  501 -0.00000000000E+00 -0.00000000000E+00 -0.10938915097E+03  0.10938915097E+03  0.00000000000E+00 0.  1.
         35    2    1    2    0    0 -0.17763568394E-14  0.35527136788E-14  0.63701234217E+02  0.28247953615E+03  0.27520327234E+03 0.  0.
         25    2    3    3    0    0 -0.55185324704E+01  0.20978328762E+02 -0.23560024210E+02  0.12920252073E+03  0.12517057219E+03 0.  0.
         25    2    3    3    0    0  0.55185324704E+01 -0.20978328762E+02  0.87261258427E+02  0.15327701543E+03  0.12413207385E+03 0.  0.
          5    1    4    4  502    0  0.51688265275E+02 -0.31377658648E+01  0.17222874544E+02  0.54774444308E+02  0.47000000000E+01 0.  1.
         -5    1    4    4    0  502 -0.57206797745E+02  0.24116094627E+02 -0.40782898754E+02  0.74428076417E+02  0.47000000000E+01 0.  1.
          5    1    5    5  503    0  0.81059403931E+01  0.32954715572E+02 -0.15108802973E+02  0.37444431834E+02  0.47000000000E+01 0. -1.
         -5    1    5    5    0  503 -0.25874079227E+01 -0.53933044334E+02  0.10237006140E+03  0.11583258359E+03  0.47000000000E+01 0. -1.
<mgrwt>
<rscale>  0 0.27520327E+03</rscale>
<asrwt>0</asrwt>
<pdfrwt beam="1">  1        2 0.26629290E-01 0.27520327E+03</pdfrwt>
<pdfrwt beam="2">  1       -2 0.16829100E-01 0.27520327E+03</pdfrwt>
<totfact> 0.56131458E+03</totfact>
</mgrwt>
</event>
<event>
 9    1  0.7984035E-001  0.2770998E+03  0.7818608E-02  0.1097284E+00
         -1   -1    0    0    0  501 -0.00000000000E+00  0.00000000000E+00  0.30014559040E+03  0.30014559040E+03  0.00000000000E+00 0. -1.
          1   -1    0    0  501    0  0.00000000000E+00 -0.00000000000E+00 -0.63955864698E+02  0.63955864698E+02  0.00000000000E+00 0. -1.
         35    2    1    2    0    0  0.71054273576E-14  0.14210854715E-13  0.23618972570E+03  0.36410145509E+03  0.27709977098E+03 0.  0.
         25    2    3    3    0    0 -0.36709620833E+02 -0.35475459872E+02  0.76793783077E+02  0.15536139401E+03  0.12503508754E+03 0.  0.
         25    2    3    3    0    0  0.36709620833E+02  0.35475459872E+02  0.15939594262E+03  0.20874006108E+03  0.12473669092E+03 0.  0.
          5    1    4    4  502    0 -0.48795449579E+01  0.67751761933E+01  0.97787211706E+02  0.98255492186E+02  0.47000000000E+01 0. -1.
         -5    1    4    4    0  502 -0.31830075875E+02 -0.42250636066E+02 -0.20993428628E+02  0.57105901829E+02  0.47000000000E+01 0. -1.
          5    1    5    5  503    0  0.17727966563E+02  0.80715422479E+02  0.11931061826E+03  0.14521147976E+03  0.47000000000E+01 0.  1.
         -5    1    5    5    0  503  0.18981654269E+02 -0.45239962607E+02  0.40085324360E+02  0.63528581320E+02  0.47000000000E+01 0.  1.
<mgrwt>
<rscale>  0 0.27709977E+03</rscale>
<asrwt>0</asrwt>
<pdfrwt beam="1">  1        1 0.98393639E-02 0.27709977E+03</pdfrwt>
<pdfrwt beam="2">  1       -1 0.46176244E-01 0.27709977E+03</pdfrwt>
<totfact> 0.31098437E+03</totfact>
</mgrwt>
</event>
<event>
 9    1  0.7984035E-001  0.2742458E+03  0.7818608E-02  0.1098874E+00
         -1   -1    0    0    0  501 -0.00000000000E+00  0.00000000000E+00  0.93316732205E+03  0.93316732205E+03  0.00000000000E+00 0.  1.
          1   -1    0    0  501    0  0.00000000000E+00 -0.00000000000E+00 -0.20149322266E+02  0.20149322266E+02  0.00000000000E+00 0.  1.
         35    2    1    2    0    0  0.14210854715E-13  0.35527136788E-14  0.91301799978E+03  0.95331664432E+03  0.27424579559E+03 0.  0.
         25    2    3    3    0    0 -0.50514471126E+02 -0.19428682892E+02  0.47170785918E+03  0.49113924288E+03  0.12561952861E+03 0.  0.
         25    2    3    3    0    0  0.50514471126E+02  0.19428682892E+02  0.44131014060E+03  0.46217740144E+03  0.12619082649E+03 0.  0.
          5    1    4    4  502    0 -0.21574974041E+02 -0.44982270996E+02  0.43428593288E+03  0.43716729716E+03  0.47000000000E+01 0.  1.
         -5    1    4    4    0  502 -0.28939497086E+02  0.25553588104E+02  0.37421926304E+02  0.53971945721E+02  0.47000000000E+01 0.  1.
          5    1    5    5  503    0  0.26366394410E+02 -0.39198292526E+02  0.64758999248E+02  0.80296393909E+02  0.47000000000E+01 0. -1.
         -5    1    5    5    0  503  0.24148076716E+02  0.58626975418E+02  0.37655114135E+03  0.38188100753E+03  0.47000000000E+01 0. -1.
<mgrwt>
<rscale>  0 0.27424580E+03</rscale>
<asrwt>0</asrwt>
<pdfrwt beam="1">  1        1 0.30998965E-02 0.27424580E+03</pdfrwt>
<pdfrwt beam="2">  1       -1 0.14356417E+00 0.27424580E+03</pdfrwt>
<totfact> 0.13787459E+03</totfact>
</mgrwt>
</event>
<event>
 9    1  0.7984035E-001  0.2754855E+03  0.7818608E-02  0.1098181E+00
         -1   -1    0    0    0  501 -0.00000000000E+00  0.00000000000E+00  0.11965224210E+03  0.11965224210E+03  0.00000000000E+00 0.  1.
          1   -1    0    0  501    0  0.00000000000E+00 -0.00000000000E+00 -0.15856836660E+03  0.15856836660E+03  0.00000000000E+00 0.  1.
         35    2    1    2    0    0  0.35527136788E-14  0.71054273576E-14 -0.38916124508E+02  0.27822060870E+03  0.27548546669E+03 0.  0.
         25    2    3    3    0    0  0.16765391943E+02 -0.12953206526E+02 -0.74490732872E+02  0.14759469448E+03  0.12564418263E+03 0.  0.
         25    2    3    3    0    0 -0.16765391943E+02  0.12953206526E+02  0.35574608364E+02  0.13062591421E+03  0.12388992202E+03 0.  0.
          5    1    4    4  502    0  0.58772613064E-01  0.55971270302E+02 -0.29067887350E+02  0.63244119319E+02  0.47000000000E+01 0. -1.
         -5    1    4    4    0  502  0.16706619330E+02 -0.68924476828E+02 -0.45422845522E+02  0.84350575166E+02  0.47000000000E+01 0. -1.
          5    1    5    5  503    0  0.27263551795E+02  0.51558575444E+02 -0.57611749894E+01  0.58795145170E+02  0.47000000000E+01 0. -1.
         -5    1    5    5    0  503 -0.44028943739E+02 -0.38605368917E+02  0.41335783353E+02  0.71830769044E+02  0.47000000000E+01 0. -1.
<mgrwt>
<rscale>  0 0.27548547E+03</rscale>
<asrwt>0</asrwt>
<pdfrwt beam="1">  1        1 0.24395133E-01 0.27548547E+03</pdfrwt>
<pdfrwt beam="2">  1       -1 0.18408037E-01 0.27548547E+03</pdfrwt>
<totfact> 0.45302427E+03</totfact>
</mgrwt>
</event>
<event>
 9    1  0.7984035E-001  0.2756140E+03  0.7818608E-02  0.1098109E+00
          1   -1    0    0  501    0  0.00000000000E+00  0.00000000000E+00  0.86429976483E+03  0.86429976483E+03  0.00000000000E+00 0.  1.
         -1   -1    0    0    0  501 -0.00000000000E+00 -0.00000000000E+00 -0.21972430770E+02  0.21972430770E+02  0.00000000000E+00 0.  1.
         35    2    1    2    0    0  0.35527136788E-14  0.35527136788E-14  0.84232733406E+03  0.88627219560E+03  0.27561398184E+03 0.  0.
         25    2    3    3    0    0  0.26204616564E+02  0.26302069194E+02  0.56269086291E+03  0.57755213239E+03  0.12476769475E+03 0.  0.
         25    2    3    3    0    0 -0.26204616564E+02 -0.26302069194E+02  0.27963647115E+03  0.30872006321E+03  0.12543141814E+03 0.  0.
          5    1    4    4  502    0 -0.57916821736E+01 -0.22343744855E+02  0.45004460816E+03  0.45066065488E+03  0.47000000000E+01 0.  1.
         -5    1    4    4    0  502  0.31996298738E+02  0.48645814049E+02  0.11264625475E+03  0.12689147751E+03  0.47000000000E+01 0.  1.
          5    1    5    5  503    0 -0.24393423832E+02  0.25850380222E+02  0.24091850842E+03  0.24357154797E+03  0.47000000000E+01 0. -1.
         -5    1    5    5    0  503 -0.18111927318E+01 -0.52152449416E+02  0.38717962732E+02  0.65148515235E+02  0.47000000000E+01 0. -1.
<mgrwt>
<rscale>  0 0.27561398E+03</rscale>
<asrwt>0</asrwt>
<pdfrwt beam="1">  1        1 0.13296917E+00 0.27561398E+03</pdfrwt>
<pdfrwt beam="2">  1       -1 0.33803746E-02 0.27561398E+03</pdfrwt>
<totfact> 0.64355476E+03</totfact>
</mgrwt>
</event>
<event>
 9    1  0.7984035E-001  0.2737442E+03  0.7818608E-02  0.1099156E+00
          2   -1    0    0  501    0  0.00000000000E+00  0.00000000000E+00  0.14254096680E+04  0.14254096680E+04  0.00000000000E+00 0. -1.
         -2   -1    0    0    0  501 -0.00000000000E+00 -0.00000000000E+00 -0.13142870259E+02  0.13142870259E+02  0.00000000000E+00 0. -1.
         35    2    1    2    0    0  0.00000000000E+00 -0.71054273576E-14  0.14122667977E+04  0.14385525382E+04  0.27374421881E+03 0.  0.
         25    2    3    3    0    0 -0.16801902932E+02  0.38512037819E+02  0.51372201899E+03  0.53029388555E+03  0.12464273447E+03 0.  0.
         25    2    3    3    0    0  0.16801902932E+02 -0.38512037819E+02  0.89854477873E+03  0.90825865269E+03  0.12564067735E+03 0.  0.
          5    1    4    4  502    0 -0.64665192583E+02  0.37210880804E+02  0.21276435663E+03  0.22551496233E+03  0.47000000000E+01 0. -1.
         -5    1    4    4    0  502  0.47863289651E+02  0.13011570148E+01  0.30095766235E+03  0.30477892321E+03  0.47000000000E+01 0. -1.
          5    1    5    5  503    0 -0.33725696687E+02 -0.64943176338E+02  0.57987376573E+03  0.58449184165E+03  0.47000000000E+01 0. -1.
         -5    1    5    5    0  503  0.50527599619E+02  0.26431138519E+02  0.31867101301E+03  0.32376681105E+03  0.47000000000E+01 0. -1.
<mgrwt>
<rscale>  0 0.27374422E+03</rscale>
<asrwt>0</asrwt>
<pdfrwt beam="1">  1        2 0.21929367E+00 0.27374422E+03</pdfrwt>
<pdfrwt beam="2">  1       -2 0.20219812E-02 0.27374422E+03</pdfrwt>
<totfact> 0.11383625E+04</totfact>
</mgrwt>
</event>
<event>
 9    1  0.7984035E-001  0.2774477E+03  0.7818608E-02  0.1097091E+00
          2   -1    0    0  501    0  0.00000000000E+00  0.00000000000E+00  0.11366842818E+04  0.11366842818E+04  0.00000000000E+00 0. -1.
         -2   -1    0    0    0  501 -0.00000000000E+00 -0.00000000000E+00 -0.16930211012E+02  0.16930211012E+02  0.00000000000E+00 0. -1.
         35    2    1    2    0    0  0.71054273576E-14  0.00000000000E+00  0.11197540708E+04  0.11536144929E+04  0.27744768693E+03 0.  0.
         25    2    3    3    0    0 -0.39066010880E+02 -0.36880485482E+02  0.57149240981E+03  0.58713651709E+03  0.12344793159E+03 0.  0.
         25    2    3    3    0    0  0.39066010880E+02  0.36880485482E+02  0.54826166102E+03  0.56647797576E+03  0.13198531989E+03 0.  0.
          5    1    4    4  502    0 -0.57298482468E+02 -0.31584470923E+02  0.56122661398E+03  0.56504698666E+03  0.47000000000E+01 0. -1.
         -5    1    4    4    0  502  0.18232471589E+02 -0.52960145589E+01  0.10265795830E+02  0.22089530426E+02  0.47000000000E+01 0. -1.
          5    1    5    5  503    0 -0.44758795940E+02 -0.96157501751E+01  0.20076511307E+03  0.20597216582E+03  0.47000000000E+01 0. -1.
         -5    1    5    5    0  503  0.83824806820E+02  0.46496235657E+02  0.34749654795E+03  0.36050580995E+03  0.47000000000E+01 0. -1.
<mgrwt>
<rscale>  0 0.27744769E+03</rscale>
<asrwt>0</asrwt>
<pdfrwt beam="1">  1        2 0.17487444E+00 0.27744769E+03</pdfrwt>
<pdfrwt beam="2">  1       -2 0.26046487E-02 0.27744769E+03</pdfrwt>
<totfact> 0.11351308E+04</totfact>
</mgrwt>
</event>
<event>
 9    1  0.7984035E-001  0.2750375E+03  0.7818608E-02  0.1098431E+00
          1   -1    0    0  501    0  0.00000000000E+00  0.00000000000E+00  0.48495310043E+03  0.48495310043E+03  0.00000000000E+00 0.  1.
         -1   -1    0    0    0  501 -0.00000000000E+00 -0.00000000000E+00 -0.38996356955E+02  0.38996356955E+02  0.00000000000E+00 0.  1.
         35    2    1    2    0    0  0.00000000000E+00  0.00000000000E+00  0.44595674348E+03  0.52394945739E+03  0.27503748262E+03 0.  0.
         25    2    3    3    0    0  0.14680370132E+02  0.55001068896E+02  0.20618517811E+03  0.24746554805E+03  0.12444371800E+03 0.  0.
         25    2    3    3    0    0 -0.14680370132E+02 -0.55001068896E+02  0.23977156536E+03  0.27648390934E+03  0.12534878428E+03 0.  0.
          5    1    4    4  502    0  0.23864834147E+02  0.71373756853E+02  0.21377063770E+03  0.22667977197E+03  0.47000000000E+01 0.  1.
         -5    1    4    4    0  502 -0.91844640151E+01 -0.16372687957E+02 -0.75854595859E+01  0.20785776081E+02  0.47000000000E+01 0.  1.
          5    1    5    5  503    0 -0.23575328570E+01 -0.67822992310E+02  0.46642999275E+02  0.82481365341E+02  0.47000000000E+01 0. -1.
         -5    1    5    5    0  503 -0.12322837275E+02  0.12821923414E+02  0.19312856609E+03  0.19400254400E+03  0.47000000000E+01 0. -1.
<mgrwt>
<rscale>  0 0.27503748E+03</rscale>
<asrwt>0</asrwt>
<pdfrwt beam="1">  1        1 0.74608165E-01 0.27503748E+03</pdfrwt>
<pdfrwt beam="2">  1       -1 0.59994399E-02 0.27503748E+03</pdfrwt>
<totfact> 0.62553781E+03</totfact>
</mgrwt>
</event>
<event>
 9    1  0.7984035E-001  0.2726671E+03  0.7818608E-02  0.1099763E+00
         -2   -1    0    0    0  501 -0.00000000000E+00  0.00000000000E+00  0.20044768356E+02  0.20044768356E+02  0.00000000000E+00 0.  1.
          2   -1    0    0  501    0  0.00000000000E+00 -0.00000000000E+00 -0.92726602267E+03  0.92726602267E+03  0.00000000000E+00 0.  1.
         35    2    1    2    0    0 -0.35527136788E-14  0.00000000000E+00 -0.90722125431E+03  0.94731079102E+03  0.27266706900E+03 0.  0.
         25    2    3    3    0    0  0.26654918367E+01 -0.40212400957E+02 -0.33078388970E+03  0.35609728798E+03  0.12555140297E+03 0.  0.
         25    2    3    3    0    0 -0.26654918367E+01  0.40212400957E+02 -0.57643736461E+03  0.59121350304E+03  0.12501691413E+03 0.  0.
          5    1    4    4  502    0  0.56541345463E+02 -0.15331224604E+02 -0.24318101527E+03  0.25018206647E+03  0.47000000000E+01 0. -1.
         -5    1    4    4    0  502 -0.53875853626E+02 -0.24881176353E+02 -0.87602874426E+02  0.10591522151E+03  0.47000000000E+01 0. -1.
          5    1    5    5  503    0  0.19125784392E+02  0.62338877241E+02 -0.53618966293E+03  0.54016050937E+03  0.47000000000E+01 0.  1.
         -5    1    5    5    0  503 -0.21791276228E+02 -0.22126476284E+02 -0.40247701682E+02  0.51052993674E+02  0.47000000000E+01 0.  1.
<mgrwt>
<rscale>  0 0.27266707E+03</rscale>
<asrwt>0</asrwt>
<pdfrwt beam="1">  1        2 0.14265626E+00 0.27266707E+03</pdfrwt>
<pdfrwt beam="2">  1       -2 0.30838116E-02 0.27266707E+03</pdfrwt>
<totfact> 0.11819112E+04</totfact>
</mgrwt>
</event>
<event>
 9    1  0.7984035E-001  0.2680361E+03  0.7818608E-02  0.1102409E+00
          1   -1    0    0  501    0  0.00000000000E+00  0.00000000000E+00  0.45078549811E+03  0.45078549811E+03  0.00000000000E+00 0. -1.
         -1   -1    0    0    0  501 -0.00000000000E+00 -0.00000000000E+00 -0.39843409297E+02  0.39843409297E+02  0.00000000000E+00 0. -1.
         35    2    1    2    0    0  0.00000000000E+00  0.00000000000E+00  0.41094208881E+03  0.49062890741E+03  0.26803605061E+03 0.  0.
         25    2    3    3    0    0 -0.40092525587E+02  0.26536357321E+02  0.17920437453E+03  0.22389171972E+03  0.12530644612E+03 0.  0.
         25    2    3    3    0    0  0.40092525587E+02 -0.26536357321E+02  0.23173771429E+03  0.26673718769E+03  0.12302345389E+03 0.  0.
          5    1    4    4  502    0  0.35688753800E+02  0.42291119376E+02  0.89351045786E+02  0.10520420766E+03  0.47000000000E+01 0.  1.
         -5    1    4    4    0  502 -0.75781279387E+02 -0.15754762055E+02  0.89853328740E+02  0.11868751206E+03  0.47000000000E+01 0.  1.
          5    1    5    5  503    0  0.82380844018E+02 -0.22326079525E+02  0.18249041279E+03  0.20151897689E+03  0.47000000000E+01 0. -1.
         -5    1    5    5    0  503 -0.42288318431E+02 -0.42102777965E+01  0.49247301502E+02  0.65218210801E+02  0.47000000000E+01 0. -1.
<mgrwt>
<rscale>  0 0.26803605E+03</rscale>
<asrwt>0</asrwt>
<pdfrwt beam="1">  1        1 0.69351612E-01 0.26803605E+03</pdfrwt>
<pdfrwt beam="2">  1       -1 0.61297556E-02 0.26803605E+03</pdfrwt>
<totfact> 0.66593969E+03</totfact>
</mgrwt>
</event>
<event>
 9    1  0.7984035E-001  0.2685386E+03  0.7818608E-02  0.1102119E+00
          1   -1    0    0  501    0  0.00000000000E+00  0.00000000000E+00  0.67261818457E+02  0.67261818457E+02  0.00000000000E+00 0.  1.
         -1   -1    0    0    0  501 -0.00000000000E+00 -0.00000000000E+00 -0.26803089423E+03  0.26803089423E+03  0.00000000000E+00 0.  1.
         35    2    1    2    0    0  0.00000000000E+00  0.00000000000E+00 -0.20076907578E+03  0.33529271269E+03  0.26853860318E+03 0.  0.
         25    2    3    3    0    0  0.31394781930E+02 -0.24101719449E+02 -0.13484981314E+03  0.18849925332E+03  0.12562233553E+03 0.  0.
         25    2    3    3    0    0 -0.31394781930E+02  0.24101719449E+02 -0.65919262632E+02  0.14679345937E+03  0.12504577288E+03 0.  0.
          5    1    4    4  502    0  0.79016332919E+02 -0.62606598681E+01 -0.94373495038E+02  0.12333378813E+03  0.47000000000E+01 0. -1.
         -5    1    4    4    0  502 -0.47621550988E+02 -0.17841059581E+02 -0.40476318105E+02  0.65165465185E+02  0.47000000000E+01 0. -1.
          5    1    5    5  503    0  0.34403952237E+01 -0.38298473113E+02 -0.64405025174E+02  0.75157878028E+02  0.47000000000E+01 0. -1.
         -5    1    5    5    0  503 -0.34835177154E+02  0.62400192562E+02 -0.15142374582E+01  0.71635581342E+02  0.47000000000E+01 0. -1.
<mgrwt>
<rscale>  0 0.26853860E+03</rscale>
<asrwt>0</asrwt>
<pdfrwt beam="1">  1        1 0.10347972E-01 0.26853860E+03</pdfrwt>
<pdfrwt beam="2">  1       -1 0.41235522E-01 0.26853860E+03</pdfrwt>
<totfact> 0.35606937E+03</totfact>
</mgrwt>
</event>
<event>
 9    1  0.7984035E-001  0.2747319E+03  0.7818608E-02  0.1098602E+00
          2   -1    0    0  501    0  0.00000000000E+00  0.00000000000E+00  0.52125789972E+03  0.52125789972E+03  0.00000000000E+00 0.  1.
         -2   -1    0    0    0  501 -0.00000000000E+00 -0.00000000000E+00 -0.36199740552E+02  0.36199740552E+02  0.00000000000E+00 0.  1.
         35    2    1    2    0    0 -0.10658141036E-13  0.00000000000E+00  0.48505815917E+03  0.55745764027E+03  0.27473187460E+03 0.  0.
         25    2    3    3    0    0 -0.23025625267E+02 -0.23430858151E+02  0.14157283523E+03  0.19046894310E+03  0.12311119396E+03 0.  0.
         25    2    3    3    0    0  0.23025625267E+02  0.23430858151E+02  0.34348532394E+03  0.36698869717E+03  0.12497740419E+03 0.  0.
          5    1    4    4  502    0  0.49152115395E+02 -0.86406765074E-01  0.72820064747E+02  0.87981758017E+02  0.47000000000E+01 0.  1.
         -5    1    4    4    0  502 -0.72177740662E+02 -0.23344451386E+02  0.68752770484E+02  0.10248718509E+03  0.47000000000E+01 0.  1.
          5    1    5    5  503    0  0.51835111763E+02  0.54368057726E+02  0.28436786740E+03  0.29415971600E+03  0.47000000000E+01 0. -1.
         -5    1    5    5    0  503 -0.28809486497E+02 -0.30937199574E+02  0.59117456543E+02  0.72828981167E+02  0.47000000000E+01 0. -1.
<mgrwt>
<rscale>  0 0.27473187E+03</rscale>
<asrwt>0</asrwt>
<pdfrwt beam="1">  1        2 0.80193517E-01 0.27473187E+03</pdfrwt>
<pdfrwt beam="2">  1       -2 0.55691912E-02 0.27473187E+03</pdfrwt>
<totfact> 0.98007466E+03</totfact>
</mgrwt>
</event>
<event>
 9    1  0.7984035E-001  0.2752637E+03  0.7818608E-02  0.1098304E+00
          1   -1    0    0  501    0  0.00000000000E+00  0.00000000000E+00  0.40820691815E+03  0.40820691815E+03  0.00000000000E+00 0. -1.
         -1   -1    0    0    0  501 -0.00000000000E+00 -0.00000000000E+00 -0.46404229254E+02  0.46404229254E+02  0.00000000000E+00 0. -1.
         35    2    1    2    0    0  0.00000000000E+00 -0.71054273576E-14  0.36180268890E+03  0.45461114741E+03  0.27526370929E+03 0.  0.
         25    2    3    3    0    0 -0.69282148742E+01  0.53787230987E+02  0.21082788075E+03  0.25145419620E+03  0.12585607298E+03 0.  0.
         25    2    3    3    0    0  0.69282148742E+01 -0.53787230987E+02  0.15097480814E+03  0.20315695121E+03  0.12465266844E+03 0.  0.
          5    1    4    4  502    0 -0.63325497561E+02  0.26436800611E+02  0.14472155020E+03  0.16023557707E+03  0.47000000000E+01 0.  1.
         -5    1    4    4    0  502  0.56397282687E+02  0.27350430376E+02  0.66106330555E+02  0.91218619128E+02  0.47000000000E+01 0.  1.
          5    1    5    5  503    0 -0.27196117181E+02  0.50803870745E+00 -0.10357382334E+02  0.29483084334E+02  0.47000000000E+01 0.  1.
         -5    1    5    5    0  503  0.34124332055E+02 -0.54295269694E+02  0.16133219048E+03  0.17367386687E+03  0.47000000000E+01 0.  1.
<mgrwt>
<rscale>  0 0.27526371E+03</rscale>
<asrwt>0</asrwt>
<pdfrwt beam="1">  1        1 0.62801062E-01 0.27526371E+03</pdfrwt>
<pdfrwt beam="2">  1       -1 0.71391125E-02 0.27526371E+03</pdfrwt>
<totfact> 0.60163660E+03</totfact>
</mgrwt>
</event>
<event>
 8    1  0.7984035E-001  0.3439982E+03  0.7818608E-02  0.1065106E+00
          2   -1    0    0  501    0  0.00000000000E+00  0.00000000000E+00  0.11600286050E+04  0.11600286050E+04  0.00000000000E+00 0.  1.
         -2   -1    0    0    0  501 -0.00000000000E+00 -0.00000000000E+00 -0.25502553658E+02  0.25502553658E+02  0.00000000000E+00 0.  1.
         25    2    1    2    0    0 -0.47061208763E+02 -0.99377835396E+02  0.42190242943E+03  0.45374828512E+03  0.12567869647E+03 0.  0.
         25    2    1    2    0    0  0.47061208763E+02  0.99377835396E+02  0.71262362186E+03  0.73178287349E+03  0.12483203101E+03 0.  0.
          5    1    3    3  502    0 -0.58995012040E+02 -0.10722198509E+03  0.22415430178E+03  0.25542945511E+03  0.47000000000E+01 0. -1.
         -5    1    3    3    0  502  0.11933803277E+02  0.78441496889E+01  0.19774812765E+03  0.19831883000E+03  0.47000000000E+01 0. -1.
          5    1    4    4  503    0 -0.30390020709E+02  0.67872207436E+02  0.45007183749E+03  0.45619835467E+03  0.47000000000E+01 0.  1.
         -5    1    4    4    0  503  0.77451229471E+02  0.31505627960E+02  0.26255178437E+03  0.27558451882E+03  0.47000000000E+01 0.  1.
<mgrwt>
<rscale>  0 0.34399821E+03</rscale>
<asrwt>0</asrwt>
<pdfrwt beam="1">  1        2 0.17846590E+00 0.34399821E+03</pdfrwt>
<pdfrwt beam="2">  1       -2 0.39234707E-02 0.34399821E+03</pdfrwt>
<totfact> 0.59848260E+03</totfact>
</mgrwt>
</event>
<event>
 9    1  0.7984035E-001  0.2768094E+03  0.7818608E-02  0.1097444E+00
          1   -1    0    0  501    0  0.00000000000E+00  0.00000000000E+00  0.69341520436E+02  0.69341520436E+02  0.00000000000E+00 0. -1.
         -1   -1    0    0    0  501 -0.00000000000E+00 -0.00000000000E+00 -0.27625387624E+03  0.27625387624E+03  0.00000000000E+00 0. -1.
         35    2    1    2    0    0 -0.88817841970E-15  0.00000000000E+00 -0.20691235580E+03  0.34559539668E+03  0.27680942040E+03 0.  0.
         25    2    3    3    0    0 -0.12746713823E+01  0.37142885546E+02 -0.45349221172E+02  0.13808469173E+03  0.12501844463E+03 0.  0.
         25    2    3    3    0    0  0.12746713823E+01 -0.37142885546E+02 -0.16156313463E+03  0.20751070494E+03  0.12480716109E+03 0.  0.
          5    1    4    4  502    0 -0.26831776442E+02  0.78676612866E+01 -0.80578603469E+02  0.85421576069E+02  0.47000000000E+01 0.  1.
         -5    1    4    4    0  502  0.25557105060E+02  0.29275224260E+02  0.35229382297E+02  0.52663115665E+02  0.47000000000E+01 0.  1.
          5    1    5    5  503    0 -0.56345424511E+01  0.10865726647E+02 -0.15811583558E+03  0.15865849976E+03  0.47000000000E+01 0. -1.
         -5    1    5    5    0  503  0.69092138334E+01 -0.48008612194E+02 -0.34472990513E+01  0.48852205184E+02  0.47000000000E+01 0. -1.
<mgrwt>
<rscale>  0 0.27680942E+03</rscale>
<asrwt>0</asrwt>
<pdfrwt beam="1">  1        1 0.10667926E-01 0.27680942E+03</pdfrwt>
<pdfrwt beam="2">  1       -1 0.42500597E-01 0.27680942E+03</pdfrwt>
<totfact> 0.32411834E+03</totfact>
</mgrwt>
</event>
<event>
 9    1  0.7984035E-001  0.2689853E+03  0.7818608E-02  0.1101862E+00
          2   -1    0    0  501    0  0.00000000000E+00  0.00000000000E+00  0.19139394764E+04  0.19139394764E+04  0.00000000000E+00 0. -1.
         -2   -1    0    0    0  501 -0.00000000000E+00 -0.00000000000E+00 -0.94508078034E+01  0.94508078034E+01  0.00000000000E+00 0. -1.
         35    2    1    2    0    0 -0.88817841970E-15  0.00000000000E+00  0.19044886686E+04  0.19233902842E+04  0.26898530918E+03 0.  0.
         25    2    3    3    0    0  0.68782299528E+01 -0.42524839534E+02  0.10868587381E+04  0.10949717583E+04  0.12587915977E+03 0.  0.
         25    2    3    3    0    0 -0.68782299528E+01  0.42524839534E+02  0.81762993054E+03  0.82841852594E+03  0.12610661677E+03 0.  0.
          5    1    4    4  502    0  0.48728151808E+01 -0.54814283756E+02  0.18629608241E+03  0.19431075717E+03  0.47000000000E+01 0. -1.
         -5    1    4    4    0  502  0.20054147720E+01  0.12289444221E+02  0.90056265567E+03  0.90066100111E+03  0.47000000000E+01 0. -1.
          5    1    5    5  503    0  0.28173895030E+01  0.17646111124E+01 -0.31460655591E+01  0.65604317306E+01  0.47000000000E+01 0.  1.
         -5    1    5    5    0  503 -0.96956194558E+01  0.40760228422E+02  0.82077599609E+03  0.82185809421E+03  0.47000000000E+01 0.  1.
<mgrwt>
<rscale>  0 0.26898531E+03</rscale>
<asrwt>0</asrwt>
<pdfrwt beam="1">  1        2 0.29445192E+00 0.26898531E+03</pdfrwt>
<pdfrwt beam="2">  1       -2 0.14539720E-02 0.26898531E+03</pdfrwt>
<totfact> 0.10178381E+04</totfact>
</mgrwt>
</event>
<event>
 9    1  0.7984035E-001  0.2739899E+03  0.7818608E-02  0.1099018E+00
         -1   -1    0    0    0  501 -0.00000000000E+00  0.00000000000E+00  0.10698666650E+02  0.10698666650E+02  0.00000000000E+00 0.  1.
          1   -1    0    0  501    0  0.00000000000E+00 -0.00000000000E+00 -0.17542018632E+04  0.17542018632E+04  0.00000000000E+00 0.  1.
         35    2    1    2    0    0  0.00000000000E+00 -0.71054273576E-14 -0.17435031965E+04  0.17649005298E+04  0.27398993391E+03 0.  0.
         25    2    3    3    0    0  0.18608664006E+02 -0.52876231140E+02 -0.89964057148E+03  0.90997996191E+03  0.12477257327E+03 0.  0.
         25    2    3    3    0    0 -0.18608664006E+02  0.52876231140E+02 -0.84386262504E+03  0.85492056791E+03  0.12507145674E+03 0.  0.
          5    1    4    4  502    0  0.24727140186E+02 -0.86550555195E+02 -0.78741975650E+03  0.79256191745E+03  0.47000000000E+01 0.  1.
         -5    1    4    4    0  502 -0.61184761801E+01  0.33674324055E+02 -0.11222081498E+03  0.11741804447E+03  0.47000000000E+01 0.  1.
          5    1    5    5  503    0 -0.31954954333E+01  0.21708829212E+02 -0.19261428516E+02  0.29573249488E+02  0.47000000000E+01 0. -1.
         -5    1    5    5    0  503 -0.15413168573E+02  0.31167401928E+02 -0.82460119653E+03  0.82534731842E+03  0.47000000000E+01 0. -1.
<mgrwt>
<rscale>  0 0.27398993E+03</rscale>
<asrwt>0</asrwt>
<pdfrwt beam="1">  1        1 0.26987742E+00 0.27398993E+03</pdfrwt>
<pdfrwt beam="2">  1       -1 0.16459475E-02 0.27398993E+03</pdfrwt>
<totfact> 0.44425403E+03</totfact>
</mgrwt>
</event>
<event>
 9    1  0.7984035E-001  0.2718175E+03  0.7818608E-02  0.1100244E+00
          1   -1    0    0  501    0  0.00000000000E+00  0.00000000000E+00  0.73329429780E+03  0.73329429780E+03  0.00000000000E+00 0.  1.
         -1   -1    0    0    0  501 -0.00000000000E+00 -0.00000000000E+00 -0.25189323031E+02  0.25189323031E+02  0.00000000000E+00 0.  1.
         35    2    1    2    0    0  0.00000000000E+00  0.00000000000E+00  0.70810497477E+03  0.75848362083E+03  0.27181748983E+03 0.  0.
         25    2    3    3    0    0 -0.37467032754E+02 -0.17204661060E+02  0.44012782776E+03  0.45950690533E+03  0.12543648738E+03 0.  0.
         25    2    3    3    0    0  0.37467032754E+02  0.17204661060E+02  0.26797714700E+03  0.29897671550E+03  0.12599819915E+03 0.  0.
          5    1    4    4  502    0 -0.26045849068E+02  0.11375329873E+02  0.13621404853E+02  0.31865609260E+02  0.47000000000E+01 0. -1.
         -5    1    4    4    0  502 -0.11421183686E+02 -0.28579990933E+02  0.42650642291E+03  0.42764129607E+03  0.47000000000E+01 0. -1.
          5    1    5    5  503    0  0.27191925659E+02  0.26131263834E+02  0.82994291030E+01  0.38900055193E+02  0.47000000000E+01 0.  1.
         -5    1    5    5    0  503  0.10275107095E+02 -0.89266027732E+01  0.25967771790E+03  0.26007666031E+03  0.47000000000E+01 0.  1.
<mgrwt>
<rscale>  0 0.27181749E+03</rscale>
<asrwt>0</asrwt>
<pdfrwt beam="1">  1        1 0.11281449E+00 0.27181749E+03</pdfrwt>
<pdfrwt beam="2">  1       -1 0.38752810E-02 0.27181749E+03</pdfrwt>
<totfact> 0.67639750E+03</totfact>
</mgrwt>
</event>
<event>
 9    1  0.7984035E-001  0.2735462E+03  0.7818608E-02  0.1099267E+00
          2   -1    0    0  501    0  0.00000000000E+00  0.00000000000E+00  0.22267165589E+04  0.22267165589E+04  0.00000000000E+00 0.  1.
         -2   -1    0    0    0  501 -0.00000000000E+00 -0.00000000000E+00 -0.84011030120E+01  0.84011030120E+01  0.00000000000E+00 0.  1.
         35    2    1    2    0    0  0.35527136788E-14 -0.17763568394E-14  0.22183154559E+04  0.22351176619E+04  0.27354615837E+03 0.  0.
         25    2    3    3    0    0 -0.26736972405E+02 -0.14403822424E+02  0.74224470253E+03  0.75340855596E+03  0.12559824030E+03 0.  0.
         25    2    3    3    0    0  0.26736972405E+02  0.14403822424E+02  0.14760707533E+04  0.14817091059E+04  0.12551760812E+03 0.  0.
          5    1    4    4  502    0  0.76805154395E+01  0.71970075917E+01  0.67216733565E+03  0.67226617076E+03  0.47000000000E+01 0.  1.
         -5    1    4    4    0  502 -0.34417487844E+02 -0.21600830016E+02  0.70077366882E+02  0.81142385200E+02  0.47000000000E+01 0.  1.
          5    1    5    5  503    0 -0.34669419701E+02  0.98160565632E+01  0.11001074342E+04  0.11007074000E+04  0.47000000000E+01 0. -1.
         -5    1    5    5    0  503  0.61406392106E+02  0.45877658611E+01  0.37596331912E+03  0.38100170592E+03  0.47000000000E+01 0. -1.
<mgrwt>
<rscale>  0 0.27354616E+03</rscale>
<asrwt>0</asrwt>
<pdfrwt beam="1">  1        2 0.34257131E+00 0.27354616E+03</pdfrwt>
<pdfrwt beam="2">  1       -2 0.12924792E-02 0.27354616E+03</pdfrwt>
<totfact> 0.82657736E+03</totfact>
</mgrwt>
</event>
<event>
 9    1  0.7984035E-001  0.2842363E+03  0.7818608E-02  0.1093397E+00
          1   -1    0    0  501    0  0.00000000000E+00  0.00000000000E+00  0.19513587024E+03  0.19513587024E+03  0.00000000000E+00 0. -1.
         -1   -1    0    0    0  501 -0.00000000000E+00 -0.00000000000E+00 -0.10350516954E+03  0.10350516954E+03  0.00000000000E+00 0. -1.
         35    2    1    2    0    0  0.00000000000E+00  0.00000000000E+00  0.91630700699E+02  0.29864103979E+03  0.28423631952E+03 0.  0.
         25    2    3    3    0    0 -0.53240428402E+02 -0.42560547759E+02  0.51156030225E+02  0.15113074634E+03  0.12481033458E+03 0.  0.
         25    2    3    3    0    0  0.53240428402E+02  0.42560547759E+02  0.40474670474E+02  0.14751029345E+03  0.12439913296E+03 0.  0.
          5    1    4    4  502    0 -0.27905179163E+02  0.74091445698E+00  0.85557487055E+02  0.90118930139E+02  0.47000000000E+01 0. -1.
         -5    1    4    4    0  502 -0.25335249239E+02 -0.43301462216E+02 -0.34401456830E+02  0.61011816201E+02  0.47000000000E+01 0. -1.
          5    1    5    5  503    0  0.73188771058E+02  0.20542053978E+02  0.71380015099E+02  0.10438279909E+03  0.47000000000E+01 0.  1.
         -5    1    5    5    0  503 -0.19948342657E+02  0.22018493781E+02 -0.30905344625E+02  0.43127494357E+02  0.47000000000E+01 0.  1.
<mgrwt>
<rscale>  0 0.28423632E+03</rscale>
<asrwt>0</asrwt>
<pdfrwt beam="1">  1        1 0.30020903E-01 0.28423632E+03</pdfrwt>
<pdfrwt beam="2">  1       -1 0.15923872E-01 0.28423632E+03</pdfrwt>
<totfact> 0.43974776E+03</totfact>
</mgrwt>
</event>
<event>
 9    1  0.7984035E-001  0.2703006E+03  0.7818608E-02  0.1101108E+00
         -1   -1    0    0    0  501 -0.00000000000E+00  0.00000000000E+00  0.17537784482E+02  0.17537784482E+02  0.00000000000E+00 0. -1.
          1   -1    0    0  501    0  0.00000000000E+00 -0.00000000000E+00 -0.10415001425E+04  0.10415001425E+04  0.00000000000E+00 0. -1.
         35    2    1    2    0    0 -0.71054273576E-14  0.00000000000E+00 -0.10239623581E+04  0.10590379270E+04  0.27030061071E+03 0.  0.
         25    2    3    3    0    0 -0.23602454726E+02 -0.32242332867E+02 -0.65119526284E+03  0.66429014904E+03  0.12501795015E+03 0.  0.
         25    2    3    3    0    0  0.23602454726E+02  0.32242332867E+02 -0.37276709521E+03  0.39474777798E+03  0.12358744698E+03 0.  0.
          5    1    4    4  502    0  0.74312101984E+01  0.45068898401E+02 -0.28767517722E+03  0.29131688258E+03  0.47000000000E+01 0.  1.
         -5    1    4    4    0  502 -0.31033664925E+02 -0.77311231268E+02 -0.36352008563E+03  0.37297326646E+03  0.47000000000E+01 0.  1.
          5    1    5    5  503    0 -0.18821920866E+02  0.92496898980E+01 -0.32817009809E+03  0.32887311345E+03  0.47000000000E+01 0.  1.
         -5    1    5    5    0  503  0.42424375592E+02  0.22992642969E+02 -0.44596997114E+02  0.65874664528E+02  0.47000000000E+01 0.  1.
<mgrwt>
<rscale>  0 0.27030061E+03</rscale>
<asrwt>0</asrwt>
<pdfrwt beam="1">  1        1 0.16023080E+00 0.27030061E+03</pdfrwt>
<pdfrwt beam="2">  1       -1 0.26981206E-02 0.27030061E+03</pdfrwt>
<totfact> 0.65634324E+03</totfact>
</mgrwt>
</event>
<event>
 9    1  0.7984035E-001  0.2743858E+03  0.7818608E-02  0.1098795E+00
          2   -1    0    0  501    0  0.00000000000E+00  0.00000000000E+00  0.25655557945E+04  0.25655557945E+04  0.00000000000E+00 0.  1.
         -2   -1    0    0    0  501 -0.00000000000E+00 -0.00000000000E+00 -0.73363772561E+01  0.73363772561E+01  0.00000000000E+00 0.  1.
         35    2    1    2    0    0  0.00000000000E+00  0.00000000000E+00  0.25582194172E+04  0.25728921717E+04  0.27438575167E+03 0.  0.
         25    2    3    3    0    0 -0.18263233934E+02  0.25620848404E+02  0.10048600455E+04  0.10142562561E+04  0.13409723495E+03 0.  0.
         25    2    3    3    0    0  0.18263233934E+02 -0.25620848404E+02  0.15533593717E+04  0.15586359156E+04  0.12421999108E+03 0.  0.
          5    1    4    4  502    0 -0.42783344506E+02 -0.87098539581E+01  0.11073788109E+03  0.11912700967E+03  0.47000000000E+01 0. -1.
         -5    1    4    4    0  502  0.24520110572E+02  0.34330702362E+02  0.89412216440E+03  0.89512924643E+03  0.47000000000E+01 0. -1.
          5    1    5    5  503    0  0.74274502840E+01 -0.54286391457E+02  0.30671609376E+03  0.31160717496E+03  0.47000000000E+01 0. -1.
         -5    1    5    5    0  503  0.10835783650E+02  0.28665543053E+02  0.12466432780E+04  0.12470287407E+04  0.47000000000E+01 0. -1.
<mgrwt>
<rscale>  0 0.27438575E+03</rscale>
<asrwt>0</asrwt>
<pdfrwt beam="1">  1        2 0.39470018E+00 0.27438575E+03</pdfrwt>
<pdfrwt beam="2">  1       -2 0.11286755E-02 0.27438575E+03</pdfrwt>
<totfact> 0.65980064E+03</totfact>
</mgrwt>
</event>
<event>
 9    1  0.7984035E-001  0.2811106E+03  0.7818608E-02  0.1095084E+00
         -2   -1    0    0    0  501 -0.00000000000E+00  0.00000000000E+00  0.25179040181E+02  0.25179040181E+02  0.00000000000E+00 0. -1.
          2   -1    0    0  501    0  0.00000000000E+00 -0.00000000000E+00 -0.78461239337E+03  0.78461239337E+03  0.00000000000E+00 0. -1.
         35    2    1    2    0    0  0.00000000000E+00 -0.71054273576E-14 -0.75943335318E+03  0.80979143355E+03  0.28111056173E+03 0.  0.
         25    2    3    3    0    0  0.57961032315E+02  0.19337510779E+02 -0.43729854495E+03  0.45866169410E+03  0.12412538675E+03 0.  0.
         25    2    3    3    0    0 -0.57961032315E+02 -0.19337510779E+02 -0.32213480824E+03  0.35112973944E+03  0.12564966634E+03 0.  0.
          5    1    4    4  502    0  0.37671106063E+01 -0.45942843202E+02 -0.23003804840E+03  0.23465832539E+03  0.47000000000E+01 0. -1.
         -5    1    4    4    0  502  0.54193921709E+02  0.65280353981E+02 -0.20726049654E+03  0.22400336871E+03  0.47000000000E+01 0. -1.
          5    1    5    5  503    0 -0.76859507863E+02 -0.54823519997E+02 -0.17956922743E+03  0.20292905099E+03  0.47000000000E+01 0. -1.
         -5    1    5    5    0  503  0.18898475548E+02  0.35486009218E+02 -0.14256558081E+03  0.14820068846E+03  0.47000000000E+01 0. -1.
<mgrwt>
<rscale>  0 0.28111056E+03</rscale>
<asrwt>0</asrwt>
<pdfrwt beam="1">  1        2 0.12070959E+00 0.28111056E+03</pdfrwt>
<pdfrwt beam="2">  1       -2 0.38736988E-02 0.28111056E+03</pdfrwt>
<totfact> 0.10466467E+04</totfact>
</mgrwt>
</event>
<event>
 9    1  0.7984035E-001  0.2744011E+03  0.7818608E-02  0.1098787E+00
          2   -1    0    0  501    0  0.00000000000E+00  0.00000000000E+00  0.23697911799E+04  0.23697911799E+04  0.00000000000E+00 0. -1.
         -2   -1    0    0    0  501 -0.00000000000E+00 -0.00000000000E+00 -0.79433119877E+01  0.79433119877E+01  0.00000000000E+00 0. -1.
         35    2    1    2    0    0 -0.71054273576E-14  0.35527136788E-14  0.23618478679E+04  0.23777344919E+04  0.27440109830E+03 0.  0.
         25    2    3    3    0    0 -0.63083526038E+01 -0.16558191790E+02  0.16508797004E+04  0.16557375481E+04  0.12549531471E+03 0.  0.
         25    2    3    3    0    0  0.63083526038E+01  0.16558191790E+02  0.71096816748E+03  0.72199694374E+03  0.12445835679E+03 0.  0.
          5    1    4    4  502    0 -0.52813279093E+02 -0.40808702865E+02  0.11858280377E+04  0.11877141145E+04  0.47000000000E+01 0.  1.
         -5    1    4    4    0  502  0.46504926489E+02  0.24250511075E+02  0.46505166272E+03  0.46802343368E+03  0.47000000000E+01 0.  1.
          5    1    5    5  503    0 -0.35237263069E+02 -0.37133853188E+02  0.19929531152E+03  0.20581860692E+03  0.47000000000E+01 0.  1.
         -5    1    5    5    0  503  0.41545615673E+02  0.53692044979E+02  0.51167285595E+03  0.51617833681E+03  0.47000000000E+01 0.  1.
<mgrwt>
<rscale>  0 0.27440110E+03</rscale>
<asrwt>0</asrwt>
<pdfrwt beam="1">  1        2 0.36458270E+00 0.27440110E+03</pdfrwt>
<pdfrwt beam="2">  1       -2 0.12220499E-02 0.27440110E+03</pdfrwt>
<totfact> 0.75167868E+03</totfact>
</mgrwt>
</event>
<event>
 9    1  0.7984035E-001  0.2879863E+03  0.7818608E-02  0.1091405E+00
         -2   -1    0    0    0  501 -0.00000000000E+00  0.00000000000E+00  0.39156220098E+02  0.39156220098E+02  0.00000000000E+00 0. -1.
          2   -1    0    0  501    0  0.00000000000E+00 -0.00000000000E+00 -0.52952061147E+03  0.52952061147E+03  0.00000000000E+00 0. -1.
         35    2    1    2    0    0  0.35527136788E-14 -0.14210854715E-13 -0.49036439137E+03  0.56867683157E+03  0.28798628863E+03 0.  0.
         25    2    3    3    0    0  0.12112481901E+02 -0.67644739548E+02 -0.28643475312E+03  0.31979909632E+03  0.12451534527E+03 0.  0.
         25    2    3    3    0    0 -0.12112481901E+02  0.67644739548E+02 -0.20392963826E+03  0.24887773525E+03  0.12502122515E+03 0.  0.
          5    1    4    4  502    0 -0.39736409922E+02  0.13286322050E+02 -0.12432000517E+03  0.13127475885E+03  0.47000000000E+01 0.  1.
         -5    1    4    4    0  502  0.51848891824E+02 -0.80931061597E+02 -0.16211474795E+03  0.18852433747E+03  0.47000000000E+01 0.  1.
          5    1    5    5  503    0 -0.10231596017E+02  0.10282131338E+03 -0.17396282821E+03  0.20239086847E+03  0.47000000000E+01 0. -1.
         -5    1    5    5    0  503 -0.18808858846E+01 -0.35176573833E+02 -0.29966810044E+02  0.46486866774E+02  0.47000000000E+01 0. -1.
<mgrwt>
<rscale>  0 0.28798629E+03</rscale>
<asrwt>0</asrwt>
<pdfrwt beam="1">  1        2 0.81464707E-01 0.28798629E+03</pdfrwt>
<pdfrwt beam="2">  1       -2 0.60240340E-02 0.28798629E+03</pdfrwt>
<totfact> 0.85513935E+03</totfact>
</mgrwt>
</event>
<event>
 9    1  0.7984035E-001  0.2741660E+03  0.7818608E-02  0.1098919E+00
         -1   -1    0    0    0  501 -0.00000000000E+00  0.00000000000E+00  0.20050409745E+02  0.20050409745E+02  0.00000000000E+00 0. -1.
          1   -1    0    0  501    0  0.00000000000E+00 -0.00000000000E+00 -0.93722522653E+03  0.93722522653E+03  0.00000000000E+00 0. -1.
         35    2    1    2    0    0  0.00000000000E+00 -0.35527136788E-14 -0.91717481679E+03  0.95727563628E+03  0.27416600675E+03 0.  0.
         25    2    3    3    0    0 -0.56356831530E+02 -0.61679227241E+01 -0.44289853407E+03  0.46353182453E+03  0.12445282296E+03 0.  0.
         25    2    3    3    0    0  0.56356831530E+02  0.61679227241E+01 -0.47427628272E+03  0.49374381174E+03  0.12502329206E+03 0.  0.
          5    1    4    4  502    0 -0.34682621836E+02 -0.64743202189E+02 -0.21888560937E+03  0.23092762173E+03  0.47000000000E+01 0.  1.
         -5    1    4    4    0  502 -0.21674209694E+02  0.58575279464E+02 -0.22401292470E+03  0.23260420281E+03  0.47000000000E+01 0.  1.
          5    1    5    5  503    0  0.86791567524E+02 -0.20920444691E+02 -0.24441658507E+03  0.26025371900E+03  0.47000000000E+01 0. -1.
         -5    1    5    5    0  503 -0.30434735993E+02  0.27088367416E+02 -0.22985969765E+03  0.23349009274E+03  0.47000000000E+01 0. -1.
<mgrwt>
<rscale>  0 0.27416601E+03</rscale>
<asrwt>0</asrwt>
<pdfrwt beam="1">  1        1 0.14418846E+00 0.27416601E+03</pdfrwt>
<pdfrwt beam="2">  1       -1 0.30846791E-02 0.27416601E+03</pdfrwt>
<totfact> 0.64567111E+03</totfact>
</mgrwt>
</event>
<event>
 9    1  0.7984035E-001  0.2667659E+03  0.7818608E-02  0.1103145E+00
         -1   -1    0    0    0  501 -0.00000000000E+00  0.00000000000E+00  0.59330233285E+01  0.59330233285E+01  0.00000000000E+00 0.  1.
          1   -1    0    0  501    0  0.00000000000E+00 -0.00000000000E+00 -0.29986425111E+04  0.29986425111E+04  0.00000000000E+00 0.  1.
         35    2    1    2    0    0 -0.17763568394E-14  0.00000000000E+00 -0.29927094878E+04  0.30045755344E+04  0.26676593465E+03 0.  0.
         25    2    3    3    0    0  0.13166608135E+02 -0.44440996922E+02 -0.14374291746E+04  0.14435702359E+04  0.12467570875E+03 0.  0.
         25    2    3    3    0    0 -0.13166608135E+02  0.44440996922E+02 -0.15552803132E+04  0.15610052985E+04  0.12526902076E+03 0.  0.
          5    1    4    4  502    0 -0.10020317610E+02 -0.83181981450E+02 -0.75916360652E+03  0.76378735278E+03  0.47000000000E+01 0. -1.
         -5    1    4    4    0  502  0.23186925744E+02  0.38740984529E+02 -0.67826556805E+03  0.67978288314E+03  0.47000000000E+01 0. -1.
          5    1    5    5  503    0  0.17507908278E+02 -0.33723416094E+02 -0.23958713697E+03  0.24262704270E+03  0.47000000000E+01 0.  1.
         -5    1    5    5    0  503 -0.30674516413E+02  0.78164413016E+02 -0.13156931762E+04  0.13183782558E+04  0.47000000000E+01 0.  1.
<mgrwt>
<rscale>  0 0.26676593E+03</rscale>
<asrwt>0</asrwt>
<pdfrwt beam="1">  1        1 0.46133062E+00 0.26676593E+03</pdfrwt>
<pdfrwt beam="2">  1       -1 0.91277083E-03 0.26676593E+03</pdfrwt>
<totfact> 0.15583616E+03</totfact>
</mgrwt>
</event>
<event>
 9    1  0.7984035E-001  0.2741079E+03  0.7818608E-02  0.1098951E+00
         -2   -1    0    0    0  501 -0.00000000000E+00  0.00000000000E+00  0.25746562629E+03  0.25746562629E+03  0.00000000000E+00 0. -1.
          2   -1    0    0  501    0  0.00000000000E+00 -0.00000000000E+00 -0.72956488157E+02  0.72956488157E+02  0.00000000000E+00 0. -1.
         35    2    1    2    0    0  0.00000000000E+00 -0.71054273576E-14  0.18450913814E+03  0.33042211445E+03  0.27410791974E+03 0.  0.
         25    2    3    3    0    0  0.75032017221E+01 -0.36178876350E+02  0.39693606152E+02  0.13655704201E+03  0.12532770733E+03 0.  0.
         25    2    3    3    0    0 -0.75032017221E+01  0.36178876350E+02  0.14481553198E+03  0.19386507244E+03  0.12347841462E+03 0.  0.
          5    1    4    4  502    0  0.53134254717E+02  0.23451253702E+01 -0.14979886457E+02  0.55454807146E+02  0.47000000000E+01 0. -1.
         -5    1    4    4    0  502 -0.45631052995E+02 -0.38524001721E+02  0.54673492610E+02  0.81102234865E+02  0.47000000000E+01 0. -1.
          5    1    5    5  503    0 -0.42774409843E+01 -0.29173845200E+02 -0.50394289454E+01  0.30280283837E+02  0.47000000000E+01 0.  1.
         -5    1    5    5    0  503 -0.32257607378E+01  0.65352721551E+02  0.14985496093E+03  0.16358478860E+03  0.47000000000E+01 0.  1.
<mgrwt>
<rscale>  0 0.27410792E+03</rscale>
<asrwt>0</asrwt>
<pdfrwt beam="1">  1        2 0.11224075E-01 0.27410792E+03</pdfrwt>
<pdfrwt beam="2">  1       -2 0.39610096E-01 0.27410792E+03</pdfrwt>
<totfact> 0.33532193E+03</totfact>
</mgrwt>
</event>
<event>
 9    1  0.7984035E-001  0.2738865E+03  0.7818608E-02  0.1099076E+00
          3   -1    0    0  501    0  0.00000000000E+00  0.00000000000E+00  0.81491914291E+02  0.81491914291E+02  0.00000000000E+00 0. -1.
         -3   -1    0    0    0  501 -0.00000000000E+00 -0.00000000000E+00 -0.23012660474E+03  0.23012660474E+03  0.00000000000E+00 0. -1.
         35    2    1    2    0    0  0.00000000000E+00  0.14210854715E-13 -0.14863469045E+03  0.31161851903E+03  0.27388652796E+03 0.  0.
         25    2    3    3    0    0  0.11155432860E+02 -0.52301706049E+02 -0.86741529196E+02  0.16141136761E+03  0.12517837101E+03 0.  0.
         25    2    3    3    0    0 -0.11155432860E+02  0.52301706049E+02 -0.61893161254E+02  0.15020715142E+03  0.12598219235E+03 0.  0.
          5    1    4    4  502    0  0.20440859053E+02 -0.24688795986E+02 -0.11565015239E+03  0.12010167823E+03  0.47000000000E+01 0.  1.
         -5    1    4    4    0  502 -0.92854261929E+01 -0.27612910063E+02  0.28908623193E+02  0.41309689380E+02  0.47000000000E+01 0.  1.
          5    1    5    5  503    0 -0.36595731437E+02  0.29509885827E+02 -0.92651848689E+02  0.10400257683E+03  0.47000000000E+01 0.  1.
         -5    1    5    5    0  503  0.25440298578E+02  0.22791820222E+02  0.30758687435E+02  0.46204574595E+02  0.47000000000E+01 0.  1.
<mgrwt>
<rscale>  0 0.27388653E+03</rscale>
<asrwt>0</asrwt>
<pdfrwt beam="1">  1        3 0.12537218E-01 0.27388653E+03</pdfrwt>
<pdfrwt beam="2">  1       -3 0.35404093E-01 0.27388653E+03</pdfrwt>
<totfact> 0.10072812E+03</totfact>
</mgrwt>
</event>
<event>
 9    1  0.7984035E-001  0.2723486E+03  0.7818608E-02  0.1099943E+00
         -1   -1    0    0    0  501 -0.00000000000E+00  0.00000000000E+00  0.28485380063E+02  0.28485380063E+02  0.00000000000E+00 0. -1.
          1   -1    0    0  501    0  0.00000000000E+00 -0.00000000000E+00 -0.65098115976E+03  0.65098115976E+03  0.00000000000E+00 0. -1.
         35    2    1    2    0    0  0.71054273576E-14  0.00000000000E+00 -0.62249577970E+03  0.67946653983E+03  0.27234864237E+03 0.  0.
         25    2    3    3    0    0  0.40049514594E+02 -0.29400919123E+02 -0.32628009651E+03  0.35300054882E+03  0.12522902388E+03 0.  0.
         25    2    3    3    0    0 -0.40049514594E+02  0.29400919123E+02 -0.29621568319E+03  0.32646599101E+03  0.12793722935E+03 0.  0.
          5    1    4    4  502    0  0.85237115551E+02 -0.22383554638E+02 -0.19969630532E+03  0.21832794998E+03  0.47000000000E+01 0. -1.
         -5    1    4    4    0  502 -0.45187600957E+02 -0.70173644847E+01 -0.12658379119E+03  0.13467259884E+03  0.47000000000E+01 0. -1.
          5    1    5    5  503    0 -0.14182591835E+02  0.54403253641E+02 -0.28185557902E+03  0.28744654693E+03  0.47000000000E+01 0. -1.
         -5    1    5    5    0  503 -0.25866922759E+02 -0.25002334519E+02 -0.14360104172E+02  0.39019444079E+02  0.47000000000E+01 0. -1.
<mgrwt>
<rscale>  0 0.27234864E+03</rscale>
<asrwt>0</asrwt>
<pdfrwt beam="1">  1        1 0.10015095E+00 0.27234864E+03</pdfrwt>
<pdfrwt beam="2">  1       -1 0.43823659E-02 0.27234864E+03</pdfrwt>
<totfact> 0.66969539E+03</totfact>
</mgrwt>
</event>
<event>
 9    1  0.7984035E-001  0.2787166E+03  0.7818608E-02  0.1096392E+00
          2   -1    0    0  501    0  0.00000000000E+00  0.00000000000E+00  0.30018248770E+04  0.30018248770E+04  0.00000000000E+00 0.  1.
         -2   -1    0    0    0  501 -0.00000000000E+00 -0.00000000000E+00 -0.64696417898E+01  0.64696417898E+01  0.00000000000E+00 0.  1.
         35    2    1    2    0    0  0.35527136788E-14  0.00000000000E+00  0.29953552352E+04  0.30082945188E+04  0.27871657052E+03 0.  0.
         25    2    3    3    0    0  0.22442091750E+01 -0.55255609794E+01  0.84423845635E+03  0.85353161414E+03  0.12546743344E+03 0.  0.
         25    2    3    3    0    0 -0.22442091750E+01  0.55255609794E+01  0.21511167789E+04  0.21547629047E+04  0.12515674439E+03 0.  0.
          5    1    4    4  502    0 -0.24608814879E+02  0.46250204478E+02  0.60333721888E+03  0.60562576305E+03  0.47000000000E+01 0.  1.
         -5    1    4    4    0  502  0.26853024054E+02 -0.51775765457E+02  0.24090123747E+03  0.24790585109E+03  0.47000000000E+01 0.  1.
          5    1    5    5  503    0 -0.25410333439E+02  0.80201865706E+01  0.10258599758E+03  0.10609422858E+03  0.47000000000E+01 0.  1.
         -5    1    5    5    0  503  0.23166124264E+02 -0.24946255912E+01  0.20485307813E+04  0.20486686761E+04  0.47000000000E+01 0.  1.
<mgrwt>
<rscale>  0 0.27871657E+03</rscale>
<asrwt>0</asrwt>
<pdfrwt beam="1">  1        2 0.46181810E+00 0.27871657E+03</pdfrwt>
<pdfrwt beam="2">  1       -2 0.99533190E-03 0.27871657E+03</pdfrwt>
<totfact> 0.44604010E+03</totfact>
</mgrwt>
</event>
<event>
 9    1  0.7984035E-001  0.2786568E+03  0.7818608E-02  0.1096425E+00
          1   -1    0    0  501    0  0.00000000000E+00  0.00000000000E+00  0.38306152250E+03  0.38306152250E+03  0.00000000000E+00 0.  1.
         -1   -1    0    0    0  501 -0.00000000000E+00 -0.00000000000E+00 -0.50676984981E+02  0.50676984981E+02  0.00000000000E+00 0.  1.
         35    2    1    2    0    0  0.71054273576E-14  0.00000000000E+00  0.33238453752E+03  0.43373850748E+03  0.27865679983E+03 0.  0.
         25    2    3    3    0    0  0.26632938722E+02  0.38887079079E+02  0.97989466244E+02  0.16352182649E+03  0.12213080652E+03 0.  0.
         25    2    3    3    0    0 -0.26632938722E+02 -0.38887079079E+02  0.23439507128E+03  0.27021668099E+03  0.12591460162E+03 0.  0.
          5    1    4    4  502    0 -0.93321625452E+01  0.71580037667E+02  0.26692621047E+02  0.77106271266E+02  0.47000000000E+01 0.  1.
         -5    1    4    4    0  502  0.35965101267E+02 -0.32692958587E+02  0.71296845197E+02  0.86415555229E+02  0.47000000000E+01 0.  1.
          5    1    5    5  503    0 -0.42516722133E+02 -0.56198337996E+02  0.23586506652E+03  0.24621199089E+03  0.47000000000E+01 0.  1.
         -5    1    5    5    0  503  0.15883783412E+02  0.17311258916E+02 -0.14699952407E+01  0.24004690099E+02  0.47000000000E+01 0.  1.
<mgrwt>
<rscale>  0 0.27865680E+03</rscale>
<asrwt>0</asrwt>
<pdfrwt beam="1">  1        1 0.58932540E-01 0.27865680E+03</pdfrwt>
<pdfrwt beam="2">  1       -1 0.77964595E-02 0.27865680E+03</pdfrwt>
<totfact> 0.57100093E+03</totfact>
</mgrwt>
</event>
<event>
 9    1  0.7984035E-001  0.2747028E+03  0.7818608E-02  0.1098618E+00
         -2   -1    0    0    0  501 -0.00000000000E+00  0.00000000000E+00  0.14297496612E+02  0.14297496612E+02  0.00000000000E+00 0. -1.
          2   -1    0    0  501    0  0.00000000000E+00 -0.00000000000E+00 -0.13194901453E+04  0.13194901453E+04  0.00000000000E+00 0. -1.
         35    2    1    2    0    0 -0.71054273576E-14 -0.71054273576E-14 -0.13051926486E+04  0.13337876419E+04  0.27470279126E+03 0.  0.
         25    2    3    3    0    0 -0.51902804007E+02  0.22009418050E+02 -0.61470773142E+03  0.62977045103E+03  0.12476742513E+03 0.  0.
         25    2    3    3    0    0  0.51902804007E+02 -0.22009418050E+02 -0.69048491723E+03  0.70401719084E+03  0.12526958345E+03 0.  0.
          5    1    4    4  502    0 -0.55962786071E+02  0.54522215164E+02 -0.21695389038E+03  0.23064168296E+03  0.47000000000E+01 0.  1.
         -5    1    4    4    0  502  0.40599820646E+01 -0.32512797114E+02 -0.39775384105E+03  0.39912876807E+03  0.47000000000E+01 0.  1.
          5    1    5    5  503    0  0.98066488608E+01  0.49587100619E+02 -0.34160939426E+03  0.34536085354E+03  0.47000000000E+01 0. -1.
         -5    1    5    5    0  503  0.42096155146E+02 -0.71596518668E+02 -0.34887552296E+03  0.35865633730E+03  0.47000000000E+01 0. -1.
<mgrwt>
<rscale>  0 0.27470279E+03</rscale>
<asrwt>0</asrwt>
<pdfrwt beam="1">  1        2 0.20299854E+00 0.27470279E+03</pdfrwt>
<pdfrwt beam="2">  1       -2 0.21996142E-02 0.27470279E+03</pdfrwt>
<totfact> 0.11488219E+04</totfact>
</mgrwt>
</event>
<event>
 9    1  0.7984035E-001  0.2772456E+03  0.7818608E-02  0.1097203E+00
         -2   -1    0    0    0  501 -0.00000000000E+00  0.00000000000E+00  0.59628784453E+02  0.59628784453E+02  0.00000000000E+00 0.  1.
          2   -1    0    0  501    0  0.00000000000E+00 -0.00000000000E+00 -0.32226522182E+03  0.32226522182E+03  0.00000000000E+00 0.  1.
         35    2    1    2    0    0  0.71054273576E-14  0.71054273576E-14 -0.26263643737E+03  0.38189400628E+03  0.27724561997E+03 0.  0.
         25    2    3    3    0    0  0.38224903879E+02 -0.45041402956E+02 -0.13556749301E+03  0.19389813407E+03  0.12541160224E+03 0.  0.
         25    2    3    3    0    0 -0.38224903879E+02  0.45041402956E+02 -0.12706894436E+03  0.18799587221E+03  0.12532382092E+03 0.  0.
          5    1    4    4  502    0 -0.14950945765E+02 -0.52635261959E+02 -0.12821088123E+03  0.13947803285E+03  0.47000000000E+01 0. -1.
         -5    1    4    4    0  502  0.53175849644E+02  0.75938590031E+01 -0.73566117778E+01  0.54420101219E+02  0.47000000000E+01 0. -1.
          5    1    5    5  503    0 -0.61403333788E+02  0.10541371889E+02 -0.94859299240E+01  0.63194642084E+02  0.47000000000E+01 0.  1.
         -5    1    5    5    0  503  0.23178429909E+02  0.34500031067E+02 -0.11758301444E+03  0.12480123013E+03  0.47000000000E+01 0.  1.
<mgrwt>
<rscale>  0 0.27724562E+03</rscale>
<asrwt>0</asrwt>
<pdfrwt beam="1">  1        2 0.49579264E-01 0.27724562E+03</pdfrwt>
<pdfrwt beam="2">  1       -2 0.91736593E-02 0.27724562E+03</pdfrwt>
<totfact> 0.76484847E+03</totfact>
</mgrwt>
</event>
<event>
 9    1  0.7984035E-001  0.2778513E+03  0.7818608E-02  0.1096868E+00
         -2   -1    0    0    0  501 -0.00000000000E+00  0.00000000000E+00  0.21510423568E+02  0.21510423568E+02  0.00000000000E+00 0.  1.
          2   -1    0    0  501    0  0.00000000000E+00 -0.00000000000E+00 -0.89725484117E+03  0.89725484117E+03  0.00000000000E+00 0.  1.
         35    2    1    2    0    0 -0.71054273576E-14  0.00000000000E+00 -0.87574441761E+03  0.91876526474E+03  0.27785126728E+03 0.  0.
         25    2    3    3    0    0 -0.27689677354E+02 -0.47681239714E+01 -0.62149000533E+03  0.63424042140E+03  0.12337597890E+03 0.  0.
         25    2    3    3    0    0  0.27689677354E+02  0.47681239714E+01 -0.25425441227E+03  0.28452484334E+03  0.12457779530E+03 0.  0.
          5    1    4    4  502    0 -0.15004405358E+02 -0.41563931126E+02 -0.55699552083E+03  0.55876541838E+03  0.47000000000E+01 0. -1.
         -5    1    4    4    0  502 -0.12685271996E+02  0.36795807154E+02 -0.64494484502E+02  0.75475003020E+02  0.47000000000E+01 0. -1.
          5    1    5    5  503    0 -0.44139196972E+02  0.19558492516E+02 -0.62108034284E+02  0.78805464667E+02  0.47000000000E+01 0. -1.
         -5    1    5    5    0  503  0.71828874326E+02 -0.14790368544E+02 -0.19214637799E+03  0.20571937868E+03  0.47000000000E+01 0. -1.
<mgrwt>
<rscale>  0 0.27785127E+03</rscale>
<asrwt>0</asrwt>
<pdfrwt beam="1">  1        2 0.13803924E+00 0.27785127E+03</pdfrwt>
<pdfrwt beam="2">  1       -2 0.33092952E-02 0.27785127E+03</pdfrwt>
<totfact> 0.11127379E+04</totfact>
</mgrwt>
</event>
<event>
 9    1  0.7984035E-001  0.2893194E+03  0.7818608E-02  0.1090705E+00
         -3   -1    0    0    0  501 -0.00000000000E+00  0.00000000000E+00  0.83190435181E+02  0.83190435181E+02  0.00000000000E+00 0.  1.
          3   -1    0    0  501    0  0.00000000000E+00 -0.00000000000E+00 -0.25154848589E+03  0.25154848589E+03  0.00000000000E+00 0.  1.
         35    2    1    2    0    0  0.00000000000E+00  0.71054273576E-14 -0.16835805071E+03  0.33473892107E+03  0.28931939451E+03 0.  0.
         25    2    3    3    0    0 -0.49915405276E+02 -0.49295355527E+02 -0.10193180097E+03  0.17600604312E+03  0.12516571178E+03 0.  0.
         25    2    3    3    0    0  0.49915405276E+02  0.49295355527E+02 -0.66426249743E+02  0.15873287796E+03  0.12594482970E+03 0.  0.
          5    1    4    4  502    0 -0.58309488651E+02 -0.22808228741E+02 -0.12480660450E+03  0.13971038004E+03  0.47000000000E+01 0. -1.
         -5    1    4    4    0  502  0.83940833755E+01 -0.26487126787E+02  0.22874803534E+02  0.36295663072E+02  0.47000000000E+01 0. -1.
          5    1    5    5  503    0 -0.97308641094E+01  0.76425498367E+02 -0.25297790216E+02  0.81225702255E+02  0.47000000000E+01 0.  1.
         -5    1    5    5    0  503  0.59646269385E+02 -0.27130142840E+02 -0.41128459527E+02  0.77507175701E+02  0.47000000000E+01 0.  1.
<mgrwt>
<rscale>  0 0.28931939E+03</rscale>
<asrwt>0</asrwt>
<pdfrwt beam="1">  1        3 0.38699766E-01 0.28931939E+03</pdfrwt>
<pdfrwt beam="2">  1       -3 0.12798529E-01 0.28931939E+03</pdfrwt>
<totfact> 0.82425044E+02</totfact>
</mgrwt>
</event>
<event>
 9    1  0.7984035E-001  0.2760255E+03  0.7818608E-02  0.1097880E+00
          2   -1    0    0  501    0  0.00000000000E+00  0.00000000000E+00  0.18093907596E+04  0.18093907596E+04  0.00000000000E+00 0. -1.
         -2   -1    0    0    0  501 -0.00000000000E+00 -0.00000000000E+00 -0.10527032786E+02  0.10527032786E+02  0.00000000000E+00 0. -1.
         35    2    1    2    0    0  0.35527136788E-14  0.71054273576E-14  0.17988637269E+04  0.18199177924E+04  0.27602547600E+03 0.  0.
         25    2    3    3    0    0  0.88794900922E+01  0.59744407584E+02  0.87869333753E+03  0.88946962048E+03  0.12412084735E+03 0.  0.
         25    2    3    3    0    0 -0.88794900922E+01 -0.59744407584E+02  0.92017038932E+03  0.93044817195E+03  0.12398393331E+03 0.  0.
          5    1    4    4  502    0  0.46404378333E+02 -0.18174426056E+02  0.38438090064E+03  0.38762667977E+03  0.47000000000E+01 0.  1.
         -5    1    4    4    0  502 -0.37524888241E+02  0.77918833640E+02  0.49431243689E+03  0.50184294071E+03  0.47000000000E+01 0.  1.
          5    1    5    5  503    0 -0.37267744653E+02 -0.89159923636E+02  0.65188007912E+03  0.65902056442E+03  0.47000000000E+01 0.  1.
         -5    1    5    5    0  503  0.28388254561E+02  0.29415516052E+02  0.26829031019E+03  0.27142760752E+03  0.47000000000E+01 0.  1.
<mgrwt>
<rscale>  0 0.27602548E+03</rscale>
<asrwt>0</asrwt>
<pdfrwt beam="1">  1        2 0.27836756E+00 0.27602548E+03</pdfrwt>
<pdfrwt beam="2">  1       -2 0.16195449E-02 0.27602548E+03</pdfrwt>
<totfact> 0.98664609E+03</totfact>
</mgrwt>
</event>
<event>
 9    1  0.7984035E-001  0.2722622E+03  0.7818608E-02  0.1099992E+00
          1   -1    0    0  501    0  0.00000000000E+00  0.00000000000E+00  0.44931590542E+03  0.44931590542E+03  0.00000000000E+00 0. -1.
         -1   -1    0    0    0  501 -0.00000000000E+00 -0.00000000000E+00 -0.41244194868E+02  0.41244194868E+02  0.00000000000E+00 0. -1.
         35    2    1    2    0    0  0.35527136788E-14  0.00000000000E+00  0.40807171055E+03  0.49056010029E+03  0.27226217336E+03 0.  0.
         25    2    3    3    0    0  0.26245241881E+02  0.45452026099E+02  0.21735277183E+03  0.25591148219E+03  0.12447393259E+03 0.  0.
         25    2    3    3    0    0 -0.26245241881E+02 -0.45452026099E+02  0.19071893872E+03  0.23464861810E+03  0.12622028756E+03 0.  0.
          5    1    4    4  502    0 -0.22895075399E+02  0.12120030710E+02  0.18739974686E+03  0.18924015099E+03  0.47000000000E+01 0.  1.
         -5    1    4    4    0  502  0.49140317280E+02  0.33331995389E+02  0.29953024970E+02  0.66671331199E+02  0.47000000000E+01 0.  1.
          5    1    5    5  503    0  0.15947211882E+02  0.23320860432E+02  0.13116649761E+03  0.13425690371E+03  0.47000000000E+01 0.  1.
         -5    1    5    5    0  503 -0.42192453763E+02 -0.68772886531E+02  0.59552441108E+02  0.10039171439E+03  0.47000000000E+01 0.  1.
<mgrwt>
<rscale>  0 0.27226217E+03</rscale>
<asrwt>0</asrwt>
<pdfrwt beam="1">  1        1 0.69125520E-01 0.27226217E+03</pdfrwt>
<pdfrwt beam="2">  1       -1 0.63452611E-02 0.27226217E+03</pdfrwt>
<totfact> 0.63509896E+03</totfact>
</mgrwt>
</event>
<event>
 9    1  0.7984035E-001  0.2734999E+03  0.7818608E-02  0.1099293E+00
         -2   -1    0    0    0  501 -0.00000000000E+00  0.00000000000E+00  0.35404151858E+02  0.35404151858E+02  0.00000000000E+00 0.  1.
          2   -1    0    0  501    0  0.00000000000E+00 -0.00000000000E+00 -0.52820225654E+03  0.52820225654E+03  0.00000000000E+00 0.  1.
         35    2    1    2    0    0 -0.71054273576E-14  0.00000000000E+00 -0.49279810468E+03  0.56360640840E+03  0.27349992982E+03 0.  0.
         25    2    3    3    0    0 -0.26817314832E+02  0.23951522464E+02 -0.33272129389E+03  0.35728111741E+03  0.12511392265E+03 0.  0.
         25    2    3    3    0    0  0.26817314832E+02 -0.23951522464E+02 -0.16007681079E+03  0.20632529099E+03  0.12511073714E+03 0.  0.
          5    1    4    4  502    0  0.40538792317E+01 -0.33180884014E+02 -0.23137636476E+02  0.40924872907E+02  0.47000000000E+01 0.  1.
         -5    1    4    4    0  502 -0.30871194064E+02  0.57132406478E+02 -0.30958365742E+03  0.31635624450E+03  0.47000000000E+01 0.  1.
          5    1    5    5  503    0  0.58986639943E+02 -0.47869698094E+02 -0.14400509597E+03  0.16288182634E+03  0.47000000000E+01 0.  1.
         -5    1    5    5    0  503 -0.32169325111E+02  0.23918175630E+02 -0.16071714818E+02  0.43443464650E+02  0.47000000000E+01 0.  1.
<mgrwt>
<rscale>  0 0.27349993E+03</rscale>
<asrwt>0</asrwt>
<pdfrwt beam="1">  1        2 0.81261877E-01 0.27349993E+03</pdfrwt>
<pdfrwt beam="2">  1       -2 0.54467932E-02 0.27349993E+03</pdfrwt>
<totfact> 0.99869930E+03</totfact>
</mgrwt>
</event>
<event>
 9    1  0.7984035E-001  0.2703848E+03  0.7818608E-02  0.1101060E+00
          1   -1    0    0  501    0  0.00000000000E+00  0.00000000000E+00  0.48631893106E+03  0.48631893106E+03  0.00000000000E+00 0.  1.
         -1   -1    0    0    0  501 -0.00000000000E+00 -0.00000000000E+00 -0.37582314906E+02  0.37582314906E+02  0.00000000000E+00 0.  1.
         35    2    1    2    0    0 -0.35527136788E-14  0.00000000000E+00  0.44873661615E+03  0.52390124596E+03  0.27038484582E+03 0.  0.
         25    2    3    3    0    0  0.12543106724E+02  0.37357649459E+02  0.29592437970E+03  0.32359717036E+03  0.12486379245E+03 0.  0.
         25    2    3    3    0    0 -0.12543106724E+02 -0.37357649459E+02  0.15281223645E+03  0.20030407560E+03  0.12335809497E+03 0.  0.
          5    1    4    4  502    0  0.12757671656E+02  0.33119698410E+02  0.30794050176E+03  0.31001470164E+03  0.47000000000E+01 0.  1.
         -5    1    4    4    0  502 -0.21456493212E+00  0.42379510496E+01 -0.12016122060E+02  0.13582468721E+02  0.47000000000E+01 0.  1.
          5    1    5    5  503    0 -0.48249023684E+02  0.25094127510E+02  0.45705414668E+02  0.71195213687E+02  0.47000000000E+01 0.  1.
         -5    1    5    5    0  503  0.35705916960E+02 -0.62451776969E+02  0.10710682178E+03  0.12910886191E+03  0.47000000000E+01 0.  1.
<mgrwt>
<rscale>  0 0.27038485E+03</rscale>
<asrwt>0</asrwt>
<pdfrwt beam="1">  1        1 0.74818293E-01 0.27038485E+03</pdfrwt>
<pdfrwt beam="2">  1       -1 0.57818949E-02 0.27038485E+03</pdfrwt>
<totfact> 0.65853391E+03</totfact>
</mgrwt>
</event>
<event>
 9    1  0.7984035E-001  0.2925876E+03  0.7818608E-02  0.1089006E+00
         -2   -1    0    0    0  501 -0.00000000000E+00  0.00000000000E+00  0.29779507685E+02  0.29779507685E+02  0.00000000000E+00 0.  1.
          2   -1    0    0  501    0  0.00000000000E+00 -0.00000000000E+00 -0.71867779970E+03  0.71867779970E+03  0.00000000000E+00 0.  1.
         35    2    1    2    0    0 -0.71054273576E-14 -0.14210854715E-13 -0.68889829202E+03  0.74845730739E+03  0.29258756679E+03 0.  0.
         25    2    3    3    0    0 -0.18301561108E+02 -0.73462200927E+02 -0.36857774197E+03  0.39642115094E+03  0.12477393530E+03 0.  0.
         25    2    3    3    0    0  0.18301561108E+02  0.73462200927E+02 -0.32032055005E+03  0.35203615645E+03  0.12487016682E+03 0.  0.
          5    1    4    4  502    0 -0.64003224100E+02 -0.74608246651E+02 -0.22269193525E+03  0.24346784426E+03  0.47000000000E+01 0.  1.
         -5    1    4    4    0  502  0.45701662992E+02  0.11460457239E+01 -0.14588580672E+03  0.15295330668E+03  0.47000000000E+01 0.  1.
          5    1    5    5  503    0 -0.40166936786E+02  0.75165517605E+02 -0.16052702499E+03  0.18180828804E+03  0.47000000000E+01 0.  1.
         -5    1    5    5    0  503  0.58468497893E+02 -0.17033166776E+01 -0.15979352506E+03  0.17022786841E+03  0.47000000000E+01 0.  1.
<mgrwt>
<rscale>  0 0.29258757E+03</rscale>
<asrwt>0</asrwt>
<pdfrwt beam="1">  1        2 0.11056580E+00 0.29258757E+03</pdfrwt>
<pdfrwt beam="2">  1       -2 0.45814633E-02 0.29258757E+03</pdfrwt>
<totfact> 0.90742081E+03</totfact>
</mgrwt>
</event>
<event>
 9    1  0.7984035E-001  0.2750305E+03  0.7818608E-02  0.1098435E+00
          2   -1    0    0  501    0  0.00000000000E+00  0.00000000000E+00  0.10297191589E+03  0.10297191589E+03  0.00000000000E+00 0.  1.
         -2   -1    0    0    0  501 -0.00000000000E+00 -0.00000000000E+00 -0.18364659582E+03  0.18364659582E+03  0.00000000000E+00 0.  1.
         35    2    1    2    0    0  0.00000000000E+00  0.71054273576E-14 -0.80674679929E+02  0.28661851170E+03  0.27503048426E+03 0.  0.
         25    2    3    3    0    0 -0.15135468142E+02 -0.47724759479E+02 -0.86615182217E+01  0.13479257420E+03  0.12484903323E+03 0.  0.
         25    2    3    3    0    0  0.15135468142E+02  0.47724759479E+02 -0.72013161707E+02  0.15182593751E+03  0.12392935398E+03 0.  0.
          5    1    4    4  502    0 -0.61598851473E+02  0.28379227283E+00  0.15325233862E+02  0.63651015968E+02  0.47000000000E+01 0.  1.
         -5    1    4    4    0  502  0.46463383331E+02 -0.48008551751E+02 -0.23986752083E+02  0.71141558230E+02  0.47000000000E+01 0.  1.
          5    1    5    5  503    0  0.27850262694E+02  0.14424405313E+02 -0.10086108320E+03  0.10572960184E+03  0.47000000000E+01 0.  1.
         -5    1    5    5    0  503 -0.12714794552E+02  0.33300354166E+02  0.28847921489E+02  0.46096335671E+02  0.47000000000E+01 0.  1.
<mgrwt>
<rscale>  0 0.27503048E+03</rscale>
<asrwt>0</asrwt>
<pdfrwt beam="1">  1        2 0.15841833E-01 0.27503048E+03</pdfrwt>
<pdfrwt beam="2">  1       -2 0.28253322E-01 0.27503048E+03</pdfrwt>
<totfact> 0.41413465E+03</totfact>
</mgrwt>
</event>
<event>
 9    1  0.7984035E-001  0.2710804E+03  0.7818608E-02  0.1100663E+00
         -2   -1    0    0    0  501 -0.00000000000E+00  0.00000000000E+00  0.17128047563E+02  0.17128047563E+02  0.00000000000E+00 0. -1.
          2   -1    0    0  501    0  0.00000000000E+00 -0.00000000000E+00 -0.10725768803E+04  0.10725768803E+04  0.00000000000E+00 0. -1.
         35    2    1    2    0    0  0.00000000000E+00  0.00000000000E+00 -0.10554488328E+04  0.10897049279E+04  0.27108041479E+03 0.  0.
         25    2    3    3    0    0  0.46875290648E+02  0.17328718644E+02 -0.45438553255E+03  0.47377870239E+03  0.12450891246E+03 0.  0.
         25    2    3    3    0    0 -0.46875290648E+02 -0.17328718644E+02 -0.60106330024E+03  0.61592622552E+03  0.12486171164E+03 0.  0.
          5    1    4    4  502    0  0.57048411482E+02 -0.41462319723E+02 -0.29962097056E+03  0.30784486549E+03  0.47000000000E+01 0.  1.
         -5    1    4    4    0  502 -0.10173120834E+02  0.58791038367E+02 -0.15476456199E+03  0.16593383690E+03  0.47000000000E+01 0.  1.
          5    1    5    5  503    0  0.27146182816E+02  0.34085938060E+02 -0.17440724091E+03  0.17982975865E+03  0.47000000000E+01 0. -1.
         -5    1    5    5    0  503 -0.74021473464E+02 -0.51414656704E+02 -0.42665605933E+03  0.43609646687E+03  0.47000000000E+01 0. -1.
<mgrwt>
<rscale>  0 0.27108041E+03</rscale>
<asrwt>0</asrwt>
<pdfrwt beam="1">  1        2 0.16501189E+00 0.27108041E+03</pdfrwt>
<pdfrwt beam="2">  1       -2 0.26350832E-02 0.27108041E+03</pdfrwt>
<totfact> 0.12158018E+04</totfact>
</mgrwt>
</event>
<event>
 9    1  0.7984035E-001  0.2792109E+03  0.7818608E-02  0.1096121E+00
         -1   -1    0    0    0  501 -0.00000000000E+00  0.00000000000E+00  0.57491938641E+01  0.57491938641E+01  0.00000000000E+00 0. -1.
          1   -1    0    0  501    0  0.00000000000E+00 -0.00000000000E+00 -0.33899843152E+04  0.33899843152E+04  0.00000000000E+00 0. -1.
         35    2    1    2    0    0  0.00000000000E+00 -0.35527136788E-14 -0.33842351214E+04  0.33957335091E+04  0.27921086673E+03 0.  0.
         25    2    3    3    0    0  0.64552396488E+02  0.25494951078E+02 -0.18544614587E+04  0.18591677149E+04  0.11251793628E+03 0.  0.
         25    2    3    3    0    0 -0.64552396488E+02 -0.25494951078E+02 -0.15297736627E+04  0.15365657942E+04  0.12653053548E+03 0.  0.
          5    1    4    4  502    0  0.40606496155E+02 -0.32719372268E+02 -0.41029591169E+03  0.41362334316E+03  0.47000000000E+01 0.  1.
         -5    1    4    4    0  502  0.23945900333E+02  0.58214323346E+02 -0.14441655470E+04  0.14455443717E+04  0.47000000000E+01 0.  1.
          5    1    5    5  503    0  0.35417496409E+02  0.71173732779E+01 -0.53494511221E+03  0.53618412801E+03  0.47000000000E+01 0.  1.
         -5    1    5    5    0  503 -0.99969892898E+02 -0.32612324356E+02 -0.99482855049E+03  0.10003816662E+04  0.47000000000E+01 0.  1.
<mgrwt>
<rscale>  0 0.27921087E+03</rscale>
<asrwt>0</asrwt>
<pdfrwt beam="1">  1        1 0.52153494E+00 0.27921087E+03</pdfrwt>
<pdfrwt beam="2">  1       -1 0.88449325E-03 0.27921087E+03</pdfrwt>
<totfact> 0.85140514E+02</totfact>
</mgrwt>
</event>
<event>
 9    1  0.7984035E-001  0.2774813E+03  0.7818608E-02  0.1097073E+00
         -1   -1    0    0    0  501 -0.00000000000E+00  0.00000000000E+00  0.10794463242E+03  0.10794463242E+03  0.00000000000E+00 0. -1.
          1   -1    0    0  501    0  0.00000000000E+00 -0.00000000000E+00 -0.17832256486E+03  0.17832256486E+03  0.00000000000E+00 0. -1.
         35    2    1    2    0    0  0.71054273576E-14 -0.35527136788E-14 -0.70377932446E+02  0.28626719728E+03  0.27748126939E+03 0.  0.
         25    2    3    3    0    0  0.42919555444E+01  0.23293172072E+02  0.21759931617E+02  0.12898908519E+03  0.12491475785E+03 0.  0.
         25    2    3    3    0    0 -0.42919555444E+01 -0.23293172072E+02 -0.92137864063E+02  0.15727811209E+03  0.12524386532E+03 0.  0.
          5    1    4    4  502    0 -0.35671126672E+02  0.98154911718E+01 -0.39592073531E+02  0.54391133758E+02  0.47000000000E+01 0. -1.
         -5    1    4    4    0  502  0.39963082216E+02  0.13477680900E+02  0.61352005148E+02  0.74597951436E+02  0.47000000000E+01 0. -1.
          5    1    5    5  503    0 -0.57130771753E+02  0.85856201973E+01 -0.71489429883E+02  0.92035137530E+02  0.47000000000E+01 0.  1.
         -5    1    5    5    0  503  0.52838816208E+02 -0.31878792270E+02 -0.20648434180E+02  0.65242974556E+02  0.47000000000E+01 0.  1.
<mgrwt>
<rscale>  0 0.27748127E+03</rscale>
<asrwt>0</asrwt>
<pdfrwt beam="1">  1        1 0.27434240E-01 0.27748127E+03</pdfrwt>
<pdfrwt beam="2">  1       -1 0.16606867E-01 0.27748127E+03</pdfrwt>
<totfact> 0.46052454E+03</totfact>
</mgrwt>
</event>
<event>
 9    1  0.7984035E-001  0.2836701E+03  0.7818608E-02  0.1093701E+00
         -2   -1    0    0    0  501 -0.00000000000E+00  0.00000000000E+00  0.36235312261E+03  0.36235312261E+03  0.00000000000E+00 0.  1.
          2   -1    0    0  501    0  0.00000000000E+00 -0.00000000000E+00 -0.55518149869E+02  0.55518149869E+02  0.00000000000E+00 0.  1.
         35    2    1    2    0    0 -0.35527136788E-14  0.00000000000E+00  0.30683497274E+03  0.41787127248E+03  0.28367005458E+03 0.  0.
         25    2    3    3    0    0 -0.30766731504E+02 -0.50427992867E+02  0.21055715804E+03  0.24963572901E+03  0.12039147048E+03 0.  0.
         25    2    3    3    0    0  0.30766731504E+02  0.50427992867E+02  0.96277814706E+02  0.16823554347E+03  0.12467640615E+03 0.  0.
          5    1    4    4  502    0 -0.31092606583E+02 -0.17935446148E+02 -0.33549458561E+00  0.36202665223E+02  0.47000000000E+01 0. -1.
         -5    1    4    4    0  502  0.32587507926E+00 -0.32492546719E+02  0.21089265262E+03  0.21343306379E+03  0.47000000000E+01 0. -1.
          5    1    5    5  503    0  0.14390019808E+02  0.82866237983E+02  0.24633587301E+02  0.87765538174E+02  0.47000000000E+01 0. -1.
         -5    1    5    5    0  503  0.16376711696E+02 -0.32438245117E+02  0.71644227405E+02  0.80470005298E+02  0.47000000000E+01 0. -1.
<mgrwt>
<rscale>  0 0.28367005E+03</rscale>
<asrwt>0</asrwt>
<pdfrwt beam="1">  1        2 0.85412540E-02 0.28367005E+03</pdfrwt>
<pdfrwt beam="2">  1       -2 0.55746633E-01 0.28367005E+03</pdfrwt>
<totfact> 0.24042816E+03</totfact>
</mgrwt>
</event>
<event>
 9    1  0.7984035E-001  0.2732027E+03  0.7818608E-02  0.1099461E+00
          1   -1    0    0  501    0  0.00000000000E+00  0.00000000000E+00  0.28872983037E+03  0.28872983037E+03  0.00000000000E+00 0. -1.
         -1   -1    0    0    0  501 -0.00000000000E+00 -0.00000000000E+00 -0.64627630647E+02  0.64627630647E+02  0.00000000000E+00 0. -1.
         35    2    1    2    0    0  0.00000000000E+00  0.71054273576E-14  0.22410219972E+03  0.35335746102E+03  0.27320267081E+03 0.  0.
         25    2    3    3    0    0  0.34238262008E+02  0.14803755445E+02  0.16498102298E+03  0.21041034057E+03  0.12514936561E+03 0.  0.
         25    2    3    3    0    0 -0.34238262008E+02 -0.14803755445E+02  0.59121176744E+02  0.14294712045E+03  0.12468823499E+03 0.  0.
          5    1    4    4  502    0 -0.22100544784E+02 -0.41457331590E+02  0.38690679533E+02  0.61042633504E+02  0.47000000000E+01 0. -1.
         -5    1    4    4    0  502  0.56338806792E+02  0.56261087035E+02  0.12629034345E+03  0.14936770706E+03  0.47000000000E+01 0. -1.
          5    1    5    5  503    0 -0.12410780553E+02 -0.69106556632E+02  0.23097725815E+02  0.74063071643E+02  0.47000000000E+01 0. -1.
         -5    1    5    5    0  503 -0.21827481455E+02  0.54302801187E+02  0.36023450929E+02  0.68884048809E+02  0.47000000000E+01 0. -1.
<mgrwt>
<rscale>  0 0.27320267E+03</rscale>
<asrwt>0</asrwt>
<pdfrwt beam="1">  1        1 0.44419973E-01 0.27320267E+03</pdfrwt>
<pdfrwt beam="2">  1       -1 0.99427126E-02 0.27320267E+03</pdfrwt>
<totfact> 0.56175766E+03</totfact>
</mgrwt>
</event>
<event>
 9    1  0.7984035E-001  0.2704284E+03  0.7818608E-02  0.1101035E+00
          1   -1    0    0  501    0  0.00000000000E+00  0.00000000000E+00  0.89075760248E+03  0.89075760248E+03  0.00000000000E+00 0. -1.
         -1   -1    0    0    0  501 -0.00000000000E+00 -0.00000000000E+00 -0.20525095450E+02  0.20525095450E+02  0.00000000000E+00 0. -1.
         35    2    1    2    0    0  0.00000000000E+00  0.00000000000E+00  0.87023250703E+03  0.91128269793E+03  0.27042843647E+03 0.  0.
         25    2    3    3    0    0 -0.43682497995E+02 -0.22201722986E+02  0.51487939939E+03  0.53201346995E+03  0.12464533348E+03 0.  0.
         25    2    3    3    0    0  0.43682497995E+02  0.22201722986E+02  0.35535310764E+03  0.37926922798E+03  0.12315940503E+03 0.  0.
          5    1    4    4  502    0 -0.28420010170E+02 -0.52902798846E+02  0.10798191458E+03  0.12364702577E+03  0.47000000000E+01 0. -1.
         -5    1    4    4    0  502 -0.15262487825E+02  0.30701075860E+02  0.40689748481E+03  0.40836644419E+03  0.47000000000E+01 0. -1.
          5    1    5    5  503    0 -0.19657165941E+02  0.29724575493E+01  0.27181212730E+03  0.27257872665E+03  0.47000000000E+01 0.  1.
         -5    1    5    5    0  503  0.63339663937E+02  0.19229265437E+02  0.83540980340E+02  0.10669050133E+03  0.47000000000E+01 0.  1.
<mgrwt>
<rscale>  0 0.27042844E+03</rscale>
<asrwt>0</asrwt>
<pdfrwt beam="1">  1        1 0.13703960E+00 0.27042844E+03</pdfrwt>
<pdfrwt beam="2">  1       -1 0.31577077E-02 0.27042844E+03</pdfrwt>
<totfact> 0.67779331E+03</totfact>
</mgrwt>
</event>
<event>
 9    1  0.7984035E-001  0.2752231E+03  0.7818608E-02  0.1098327E+00
         -1   -1    0    0    0  501 -0.00000000000E+00  0.00000000000E+00  0.32346235207E+02  0.32346235207E+02  0.00000000000E+00 0.  1.
          1   -1    0    0  501    0  0.00000000000E+00 -0.00000000000E+00 -0.58544475795E+03  0.58544475795E+03  0.00000000000E+00 0.  1.
         35    2    1    2    0    0 -0.71054273576E-14  0.00000000000E+00 -0.55309852275E+03  0.61779099316E+03  0.27522306474E+03 0.  0.
         25    2    3    3    0    0 -0.55575594315E+02 -0.38134987743E+01 -0.24451998505E+03  0.28012076710E+03  0.12479756252E+03 0.  0.
         25    2    3    3    0    0  0.55575594315E+02  0.38134987743E+01 -0.30857853769E+03  0.33767022607E+03  0.12528877918E+03 0.  0.
          5    1    4    4  502    0 -0.87666462210E+02  0.17247602595E+02 -0.11966799690E+03  0.14941689287E+03  0.47000000000E+01 0.  1.
         -5    1    4    4    0  502  0.32090867894E+02 -0.21061101369E+02 -0.12485198815E+03  0.13070387423E+03  0.47000000000E+01 0.  1.
          5    1    5    5  503    0  0.65751070454E+02  0.54294406111E+02 -0.19351357358E+03  0.21151992569E+03  0.47000000000E+01 0.  1.
         -5    1    5    5    0  503 -0.10175476138E+02 -0.50480907337E+02 -0.11506496411E+03  0.12615030038E+03  0.47000000000E+01 0.  1.
<mgrwt>
<rscale>  0 0.27522306E+03</rscale>
<asrwt>0</asrwt>
<pdfrwt beam="1">  1        1 0.90068426E-01 0.27522306E+03</pdfrwt>
<pdfrwt beam="2">  1       -1 0.49763438E-02 0.27522306E+03</pdfrwt>
<totfact> 0.64275395E+03</totfact>
</mgrwt>
</event>
<event>
 9    1  0.7984035E-001  0.2729489E+03  0.7818608E-02  0.1099604E+00
          2   -1    0    0  501    0  0.00000000000E+00  0.00000000000E+00  0.37202286852E+04  0.37202286852E+04  0.00000000000E+00 0. -1.
         -2   -1    0    0    0  501 -0.00000000000E+00 -0.00000000000E+00 -0.50064854886E+01  0.50064854886E+01  0.00000000000E+00 0. -1.
         35    2    1    2    0    0  0.00000000000E+00  0.14210854715E-13  0.37152221997E+04  0.37252351706E+04  0.27294886647E+03 0.  0.
         25    2    3    3    0    0  0.34734201163E+02 -0.45422926228E+02  0.16183306032E+04  0.16238752623E+04  0.12127332384E+03 0.  0.
         25    2    3    3    0    0 -0.34734201163E+02  0.45422926228E+02  0.20968915964E+04  0.21013599084E+04  0.12445637948E+03 0.  0.
          5    1    4    4  502    0  0.57976395824E+02 -0.66514182976E+02  0.78801793633E+03  0.79295633990E+03  0.47000000000E+01 0.  1.
         -5    1    4    4    0  502 -0.23242194661E+02  0.21091256748E+02  0.83031266689E+03  0.83091892235E+03  0.47000000000E+01 0.  1.
          5    1    5    5  503    0 -0.44917848623E+01  0.33936618672E+02  0.19707000483E+04  0.19710029530E+04  0.47000000000E+01 0. -1.
         -5    1    5    5    0  503 -0.30242416300E+02  0.11486307556E+02  0.12619154811E+03  0.13035695539E+03  0.47000000000E+01 0. -1.
<mgrwt>
<rscale>  0 0.27294887E+03</rscale>
<asrwt>0</asrwt>
<pdfrwt beam="1">  1        2 0.57234066E+00 0.27294887E+03</pdfrwt>
<pdfrwt beam="2">  1       -2 0.77023151E-03 0.27294887E+03</pdfrwt>
<totfact> 0.22349860E+03</totfact>
</mgrwt>
</event>
<event>
 9    1  0.7984035E-001  0.2771472E+03  0.7818608E-02  0.1097257E+00
          1   -1    0    0  501    0  0.00000000000E+00  0.00000000000E+00  0.37846466709E+03  0.37846466709E+03  0.00000000000E+00 0. -1.
         -1   -1    0    0    0  501 -0.00000000000E+00 -0.00000000000E+00 -0.50738268433E+02  0.50738268433E+02  0.00000000000E+00 0. -1.
         35    2    1    2    0    0 -0.71054273576E-14  0.00000000000E+00  0.32772639866E+03  0.42920293553E+03  0.27714719462E+03 0.  0.
         25    2    3    3    0    0  0.27356617852E+02 -0.35155630336E+02  0.22384453070E+03  0.25929471587E+03  0.12305719349E+03 0.  0.
         25    2    3    3    0    0 -0.27356617852E+02  0.35155630336E+02  0.10388186797E+03  0.16990821966E+03  0.12685841609E+03 0.  0.
          5    1    4    4  502    0 -0.30621452418E+02 -0.57980058354E+02  0.88707449945E+02  0.11041042610E+03  0.47000000000E+01 0.  1.
         -5    1    4    4    0  502  0.57978070270E+02  0.22824428018E+02  0.13513708075E+03  0.14888428977E+03  0.47000000000E+01 0.  1.
          5    1    5    5  503    0  0.23169320852E+02 -0.51344349796E+01  0.10227192160E+03  0.10509431859E+03  0.47000000000E+01 0.  1.
         -5    1    5    5    0  503 -0.50525938704E+02  0.40290065315E+02  0.16099463633E+01  0.64813901073E+02  0.47000000000E+01 0.  1.
<mgrwt>
<rscale>  0 0.27714719E+03</rscale>
<asrwt>0</asrwt>
<pdfrwt beam="1">  1        1 0.58225332E-01 0.27714719E+03</pdfrwt>
<pdfrwt beam="2">  1       -1 0.78058877E-02 0.27714719E+03</pdfrwt>
<totfact> 0.57870201E+03</totfact>
</mgrwt>
</event>
<event>
 9    1  0.7984035E-001  0.2789977E+03  0.7818608E-02  0.1096238E+00
         -1   -1    0    0    0  501 -0.00000000000E+00  0.00000000000E+00  0.11603765089E+04  0.11603765089E+04  0.00000000000E+00 0. -1.
          1   -1    0    0  501    0  0.00000000000E+00 -0.00000000000E+00 -0.16770361562E+02  0.16770361562E+02  0.00000000000E+00 0. -1.
         35    2    1    2    0    0  0.00000000000E+00  0.00000000000E+00  0.11436061473E+04  0.11771468704E+04  0.27899773190E+03 0.  0.
         25    2    3    3    0    0  0.26892426781E+02  0.55482335561E+02  0.52684500500E+03  0.54494223498E+03  0.12487949389E+03 0.  0.
         25    2    3    3    0    0 -0.26892426781E+02 -0.55482335561E+02  0.61676114232E+03  0.63220463546E+03  0.12444638303E+03 0.  0.
          5    1    4    4  502    0  0.59250877398E+02  0.35140984063E+02  0.47691356995E+03  0.48188608450E+03  0.47000000000E+01 0. -1.
         -5    1    4    4    0  502 -0.32358450617E+02  0.20341351498E+02  0.49931435050E+02  0.63056150480E+02  0.47000000000E+01 0. -1.
          5    1    5    5  503    0  0.42588220217E+02 -0.53654051354E+01  0.10893088826E+03  0.11717752553E+03  0.47000000000E+01 0. -1.
         -5    1    5    5    0  503 -0.69480646998E+02 -0.50116930426E+02  0.50783025406E+03  0.51502710993E+03  0.47000000000E+01 0. -1.
<mgrwt>
<rscale>  0 0.27899773E+03</rscale>
<asrwt>0</asrwt>
<pdfrwt beam="1">  1        1 0.25800565E-02 0.27899773E+03</pdfrwt>
<pdfrwt beam="2">  1       -1 0.17851940E+00 0.27899773E+03</pdfrwt>
<totfact> 0.98795914E+02</totfact>
</mgrwt>
</event>
<event>
 9    1  0.7984035E-001  0.2748281E+03  0.7818608E-02  0.1098548E+00
         -1   -1    0    0    0  501 -0.00000000000E+00  0.00000000000E+00  0.10949791702E+02  0.10949791702E+02  0.00000000000E+00 0.  1.
          1   -1    0    0  501    0  0.00000000000E+00 -0.00000000000E+00 -0.17244727906E+04  0.17244727906E+04  0.00000000000E+00 0.  1.
         35    2    1    2    0    0  0.00000000000E+00  0.14210854715E-13 -0.17135229989E+04  0.17354225823E+04  0.27482807609E+03 0.  0.
         25    2    3    3    0    0 -0.17850419907E+02 -0.40763127788E+02 -0.61286188428E+03  0.62685730861E+03  0.12397631252E+03 0.  0.
         25    2    3    3    0    0  0.17850419907E+02  0.40763127788E+02 -0.11006611146E+04  0.11085652737E+04  0.12442590865E+03 0.  0.
          5    1    4    4  502    0  0.83236809941E+01  0.37925738172E+02 -0.32204461568E+03  0.32441095815E+03  0.47000000000E+01 0. -1.
         -5    1    4    4    0  502 -0.26174100901E+02 -0.78688865960E+02 -0.29081726861E+03  0.30244635046E+03  0.47000000000E+01 0. -1.
          5    1    5    5  503    0 -0.33126722408E+01  0.80599090936E+02 -0.85019084907E+03  0.85402210574E+03  0.47000000000E+01 0. -1.
         -5    1    5    5    0  503  0.21163092147E+02 -0.39835963148E+02 -0.25047026553E+03  0.25454316794E+03  0.47000000000E+01 0. -1.
<mgrwt>
<rscale>  0 0.27482808E+03</rscale>
<asrwt>0</asrwt>
<pdfrwt beam="1">  1        1 0.26530376E+00 0.27482808E+03</pdfrwt>
<pdfrwt beam="2">  1       -1 0.16845818E-02 0.27482808E+03</pdfrwt>
<totfact> 0.44906565E+03</totfact>
</mgrwt>
</event>
<event>
 9    1  0.7984035E-001  0.2801053E+03  0.7818608E-02  0.1095631E+00
          2   -1    0    0  501    0  0.00000000000E+00  0.00000000000E+00  0.17927765034E+04  0.17927765034E+04  0.00000000000E+00 0. -1.
         -2   -1    0    0    0  501 -0.00000000000E+00 -0.00000000000E+00 -0.10940988340E+02  0.10940988340E+02  0.00000000000E+00 0. -1.
         35    2    1    2    0    0  0.00000000000E+00  0.00000000000E+00  0.17818355151E+04  0.18037174918E+04  0.28010531462E+03 0.  0.
         25    2    3    3    0    0 -0.20497112456E+02 -0.22792419763E+02  0.53271065418E+03  0.54802040397E+03  0.12492436139E+03 0.  0.
         25    2    3    3    0    0  0.20497112456E+02  0.22792419763E+02  0.12491248609E+04  0.12556970878E+04  0.12458985576E+03 0.  0.
          5    1    4    4  502    0 -0.29320040290E+02 -0.44531705600E+02  0.90356915922E+02  0.10501999724E+03  0.47000000000E+01 0.  1.
         -5    1    4    4    0  502  0.88229278340E+01  0.21739285838E+02  0.44235373826E+03  0.44300040672E+03  0.47000000000E+01 0.  1.
          5    1    5    5  503    0 -0.25138082621E+02 -0.14182338120E+01  0.10371948702E+04  0.10375110714E+04  0.47000000000E+01 0. -1.
         -5    1    5    5    0  503  0.45635195077E+02  0.24210653575E+02  0.21192999075E+03  0.21818601641E+03  0.47000000000E+01 0. -1.
<mgrwt>
<rscale>  0 0.28010531E+03</rscale>
<asrwt>0</asrwt>
<pdfrwt beam="1">  1        2 0.27581154E+00 0.28010531E+03</pdfrwt>
<pdfrwt beam="2">  1       -2 0.16832304E-02 0.28010531E+03</pdfrwt>
<totfact> 0.95152121E+03</totfact>
</mgrwt>
</event>
<event>
 9    1  0.7984035E-001  0.2717057E+03  0.7818608E-02  0.1100307E+00
          1   -1    0    0  501    0  0.00000000000E+00  0.00000000000E+00  0.16962046650E+03  0.16962046650E+03  0.00000000000E+00 0. -1.
         -1   -1    0    0    0  501 -0.00000000000E+00 -0.00000000000E+00 -0.10880764303E+03  0.10880764303E+03  0.00000000000E+00 0. -1.
         35    2    1    2    0    0 -0.35527136788E-14  0.71054273576E-14  0.60812823468E+02  0.27842810953E+03  0.27170574649E+03 0.  0.
         25    2    3    3    0    0  0.47751437891E+01 -0.47511961695E+02  0.57447142547E+02  0.14572111765E+03  0.12511707093E+03 0.  0.
         25    2    3    3    0    0 -0.47751437891E+01  0.47511961695E+02  0.33656809215E+01  0.13270699188E+03  0.12377249042E+03 0.  0.
          5    1    4    4  502    0 -0.50665041661E+02  0.11798528330E+02  0.17260814918E+02  0.55010703040E+02  0.47000000000E+01 0.  1.
         -5    1    4    4    0  502  0.55440185450E+02 -0.59310490026E+02  0.40186327629E+02  0.90710414607E+02  0.47000000000E+01 0.  1.
          5    1    5    5  503    0 -0.35059490910E+02 -0.25623631111E+02  0.25241557700E+02  0.50447642258E+02  0.47000000000E+01 0. -1.
         -5    1    5    5    0  503  0.30284347121E+02  0.73135592807E+02 -0.21875876778E+02  0.82259349624E+02  0.47000000000E+01 0. -1.
<mgrwt>
<rscale>  0 0.27170575E+03</rscale>
<asrwt>0</asrwt>
<pdfrwt beam="1">  1        1 0.26095457E-01 0.27170575E+03</pdfrwt>
<pdfrwt beam="2">  1       -1 0.16739637E-01 0.27170575E+03</pdfrwt>
<totfact> 0.48416246E+03</totfact>
</mgrwt>
</event>
<event>
 9    1  0.7984035E-001  0.2760428E+03  0.7818608E-02  0.1097870E+00
         -3   -1    0    0    0  501 -0.00000000000E+00  0.00000000000E+00  0.19434684291E+02  0.19434684291E+02  0.00000000000E+00 0.  1.
          3   -1    0    0  501    0  0.00000000000E+00 -0.00000000000E+00 -0.98020119220E+03  0.98020119220E+03  0.00000000000E+00 0.  1.
         35    2    1    2    0    0 -0.35527136788E-14  0.00000000000E+00 -0.96076650791E+03  0.99963587649E+03  0.27604275547E+03 0.  0.
         25    2    3    3    0    0  0.31672445701E+02  0.34038678234E+01 -0.66690024605E+03  0.67888851151E+03  0.12295911007E+03 0.  0.
         25    2    3    3    0    0 -0.31672445701E+02 -0.34038678234E+01 -0.29386626186E+03  0.32074736498E+03  0.12452615046E+03 0.  0.
          5    1    4    4  502    0  0.12807122190E+02 -0.58325040731E+02 -0.38667753857E+03  0.39128946010E+03  0.47000000000E+01 0. -1.
         -5    1    4    4    0  502  0.18865323512E+02  0.61728908555E+02 -0.28022270748E+03  0.28759905141E+03  0.47000000000E+01 0. -1.
          5    1    5    5  503    0 -0.58393875643E+02  0.39536709808E+02 -0.22022176543E+03  0.23128491543E+03  0.47000000000E+01 0.  1.
         -5    1    5    5    0  503  0.26721429941E+02 -0.42940577631E+02 -0.73644496425E+02  0.89462449548E+02  0.47000000000E+01 0.  1.
<mgrwt>
<rscale>  0 0.27604276E+03</rscale>
<asrwt>0</asrwt>
<pdfrwt beam="1">  1        3 0.15080018E+00 0.27604276E+03</pdfrwt>
<pdfrwt beam="2">  1       -3 0.29899514E-02 0.27604276E+03</pdfrwt>
<totfact> 0.43998781E+02</totfact>
</mgrwt>
</event>
<event>
 9    1  0.7984035E-001  0.2753387E+03  0.7818608E-02  0.1098262E+00
          1   -1    0    0  501    0  0.00000000000E+00  0.00000000000E+00  0.18429021036E+04  0.18429021036E+04  0.00000000000E+00 0. -1.
         -1   -1    0    0    0  501 -0.00000000000E+00 -0.00000000000E+00 -0.10284243412E+02  0.10284243412E+02  0.00000000000E+00 0. -1.
         35    2    1    2    0    0  0.71054273576E-14  0.17763568394E-14  0.18326178602E+04  0.18531863470E+04  0.27533872825E+03 0.  0.
         25    2    3    3    0    0 -0.92801615453E+01 -0.27682934810E+01  0.13000863591E+04  0.13061161078E+04  0.12498384276E+03 0.  0.
         25    2    3    3    0    0  0.92801615453E+01  0.27682934810E+01  0.53253150103E+03  0.54707023921E+03  0.12490901565E+03 0.  0.
          5    1    4    4  502    0 -0.42260300408E+02  0.10079877420E+02  0.17198681029E+03  0.17745165492E+03  0.47000000000E+01 0.  1.
         -5    1    4    4    0  502  0.32980138863E+02 -0.12848170901E+02  0.11280995488E+04  0.11286644529E+04  0.47000000000E+01 0.  1.
          5    1    5    5  503    0  0.30696514964E+02 -0.48683690456E+02  0.15478030326E+03  0.16520111993E+03  0.47000000000E+01 0. -1.
         -5    1    5    5    0  503 -0.21416353419E+02  0.51451983937E+02  0.37775119777E+03  0.38186911928E+03  0.47000000000E+01 0. -1.
<mgrwt>
<rscale>  0 0.27533873E+03</rscale>
<asrwt>0</asrwt>
<pdfrwt beam="1">  1        1 0.28352314E+00 0.27533873E+03</pdfrwt>
<pdfrwt beam="2">  1       -1 0.15821928E-02 0.27533873E+03</pdfrwt>
<totfact> 0.41206586E+03</totfact>
</mgrwt>
</event>
<event>
 9    1  0.7984035E-001  0.2755928E+03  0.7818608E-02  0.1098121E+00
          2   -1    0    0  501    0  0.00000000000E+00  0.00000000000E+00  0.66385662359E+03  0.66385662359E+03  0.00000000000E+00 0.  1.
         -2   -1    0    0    0  501 -0.00000000000E+00 -0.00000000000E+00 -0.28602334741E+02  0.28602334741E+02  0.00000000000E+00 0.  1.
         35    2    1    2    0    0  0.35527136788E-14  0.71054273576E-14  0.63525428885E+03  0.69245895833E+03  0.27559281100E+03 0.  0.
         25    2    3    3    0    0  0.98001246177E+01  0.59388268261E+02  0.26987829604E+03  0.30458735374E+03  0.12773469590E+03 0.  0.
         25    2    3    3    0    0 -0.98001246177E+01 -0.59388268261E+02  0.36537599281E+03  0.38787160459E+03  0.11541991455E+03 0.  0.
          5    1    4    4  502    0 -0.55891401938E+02  0.43494697266E+02  0.16637315093E+03  0.18088049328E+03  0.47000000000E+01 0. -1.
         -5    1    4    4    0  502  0.65691526556E+02  0.15893570995E+02  0.10350514511E+03  0.12370686046E+03  0.47000000000E+01 0. -1.
          5    1    5    5  503    0  0.75478770903E+01 -0.53371249361E+02  0.36492297775E+03  0.36891236140E+03  0.47000000000E+01 0. -1.
         -5    1    5    5    0  503 -0.17348001708E+02 -0.60170189004E+01  0.45301506634E+00  0.18959243191E+02  0.47000000000E+01 0. -1.
<mgrwt>
<rscale>  0 0.27559281E+03</rscale>
<asrwt>0</asrwt>
<pdfrwt beam="1">  1        2 0.10213178E+00 0.27559281E+03</pdfrwt>
<pdfrwt beam="2">  1       -2 0.44003597E-02 0.27559281E+03</pdfrwt>
<totfact> 0.10596355E+04</totfact>
</mgrwt>
</event>
<event>
 9    1  0.7984035E-001  0.2726804E+03  0.7818608E-02  0.1099755E+00
         -4   -1    0    0    0  501 -0.00000000000E+00  0.00000000000E+00  0.17418125609E+03  0.17418125609E+03  0.00000000000E+00 0. -1.
          4   -1    0    0  501    0  0.00000000000E+00 -0.00000000000E+00 -0.10672018681E+03  0.10672018681E+03  0.00000000000E+00 0. -1.
         35    2    1    2    0    0  0.00000000000E+00  0.00000000000E+00  0.67461069285E+02  0.28090144290E+03  0.27268044439E+03 0.  0.
         25    2    3    3    0    0 -0.53603728583E+02  0.15736833549E+00  0.25135159399E+02  0.13856059845E+03  0.12527521193E+03 0.  0.
         25    2    3    3    0    0  0.53603728583E+02 -0.15736833549E+00  0.42325909886E+02  0.14234084444E+03  0.12488414177E+03 0.  0.
          5    1    4    4  502    0 -0.63697473226E+02  0.17072070408E+02 -0.35212781451E+02  0.74905631703E+02  0.47000000000E+01 0.  1.
         -5    1    4    4    0  502  0.10093744643E+02 -0.16914702072E+02  0.60347940850E+02  0.63654966750E+02  0.47000000000E+01 0.  1.
          5    1    5    5  503    0 -0.31881522604E+00  0.72052062469E+01  0.77104579883E+02  0.77583650850E+02  0.47000000000E+01 0. -1.
         -5    1    5    5    0  503  0.53922543809E+02 -0.73625745824E+01 -0.34778669997E+02  0.64757193593E+02  0.47000000000E+01 0. -1.
<mgrwt>
<rscale>  0 0.27268044E+03</rscale>
<asrwt>0</asrwt>
<pdfrwt beam="1">  1        4 0.16418490E-01 0.27268044E+03</pdfrwt>
<pdfrwt beam="2">  1       -4 0.26797116E-01 0.27268044E+03</pdfrwt>
<totfact> 0.79220367E+02</totfact>
</mgrwt>
</event>
<event>
 9    1  0.7984035E-001  0.2744334E+03  0.7818608E-02  0.1098769E+00
         -2   -1    0    0    0  501 -0.00000000000E+00  0.00000000000E+00  0.10827898962E+03  0.10827898962E+03  0.00000000000E+00 0. -1.
          2   -1    0    0  501    0  0.00000000000E+00 -0.00000000000E+00 -0.17388809504E+03  0.17388809504E+03  0.00000000000E+00 0. -1.
         35    2    1    2    0    0  0.71054273576E-14  0.00000000000E+00 -0.65609105423E+02  0.28216708466E+03  0.27443343264E+03 0.  0.
         25    2    3    3    0    0  0.11741364151E+02  0.51461394929E+02 -0.25096713153E+02  0.14009265499E+03  0.12731838898E+03 0.  0.
         25    2    3    3    0    0 -0.11741364151E+02 -0.51461394929E+02 -0.40512392270E+02  0.14207442967E+03  0.12552989619E+03 0.  0.
          5    1    4    4  502    0  0.46672048246E+02  0.50628480718E+02  0.29535109067E+02  0.75072870032E+02  0.47000000000E+01 0. -1.
         -5    1    4    4    0  502 -0.34930684095E+02  0.83291421118E+00 -0.54631822220E+02  0.65019784962E+02  0.47000000000E+01 0. -1.
          5    1    5    5  503    0  0.16234674785E+02 -0.53623604463E+02 -0.77290203325E+02  0.95576781443E+02  0.47000000000E+01 0.  1.
         -5    1    5    5    0  503 -0.27976038935E+02  0.21622095339E+01  0.36777811055E+02  0.46497648226E+02  0.47000000000E+01 0.  1.
<mgrwt>
<rscale>  0 0.27443343E+03</rscale>
<asrwt>0</asrwt>
<pdfrwt beam="1">  1        2 0.26752014E-01 0.27443343E+03</pdfrwt>
<pdfrwt beam="2">  1       -2 0.16658306E-01 0.27443343E+03</pdfrwt>
<totfact> 0.56800889E+03</totfact>
</mgrwt>
</event>
<event>
 9    1  0.7984035E-001  0.2581186E+03  0.7818608E-02  0.1108279E+00
         -2   -1    0    0    0  501 -0.00000000000E+00  0.00000000000E+00  0.59123434131E+02  0.59123434131E+02  0.00000000000E+00 0.  1.
          2   -1    0    0  501    0  0.00000000000E+00 -0.00000000000E+00 -0.28172077749E+03  0.28172077749E+03  0.00000000000E+00 0.  1.
         35    2    1    2    0    0 -0.35527136788E-14  0.00000000000E+00 -0.22259734336E+03  0.34084421162E+03  0.25811857609E+03 0.  0.
         25    2    3    3    0    0 -0.23035243826E+02  0.18632690730E+02 -0.10272702642E+03  0.16476874033E+03  0.12537183181E+03 0.  0.
         25    2    3    3    0    0  0.23035243826E+02 -0.18632690730E+02 -0.11987031694E+03  0.17607547129E+03  0.12552242463E+03 0.  0.
          5    1    4    4  502    0 -0.19603524692E+02 -0.46068135565E+02 -0.95546270504E+01  0.51185468571E+02  0.47000000000E+01 0. -1.
         -5    1    4    4    0  502 -0.34317191340E+01  0.64700826294E+02 -0.93172399367E+02  0.11358327176E+03  0.47000000000E+01 0. -1.
          5    1    5    5  503    0 -0.26578470217E+02 -0.26246947198E+02 -0.11988893606E+03  0.12566130791E+03  0.47000000000E+01 0.  1.
         -5    1    5    5    0  503  0.49613714043E+02  0.76142564686E+01  0.18619118587E-01  0.50414163381E+02  0.47000000000E+01 0.  1.
<mgrwt>
<rscale>  0 0.25811858E+03</rscale>
<asrwt>0</asrwt>
<pdfrwt beam="1">  1        2 0.43341658E-01 0.25811858E+03</pdfrwt>
<pdfrwt beam="2">  1       -2 0.90959130E-02 0.25811858E+03</pdfrwt>
<totfact> 0.89312521E+03</totfact>
</mgrwt>
</event>
<event>
 9    1  0.7984035E-001  0.2732170E+03  0.7818608E-02  0.1099452E+00
          1   -1    0    0  501    0  0.00000000000E+00  0.00000000000E+00  0.18931644299E+03  0.18931644299E+03  0.00000000000E+00 0.  1.
         -1   -1    0    0    0  501 -0.00000000000E+00 -0.00000000000E+00 -0.98575048077E+02  0.98575048077E+02  0.00000000000E+00 0.  1.
         35    2    1    2    0    0 -0.71054273576E-14  0.00000000000E+00  0.90741394913E+02  0.28789149107E+03  0.27321696484E+03 0.  0.
         25    2    3    3    0    0 -0.22938306160E+02 -0.30642295614E+02  0.41055586445E+01  0.13109911600E+03  0.12531961712E+03 0.  0.
         25    2    3    3    0    0  0.22938306160E+02  0.30642295614E+02  0.86635836269E+02  0.15679237507E+03  0.12495184906E+03 0.  0.
          5    1    4    4  502    0 -0.66839138436E+02  0.13602735190E+02 -0.10686142346E+01  0.68379359224E+02  0.47000000000E+01 0. -1.
         -5    1    4    4    0  502  0.43900832276E+02 -0.44245030804E+02  0.51741728790E+01  0.62719756778E+02  0.47000000000E+01 0. -1.
          5    1    5    5  503    0 -0.32669008542E+02 -0.11898589676E+02 -0.10808357349E+02  0.36711730332E+02  0.47000000000E+01 0.  1.
         -5    1    5    5    0  503  0.55607314703E+02  0.42540885289E+02  0.97444193618E+02  0.12008064473E+03  0.47000000000E+01 0.  1.
<mgrwt>
<rscale>  0 0.27321696E+03</rscale>
<asrwt>0</asrwt>
<pdfrwt beam="1">  1        1 0.29125607E-01 0.27321696E+03</pdfrwt>
<pdfrwt beam="2">  1       -1 0.15165392E-01 0.27321696E+03</pdfrwt>
<totfact> 0.49319749E+03</totfact>
</mgrwt>
</event>
<event>
 9    1  0.7984035E-001  0.2811119E+03  0.7818608E-02  0.1095083E+00
         -2   -1    0    0    0  501 -0.00000000000E+00  0.00000000000E+00  0.35116500974E+03  0.35116500974E+03  0.00000000000E+00 0.  1.
          2   -1    0    0  501    0  0.00000000000E+00 -0.00000000000E+00 -0.56258381346E+02  0.56258381346E+02  0.00000000000E+00 0.  1.
         35    2    1    2    0    0  0.00000000000E+00  0.00000000000E+00  0.29490662840E+03  0.40742339109E+03  0.28111189966E+03 0.  0.
         25    2    3    3    0    0 -0.30994679116E+02 -0.38015337561E+02  0.20576006809E+03  0.24579890551E+03  0.12519608741E+03 0.  0.
         25    2    3    3    0    0  0.30994679116E+02  0.38015337561E+02  0.89146560303E+02  0.16162448558E+03  0.12557678568E+03 0.  0.
          5    1    4    4  502    0  0.40161683090E+01  0.37551205429E+02  0.21916754553E+02  0.43916474894E+02  0.47000000000E+01 0. -1.
         -5    1    4    4    0  502 -0.35010847425E+02 -0.75566542990E+02  0.18384331354E+03  0.20188243061E+03  0.47000000000E+01 0. -1.
          5    1    5    5  503    0 -0.79921975173E+01  0.74296242396E+02  0.75749725056E+02  0.10650782930E+03  0.47000000000E+01 0.  1.
         -5    1    5    5    0  503  0.38986876634E+02 -0.36280904834E+02  0.13396835247E+02  0.55116656284E+02  0.47000000000E+01 0.  1.
<mgrwt>
<rscale>  0 0.28111190E+03</rscale>
<asrwt>0</asrwt>
<pdfrwt beam="1">  1        2 0.86551358E-02 0.28111190E+03</pdfrwt>
<pdfrwt beam="2">  1       -2 0.54025385E-01 0.28111190E+03</pdfrwt>
<totfact> 0.25196180E+03</totfact>
</mgrwt>
</event>
<event>
 9    1  0.7984035E-001  0.2771928E+03  0.7818608E-02  0.1097232E+00
          1   -1    0    0  501    0  0.00000000000E+00  0.00000000000E+00  0.10836671617E+04  0.10836671617E+04  0.00000000000E+00 0. -1.
         -1   -1    0    0    0  501 -0.00000000000E+00 -0.00000000000E+00 -0.17725884638E+02  0.17725884638E+02  0.00000000000E+00 0. -1.
         35    2    1    2    0    0 -0.35527136788E-14  0.71054273576E-14  0.10659412770E+04  0.11013930463E+04  0.27719277836E+03 0.  0.
         25    2    3    3    0    0  0.80253673791E+01 -0.44248774156E+02  0.36663263095E+03  0.38960487066E+03  0.12389555530E+03 0.  0.
         25    2    3    3    0    0 -0.80253673791E+01  0.44248774156E+02  0.69930864608E+03  0.71178817565E+03  0.12484976566E+03 0.  0.
          5    1    4    4  502    0 -0.48349920000E+02 -0.55848172367E+02  0.20131175925E+03  0.21448833892E+03  0.47000000000E+01 0.  1.
         -5    1    4    4    0  502  0.56375287379E+02  0.11599398211E+02  0.16532087171E+03  0.17511653174E+03  0.47000000000E+01 0.  1.
          5    1    5    5  503    0 -0.20064554908E+02  0.12511053692E+02  0.19207379561E+02  0.30824118118E+02  0.47000000000E+01 0.  1.
         -5    1    5    5    0  503  0.12039187529E+02  0.31737720463E+02  0.68010126652E+03  0.68096405753E+03  0.47000000000E+01 0.  1.
<mgrwt>
<rscale>  0 0.27719278E+03</rscale>
<asrwt>0</asrwt>
<pdfrwt beam="1">  1        1 0.16671797E+00 0.27719278E+03</pdfrwt>
<pdfrwt beam="2">  1       -1 0.27270600E-02 0.27719278E+03</pdfrwt>
<totfact> 0.60219376E+03</totfact>
</mgrwt>
</event>
<event>
 9    1  0.7984035E-001  0.2754278E+03  0.7818608E-02  0.1098213E+00
         -1   -1    0    0    0  501 -0.00000000000E+00  0.00000000000E+00  0.52999066022E+03  0.52999066022E+03  0.00000000000E+00 0. -1.
          1   -1    0    0  501    0  0.00000000000E+00 -0.00000000000E+00 -0.35783871075E+02  0.35783871075E+02  0.00000000000E+00 0. -1.
         35    2    1    2    0    0  0.00000000000E+00 -0.71054273576E-14  0.49420678915E+03  0.56577453130E+03  0.27542779421E+03 0.  0.
         25    2    3    3    0    0  0.29803800020E+02  0.48211968889E+02  0.26871157355E+03  0.30197913691E+03  0.12558992368E+03 0.  0.
         25    2    3    3    0    0 -0.29803800020E+02 -0.48211968889E+02  0.22549521560E+03  0.26379539439E+03  0.12460841625E+03 0.  0.
          5    1    4    4  502    0  0.77619832371E+02  0.25649477001E+02  0.19160822298E+03  0.20837114762E+03  0.47000000000E+01 0.  1.
         -5    1    4    4    0  502 -0.47816032351E+02  0.22562491888E+02  0.77103350572E+02  0.93607989293E+02  0.47000000000E+01 0.  1.
          5    1    5    5  503    0  0.41103133403E+02 -0.44478482541E+02  0.69300784955E+02  0.92154716537E+02  0.47000000000E+01 0. -1.
         -5    1    5    5    0  503 -0.70906933423E+02 -0.37334863477E+01  0.15619443065E+03  0.17164067785E+03  0.47000000000E+01 0. -1.
<mgrwt>
<rscale>  0 0.27542779E+03</rscale>
<asrwt>0</asrwt>
<pdfrwt beam="1">  1        1 0.55052113E-02 0.27542779E+03</pdfrwt>
<pdfrwt beam="2">  1       -1 0.81537019E-01 0.27542779E+03</pdfrwt>
<totfact> 0.22784816E+03</totfact>
</mgrwt>
</event>
<event>
 9    1  0.7984035E-001  0.2734545E+03  0.7818608E-02  0.1099319E+00
         -3   -1    0    0    0  501 -0.00000000000E+00  0.00000000000E+00  0.23466062214E+03  0.23466062214E+03  0.00000000000E+00 0.  1.
          3   -1    0    0  501    0  0.00000000000E+00 -0.00000000000E+00 -0.79665439942E+02  0.79665439942E+02  0.00000000000E+00 0.  1.
         35    2    1    2    0    0 -0.14210854715E-13  0.00000000000E+00  0.15499518220E+03  0.31432606208E+03  0.27345450591E+03 0.  0.
         25    2    3    3    0    0  0.34218672008E+02 -0.41503234661E+02  0.87464278579E+02  0.16223633575E+03  0.12560729520E+03 0.  0.
         25    2    3    3    0    0 -0.34218672008E+02  0.41503234661E+02  0.67530903622E+02  0.15208972634E+03  0.12520952804E+03 0.  0.
          5    1    4    4  502    0 -0.36026948038E+02  0.13469099797E+01  0.68673220480E+02  0.77703644461E+02  0.47000000000E+01 0. -1.
         -5    1    4    4    0  502  0.70245620046E+02 -0.42850144641E+02  0.18791058099E+02  0.84532691285E+02  0.47000000000E+01 0. -1.
          5    1    5    5  503    0  0.39513507682E+02  0.34801681380E+02  0.56006325104E+02  0.77014756819E+02  0.47000000000E+01 0. -1.
         -5    1    5    5    0  503 -0.73732179690E+02  0.67015532816E+01  0.11524578518E+02  0.75074969519E+02  0.47000000000E+01 0. -1.
<mgrwt>
<rscale>  0 0.27345451E+03</rscale>
<asrwt>0</asrwt>
<pdfrwt beam="1">  1        3 0.12256222E-01 0.27345451E+03</pdfrwt>
<pdfrwt beam="2">  1       -3 0.36101634E-01 0.27345451E+03</pdfrwt>
<totfact> 0.10082604E+03</totfact>
</mgrwt>
</event>
<event>
 9    1  0.7984035E-001  0.2747266E+03  0.7818608E-02  0.1098605E+00
          2   -1    0    0  501    0  0.00000000000E+00  0.00000000000E+00  0.97721519552E+03  0.97721519552E+03  0.00000000000E+00 0. -1.
         -2   -1    0    0    0  501 -0.00000000000E+00 -0.00000000000E+00 -0.19308617691E+02  0.19308617691E+02  0.00000000000E+00 0. -1.
         35    2    1    2    0    0  0.00000000000E+00 -0.71054273576E-14  0.95790657782E+03  0.99652381321E+03  0.27472658853E+03 0.  0.
         25    2    3    3    0    0  0.98218200730E+01  0.13313319014E+02  0.67891140820E+03  0.69047764889E+03  0.12475965219E+03 0.  0.
         25    2    3    3    0    0 -0.98218200730E+01 -0.13313319014E+02  0.27899516962E+03  0.30604616432E+03  0.12470861000E+03 0.  0.
          5    1    4    4  502    0  0.11640028542E+02 -0.27158481330E+02  0.38451278733E+02  0.48720264868E+02  0.47000000000E+01 0. -1.
         -5    1    4    4    0  502 -0.18182084689E+01  0.40471800344E+02  0.64046012947E+03  0.64175738402E+03  0.47000000000E+01 0. -1.
          5    1    5    5  503    0  0.31103200986E+02 -0.57369516911E+02  0.14049235765E+03  0.15498020241E+03  0.47000000000E+01 0. -1.
         -5    1    5    5    0  503 -0.40925021059E+02  0.44056197897E+02  0.13850281198E+03  0.15106596191E+03  0.47000000000E+01 0. -1.
<mgrwt>
<rscale>  0 0.27472659E+03</rscale>
<asrwt>0</asrwt>
<pdfrwt beam="1">  1        2 0.15034076E+00 0.27472659E+03</pdfrwt>
<pdfrwt beam="2">  1       -2 0.29705573E-02 0.27472659E+03</pdfrwt>
<totfact> 0.11629138E+04</totfact>
</mgrwt>
</event>
<event>
 9    1  0.7984035E-001  0.2673779E+03  0.7818608E-02  0.1102790E+00
         -1   -1    0    0    0  501 -0.00000000000E+00  0.00000000000E+00  0.90872038654E+03  0.90872038654E+03  0.00000000000E+00 0.  1.
          1   -1    0    0  501    0  0.00000000000E+00 -0.00000000000E+00 -0.19668030081E+02  0.19668030081E+02  0.00000000000E+00 0.  1.
         35    2    1    2    0    0  0.00000000000E+00  0.00000000000E+00  0.88905235646E+03  0.92838841662E+03  0.26737793400E+03 0.  0.
         25    2    3    3    0    0 -0.24932693610E+02 -0.85637397681E+01  0.29945816236E+03  0.32495805905E+03  0.12340004979E+03 0.  0.
         25    2    3    3    0    0  0.24932693610E+02  0.85637397681E+01  0.58959419410E+03  0.60343035757E+03  0.12574540101E+03 0.  0.
          5    1    4    4  502    0 -0.37144392802E+02 -0.56455111235E+02  0.11072011930E+03  0.12979953898E+03  0.47000000000E+01 0.  1.
         -5    1    4    4    0  502  0.12211699192E+02  0.47891371467E+02  0.18873804306E+03  0.19515852007E+03  0.47000000000E+01 0.  1.
          5    1    5    5  503    0  0.12578795815E+02  0.33009569257E+02  0.41788401224E+02  0.54920107826E+02  0.47000000000E+01 0. -1.
         -5    1    5    5    0  503  0.12353897795E+02 -0.24445829489E+02  0.54780579288E+03  0.54851024975E+03  0.47000000000E+01 0. -1.
<mgrwt>
<rscale>  0 0.26737793E+03</rscale>
<asrwt>0</asrwt>
<pdfrwt beam="1">  1        1 0.30258515E-02 0.26737793E+03</pdfrwt>
<pdfrwt beam="2">  1       -1 0.13980310E+00 0.26737793E+03</pdfrwt>
<totfact> 0.15259357E+03</totfact>
</mgrwt>
</event>
<event>
 9    1  0.7984035E-001  0.2761656E+03  0.7818608E-02  0.1097802E+00
         -1   -1    0    0    0  501 -0.00000000000E+00  0.00000000000E+00  0.67672037291E+02  0.67672037291E+02  0.00000000000E+00 0.  1.
          1   -1    0    0  501    0  0.00000000000E+00 -0.00000000000E+00 -0.28175390203E+03  0.28175390203E+03  0.00000000000E+00 0.  1.
         35    2    1    2    0    0  0.00000000000E+00  0.00000000000E+00 -0.21408186474E+03  0.34942593932E+03  0.27616560658E+03 0.  0.
         25    2    3    3    0    0  0.29500496308E+02 -0.24078532313E+02 -0.50116736216E+02  0.13967656199E+03  0.12469081650E+03 0.  0.
         25    2    3    3    0    0 -0.29500496308E+02  0.24078532313E+02 -0.16396512852E+03  0.20974937733E+03  0.12514065254E+03 0.  0.
          5    1    4    4  502    0 -0.22453178069E+02  0.38741396487E+02 -0.34064709786E+02  0.56458262991E+02  0.47000000000E+01 0. -1.
         -5    1    4    4    0  502  0.51953674376E+02 -0.62819928800E+02 -0.16052026430E+02  0.83218298998E+02  0.47000000000E+01 0. -1.
          5    1    5    5  503    0  0.39484585975E+02  0.30632832594E+02 -0.29021385830E+02  0.57980460483E+02  0.47000000000E+01 0.  1.
         -5    1    5    5    0  503 -0.68985082283E+02 -0.65543002810E+01 -0.13494374269E+03  0.15176891685E+03  0.47000000000E+01 0.  1.
<mgrwt>
<rscale>  0 0.27616561E+03</rscale>
<asrwt>0</asrwt>
<pdfrwt beam="1">  1        1 0.43346753E-01 0.27616561E+03</pdfrwt>
<pdfrwt beam="2">  1       -1 0.10411083E-01 0.27616561E+03</pdfrwt>
<totfact> 0.53965613E+03</totfact>
</mgrwt>
</event>
<event>
 9    1  0.7984035E-001  0.2732073E+03  0.7818608E-02  0.1099458E+00
          2   -1    0    0  501    0  0.00000000000E+00  0.00000000000E+00  0.35563753507E+04  0.35563753507E+04  0.00000000000E+00 0.  1.
         -2   -1    0    0    0  501 -0.00000000000E+00 -0.00000000000E+00 -0.52470720438E+01  0.52470720438E+01  0.00000000000E+00 0.  1.
         35    2    1    2    0    0 -0.35527136788E-14 -0.71054273576E-14  0.35511282786E+04  0.35616224227E+04  0.27320730356E+03 0.  0.
         25    2    3    3    0    0  0.52780886167E+00  0.54726714845E+02  0.17001480895E+04  0.17056125748E+04  0.12496174388E+03 0.  0.
         25    2    3    3    0    0 -0.52780886167E+00 -0.54726714845E+02  0.18509801892E+04  0.18560098479E+04  0.12509837267E+03 0.  0.
          5    1    4    4  502    0 -0.28596703867E+02  0.49258244104E+02  0.16011028916E+04  0.16021225626E+04  0.47000000000E+01 0.  1.
         -5    1    4    4    0  502  0.29124512729E+02  0.54684707408E+01  0.99045197856E+02  0.10349001223E+03  0.47000000000E+01 0.  1.
          5    1    5    5  503    0  0.50493517287E+02 -0.35363688064E+02  0.48399114565E+03  0.48792387192E+03  0.47000000000E+01 0. -1.
         -5    1    5    5    0  503 -0.51021326149E+02 -0.19363026781E+02  0.13669890435E+04  0.13680859760E+04  0.47000000000E+01 0. -1.
<mgrwt>
<rscale>  0 0.27320730E+03</rscale>
<asrwt>0</asrwt>
<pdfrwt beam="1">  1        2 0.54713274E+00 0.27320730E+03</pdfrwt>
<pdfrwt beam="2">  1       -2 0.80724470E-03 0.27320730E+03</pdfrwt>
<totfact> 0.27061660E+03</totfact>
</mgrwt>
</event>
<event>
 9    1  0.7984035E-001  0.2788718E+03  0.7818608E-02  0.1096307E+00
          2   -1    0    0  501    0  0.00000000000E+00  0.00000000000E+00  0.77089152288E+03  0.77089152288E+03  0.00000000000E+00 0.  1.
         -2   -1    0    0    0  501 -0.00000000000E+00 -0.00000000000E+00 -0.25220631833E+02  0.25220631833E+02  0.00000000000E+00 0.  1.
         35    2    1    2    0    0 -0.71054273576E-14  0.14210854715E-13  0.74567089105E+03  0.79611215472E+03  0.27887180770E+03 0.  0.
         25    2    3    3    0    0  0.20126914528E+02  0.29780807255E+02  0.23199287874E+03  0.26616437172E+03  0.12542243745E+03 0.  0.
         25    2    3    3    0    0 -0.20126914528E+02 -0.29780807255E+02  0.51367801231E+03  0.52994778300E+03  0.12525000283E+03 0.  0.
          5    1    4    4  502    0 -0.22369519939E+02 -0.36779311220E+02  0.41851303486E+02  0.60222377566E+02  0.47000000000E+01 0.  1.
         -5    1    4    4    0  502  0.42496434467E+02  0.66560118476E+02  0.19014157526E+03  0.20594199415E+03  0.47000000000E+01 0.  1.
          5    1    5    5  503    0  0.52098372546E+02 -0.74098762851E+01  0.25445397702E+03  0.25988086330E+03  0.47000000000E+01 0.  1.
         -5    1    5    5    0  503 -0.72225287074E+02 -0.22370930970E+02  0.25922403529E+03  0.27006691970E+03  0.47000000000E+01 0.  1.
<mgrwt>
<rscale>  0 0.27887181E+03</rscale>
<asrwt>0</asrwt>
<pdfrwt beam="1">  1        2 0.11859868E+00 0.27887181E+03</pdfrwt>
<pdfrwt beam="2">  1       -2 0.38800978E-02 0.27887181E+03</pdfrwt>
<totfact> 0.10672319E+04</totfact>
</mgrwt>
</event>
<event>
 9    1  0.7984035E-001  0.2687561E+03  0.7818608E-02  0.1101994E+00
         -2   -1    0    0    0  501 -0.00000000000E+00  0.00000000000E+00  0.21011224637E+02  0.21011224637E+02  0.00000000000E+00 0.  1.
          2   -1    0    0  501    0  0.00000000000E+00 -0.00000000000E+00 -0.85941961423E+03  0.85941961423E+03  0.00000000000E+00 0.  1.
         35    2    1    2    0    0  0.35527136788E-14  0.00000000000E+00 -0.83840838959E+03  0.88043083887E+03  0.26875608698E+03 0.  0.
         25    2    3    3    0    0 -0.57521508726E+01  0.40654635227E+02 -0.32718063556E+03  0.35263487975E+03  0.12497321124E+03 0.  0.
         25    2    3    3    0    0  0.57521508726E+01 -0.40654635227E+02 -0.51122775403E+03  0.52779595912E+03  0.12461489221E+03 0.  0.
          5    1    4    4  502    0 -0.25647772000E+02 -0.35766859402E+02 -0.18194757461E+03  0.18725406897E+03  0.47000000000E+01 0. -1.
         -5    1    4    4    0  502  0.19895621128E+02  0.76421494629E+02 -0.14523306095E+03  0.16538081078E+03  0.47000000000E+01 0. -1.
          5    1    5    5  503    0  0.57833731700E+02 -0.44494283610E+02 -0.21852439341E+03  0.23043324914E+03  0.47000000000E+01 0.  1.
         -5    1    5    5    0  503 -0.52081580827E+02  0.38396483835E+01 -0.29270336063E+03  0.29736270998E+03  0.47000000000E+01 0.  1.
<mgrwt>
<rscale>  0 0.26875609E+03</rscale>
<asrwt>0</asrwt>
<pdfrwt beam="1">  1        2 0.13221839E+00 0.26875609E+03</pdfrwt>
<pdfrwt beam="2">  1       -2 0.32324964E-02 0.26875609E+03</pdfrwt>
<totfact> 0.12186606E+04</totfact>
</mgrwt>
</event>
<event>
 9    1  0.7984035E-001  0.2794319E+03  0.7818608E-02  0.1096000E+00
         -1   -1    0    0    0  501 -0.00000000000E+00  0.00000000000E+00  0.12474779722E+03  0.12474779722E+03  0.00000000000E+00 0.  1.
          1   -1    0    0  501    0  0.00000000000E+00 -0.00000000000E+00 -0.15648008141E+03  0.15648008141E+03  0.00000000000E+00 0.  1.
         35    2    1    2    0    0  0.71054273576E-14 -0.14210854715E-13 -0.31732284181E+02  0.28122787863E+03  0.27943189127E+03 0.  0.
         25    2    3    3    0    0  0.45092101782E+02 -0.34753194561E+02  0.82974140629E+01  0.13711450949E+03  0.12446067434E+03 0.  0.
         25    2    3    3    0    0 -0.45092101782E+02  0.34753194561E+02 -0.40029698244E+02  0.14411336914E+03  0.12619510390E+03 0.  0.
          5    1    4    4  502    0  0.35871820895E+02 -0.42437479508E+02  0.61122669123E+02  0.82739336969E+02  0.47000000000E+01 0.  1.
         -5    1    4    4    0  502  0.92202808867E+01  0.76842849469E+01 -0.52825255060E+02  0.54375172524E+02  0.47000000000E+01 0.  1.
          5    1    5    5  503    0 -0.15992660348E+02 -0.13493265581E+02 -0.74749700299E+02  0.77765294932E+02  0.47000000000E+01 0.  1.
         -5    1    5    5    0  503 -0.29099441434E+02  0.48246460142E+02  0.34720002055E+02  0.66348074205E+02  0.47000000000E+01 0.  1.
<mgrwt>
<rscale>  0 0.27943189E+03</rscale>
<asrwt>0</asrwt>
<pdfrwt beam="1">  1        1 0.24073859E-01 0.27943189E+03</pdfrwt>
<pdfrwt beam="2">  1       -1 0.19191969E-01 0.27943189E+03</pdfrwt>
<totfact> 0.43089345E+03</totfact>
</mgrwt>
</event>
<event>
 9    1  0.7984035E-001  0.2755984E+03  0.7818608E-02  0.1098118E+00
          2   -1    0    0  501    0  0.00000000000E+00  0.00000000000E+00  0.43811904875E+03  0.43811904875E+03  0.00000000000E+00 0.  1.
         -2   -1    0    0    0  501 -0.00000000000E+00 -0.00000000000E+00 -0.43341218594E+02  0.43341218594E+02  0.00000000000E+00 0.  1.
         35    2    1    2    0    0  0.35527136788E-14  0.00000000000E+00  0.39477783016E+03  0.48146026734E+03  0.27559835603E+03 0.  0.
         25    2    3    3    0    0  0.21932448465E+02 -0.30323830136E+02  0.14824017112E+03  0.19719458800E+03  0.12453911126E+03 0.  0.
         25    2    3    3    0    0 -0.21932448465E+02  0.30323830136E+02  0.24653765904E+03  0.28426567935E+03  0.13647561013E+03 0.  0.
          5    1    4    4  502    0 -0.11351178162E+02  0.42903703381E+02  0.28787023167E+02  0.53107058968E+02  0.47000000000E+01 0. -1.
         -5    1    4    4    0  502  0.33283626627E+02 -0.73227533517E+02  0.11945314795E+03  0.14408752903E+03  0.47000000000E+01 0. -1.
          5    1    5    5  503    0 -0.10300523027E+02 -0.46027246820E+02  0.16578180399E+03  0.17242478000E+03  0.47000000000E+01 0.  1.
         -5    1    5    5    0  503 -0.11631925439E+02  0.76351076956E+02  0.80755855050E+02  0.11184089935E+03  0.47000000000E+01 0.  1.
<mgrwt>
<rscale>  0 0.27559836E+03</rscale>
<asrwt>0</asrwt>
<pdfrwt beam="1">  1        2 0.67402927E-01 0.27559836E+03</pdfrwt>
<pdfrwt beam="2">  1       -2 0.66678801E-02 0.27559836E+03</pdfrwt>
<totfact> 0.90172450E+03</totfact>
</mgrwt>
</event>
<event>
 9    1  0.7984035E-001  0.2756507E+03  0.7818608E-02  0.1098088E+00
          4   -1    0    0  501    0  0.00000000000E+00  0.00000000000E+00  0.54310478922E+02  0.54310478922E+02  0.00000000000E+00 0.  1.
         -4   -1    0    0    0  501 -0.00000000000E+00 -0.00000000000E+00 -0.34976347878E+03  0.34976347878E+03  0.00000000000E+00 0.  1.
         35    2    1    2    0    0  0.00000000000E+00  0.00000000000E+00 -0.29545299986E+03  0.40407395770E+03  0.27565066328E+03 0.  0.
         25    2    3    3    0    0 -0.26438905217E+02 -0.48625731241E+02 -0.17495621960E+03  0.22204831212E+03  0.12502918334E+03 0.  0.
         25    2    3    3    0    0  0.26438905217E+02  0.48625731241E+02 -0.12049678025E+03  0.18202564559E+03  0.12470117943E+03 0.  0.
          5    1    4    4  502    0 -0.63799814162E+02 -0.66461255068E+02 -0.14000982848E+03  0.16766739929E+03  0.47000000000E+01 0. -1.
         -5    1    4    4    0  502  0.37360908946E+02  0.17835523828E+02 -0.34946391119E+02  0.54380912825E+02  0.47000000000E+01 0. -1.
          5    1    5    5  503    0  0.57074062579E+01  0.89037069895E+02 -0.66895427512E+02  0.11161210742E+03  0.47000000000E+01 0.  1.
         -5    1    5    5    0  503  0.20731498959E+02 -0.40411338654E+02 -0.53601352741E+02  0.70413538162E+02  0.47000000000E+01 0.  1.
<mgrwt>
<rscale>  0 0.27565066E+03</rscale>
<asrwt>0</asrwt>
<pdfrwt beam="1">  1        4 0.83554581E-02 0.27565066E+03</pdfrwt>
<pdfrwt beam="2">  1       -4 0.53809767E-01 0.27565066E+03</pdfrwt>
<totfact> 0.64173271E+02</totfact>
</mgrwt>
</event>
<event>
 9    1  0.7984035E-001  0.2750803E+03  0.7818608E-02  0.1098407E+00
         -1   -1    0    0    0  501 -0.00000000000E+00  0.00000000000E+00  0.14393781867E+03  0.14393781867E+03  0.00000000000E+00 0.  1.
          1   -1    0    0  501    0  0.00000000000E+00 -0.00000000000E+00 -0.13142682357E+03  0.13142682357E+03  0.00000000000E+00 0.  1.
         35    2    1    2    0    0  0.00000000000E+00  0.00000000000E+00  0.12510995101E+02  0.27536464224E+03  0.27508028137E+03 0.  0.
         25    2    3    3    0    0  0.27070725412E+02  0.15225958939E+02 -0.36512236305E+02  0.13705131383E+03  0.12839495794E+03 0.  0.
         25    2    3    3    0    0 -0.27070725412E+02 -0.15225958939E+02  0.49023231406E+02  0.13831332841E+03  0.12554937514E+03 0.  0.
          5    1    4    4  502    0  0.45061939318E+02  0.63480855623E+02 -0.90940755043E+01  0.78518721430E+02  0.47000000000E+01 0. -1.
         -5    1    4    4    0  502 -0.17991213907E+02 -0.48254896683E+02 -0.27418160801E+02  0.58532592403E+02  0.47000000000E+01 0. -1.
          5    1    5    5  503    0  0.32607356544E+02 -0.46247890012E+02  0.33585967447E+01  0.56881255291E+02  0.47000000000E+01 0.  1.
         -5    1    5    5    0  503 -0.59678081956E+02  0.31021931073E+02  0.45664634662E+02  0.81432073117E+02  0.47000000000E+01 0.  1.
<mgrwt>
<rscale>  0 0.27508028E+03</rscale>
<asrwt>0</asrwt>
<pdfrwt beam="1">  1        1 0.20219511E-01 0.27508028E+03</pdfrwt>
<pdfrwt beam="2">  1       -1 0.22144280E-01 0.27508028E+03</pdfrwt>
<totfact> 0.42651226E+03</totfact>
</mgrwt>
</event>
<event>
 9    1  0.7984035E-001  0.2741766E+03  0.7818608E-02  0.1098913E+00
          2   -1    0    0  501    0  0.00000000000E+00  0.00000000000E+00  0.37103163777E+03  0.37103163777E+03  0.00000000000E+00 0. -1.
         -2   -1    0    0    0  501 -0.00000000000E+00 -0.00000000000E+00 -0.50651197853E+02  0.50651197853E+02  0.00000000000E+00 0. -1.
         35    2    1    2    0    0  0.00000000000E+00  0.00000000000E+00  0.32038043992E+03  0.42168283562E+03  0.27417656278E+03 0.  0.
         25    2    3    3    0    0 -0.42702077902E+02 -0.22228711962E+02  0.20570951796E+03  0.24505479896E+03  0.12416869824E+03 0.  0.
         25    2    3    3    0    0  0.42702077902E+02  0.22228711962E+02  0.11467092196E+03  0.17662803666E+03  0.12542113019E+03 0.  0.
          5    1    4    4  502    0 -0.13230743520E+02  0.51285745970E+02  0.70795932248E+02  0.88540580169E+02  0.47000000000E+01 0. -1.
         -5    1    4    4    0  502 -0.29471334382E+02 -0.73514457931E+02  0.13491358571E+03  0.15651421879E+03  0.47000000000E+01 0. -1.
          5    1    5    5  503    0  0.60667098212E+02  0.25919617010E+02  0.61015237537E+01  0.66420192287E+02  0.47000000000E+01 0. -1.
         -5    1    5    5    0  503 -0.17965020309E+02 -0.36909050483E+01  0.10856939821E+03  0.11020784438E+03  0.47000000000E+01 0. -1.
<mgrwt>
<rscale>  0 0.27417656E+03</rscale>
<asrwt>0</asrwt>
<pdfrwt beam="1">  1        2 0.57081789E-01 0.27417656E+03</pdfrwt>
<pdfrwt beam="2">  1       -2 0.77924922E-02 0.27417656E+03</pdfrwt>
<totfact> 0.84823376E+03</totfact>
</mgrwt>
</event>
<event>
 9    1  0.7984035E-001  0.2646612E+03  0.7818608E-02  0.1104375E+00
         -2   -1    0    0    0  501 -0.00000000000E+00  0.00000000000E+00  0.20055807723E+02  0.20055807723E+02  0.00000000000E+00 0. -1.
          2   -1    0    0  501    0  0.00000000000E+00 -0.00000000000E+00 -0.87313270767E+03  0.87313270767E+03  0.00000000000E+00 0. -1.
         35    2    1    2    0    0  0.71054273576E-14  0.71054273576E-14 -0.85307689995E+03  0.89318851539E+03  0.26466115470E+03 0.  0.
         25    2    3    3    0    0  0.21622503844E+02 -0.57237010126E+01 -0.30077256184E+03  0.32643274519E+03  0.12487557708E+03 0.  0.
         25    2    3    3    0    0 -0.21622503844E+02  0.57237010126E+01 -0.55230433811E+03  0.56675577021E+03  0.12518677143E+03 0.  0.
          5    1    4    4  502    0 -0.27379049850E+02  0.42868827800E+02 -0.18152982656E+03  0.18858026593E+03  0.47000000000E+01 0. -1.
         -5    1    4    4    0  502  0.49001553694E+02 -0.48592528812E+02 -0.11924273528E+03  0.13785247926E+03  0.47000000000E+01 0. -1.
          5    1    5    5  503    0  0.35808984436E+02  0.44373130863E+02 -0.22313173072E+03  0.23034998885E+03  0.47000000000E+01 0. -1.
         -5    1    5    5    0  503 -0.57431488280E+02 -0.38649429850E+02 -0.32917260739E+03  0.33640578135E+03  0.47000000000E+01 0. -1.
<mgrwt>
<rscale>  0 0.26466115E+03</rscale>
<asrwt>0</asrwt>
<pdfrwt beam="1">  1        2 0.13432813E+00 0.26466115E+03</pdfrwt>
<pdfrwt beam="2">  1       -2 0.30855084E-02 0.26466115E+03</pdfrwt>
<totfact> 0.12785446E+04</totfact>
</mgrwt>
</event>
<event>
 9    1  0.7984035E-001  0.2749618E+03  0.7818608E-02  0.1098473E+00
          1   -1    0    0  501    0  0.00000000000E+00  0.00000000000E+00  0.21352053189E+03  0.21352053189E+03  0.00000000000E+00 0.  1.
         -1   -1    0    0    0  501 -0.00000000000E+00 -0.00000000000E+00 -0.88520765197E+02  0.88520765197E+02  0.00000000000E+00 0.  1.
         35    2    1    2    0    0  0.00000000000E+00  0.00000000000E+00  0.12499976669E+03  0.30204129709E+03  0.27496182185E+03 0.  0.
         25    2    3    3    0    0  0.16523549589E+02 -0.25973565276E+02  0.11743090715E+02  0.13043189459E+03  0.12620192218E+03 0.  0.
         25    2    3    3    0    0 -0.16523549589E+02  0.25973565276E+02  0.11325667598E+03  0.17160940250E+03  0.12520007424E+03 0.  0.
          5    1    4    4  502    0  0.30177379085E+02  0.46253252159E+02 -0.21876523916E+01  0.55469932096E+02  0.47000000000E+01 0.  1.
         -5    1    4    4    0  502 -0.13653829496E+02 -0.72226817435E+02  0.13930743106E+02  0.74961962489E+02  0.47000000000E+01 0.  1.
          5    1    5    5  503    0  0.20885773526E+02  0.18683291491E+02  0.12751773736E+03  0.13064510805E+03  0.47000000000E+01 0. -1.
         -5    1    5    5    0  503 -0.37409323115E+02  0.72902737845E+01 -0.14261061384E+02  0.40964294448E+02  0.47000000000E+01 0. -1.
<mgrwt>
<rscale>  0 0.27496182E+03</rscale>
<asrwt>0</asrwt>
<pdfrwt beam="1">  1        1 0.32849312E-01 0.27496182E+03</pdfrwt>
<pdfrwt beam="2">  1       -1 0.13618579E-01 0.27496182E+03</pdfrwt>
<totfact> 0.50251167E+03</totfact>
</mgrwt>
</event>
<event>
 9    1  0.7984035E-001  0.2780848E+03  0.7818608E-02  0.1096740E+00
         -3   -1    0    0    0  501 -0.00000000000E+00  0.00000000000E+00  0.94130565979E+02  0.94130565979E+02  0.00000000000E+00 0. -1.
          3   -1    0    0  501    0  0.00000000000E+00 -0.00000000000E+00 -0.20538270013E+03  0.20538270013E+03  0.00000000000E+00 0. -1.
         35    2    1    2    0    0  0.17763568394E-14 -0.71054273576E-14 -0.11125213415E+03  0.29951326611E+03  0.27808480581E+03 0.  0.
         25    2    3    3    0    0 -0.64705832893E+01 -0.50210436387E+02 -0.91179064229E+02  0.16329740963E+03  0.12565614139E+03 0.  0.
         25    2    3    3    0    0  0.64705832893E+01  0.50210436387E+02 -0.20073069918E+02  0.13621585647E+03  0.12485541658E+03 0.  0.
          5    1    4    4  502    0  0.62761368620E+01 -0.87112335586E+02 -0.87636066766E+02  0.12381485817E+03  0.47000000000E+01 0.  1.
         -5    1    4    4    0  502 -0.12746720151E+02  0.36901899198E+02 -0.35429974636E+01  0.39482551464E+02  0.47000000000E+01 0.  1.
          5    1    5    5  503    0 -0.44318981299E+02  0.57929876728E+02 -0.37001160223E+02  0.81922027435E+02  0.47000000000E+01 0.  1.
         -5    1    5    5    0  503  0.50789564588E+02 -0.77194403412E+01  0.16928090305E+02  0.54293829038E+02  0.47000000000E+01 0.  1.
<mgrwt>
<rscale>  0 0.27808481E+03</rscale>
<asrwt>0</asrwt>
<pdfrwt beam="1">  1        3 0.31597338E-01 0.27808481E+03</pdfrwt>
<pdfrwt beam="2">  1       -3 0.14481626E-01 0.27808481E+03</pdfrwt>
<totfact> 0.97835280E+02</totfact>
</mgrwt>
</event>
<event>
 9    1  0.7984035E-001  0.2777464E+03  0.7818608E-02  0.1096926E+00
          1   -1    0    0  501    0  0.00000000000E+00  0.00000000000E+00  0.20153454218E+03  0.20153454218E+03  0.00000000000E+00 0. -1.
         -1   -1    0    0    0  501 -0.00000000000E+00 -0.00000000000E+00 -0.95694581328E+02  0.95694581328E+02  0.00000000000E+00 0. -1.
         35    2    1    2    0    0  0.71054273576E-14  0.00000000000E+00  0.10583996085E+03  0.29722912350E+03  0.27774638530E+03 0.  0.
         25    2    3    3    0    0 -0.27724179664E+02 -0.20433331675E+01  0.11069003495E+03  0.16917390025E+03  0.12487881863E+03 0.  0.
         25    2    3    3    0    0  0.27724179664E+02  0.20433331675E+01 -0.48500740976E+01  0.12805522325E+03  0.12490721210E+03 0.  0.
          5    1    4    4  502    0 -0.59337171761E+02 -0.34504253336E+02  0.27038838715E+02  0.73923150974E+02  0.47000000000E+01 0. -1.
         -5    1    4    4    0  502  0.31612992097E+02  0.32460920168E+02  0.83651196230E+02  0.95250749279E+02  0.47000000000E+01 0. -1.
          5    1    5    5  503    0  0.47189160414E+02  0.40089642549E+02 -0.38843937947E+02  0.73245735818E+02  0.47000000000E+01 0.  1.
         -5    1    5    5    0  503 -0.19464980751E+02 -0.38046309382E+02  0.33993863850E+02  0.54809487433E+02  0.47000000000E+01 0.  1.
<mgrwt>
<rscale>  0 0.27774639E+03</rscale>
<asrwt>0</asrwt>
<pdfrwt beam="1">  1        1 0.31005314E-01 0.27774639E+03</pdfrwt>
<pdfrwt beam="2">  1       -1 0.14722243E-01 0.27774639E+03</pdfrwt>
<totfact> 0.47797825E+03</totfact>
</mgrwt>
</event>
<event>
 9    1  0.7984035E-001  0.2624093E+03  0.7818608E-02  0.1105704E+00
          2   -1    0    0  501    0  0.00000000000E+00  0.00000000000E+00  0.99241058763E+03  0.99241058763E+03  0.00000000000E+00 0.  1.
         -2   -1    0    0    0  501 -0.00000000000E+00 -0.00000000000E+00 -0.17346305894E+02  0.17346305894E+02  0.00000000000E+00 0.  1.
         35    2    1    2    0    0  0.00000000000E+00  0.00000000000E+00  0.97506428173E+03  0.10097568935E+04  0.26240928052E+03 0.  0.
         25    2    3    3    0    0 -0.24760381218E+02  0.24139097062E+02  0.54614144909E+03  0.56161079593E+03  0.12625542053E+03 0.  0.
         25    2    3    3    0    0  0.24760381218E+02 -0.24139097062E+02  0.42892283264E+03  0.44814609759E+03  0.12515732473E+03 0.  0.
          5    1    4    4  502    0 -0.30560871762E+02 -0.83356795949E+01  0.51502400343E+03  0.51601866686E+03  0.47000000000E+01 0. -1.
         -5    1    4    4    0  502  0.58004905440E+01  0.32474776657E+02  0.31117445662E+02  0.45592129079E+02  0.47000000000E+01 0. -1.
          5    1    5    5  503    0  0.66892431526E+02  0.10713615088E+02  0.16230642621E+03  0.17593989011E+03  0.47000000000E+01 0.  1.
         -5    1    5    5    0  503 -0.42132050309E+02 -0.34852712150E+02  0.26661640644E+03  0.27220620748E+03  0.47000000000E+01 0.  1.
<mgrwt>
<rscale>  0 0.26240928E+03</rscale>
<asrwt>0</asrwt>
<pdfrwt beam="1">  1        2 0.15267851E+00 0.26240928E+03</pdfrwt>
<pdfrwt beam="2">  1       -2 0.26686632E-02 0.26240928E+03</pdfrwt>
<totfact> 0.13322669E+04</totfact>
</mgrwt>
</event>
<event>
 9    1  0.7984035E-001  0.2816453E+03  0.7818608E-02  0.1094794E+00
          2   -1    0    0  501    0  0.00000000000E+00  0.00000000000E+00  0.16941915701E+03  0.16941915701E+03  0.00000000000E+00 0.  1.
         -2   -1    0    0    0  501 -0.00000000000E+00 -0.00000000000E+00 -0.11705300695E+03  0.11705300695E+03  0.00000000000E+00 0.  1.
         35    2    1    2    0    0 -0.88817841970E-15  0.00000000000E+00  0.52366150066E+02  0.28647216396E+03  0.28164532137E+03 0.  0.
         25    2    3    3    0    0 -0.30448357769E+01 -0.65132415484E+02  0.41510047195E+02  0.14719571024E+03  0.12526767549E+03 0.  0.
         25    2    3    3    0    0  0.30448357769E+01  0.65132415484E+02  0.10856102871E+02  0.13927645372E+03  0.12259108051E+03 0.  0.
          5    1    4    4  502    0 -0.89898464752E+01 -0.95275655878E+02  0.58009488868E+02  0.11200651205E+03  0.47000000000E+01 0.  1.
         -5    1    4    4    0  502  0.59450106983E+01  0.30143240394E+02 -0.16499441673E+02  0.35189198189E+02  0.47000000000E+01 0.  1.
          5    1    5    5  503    0  0.38894169957E+01  0.56385226448E+02  0.63822619861E+02  0.85380548910E+02  0.47000000000E+01 0.  1.
         -5    1    5    5    0  503 -0.84458121875E+00  0.87471890363E+01 -0.52966516990E+02  0.53895904813E+02  0.47000000000E+01 0.  1.
<mgrwt>
<rscale>  0 0.28164532E+03</rscale>
<asrwt>0</asrwt>
<pdfrwt beam="1">  1        2 0.26064486E-01 0.28164532E+03</pdfrwt>
<pdfrwt beam="2">  1       -2 0.18008155E-01 0.28164532E+03</pdfrwt>
<totfact> 0.51342999E+03</totfact>
</mgrwt>
</event>
<event>
 9    1  0.7984035E-001  0.2803331E+03  0.7818608E-02  0.1095507E+00
          1   -1    0    0  501    0  0.00000000000E+00  0.00000000000E+00  0.15421745573E+03  0.15421745573E+03  0.00000000000E+00 0.  1.
         -1   -1    0    0    0  501 -0.00000000000E+00 -0.00000000000E+00 -0.12739583458E+03  0.12739583458E+03  0.00000000000E+00 0.  1.
         35    2    1    2    0    0  0.00000000000E+00  0.00000000000E+00  0.26821621145E+02  0.28161329031E+03  0.28033309815E+03 0.  0.
         25    2    3    3    0    0 -0.32034544208E+02  0.38452800872E+02 -0.24364759777E+02  0.13724281988E+03  0.12544767902E+03 0.  0.
         25    2    3    3    0    0  0.32034544208E+02 -0.38452800872E+02  0.51186380922E+02  0.14437047043E+03  0.12537127750E+03 0.  0.
          5    1    4    4  502    0  0.75610873746E+01  0.76798887727E+02 -0.26914083446E+02  0.81863893666E+02  0.47000000000E+01 0. -1.
         -5    1    4    4    0  502 -0.39595631583E+02 -0.38346086855E+02  0.25493236686E+01  0.55378926215E+02  0.47000000000E+01 0. -1.
          5    1    5    5  503    0  0.31711180698E+02 -0.56369712437E+02 -0.22307656230E+02  0.68577437893E+02  0.47000000000E+01 0. -1.
         -5    1    5    5    0  503  0.32336351027E+00  0.17916911565E+02  0.73494037152E+02  0.75793032535E+02  0.47000000000E+01 0. -1.
<mgrwt>
<rscale>  0 0.28033310E+03</rscale>
<asrwt>0</asrwt>
<pdfrwt beam="1">  1        1 0.23725762E-01 0.28033310E+03</pdfrwt>
<pdfrwt beam="2">  1       -1 0.19599359E-01 0.28033310E+03</pdfrwt>
<totfact> 0.42431673E+03</totfact>
</mgrwt>
</event>
<event>
 9    1  0.7984035E-001  0.2785871E+03  0.7818608E-02  0.1096463E+00
         -2   -1    0    0    0  501 -0.00000000000E+00  0.00000000000E+00  0.66195237758E+01  0.66195237758E+01  0.00000000000E+00 0.  1.
          2   -1    0    0  501    0  0.00000000000E+00 -0.00000000000E+00 -0.29311319448E+04  0.29311319448E+04  0.00000000000E+00 0.  1.
         35    2    1    2    0    0  0.00000000000E+00 -0.71054273576E-14 -0.29245124210E+04  0.29377514685E+04  0.27858713250E+03 0.  0.
         25    2    3    3    0    0  0.12617126754E+02 -0.23793403733E+02 -0.10009768759E+04  0.10099458820E+04  0.13156998368E+03 0.  0.
         25    2    3    3    0    0 -0.12617126754E+02  0.23793403733E+02 -0.19235355451E+04  0.19278055865E+04  0.12537969608E+03 0.  0.
          5    1    4    4  502    0 -0.19454587870E+02 -0.72667781280E+02 -0.53046335813E+03  0.53579151892E+03  0.47000000000E+01 0. -1.
         -5    1    4    4    0  502  0.32071714624E+02  0.48874377547E+02 -0.47051351774E+03  0.47415436309E+03  0.47000000000E+01 0. -1.
          5    1    5    5  503    0  0.50535346381E+02 -0.86828382785E+01 -0.10985099011E+04  0.10997160114E+04  0.47000000000E+01 0.  1.
         -5    1    5    5    0  503 -0.63152473135E+02  0.32476242012E+02 -0.82502564398E+03  0.82808957510E+03  0.47000000000E+01 0.  1.
<mgrwt>
<rscale>  0 0.27858713E+03</rscale>
<asrwt>0</asrwt>
<pdfrwt beam="1">  1        2 0.45094489E+00 0.27858713E+03</pdfrwt>
<pdfrwt beam="2">  1       -2 0.10183849E-02 0.27858713E+03</pdfrwt>
<totfact> 0.47487900E+03</totfact>
</mgrwt>
</event>
<event>
 9    1  0.7984035E-001  0.2740929E+03  0.7818608E-02  0.1098960E+00
          4   -1    0    0  501    0  0.00000000000E+00  0.00000000000E+00  0.20297451168E+03  0.20297451168E+03  0.00000000000E+00 0. -1.
         -4   -1    0    0    0  501 -0.00000000000E+00 -0.00000000000E+00 -0.92532444931E+02  0.92532444931E+02  0.00000000000E+00 0. -1.
         35    2    1    2    0    0  0.00000000000E+00 -0.35527136788E-14  0.11044206675E+03  0.29550695661E+03  0.27409288808E+03 0.  0.
         25    2    3    3    0    0 -0.16334872508E+02  0.30432536380E+02  0.67379522057E+01  0.12899062878E+03  0.12409760265E+03 0.  0.
         25    2    3    3    0    0  0.16334872508E+02 -0.30432536380E+02  0.10370411455E+03  0.16651632783E+03  0.12561917342E+03 0.  0.
          5    1    4    4  502    0 -0.49863735559E+02  0.44605031124E+01  0.48084592668E+02  0.69573746945E+02  0.47000000000E+01 0. -1.
         -5    1    4    4    0  502  0.33528863052E+02  0.25972033267E+02 -0.41346640462E+02  0.59416881836E+02  0.47000000000E+01 0. -1.
          5    1    5    5  503    0  0.34753518802E+02 -0.86576580359E+01 -0.18748584861E+02  0.40698421911E+02  0.47000000000E+01 0.  1.
         -5    1    5    5    0  503 -0.18418646294E+02 -0.21774878344E+02  0.12245269941E+03  0.12581790592E+03  0.47000000000E+01 0.  1.
<mgrwt>
<rscale>  0 0.27409289E+03</rscale>
<asrwt>0</asrwt>
<pdfrwt beam="1">  1        4 0.31226848E-01 0.27409289E+03</pdfrwt>
<pdfrwt beam="2">  1       -4 0.14235761E-01 0.27409289E+03</pdfrwt>
<totfact> 0.76272359E+02</totfact>
</mgrwt>
</event>
<event>
 9    1  0.7984035E-001  0.2691031E+03  0.7818608E-02  0.1101794E+00
         -2   -1    0    0    0  501 -0.00000000000E+00  0.00000000000E+00  0.47513165369E+03  0.47513165369E+03  0.00000000000E+00 0.  1.
          2   -1    0    0  501    0  0.00000000000E+00 -0.00000000000E+00 -0.38103371450E+02  0.38103371450E+02  0.00000000000E+00 0.  1.
         35    2    1    2    0    0  0.71054273576E-14  0.00000000000E+00  0.43702828224E+03  0.51323502514E+03  0.26910308722E+03 0.  0.
         25    2    3    3    0    0 -0.31711944041E+02  0.36742907929E+02  0.22115645947E+03  0.25925119335E+03  0.12627475208E+03 0.  0.
         25    2    3    3    0    0  0.31711944041E+02 -0.36742907929E+02  0.21587182277E+03  0.25398383179E+03  0.12470547007E+03 0.  0.
          5    1    4    4  502    0 -0.46964661110E+02  0.70022937504E+02  0.91802257361E+02  0.12473426003E+03  0.47000000000E+01 0. -1.
         -5    1    4    4    0  502  0.15252717069E+02 -0.33280029575E+02  0.12935420211E+03  0.13451693332E+03  0.47000000000E+01 0. -1.
          5    1    5    5  503    0  0.20291246115E+02 -0.33662715416E+02  0.18970489067E+01  0.39630819732E+02  0.47000000000E+01 0.  1.
         -5    1    5    5    0  503  0.11420697926E+02 -0.30801925129E+01  0.21397477387E+03  0.21435301206E+03  0.47000000000E+01 0.  1.
<mgrwt>
<rscale>  0 0.26910309E+03</rscale>
<asrwt>0</asrwt>
<pdfrwt beam="1">  1        2 0.58620575E-02 0.26910309E+03</pdfrwt>
<pdfrwt beam="2">  1       -2 0.73097173E-01 0.26910309E+03</pdfrwt>
<totfact> 0.22050544E+03</totfact>
</mgrwt>
</event>
<event>
 9    1  0.7984035E-001  0.2654778E+03  0.7818608E-02  0.1103896E+00
         -2   -1    0    0    0  501 -0.00000000000E+00  0.00000000000E+00  0.11357246007E+02  0.11357246007E+02  0.00000000000E+00 0.  1.
          2   -1    0    0  501    0  0.00000000000E+00 -0.00000000000E+00 -0.15513990672E+04  0.15513990672E+04  0.00000000000E+00 0.  1.
         35    2    1    2    0    0 -0.17763568394E-14 -0.10658141036E-13 -0.15400418212E+04  0.15627563132E+04  0.26547783984E+03 0.  0.
         25    2    3    3    0    0  0.10551890556E+02  0.27333832591E+02 -0.56799978861E+03  0.58227932418E+03  0.12476766693E+03 0.  0.
         25    2    3    3    0    0 -0.10551890556E+02 -0.27333832591E+02 -0.97204203256E+03  0.98047698900E+03  0.12494371573E+03 0.  0.
          5    1    4    4  502    0 -0.46809504717E+01  0.74264564922E+02 -0.40875157626E+03  0.41549618289E+03  0.47000000000E+01 0.  1.
         -5    1    4    4    0  502  0.15232841027E+02 -0.46930732331E+02 -0.15924821235E+03  0.16678314130E+03  0.47000000000E+01 0.  1.
          5    1    5    5  503    0  0.48827804939E+02  0.15204627218E+02 -0.28933361435E+03  0.29385602872E+03  0.47000000000E+01 0.  1.
         -5    1    5    5    0  503 -0.59379695494E+02 -0.42538459809E+02 -0.68270841821E+03  0.68662096028E+03  0.47000000000E+01 0.  1.
<mgrwt>
<rscale>  0 0.26547784E+03</rscale>
<asrwt>0</asrwt>
<pdfrwt beam="1">  1        2 0.23867655E+00 0.26547784E+03</pdfrwt>
<pdfrwt beam="2">  1       -2 0.17472703E-02 0.26547784E+03</pdfrwt>
<totfact> 0.12066778E+04</totfact>
</mgrwt>
</event>
<event>
 9    1  0.7984035E-001  0.2719479E+03  0.7818608E-02  0.1100170E+00
          2   -1    0    0  501    0  0.00000000000E+00  0.00000000000E+00  0.16460814565E+04  0.16460814565E+04  0.00000000000E+00 0. -1.
         -2   -1    0    0    0  501 -0.00000000000E+00 -0.00000000000E+00 -0.11232076764E+02  0.11232076764E+02  0.00000000000E+00 0. -1.
         35    2    1    2    0    0  0.00000000000E+00  0.00000000000E+00  0.16348493798E+04  0.16573135333E+04  0.27194788677E+03 0.  0.
         25    2    3    3    0    0 -0.51904138743E+02 -0.71283476216E+01  0.67486412959E+03  0.68828511013E+03  0.12469942444E+03 0.  0.
         25    2    3    3    0    0  0.51904138743E+02  0.71283476216E+01  0.95998525016E+03  0.96902842315E+03  0.12124170649E+03 0.  0.
          5    1    4    4  502    0 -0.85564090913E+02  0.12751531478E+02  0.33009590823E+03  0.34127586178E+03  0.47000000000E+01 0. -1.
         -5    1    4    4    0  502  0.33659952170E+02 -0.19879879099E+02  0.34476822137E+03  0.34700924835E+03  0.47000000000E+01 0. -1.
          5    1    5    5  503    0 -0.16996729623E+02 -0.60117166254E+01  0.23884795974E+02  0.30291963181E+02  0.47000000000E+01 0. -1.
         -5    1    5    5    0  503  0.68900868366E+02  0.13140064247E+02  0.93610045419E+03  0.93873645997E+03  0.47000000000E+01 0. -1.
<mgrwt>
<rscale>  0 0.27194789E+03</rscale>
<asrwt>0</asrwt>
<pdfrwt beam="1">  1        2 0.25324311E+00 0.27194789E+03</pdfrwt>
<pdfrwt beam="2">  1       -2 0.17280131E-02 0.27194789E+03</pdfrwt>
<totfact> 0.10932502E+04</totfact>
</mgrwt>
</event>
<event>
 9    1  0.7984035E-001  0.2729802E+03  0.7818608E-02  0.1099586E+00
          2   -1    0    0  501    0  0.00000000000E+00  0.00000000000E+00  0.14390987521E+04  0.14390987521E+04  0.00000000000E+00 0.  1.
         -2   -1    0    0    0  501 -0.00000000000E+00 -0.00000000000E+00 -0.12945285314E+02  0.12945285314E+02  0.00000000000E+00 0.  1.
         35    2    1    2    0    0 -0.17763568394E-14 -0.14210854715E-13  0.14261534668E+04  0.14520440374E+04  0.27298017467E+03 0.  0.
         25    2    3    3    0    0  0.71291627190E+01  0.51500900452E+02  0.81728932131E+03  0.82836102713E+03  0.12456720611E+03 0.  0.
         25    2    3    3    0    0 -0.71291627190E+01 -0.51500900452E+02  0.60886414544E+03  0.62368301025E+03  0.12474687153E+03 0.  0.
          5    1    4    4  502    0  0.18891924167E+02  0.30309455316E+02  0.79269344945E+03  0.79351153910E+03  0.47000000000E+01 0.  1.
         -5    1    4    4    0  502 -0.11762761448E+02  0.21191445136E+02  0.24595871862E+02  0.34849488037E+02  0.47000000000E+01 0.  1.
          5    1    5    5  503    0 -0.25004561959E+02  0.35886568708E+02  0.15544116843E+03  0.16154603300E+03  0.47000000000E+01 0.  1.
         -5    1    5    5    0  503  0.17875399240E+02 -0.87387469159E+02  0.45342297701E+03  0.46213697725E+03  0.47000000000E+01 0.  1.
<mgrwt>
<rscale>  0 0.27298017E+03</rscale>
<asrwt>0</asrwt>
<pdfrwt beam="1">  1        2 0.22139968E+00 0.27298017E+03</pdfrwt>
<pdfrwt beam="2">  1       -2 0.19915835E-02 0.27298017E+03</pdfrwt>
<totfact> 0.11442920E+04</totfact>
</mgrwt>
</event>
<event>
 9    1  0.7984035E-001  0.2753142E+03  0.7818608E-02  0.1098276E+00
         -3   -1    0    0    0  501 -0.00000000000E+00  0.00000000000E+00  0.62310467160E+02  0.62310467160E+02  0.00000000000E+00 0. -1.
          3   -1    0    0  501    0  0.00000000000E+00 -0.00000000000E+00 -0.30411393238E+03  0.30411393238E+03  0.00000000000E+00 0. -1.
         35    2    1    2    0    0  0.35527136788E-14 -0.71054273576E-14 -0.24180346522E+03  0.36642439954E+03  0.27531422917E+03 0.  0.
         25    2    3    3    0    0 -0.19196949177E+02  0.47987610768E+02 -0.95233097501E+02  0.16693720033E+03  0.12699351303E+03 0.  0.
         25    2    3    3    0    0  0.19196949177E+02 -0.47987610768E+02 -0.14657036772E+03  0.19948719920E+03  0.12506372899E+03 0.  0.
          5    1    4    4  502    0 -0.46732919428E+02  0.75419178354E+02 -0.91610345843E+02  0.12761882184E+03  0.47000000000E+01 0.  1.
         -5    1    4    4    0  502  0.27535970251E+02 -0.27431567587E+02 -0.36227516580E+01  0.39318378496E+02  0.47000000000E+01 0.  1.
          5    1    5    5  503    0  0.28500917190E+02  0.26002280231E+02 -0.47075177710E+01  0.39149349694E+02  0.47000000000E+01 0.  1.
         -5    1    5    5    0  503 -0.93039680132E+01 -0.73989890999E+02 -0.14186284994E+03  0.16033784951E+03  0.47000000000E+01 0.  1.
<mgrwt>
<rscale>  0 0.27531423E+03</rscale>
<asrwt>0</asrwt>
<pdfrwt beam="1">  1        3 0.46786760E-01 0.27531423E+03</pdfrwt>
<pdfrwt beam="2">  1       -3 0.95862255E-02 0.27531423E+03</pdfrwt>
<totfact> 0.91879519E+02</totfact>
</mgrwt>
</event>
<event>
 9    1  0.7984035E-001  0.2748908E+03  0.7818608E-02  0.1098513E+00
         -2   -1    0    0    0  501 -0.00000000000E+00  0.00000000000E+00  0.93488191307E+02  0.93488191307E+02  0.00000000000E+00 0.  1.
          2   -1    0    0  501    0  0.00000000000E+00 -0.00000000000E+00 -0.20207088510E+03  0.20207088510E+03  0.00000000000E+00 0.  1.
         35    2    1    2    0    0  0.71054273576E-14  0.00000000000E+00 -0.10858269379E+03  0.29555907640E+03  0.27489082606E+03 0.  0.
         25    2    3    3    0    0  0.44873129287E+02  0.20343390594E+01 -0.15629380402E+02  0.13416766744E+03  0.12545496877E+03 0.  0.
         25    2    3    3    0    0 -0.44873129287E+02 -0.20343390594E+01 -0.92953313387E+02  0.16139140896E+03  0.12405294091E+03 0.  0.
          5    1    4    4  502    0  0.63610990129E+02 -0.44558974589E+02 -0.27188595478E+02  0.82420689185E+02  0.47000000000E+01 0. -1.
         -5    1    4    4    0  502 -0.18737860842E+02  0.46593313649E+02  0.11559215077E+02  0.51746978259E+02  0.47000000000E+01 0. -1.
          5    1    5    5  503    0  0.26940062451E+02  0.34011081528E+02 -0.60518218481E+02  0.74612769682E+02  0.47000000000E+01 0.  1.
         -5    1    5    5    0  503 -0.71813191739E+02 -0.36045420588E+02 -0.32435094906E+02  0.86778639276E+02  0.47000000000E+01 0.  1.
<mgrwt>
<rscale>  0 0.27489083E+03</rscale>
<asrwt>0</asrwt>
<pdfrwt beam="1">  1        2 0.31087828E-01 0.27489083E+03</pdfrwt>
<pdfrwt beam="2">  1       -2 0.14382799E-01 0.27489083E+03</pdfrwt>
<totfact> 0.61416213E+03</totfact>
</mgrwt>
</event>
<event>
 9    1  0.7984035E-001  0.2742662E+03  0.7818608E-02  0.1098862E+00
         -2   -1    0    0    0  501 -0.00000000000E+00  0.00000000000E+00  0.26342934538E+03  0.26342934538E+03  0.00000000000E+00 0.  1.
          2   -1    0    0  501    0  0.00000000000E+00 -0.00000000000E+00 -0.71387200676E+02  0.71387200676E+02  0.00000000000E+00 0.  1.
         35    2    1    2    0    0  0.14210854715E-13  0.71054273576E-14  0.19204214470E+03  0.33481654605E+03  0.27426617394E+03 0.  0.
         25    2    3    3    0    0  0.36305384315E+02  0.38129735410E+02  0.11821353282E+03  0.17943844181E+03  0.12430509807E+03 0.  0.
         25    2    3    3    0    0 -0.36305384315E+02 -0.38129735410E+02  0.73828611881E+02  0.15537810424E+03  0.12617342705E+03 0.  0.
          5    1    4    4  502    0 -0.32526680865E+02 -0.24361966924E+02  0.46478415784E+02  0.61917877340E+02  0.47000000000E+01 0. -1.
         -5    1    4    4    0  502  0.68832065180E+02  0.62491702335E+02  0.71735117036E+02  0.11752056447E+03  0.47000000000E+01 0. -1.
          5    1    5    5  503    0 -0.40373924560E+02  0.40412422558E+02  0.23890630211E+02  0.62097261560E+02  0.47000000000E+01 0. -1.
         -5    1    5    5    0  503  0.40685402455E+01 -0.78542157968E+02  0.49937981670E+02  0.93280842681E+02  0.47000000000E+01 0. -1.
<mgrwt>
<rscale>  0 0.27426617E+03</rscale>
<asrwt>0</asrwt>
<pdfrwt beam="1">  1        2 0.10982646E-01 0.27426617E+03</pdfrwt>
<pdfrwt beam="2">  1       -2 0.40527591E-01 0.27426617E+03</pdfrwt>
<totfact> 0.32965983E+03</totfact>
</mgrwt>
</event>
<event>
 9    1  0.7984035E-001  0.2816526E+03  0.7818608E-02  0.1094790E+00
          1   -1    0    0  501    0  0.00000000000E+00  0.00000000000E+00  0.10036280927E+04  0.10036280927E+04  0.00000000000E+00 0.  1.
         -1   -1    0    0    0  501 -0.00000000000E+00 -0.00000000000E+00 -0.19760348880E+02  0.19760348880E+02  0.00000000000E+00 0.  1.
         35    2    1    2    0    0 -0.71054273576E-14  0.71054273576E-14  0.98386774378E+03  0.10233884415E+04  0.28165256084E+03 0.  0.
         25    2    3    3    0    0 -0.40104103220E+02  0.40678125577E+02  0.37992673996E+03  0.40413240995E+03  0.12536198801E+03 0.  0.
         25    2    3    3    0    0  0.40104103220E+02 -0.40678125577E+02  0.60394100382E+03  0.61925603159E+03  0.12437944997E+03 0.  0.
          5    1    4    4  502    0  0.15717319939E+02 -0.15983981195E+02  0.87806551037E+01  0.24529812575E+02  0.47000000000E+01 0.  1.
         -5    1    4    4    0  502 -0.55821423159E+02  0.56662106772E+02  0.37114608486E+03  0.37960259737E+03  0.47000000000E+01 0.  1.
          5    1    5    5  503    0 -0.33130072075E+02 -0.24267992682E+02  0.39571253746E+03  0.39786560475E+03  0.47000000000E+01 0.  1.
         -5    1    5    5    0  503  0.73234175295E+02 -0.16410132895E+02  0.20822846636E+03  0.22139042684E+03  0.47000000000E+01 0.  1.
<mgrwt>
<rscale>  0 0.28165256E+03</rscale>
<asrwt>0</asrwt>
<pdfrwt beam="1">  1        1 0.15440428E+00 0.28165256E+03</pdfrwt>
<pdfrwt beam="2">  1       -1 0.30400545E-02 0.28165256E+03</pdfrwt>
<totfact> 0.58776769E+03</totfact>
</mgrwt>
</event>
<event>
 9    1  0.7984035E-001  0.2720649E+03  0.7818608E-02  0.1100104E+00
          2   -1    0    0  501    0  0.00000000000E+00  0.00000000000E+00  0.38646922413E+02  0.38646922413E+02  0.00000000000E+00 0. -1.
         -2   -1    0    0    0  501 -0.00000000000E+00 -0.00000000000E+00 -0.47881770594E+03  0.47881770594E+03  0.00000000000E+00 0. -1.
         35    2    1    2    0    0  0.00000000000E+00  0.35527136788E-14 -0.44017078353E+03  0.51746462835E+03  0.27206492410E+03 0.  0.
         25    2    3    3    0    0  0.48984194859E+02 -0.19011516619E+02 -0.23989598655E+03  0.27574089723E+03  0.12538767456E+03 0.  0.
         25    2    3    3    0    0 -0.48984194859E+02  0.19011516619E+02 -0.20027479697E+03  0.24172373112E+03  0.12473763976E+03 0.  0.
          5    1    4    4  502    0  0.74945237977E+02  0.17407303852E+02 -0.86377654743E+02  0.11577129248E+03  0.47000000000E+01 0. -1.
         -5    1    4    4    0  502 -0.25961043118E+02 -0.36418820471E+02 -0.15351833181E+03  0.15996960476E+03  0.47000000000E+01 0. -1.
          5    1    5    5  503    0 -0.19085913195E+02  0.30328508813E+01 -0.20605668286E+03  0.20701429134E+03  0.47000000000E+01 0. -1.
         -5    1    5    5    0  503 -0.29898281664E+02  0.15978665737E+02  0.57818858910E+01  0.34709439777E+02  0.47000000000E+01 0. -1.
<mgrwt>
<rscale>  0 0.27206492E+03</rscale>
<asrwt>0</asrwt>
<pdfrwt beam="1">  1        2 0.59456804E-02 0.27206492E+03</pdfrwt>
<pdfrwt beam="2">  1       -2 0.73664262E-01 0.27206492E+03</pdfrwt>
<totfact> 0.21294571E+03</totfact>
</mgrwt>
</event>
<event>
 9    1  0.7984035E-001  0.2659319E+03  0.7818608E-02  0.1103631E+00
          1   -1    0    0  501    0  0.00000000000E+00  0.00000000000E+00  0.41741635817E+03  0.41741635817E+03  0.00000000000E+00 0. -1.
         -1   -1    0    0    0  501 -0.00000000000E+00 -0.00000000000E+00 -0.42355659671E+02  0.42355659671E+02  0.00000000000E+00 0. -1.
         35    2    1    2    0    0  0.00000000000E+00 -0.71054273576E-14  0.37506069850E+03  0.45977201784E+03  0.26593191014E+03 0.  0.
         25    2    3    3    0    0 -0.13792883721E+02  0.39073956852E+02  0.23284709908E+03  0.26617368034E+03  0.12212141011E+03 0.  0.
         25    2    3    3    0    0  0.13792883721E+02 -0.39073956852E+02  0.14221359942E+03  0.19359833751E+03  0.12465388353E+03 0.  0.
          5    1    4    4  502    0  0.34024019890E+02 -0.23992130508E+02  0.41137624475E+02  0.58716696120E+02  0.47000000000E+01 0. -1.
         -5    1    4    4    0  502 -0.47816903611E+02  0.63066087361E+02  0.19170947461E+03  0.20745698422E+03  0.47000000000E+01 0. -1.
          5    1    5    5  503    0  0.77225363849E+01 -0.82817845604E+02  0.69969341789E+02  0.10879444797E+03  0.47000000000E+01 0.  1.
         -5    1    5    5    0  503  0.60703473360E+01  0.43743888752E+02  0.72244257629E+02  0.84803889535E+02  0.47000000000E+01 0.  1.
<mgrwt>
<rscale>  0 0.26593191E+03</rscale>
<asrwt>0</asrwt>
<pdfrwt beam="1">  1        1 0.64217898E-01 0.26593191E+03</pdfrwt>
<pdfrwt beam="2">  1       -1 0.65162556E-02 0.26593191E+03</pdfrwt>
<totfact> 0.67061145E+03</totfact>
</mgrwt>
</event>
<event>
 9    1  0.7984035E-001  0.2758956E+03  0.7818608E-02  0.1097952E+00
          2   -1    0    0  501    0  0.00000000000E+00  0.00000000000E+00  0.59991659321E+02  0.59991659321E+02  0.00000000000E+00 0.  1.
         -2   -1    0    0    0  501 -0.00000000000E+00 -0.00000000000E+00 -0.31720405654E+03  0.31720405654E+03  0.00000000000E+00 0.  1.
         35    2    1    2    0    0 -0.14210854715E-13  0.00000000000E+00 -0.25721239722E+03  0.37719571586E+03  0.27589561573E+03 0.  0.
         25    2    3    3    0    0  0.52291088411E+02 -0.21020118966E+02 -0.11130093015E+03  0.17713865677E+03  0.12575374087E+03 0.  0.
         25    2    3    3    0    0 -0.52291088411E+02  0.21020118966E+02 -0.14591146707E+03  0.20005705909E+03  0.12472556811E+03 0.  0.
          5    1    4    4  502    0 -0.25246574170E+02 -0.29941106600E+02 -0.86565217528E+02  0.95128787743E+02  0.47000000000E+01 0. -1.
         -5    1    4    4    0  502  0.77537662582E+02  0.89209876336E+01 -0.24735712618E+02  0.82009869026E+02  0.47000000000E+01 0. -1.
          5    1    5    5  503    0  0.21664818542E+02  0.31401065808E+02 -0.27711630207E+01  0.38537781991E+02  0.47000000000E+01 0.  1.
         -5    1    5    5    0  503 -0.73955906953E+02 -0.10380946841E+02 -0.14314030405E+03  0.16151927710E+03  0.47000000000E+01 0.  1.
<mgrwt>
<rscale>  0 0.27589562E+03</rscale>
<asrwt>0</asrwt>
<pdfrwt beam="1">  1        2 0.92294862E-02 0.27589562E+03</pdfrwt>
<pdfrwt beam="2">  1       -2 0.48800623E-01 0.27589562E+03</pdfrwt>
<totfact> 0.28486372E+03</totfact>
</mgrwt>
</event>
<event>
 9    1  0.7984035E-001  0.2775812E+03  0.7818608E-02  0.1097017E+00
          1   -1    0    0  501    0  0.00000000000E+00  0.00000000000E+00  0.58805906233E+03  0.58805906233E+03  0.00000000000E+00 0.  1.
         -1   -1    0    0    0  501 -0.00000000000E+00 -0.00000000000E+00 -0.32756614418E+02  0.32756614418E+02  0.00000000000E+00 0.  1.
         35    2    1    2    0    0  0.71054273576E-14  0.00000000000E+00  0.55530244791E+03  0.62081567675E+03  0.27758115181E+03 0.  0.
         25    2    3    3    0    0 -0.36019730996E+02  0.16716863118E+02  0.37686880317E+03  0.39920762480E+03  0.12553787619E+03 0.  0.
         25    2    3    3    0    0  0.36019730996E+02 -0.16716863118E+02  0.17843364474E+03  0.22160805195E+03  0.12527844420E+03 0.  0.
          5    1    4    4  502    0 -0.88799693586E+01  0.13838266007E+02  0.37036609884E+03  0.37076068917E+03  0.47000000000E+01 0.  1.
         -5    1    4    4    0  502 -0.27139761637E+02  0.28785971116E+01  0.65027043292E+01  0.28446935629E+02  0.47000000000E+01 0.  1.
          5    1    5    5  503    0  0.38097731215E+02  0.38157188593E+02  0.15025893181E+03  0.15970987682E+03  0.47000000000E+01 0. -1.
         -5    1    5    5    0  503 -0.20780002192E+01 -0.54874051711E+02  0.28174712937E+02  0.61898175136E+02  0.47000000000E+01 0. -1.
<mgrwt>
<rscale>  0 0.27758115E+03</rscale>
<asrwt>0</asrwt>
<pdfrwt beam="1">  1        1 0.90470617E-01 0.27758115E+03</pdfrwt>
<pdfrwt beam="2">  1       -1 0.50394796E-02 0.27758115E+03</pdfrwt>
<totfact> 0.62701252E+03</totfact>
</mgrwt>
</event>
<event>
 9    1  0.7984035E-001  0.2701082E+03  0.7818608E-02  0.1101218E+00
         -1   -1    0    0    0  501 -0.00000000000E+00  0.00000000000E+00  0.55641985073E+02  0.55641985073E+02  0.00000000000E+00 0.  1.
          1   -1    0    0  501    0  0.00000000000E+00 -0.00000000000E+00 -0.32780289877E+03  0.32780289877E+03  0.00000000000E+00 0.  1.
         35    2    1    2    0    0 -0.35527136788E-14  0.00000000000E+00 -0.27216091370E+03  0.38344488384E+03  0.27010815612E+03 0.  0.
         25    2    3    3    0    0  0.22090044253E+02  0.48102017117E+02 -0.10996999175E+03  0.17450278793E+03  0.12472389428E+03 0.  0.
         25    2    3    3    0    0 -0.22090044253E+02 -0.48102017117E+02 -0.16219092195E+03  0.20894209591E+03  0.12061977523E+03 0.  0.
          5    1    4    4  502    0  0.23880755847E+01  0.50600151667E+01 -0.12453818023E+03  0.12475237470E+03  0.47000000000E+01 0. -1.
         -5    1    4    4    0  502  0.19701968669E+02  0.43042001950E+02  0.14568188479E+02  0.49750413233E+02  0.47000000000E+01 0. -1.
          5    1    5    5  503    0 -0.37121505254E+02  0.19920629842E+02 -0.12022398369E+03  0.12747836640E+03  0.47000000000E+01 0. -1.
         -5    1    5    5    0  503  0.15031461000E+02 -0.68022646959E+02 -0.41966938255E+02  0.81463729509E+02  0.47000000000E+01 0. -1.
<mgrwt>
<rscale>  0 0.27010816E+03</rscale>
<asrwt>0</asrwt>
<pdfrwt beam="1">  1        1 0.50431216E-01 0.27010816E+03</pdfrwt>
<pdfrwt beam="2">  1       -1 0.85603053E-02 0.27010816E+03</pdfrwt>
<totfact> 0.60258372E+03</totfact>
</mgrwt>
</event>
<event>
 9    1  0.7984035E-001  0.2718143E+03  0.7818608E-02  0.1100246E+00
          2   -1    0    0  501    0  0.00000000000E+00  0.00000000000E+00  0.41042482322E+03  0.41042482322E+03  0.00000000000E+00 0. -1.
         -2   -1    0    0    0  501 -0.00000000000E+00 -0.00000000000E+00 -0.45003977402E+02  0.45003977402E+02  0.00000000000E+00 0. -1.
         35    2    1    2    0    0 -0.14210854715E-13 -0.71054273576E-14  0.36542084582E+03  0.45542880062E+03  0.27181427092E+03 0.  0.
         25    2    3    3    0    0  0.52650136934E+02  0.67984412675E+01  0.18105460048E+03  0.22628723660E+03  0.12492753648E+03 0.  0.
         25    2    3    3    0    0 -0.52650136934E+02 -0.67984412675E+01  0.18436624534E+03  0.22914156402E+03  0.12528642472E+03 0.  0.
          5    1    4    4  502    0 -0.51440307160E+01  0.48600880657E+02  0.26019072257E+02  0.55566075745E+02  0.47000000000E+01 0. -1.
         -5    1    4    4    0  502  0.57794167650E+02 -0.41802439389E+02  0.15503552822E+03  0.17072116086E+03  0.47000000000E+01 0. -1.
          5    1    5    5  503    0 -0.71485800977E+02  0.37627166696E+02  0.14748470765E+03  0.16822559973E+03  0.47000000000E+01 0. -1.
         -5    1    5    5    0  503  0.18835664043E+02 -0.44425607964E+02  0.36881537694E+02  0.60915964291E+02  0.47000000000E+01 0. -1.
<mgrwt>
<rscale>  0 0.27181427E+03</rscale>
<asrwt>0</asrwt>
<pdfrwt beam="1">  1        2 0.63142278E-01 0.27181427E+03</pdfrwt>
<pdfrwt beam="2">  1       -2 0.69236891E-02 0.27181427E+03</pdfrwt>
<totfact> 0.91321032E+03</totfact>
</mgrwt>
</event>
<event>
 9    1  0.7984035E-001  0.2724029E+03  0.7818608E-02  0.1099912E+00
          2   -1    0    0  501    0  0.00000000000E+00  0.00000000000E+00  0.59857618119E+03  0.59857618119E+03  0.00000000000E+00 0. -1.
         -2   -1    0    0    0  501 -0.00000000000E+00 -0.00000000000E+00 -0.30991609781E+02  0.30991609781E+02  0.00000000000E+00 0. -1.
         35    2    1    2    0    0  0.00000000000E+00 -0.14210854715E-13  0.56758457141E+03  0.62956779097E+03  0.27240293267E+03 0.  0.
         25    2    3    3    0    0 -0.15155898679E+02  0.50967963208E+02  0.31002843901E+03  0.33850454169E+03  0.12506101396E+03 0.  0.
         25    2    3    3    0    0  0.15155898679E+02 -0.50967963208E+02  0.25755613240E+03  0.29106324928E+03  0.12472056449E+03 0.  0.
          5    1    4    4  502    0  0.53033213390E+02  0.84270095372E+01  0.10053839648E+03  0.11407714662E+03  0.47000000000E+01 0. -1.
         -5    1    4    4    0  502 -0.68189112069E+02  0.42540953671E+02  0.20949004253E+03  0.22442739508E+03  0.47000000000E+01 0. -1.
          5    1    5    5  503    0 -0.25721699526E+02 -0.33101807998E+02  0.23870722406E+03  0.24240578446E+03  0.47000000000E+01 0.  1.
         -5    1    5    5    0  503  0.40877598205E+02 -0.17866155210E+02  0.18848908332E+02  0.48657464816E+02  0.47000000000E+01 0.  1.
<mgrwt>
<rscale>  0 0.27240293E+03</rscale>
<asrwt>0</asrwt>
<pdfrwt beam="1">  1        2 0.92088635E-01 0.27240293E+03</pdfrwt>
<pdfrwt beam="2">  1       -2 0.47679404E-02 0.27240293E+03</pdfrwt>
<totfact> 0.10595888E+04</totfact>
</mgrwt>
</event>
<event>
 9    1  0.7984035E-001  0.2728356E+03  0.7818608E-02  0.1099668E+00
         -2   -1    0    0    0  501 -0.00000000000E+00  0.00000000000E+00  0.31240556384E+02  0.31240556384E+02  0.00000000000E+00 0. -1.
          2   -1    0    0  501    0  0.00000000000E+00 -0.00000000000E+00 -0.59569419054E+03  0.59569419054E+03  0.00000000000E+00 0. -1.
         35    2    1    2    0    0  0.71054273576E-14  0.00000000000E+00 -0.56445363416E+03  0.62693474692E+03  0.27283561312E+03 0.  0.
         25    2    3    3    0    0 -0.29144528529E+02  0.40791028240E+02 -0.33775033946E+03  0.36310084881E+03  0.12350555887E+03 0.  0.
         25    2    3    3    0    0  0.29144528529E+02 -0.40791028240E+02 -0.22670329469E+03  0.26383389811E+03  0.12530215657E+03 0.  0.
          5    1    4    4  502    0  0.41360509542E+02  0.46314483863E+02 -0.14958015881E+03  0.16202480389E+03  0.47000000000E+01 0. -1.
         -5    1    4    4    0  502 -0.70505038072E+02 -0.55234556230E+01 -0.18817018065E+03  0.20107604492E+03  0.47000000000E+01 0. -1.
          5    1    5    5  503    0 -0.47073863845E+02 -0.13727640356E+02 -0.12108425005E+03  0.13072062721E+03  0.47000000000E+01 0.  1.
         -5    1    5    5    0  503  0.76218392374E+02 -0.27063387883E+02 -0.10561904464E+03  0.13311327090E+03  0.47000000000E+01 0.  1.
<mgrwt>
<rscale>  0 0.27283561E+03</rscale>
<asrwt>0</asrwt>
<pdfrwt beam="1">  1        2 0.91645251E-01 0.27283561E+03</pdfrwt>
<pdfrwt beam="2">  1       -2 0.48062399E-02 0.27283561E+03</pdfrwt>
<totfact> 0.10527536E+04</totfact>
</mgrwt>
</event>
<event>
 9    1  0.7984035E-001  0.2796555E+03  0.7818608E-02  0.1095877E+00
          1   -1    0    0  501    0  0.00000000000E+00  0.00000000000E+00  0.19425692142E+04  0.19425692142E+04  0.00000000000E+00 0. -1.
         -1   -1    0    0    0  501 -0.00000000000E+00 -0.00000000000E+00 -0.10064921455E+02  0.10064921455E+02  0.00000000000E+00 0. -1.
         35    2    1    2    0    0  0.71054273576E-14  0.00000000000E+00  0.19325042927E+04  0.19526341357E+04  0.27965554929E+03 0.  0.
         25    2    3    3    0    0  0.43081114529E+02 -0.23866669663E+02  0.90999153074E+03  0.91982733393E+03  0.12478837235E+03 0.  0.
         25    2    3    3    0    0 -0.43081114529E+02  0.23866669663E+02  0.10225127620E+04  0.10328068017E+04  0.13686468091E+03 0.  0.
          5    1    4    4  502    0 -0.35375920982E+02  0.15573794259E+01  0.51778757550E+03  0.51901825070E+03  0.47000000000E+01 0. -1.
         -5    1    4    4    0  502  0.78457035511E+02 -0.25424049089E+02  0.39220395523E+03  0.40080908322E+03  0.47000000000E+01 0. -1.
          5    1    5    5  503    0 -0.47644161767E+02  0.49675089945E+02  0.98141744629E+03  0.98383935406E+03  0.47000000000E+01 0. -1.
         -5    1    5    5    0  503  0.45630472376E+01 -0.25808420282E+02  0.41095315718E+02  0.48967447672E+02  0.47000000000E+01 0. -1.
<mgrwt>
<rscale>  0 0.27965555E+03</rscale>
<asrwt>0</asrwt>
<pdfrwt beam="1">  1        1 0.29885651E+00 0.27965555E+03</pdfrwt>
<pdfrwt beam="2">  1       -1 0.15484510E-02 0.27965555E+03</pdfrwt>
<totfact> 0.36633020E+03</totfact>
</mgrwt>
</event>
<event>
 9    1  0.7984035E-001  0.2735637E+03  0.7818608E-02  0.1099257E+00
         -2   -1    0    0    0  501 -0.00000000000E+00  0.00000000000E+00  0.21841678179E+02  0.21841678179E+02  0.00000000000E+00 0. -1.
          2   -1    0    0  501    0  0.00000000000E+00 -0.00000000000E+00 -0.85658588966E+03  0.85658588966E+03  0.00000000000E+00 0. -1.
         35    2    1    2    0    0  0.00000000000E+00  0.00000000000E+00 -0.83474421148E+03  0.87842756784E+03  0.27356369156E+03 0.  0.
         25    2    3    3    0    0  0.39829407594E+02 -0.16756061793E+02 -0.46402576155E+03  0.48252220898E+03  0.12506249420E+03 0.  0.
         25    2    3    3    0    0 -0.39829407594E+02  0.16756061793E+02 -0.37071844993E+03  0.39590535886E+03  0.13206716754E+03 0.  0.
          5    1    4    4  502    0 -0.86234137125E+01 -0.49842410826E+02 -0.35505727712E+03  0.35867309520E+03  0.47000000000E+01 0.  1.
         -5    1    4    4    0  502  0.48452821307E+02  0.33086349033E+02 -0.10896848443E+03  0.12384911378E+03  0.47000000000E+01 0.  1.
          5    1    5    5  503    0  0.37743600707E+02  0.40035052190E+01 -0.37705201209E+02  0.53706420907E+02  0.47000000000E+01 0. -1.
         -5    1    5    5    0  503 -0.77573008301E+02  0.12752556574E+02 -0.33301324872E+03  0.34219893795E+03  0.47000000000E+01 0. -1.
<mgrwt>
<rscale>  0 0.27356369E+03</rscale>
<asrwt>0</asrwt>
<pdfrwt beam="1">  1        2 0.13178243E+00 0.27356369E+03</pdfrwt>
<pdfrwt beam="2">  1       -2 0.33602585E-02 0.27356369E+03</pdfrwt>
<totfact> 0.11558576E+04</totfact>
</mgrwt>
</event>
<event>
 9    1  0.7984035E-001  0.2759792E+03  0.7818608E-02  0.1097906E+00
          2   -1    0    0  501    0  0.00000000000E+00  0.00000000000E+00  0.11868022539E+04  0.11868022539E+04  0.00000000000E+00 0.  1.
         -2   -1    0    0    0  501 -0.00000000000E+00 -0.00000000000E+00 -0.16044059093E+02  0.16044059093E+02  0.00000000000E+00 0.  1.
         35    2    1    2    0    0  0.71054273576E-14  0.00000000000E+00  0.11707581948E+04  0.12028463130E+04  0.27597916946E+03 0.  0.
         25    2    3    3    0    0  0.17253594641E+02 -0.50874409917E+02  0.53369419867E+03  0.55148703999E+03  0.12815055783E+03 0.  0.
         25    2    3    3    0    0 -0.17253594641E+02  0.50874409917E+02  0.63706399615E+03  0.65135927302E+03  0.12462935144E+03 0.  0.
          5    1    4    4  502    0 -0.51835624521E+02 -0.26041667716E+01  0.15597613766E+03  0.16445169252E+03  0.47000000000E+01 0. -1.
         -5    1    4    4    0  502  0.69089219162E+02 -0.48270243146E+02  0.37771806101E+03  0.38703534747E+03  0.47000000000E+01 0. -1.
          5    1    5    5  503    0 -0.29271355059E+02  0.66647694311E+02  0.18536672157E+03  0.19920250713E+03  0.47000000000E+01 0.  1.
         -5    1    5    5    0  503  0.12017760418E+02 -0.15773284394E+02  0.45169727459E+03  0.45215676588E+03  0.47000000000E+01 0.  1.
<mgrwt>
<rscale>  0 0.27597917E+03</rscale>
<asrwt>0</asrwt>
<pdfrwt beam="1">  1        2 0.18258489E+00 0.27597917E+03</pdfrwt>
<pdfrwt beam="2">  1       -2 0.24683177E-02 0.27597917E+03</pdfrwt>
<totfact> 0.11500820E+04</totfact>
</mgrwt>
</event>
<event>
 9    1  0.7984035E-001  0.2762112E+03  0.7818608E-02  0.1097776E+00
          1   -1    0    0  501    0  0.00000000000E+00  0.00000000000E+00  0.38032727020E+03  0.38032727020E+03  0.00000000000E+00 0.  1.
         -1   -1    0    0    0  501 -0.00000000000E+00 -0.00000000000E+00 -0.50149323758E+02  0.50149323758E+02  0.00000000000E+00 0.  1.
         35    2    1    2    0    0 -0.35527136788E-14 -0.71054273576E-14  0.33017794644E+03  0.43047659396E+03  0.27621119027E+03 0.  0.
         25    2    3    3    0    0  0.16310045697E+02  0.57558338104E+02  0.15147405489E+03  0.20491377718E+03  0.12436352720E+03 0.  0.
         25    2    3    3    0    0 -0.16310045697E+02 -0.57558338104E+02  0.17870389156E+03  0.22556281678E+03  0.12395371547E+03 0.  0.
          5    1    4    4  502    0  0.21844352335E+02 -0.75466929115E+01  0.13543111057E+03  0.13746928388E+03  0.47000000000E+01 0. -1.
         -5    1    4    4    0  502 -0.55343066384E+01  0.65105031016E+02  0.16042944324E+02  0.67444493297E+02  0.47000000000E+01 0. -1.
          5    1    5    5  503    0  0.18585481238E+02  0.30134785811E+02  0.86283498648E+02  0.93383390212E+02  0.47000000000E+01 0. -1.
         -5    1    5    5    0  503 -0.34895526935E+02 -0.87693123915E+02  0.92420392908E+02  0.13217942657E+03  0.47000000000E+01 0. -1.
<mgrwt>
<rscale>  0 0.27621119E+03</rscale>
<asrwt>0</asrwt>
<pdfrwt beam="1">  1        1 0.58511886E-01 0.27621119E+03</pdfrwt>
<pdfrwt beam="2">  1       -1 0.77152808E-02 0.27621119E+03</pdfrwt>
<totfact> 0.58536000E+03</totfact>
</mgrwt>
</event>
<event>
 9    1  0.7984035E-001  0.2714784E+03  0.7818608E-02  0.1100436E+00
          3   -1    0    0  501    0  0.00000000000E+00  0.00000000000E+00  0.15023363668E+03  0.15023363668E+03  0.00000000000E+00 0.  1.
         -3   -1    0    0    0  501 -0.00000000000E+00 -0.00000000000E+00 -0.12264320339E+03  0.12264320339E+03  0.00000000000E+00 0.  1.
         35    2    1    2    0    0  0.00000000000E+00  0.35527136788E-14  0.27590433289E+02  0.27287684007E+03  0.27147842979E+03 0.  0.
         25    2    3    3    0    0 -0.25669579871E+02  0.17396848052E+02 -0.29025330275E+02  0.13261448829E+03  0.12562863947E+03 0.  0.
         25    2    3    3    0    0  0.25669579871E+02 -0.17396848052E+02  0.56615763564E+02  0.14026235178E+03  0.12452551944E+03 0.  0.
          5    1    4    4  502    0 -0.71577786665E+02  0.85797946427E+01 -0.42397913541E+02  0.83765538813E+02  0.47000000000E+01 0.  1.
         -5    1    4    4    0  502  0.45908206793E+02  0.88170534093E+01  0.13372583267E+02  0.48848949477E+02  0.47000000000E+01 0.  1.
          5    1    5    5  503    0 -0.87146216617E+01  0.32573688393E+02  0.70114920974E+02  0.77943453538E+02  0.47000000000E+01 0.  1.
         -5    1    5    5    0  503  0.34384201533E+02 -0.49970536445E+02 -0.13499157410E+02  0.62318898245E+02  0.47000000000E+01 0.  1.
<mgrwt>
<rscale>  0 0.27147843E+03</rscale>
<asrwt>0</asrwt>
<pdfrwt beam="1">  1        3 0.23112867E-01 0.27147843E+03</pdfrwt>
<pdfrwt beam="2">  1       -3 0.18868185E-01 0.27147843E+03</pdfrwt>
<totfact> 0.10946360E+03</totfact>
</mgrwt>
</event>
<event>
 9    1  0.7984035E-001  0.2943801E+03  0.7818608E-02  0.1088084E+00
         -1   -1    0    0    0  501 -0.00000000000E+00  0.00000000000E+00  0.53047895356E+03  0.53047895356E+03  0.00000000000E+00 0.  1.
          1   -1    0    0  501    0  0.00000000000E+00 -0.00000000000E+00 -0.40840295855E+02  0.40840295855E+02  0.00000000000E+00 0.  1.
         35    2    1    2    0    0  0.35527136788E-14  0.71054273576E-14  0.48963865770E+03  0.57131924941E+03  0.29438014476E+03 0.  0.
         25    2    3    3    0    0 -0.10143605848E+02 -0.19473958055E+02  0.10103071839E+03  0.16314759601E+03  0.12620540497E+03 0.  0.
         25    2    3    3    0    0  0.10143605848E+02  0.19473958055E+02  0.38860793932E+03  0.40817165340E+03  0.12290581906E+03 0.  0.
          5    1    4    4  502    0 -0.38662330236E+02 -0.60152775344E+02  0.84013574542E+02  0.11042419512E+03  0.47000000000E+01 0.  1.
         -5    1    4    4    0  502  0.28518724388E+02  0.40678817288E+02  0.17017143846E+02  0.52723400890E+02  0.47000000000E+01 0.  1.
          5    1    5    5  503    0  0.42582228248E+02  0.20320457182E+02  0.53598727800E+02  0.71561726953E+02  0.47000000000E+01 0. -1.
         -5    1    5    5    0  503 -0.32438622400E+02 -0.84649912694E+00  0.33500921152E+03  0.33660992645E+03  0.47000000000E+01 0. -1.
<mgrwt>
<rscale>  0 0.29438014E+03</rscale>
<asrwt>0</asrwt>
<pdfrwt beam="1">  1        1 0.62831228E-02 0.29438014E+03</pdfrwt>
<pdfrwt beam="2">  1       -1 0.81612142E-01 0.29438014E+03</pdfrwt>
<totfact> 0.18974978E+03</totfact>
</mgrwt>
</event>
<event>
 9    1  0.7984035E-001  0.2747132E+03  0.7818608E-02  0.1098612E+00
          1   -1    0    0  501    0  0.00000000000E+00  0.00000000000E+00  0.49715133823E+03  0.49715133823E+03  0.00000000000E+00 0. -1.
         -1   -1    0    0    0  501 -0.00000000000E+00 -0.00000000000E+00 -0.37949891103E+02  0.37949891103E+02  0.00000000000E+00 0. -1.
         35    2    1    2    0    0  0.00000000000E+00 -0.71054273576E-14  0.45920144712E+03  0.53510122933E+03  0.27471322609E+03 0.  0.
         25    2    3    3    0    0 -0.54539094072E+02  0.12287055163E+02  0.19817795673E+03  0.24042914955E+03  0.12412166979E+03 0.  0.
         25    2    3    3    0    0  0.54539094072E+02 -0.12287055163E+02  0.26102349039E+03  0.29467207978E+03  0.12479137614E+03 0.  0.
          5    1    4    4  502    0 -0.97880662021E+00  0.48130149342E+02  0.22698170886E+02  0.53430013098E+02  0.47000000000E+01 0.  1.
         -5    1    4    4    0  502 -0.53560287452E+02 -0.35843094180E+02  0.17547978585E+03  0.18699913645E+03  0.47000000000E+01 0.  1.
          5    1    5    5  503    0  0.27976172031E+02 -0.60359137049E+02  0.20704312039E+03  0.21751973549E+03  0.47000000000E+01 0. -1.
         -5    1    5    5    0  503  0.26562922041E+02  0.48072081886E+02  0.53980370004E+02  0.77152344294E+02  0.47000000000E+01 0. -1.
<mgrwt>
<rscale>  0 0.27471323E+03</rscale>
<asrwt>0</asrwt>
<pdfrwt beam="1">  1        1 0.76484816E-01 0.27471323E+03</pdfrwt>
<pdfrwt beam="2">  1       -1 0.58384452E-02 0.27471323E+03</pdfrwt>
<totfact> 0.63061258E+03</totfact>
</mgrwt>
</event>
<event>
 9    1  0.7984035E-001  0.2777831E+03  0.7818608E-02  0.1096906E+00
         -2   -1    0    0    0  501 -0.00000000000E+00  0.00000000000E+00  0.20262759620E+02  0.20262759620E+02  0.00000000000E+00 0.  1.
          2   -1    0    0  501    0  0.00000000000E+00 -0.00000000000E+00 -0.95203498511E+03  0.95203498511E+03  0.00000000000E+00 0.  1.
         35    2    1    2    0    0  0.00000000000E+00 -0.35527136788E-14 -0.93177222549E+03  0.97229774473E+03  0.27778305242E+03 0.  0.
         25    2    3    3    0    0  0.43883814022E+01 -0.29588280700E+02 -0.27982569604E+03  0.30777110984E+03  0.12460301619E+03 0.  0.
         25    2    3    3    0    0 -0.43883814022E+01  0.29588280700E+02 -0.65194652946E+03  0.66452663489E+03  0.12516647700E+03 0.  0.
          5    1    4    4  502    0 -0.51605266848E+02  0.15058971442E+02 -0.15026328614E+03  0.15965907851E+03  0.47000000000E+01 0.  1.
         -5    1    4    4    0  502  0.55993648250E+02 -0.44647252142E+02 -0.12956240989E+03  0.14811203133E+03  0.47000000000E+01 0.  1.
          5    1    5    5  503    0  0.15564428211E+02 -0.34103232736E+02 -0.45417162803E+03  0.45574032038E+03  0.47000000000E+01 0. -1.
         -5    1    5    5    0  503 -0.19952809613E+02  0.63691513437E+02 -0.19777490142E+03  0.20878631451E+03  0.47000000000E+01 0. -1.
<mgrwt>
<rscale>  0 0.27778305E+03</rscale>
<asrwt>0</asrwt>
<pdfrwt beam="1">  1        2 0.14646695E+00 0.27778305E+03</pdfrwt>
<pdfrwt beam="2">  1       -2 0.31173470E-02 0.27778305E+03</pdfrwt>
<totfact> 0.11225448E+04</totfact>
</mgrwt>
</event>
<event>
 9    1  0.7984035E-001  0.2768458E+03  0.7818608E-02  0.1097424E+00
          1   -1    0    0  501    0  0.00000000000E+00  0.00000000000E+00  0.20283549150E+04  0.20283549150E+04  0.00000000000E+00 0. -1.
         -1   -1    0    0    0  501 -0.00000000000E+00 -0.00000000000E+00 -0.94465206418E+01  0.94465206418E+01  0.00000000000E+00 0. -1.
         35    2    1    2    0    0  0.17763568394E-14  0.00000000000E+00  0.20189083944E+04  0.20378014356E+04  0.27684578070E+03 0.  0.
         25    2    3    3    0    0 -0.11515402240E+02 -0.49864081296E+02  0.77128157638E+03  0.78303161204E+03  0.12507679360E+03 0.  0.
         25    2    3    3    0    0  0.11515402240E+02  0.49864081296E+02  0.12476268180E+04  0.12547698236E+04  0.12351357089E+03 0.  0.
          5    1    4    4  502    0  0.43466764149E+02  0.12186643213E+02  0.40059899287E+03  0.40316189917E+03  0.47000000000E+01 0. -1.
         -5    1    4    4    0  502 -0.54982166390E+02 -0.62050724510E+02  0.37068258351E+03  0.37986971286E+03  0.47000000000E+01 0. -1.
          5    1    5    5  503    0 -0.14010522202E-01 -0.11557869871E+02  0.97311346482E+03  0.97319344941E+03  0.47000000000E+01 0. -1.
         -5    1    5    5    0  503  0.11529412763E+02  0.61421951168E+02  0.27451335316E+03  0.28157637420E+03  0.47000000000E+01 0. -1.
<mgrwt>
<rscale>  0 0.27684578E+03</rscale>
<asrwt>0</asrwt>
<pdfrwt beam="1">  1        1 0.31205426E+00 0.27684578E+03</pdfrwt>
<pdfrwt beam="2">  1       -1 0.14533125E-02 0.27684578E+03</pdfrwt>
<totfact> 0.35340454E+03</totfact>
</mgrwt>
</event>
<event>
 9    1  0.7984035E-001  0.2754227E+03  0.7818608E-02  0.1098216E+00
          2   -1    0    0  501    0  0.00000000000E+00  0.00000000000E+00  0.60172449849E+03  0.60172449849E+03  0.00000000000E+00 0. -1.
         -2   -1    0    0    0  501 -0.00000000000E+00 -0.00000000000E+00 -0.31516769084E+02  0.31516769084E+02  0.00000000000E+00 0. -1.
         35    2    1    2    0    0  0.00000000000E+00  0.71054273576E-14  0.57020772941E+03  0.63324126757E+03  0.27542267206E+03 0.  0.
         25    2    3    3    0    0  0.32434290769E+02 -0.43099398601E+01  0.18337779008E+03  0.22550621887E+03  0.12710264377E+03 0.  0.
         25    2    3    3    0    0 -0.32434290769E+02  0.43099398601E+01  0.38682993932E+03  0.40773504870E+03  0.12465917209E+03 0.  0.
          5    1    4    4  502    0  0.63016823099E+02 -0.46815822391E+02  0.10764962897E+03  0.13331681753E+03  0.47000000000E+01 0. -1.
         -5    1    4    4    0  502 -0.30582532330E+02  0.42505882531E+02  0.75728161116E+02  0.92189401341E+02  0.47000000000E+01 0. -1.
          5    1    5    5  503    0 -0.18568427181E+02  0.45821977106E+02  0.33944695115E+03  0.34306087320E+03  0.47000000000E+01 0.  1.
         -5    1    5    5    0  503 -0.13865863588E+02 -0.41512037246E+02  0.47382988174E+02  0.64674175508E+02  0.47000000000E+01 0.  1.
<mgrwt>
<rscale>  0 0.27542267E+03</rscale>
<asrwt>0</asrwt>
<pdfrwt beam="1">  1        2 0.92572991E-01 0.27542267E+03</pdfrwt>
<pdfrwt beam="2">  1       -2 0.48487342E-02 0.27542267E+03</pdfrwt>
<totfact> 0.10270833E+04</totfact>
</mgrwt>
</event>
<event>
 9    1  0.7984035E-001  0.2761656E+03  0.7818608E-02  0.1097802E+00
          1   -1    0    0  501    0  0.00000000000E+00  0.00000000000E+00  0.21290466006E+04  0.21290466006E+04  0.00000000000E+00 0. -1.
         -1   -1    0    0    0  501 -0.00000000000E+00 -0.00000000000E+00 -0.89555867708E+01  0.89555867708E+01  0.00000000000E+00 0. -1.
         35    2    1    2    0    0  0.00000000000E+00 -0.71054273576E-14  0.21200910138E+04  0.21380021874E+04  0.27616561387E+03 0.  0.
         25    2    3    3    0    0  0.37105259213E+02  0.40860394453E+02  0.10629682416E+04  0.10719861482E+04  0.12730454565E+03 0.  0.
         25    2    3    3    0    0 -0.37105259213E+02 -0.40860394453E+02  0.10571227723E+04  0.10660160391E+04  0.12583826108E+03 0.  0.
          5    1    4    4  502    0  0.42499233977E+02 -0.32859911095E+02  0.25554759535E+03  0.26117546236E+03  0.47000000000E+01 0. -1.
         -5    1    4    4    0  502 -0.53939747642E+01  0.73720305547E+02  0.80742064620E+03  0.81081068588E+03  0.47000000000E+01 0. -1.
          5    1    5    5  503    0 -0.10658418713E+02  0.45154171476E+02  0.31237896572E+03  0.31584048081E+03  0.47000000000E+01 0.  1.
         -5    1    5    5    0  503 -0.26446840500E+02 -0.86014565929E+02  0.74474380654E+03  0.75017555832E+03  0.47000000000E+01 0.  1.
<mgrwt>
<rscale>  0 0.27616561E+03</rscale>
<asrwt>0</asrwt>
<pdfrwt beam="1">  1        1 0.32754523E+00 0.27616561E+03</pdfrwt>
<pdfrwt beam="2">  1       -1 0.13777843E-02 0.27616561E+03</pdfrwt>
<totfact> 0.32846818E+03</totfact>
</mgrwt>
</event>
<event>
 9    1  0.7984035E-001  0.2794773E+03  0.7818608E-02  0.1095975E+00
         -1   -1    0    0    0  501 -0.00000000000E+00  0.00000000000E+00  0.46443240477E+02  0.46443240477E+02  0.00000000000E+00 0.  1.
          1   -1    0    0  501    0  0.00000000000E+00 -0.00000000000E+00 -0.42044644950E+03  0.42044644950E+03  0.00000000000E+00 0.  1.
         35    2    1    2    0    0  0.00000000000E+00  0.00000000000E+00 -0.37400320903E+03  0.46688968998E+03  0.27947733763E+03 0.  0.
         25    2    3    3    0    0  0.35650700813E+02 -0.43333362582E+02 -0.21856332721E+03  0.25914776061E+03  0.12743186825E+03 0.  0.
         25    2    3    3    0    0 -0.35650700813E+02  0.43333362582E+02 -0.15543988181E+03  0.20774192937E+03  0.12588248321E+03 0.  0.
          5    1    4    4  502    0  0.67619970559E+02  0.61035921990E+01 -0.62961411070E+02  0.92714311410E+02  0.47000000000E+01 0. -1.
         -5    1    4    4    0  502 -0.31969269747E+02 -0.49436954781E+02 -0.15560191614E+03  0.16643344920E+03  0.47000000000E+01 0. -1.
          5    1    5    5  503    0 -0.36265598043E+02  0.79752693171E+02 -0.14514124107E+03  0.16959880757E+03  0.47000000000E+01 0. -1.
         -5    1    5    5    0  503  0.61489723086E+00 -0.36419330590E+02 -0.10298640738E+02  0.38143121795E+02  0.47000000000E+01 0. -1.
<mgrwt>
<rscale>  0 0.27947734E+03</rscale>
<asrwt>0</asrwt>
<pdfrwt beam="1">  1        1 0.64684068E-01 0.27947734E+03</pdfrwt>
<pdfrwt beam="2">  1       -1 0.71451140E-02 0.27947734E+03</pdfrwt>
<totfact> 0.57869596E+03</totfact>
</mgrwt>
</event>
<event>
 9    1  0.7984035E-001  0.2726256E+03  0.7818608E-02  0.1099786E+00
         -1   -1    0    0    0  501 -0.00000000000E+00  0.00000000000E+00  0.26790175620E+03  0.26790175620E+03  0.00000000000E+00 0.  1.
          1   -1    0    0  501    0  0.00000000000E+00 -0.00000000000E+00 -0.69358175630E+02  0.69358175630E+02  0.00000000000E+00 0.  1.
         35    2    1    2    0    0  0.00000000000E+00  0.00000000000E+00  0.19854358057E+03  0.33725993183E+03  0.27262558250E+03 0.  0.
         25    2    3    3    0    0  0.49890776268E+02 -0.15957500048E+01  0.12442312337E+03  0.18334608831E+03  0.12507213316E+03 0.  0.
         25    2    3    3    0    0 -0.49890776268E+02  0.15957500048E+01  0.74120457196E+02  0.15391384352E+03  0.12531557396E+03 0.  0.
          5    1    4    4  502    0  0.79616802954E+02  0.12962895324E+02  0.35332501119E+02  0.88189271474E+02  0.47000000000E+01 0.  1.
         -5    1    4    4    0  502 -0.29726026686E+02 -0.14558645328E+02  0.89090622251E+02  0.95156816831E+02  0.47000000000E+01 0.  1.
          5    1    5    5  503    0  0.19239914890E+02  0.22201114750E+02 -0.19544640943E+02  0.35597005642E+02  0.47000000000E+01 0.  1.
         -5    1    5    5    0  503 -0.69130691158E+02 -0.20605364745E+02  0.93665098139E+02  0.11831683788E+03  0.47000000000E+01 0.  1.
<mgrwt>
<rscale>  0 0.27262558E+03</rscale>
<asrwt>0</asrwt>
<pdfrwt beam="1">  1        1 0.10670489E-01 0.27262558E+03</pdfrwt>
<pdfrwt beam="2">  1       -1 0.41215654E-01 0.27262558E+03</pdfrwt>
<totfact> 0.34216659E+03</totfact>
</mgrwt>
</event>
<event>
 9    1  0.7984035E-001  0.2568873E+03  0.7818608E-02  0.1109028E+00
         -2   -1    0    0    0  501 -0.00000000000E+00  0.00000000000E+00  0.74355502726E+01  0.74355502726E+01  0.00000000000E+00 0.  1.
          2   -1    0    0  501    0  0.00000000000E+00 -0.00000000000E+00 -0.22187685564E+04  0.22187685564E+04  0.00000000000E+00 0.  1.
         35    2    1    2    0    0  0.00000000000E+00 -0.26645352591E-14 -0.22113330061E+04  0.22262041066E+04  0.25688725265E+03 0.  0.
         25    2    3    3    0    0 -0.16916654335E+02 -0.38317478938E+01 -0.91539532908E+03  0.92415493593E+03  0.12574928077E+03 0.  0.
         25    2    3    3    0    0  0.16916654335E+02  0.38317478938E+01 -0.12959376770E+04  0.13020491707E+04  0.12480674965E+03 0.  0.
          5    1    4    4  502    0 -0.65748586690E+02  0.20730467959E+01 -0.70305466636E+03  0.70614101146E+03  0.47000000000E+01 0.  1.
         -5    1    4    4    0  502  0.48831932355E+02 -0.59047946897E+01 -0.21234066272E+03  0.21801392446E+03  0.47000000000E+01 0.  1.
          5    1    5    5  503    0 -0.21774218151E+02 -0.52751876305E+02 -0.60464007384E+03  0.60734552433E+03  0.47000000000E+01 0.  1.
         -5    1    5    5    0  503  0.38690872486E+02  0.56583624199E+02 -0.69129760316E+03  0.69470364636E+03  0.47000000000E+01 0.  1.
<mgrwt>
<rscale>  0 0.25688725E+03</rscale>
<asrwt>0</asrwt>
<pdfrwt beam="1">  1        2 0.34134914E+00 0.25688725E+03</pdfrwt>
<pdfrwt beam="2">  1       -2 0.11439304E-02 0.25688725E+03</pdfrwt>
<totfact> 0.99662129E+03</totfact>
</mgrwt>
</event>
<event>
 9    1  0.7984035E-001  0.2780105E+03  0.7818608E-02  0.1096781E+00
         -1   -1    0    0    0  501 -0.00000000000E+00  0.00000000000E+00  0.32400502719E+02  0.32400502719E+02  0.00000000000E+00 0. -1.
          1   -1    0    0  501    0  0.00000000000E+00 -0.00000000000E+00 -0.59636310909E+03  0.59636310909E+03  0.00000000000E+00 0. -1.
         35    2    1    2    0    0 -0.14210854715E-13  0.00000000000E+00 -0.56396260637E+03  0.62876361181E+03  0.27801053604E+03 0.  0.
         25    2    3    3    0    0  0.50046201334E+02 -0.23876285674E+02 -0.34177017004E+03  0.36823586069E+03  0.12536387314E+03 0.  0.
         25    2    3    3    0    0 -0.50046201334E+02  0.23876285674E+02 -0.22219243633E+03  0.26052775111E+03  0.12421968866E+03 0.  0.
          5    1    4    4  502    0 -0.33282512213E+02 -0.39436802071E+02 -0.11676876331E+03  0.12774983781E+03  0.47000000000E+01 0.  1.
         -5    1    4    4    0  502  0.83328713546E+02  0.15560516397E+02 -0.22500140673E+03  0.24048602288E+03  0.47000000000E+01 0.  1.
          5    1    5    5  503    0 -0.26160663865E+02  0.21478154990E+02  0.27275654939E+01  0.34281497767E+02  0.47000000000E+01 0.  1.
         -5    1    5    5    0  503 -0.23885537469E+02  0.23981306834E+01 -0.22492000183E+03  0.22624625334E+03  0.47000000000E+01 0.  1.
<mgrwt>
<rscale>  0 0.27801054E+03</rscale>
<asrwt>0</asrwt>
<pdfrwt beam="1">  1        1 0.91748167E-01 0.27801054E+03</pdfrwt>
<pdfrwt beam="2">  1       -1 0.49846929E-02 0.27801054E+03</pdfrwt>
<totfact> 0.62514404E+03</totfact>
</mgrwt>
</event>
<event>
 9    1  0.7984035E-001  0.2763869E+03  0.7818608E-02  0.1097679E+00
          1   -1    0    0  501    0  0.00000000000E+00  0.00000000000E+00  0.11909214532E+04  0.11909214532E+04  0.00000000000E+00 0.  1.
         -1   -1    0    0    0  501 -0.00000000000E+00 -0.00000000000E+00 -0.16035846571E+02  0.16035846571E+02  0.00000000000E+00 0.  1.
         35    2    1    2    0    0  0.71054273576E-14  0.35527136788E-14  0.11748856067E+04  0.12069572998E+04  0.27638692952E+03 0.  0.
         25    2    3    3    0    0 -0.48828768295E+02 -0.26051539704E+02  0.52168901837E+03  0.53963483315E+03  0.12642543230E+03 0.  0.
         25    2    3    3    0    0  0.48828768295E+02  0.26051539704E+02  0.65319658829E+03  0.66732246665E+03  0.12486216482E+03 0.  0.
          5    1    4    4  502    0 -0.84542930471E+02 -0.45790828558E+02  0.38898913258E+03  0.40072302447E+03  0.47000000000E+01 0. -1.
         -5    1    4    4    0  502  0.35714162176E+02  0.19739288854E+02  0.13269988579E+03  0.13891180868E+03  0.47000000000E+01 0. -1.
          5    1    5    5  503    0  0.54288555552E+02 -0.38723702911E+02  0.24503700766E+03  0.25399212105E+03  0.47000000000E+01 0.  1.
         -5    1    5    5    0  503 -0.54597872568E+01  0.64775242615E+02  0.40815958063E+03  0.41333034560E+03  0.47000000000E+01 0.  1.
<mgrwt>
<rscale>  0 0.27638693E+03</rscale>
<asrwt>0</asrwt>
<pdfrwt beam="1">  1        1 0.18321862E+00 0.27638693E+03</pdfrwt>
<pdfrwt beam="2">  1       -1 0.24670542E-02 0.27638693E+03</pdfrwt>
<totfact> 0.58514893E+03</totfact>
</mgrwt>
</event>
<event>
 9    1  0.7984035E-001  0.2749424E+03  0.7818608E-02  0.1098484E+00
         -1   -1    0    0    0  501 -0.00000000000E+00  0.00000000000E+00  0.11476630757E+03  0.11476630757E+03  0.00000000000E+00 0.  1.
          1   -1    0    0  501    0  0.00000000000E+00 -0.00000000000E+00 -0.16466797435E+03  0.16466797435E+03  0.00000000000E+00 0.  1.
         35    2    1    2    0    0 -0.35527136788E-14  0.00000000000E+00 -0.49901666774E+02  0.27943428192E+03  0.27494243318E+03 0.  0.
         25    2    3    3    0    0 -0.26904077508E+02  0.38843131528E+02 -0.56793653935E+02  0.14520626279E+03  0.12500688531E+03 0.  0.
         25    2    3    3    0    0  0.26904077508E+02 -0.38843131528E+02  0.68919871605E+01  0.13422801912E+03  0.12544737294E+03 0.  0.
          5    1    4    4  502    0 -0.38899995407E+02  0.17245578906E+02  0.31661110222E+02  0.53245990787E+02  0.47000000000E+01 0. -1.
         -5    1    4    4    0  502  0.11995917899E+02  0.21597552622E+02 -0.88454764156E+02  0.91960272006E+02  0.47000000000E+01 0. -1.
          5    1    5    5  503    0  0.31045404289E+02 -0.62707671052E+02 -0.40365881760E+02  0.80917016421E+02  0.47000000000E+01 0. -1.
         -5    1    5    5    0  503 -0.41413267807E+01  0.23864539524E+02  0.47257868921E+02  0.53311002702E+02  0.47000000000E+01 0. -1.
<mgrwt>
<rscale>  0 0.27494243E+03</rscale>
<asrwt>0</asrwt>
<pdfrwt beam="1">  1        1 0.25333534E-01 0.27494243E+03</pdfrwt>
<pdfrwt beam="2">  1       -1 0.17656355E-01 0.27494243E+03</pdfrwt>
<totfact> 0.46172109E+03</totfact>
</mgrwt>
</event>
<event>
 9    1  0.7984035E-001  0.2732364E+03  0.7818608E-02  0.1099441E+00
         -1   -1    0    0    0  501 -0.00000000000E+00  0.00000000000E+00  0.84762990919E+03  0.84762990919E+03  0.00000000000E+00 0. -1.
          1   -1    0    0  501    0  0.00000000000E+00 -0.00000000000E+00 -0.22019669346E+02  0.22019669346E+02  0.00000000000E+00 0. -1.
         35    2    1    2    0    0  0.00000000000E+00  0.00000000000E+00  0.82561023984E+03  0.86964957854E+03  0.27323638358E+03 0.  0.
         25    2    3    3    0    0 -0.13040283824E+02 -0.33807085208E+02  0.26720274160E+03  0.29698583090E+03  0.12446007641E+03 0.  0.
         25    2    3    3    0    0  0.13040283824E+02  0.33807085208E+02  0.55840749824E+03  0.57266374764E+03  0.12170400879E+03 0.  0.
          5    1    4    4  502    0 -0.39147944183E+02 -0.34461419711E+02  0.26525981612E+03  0.27037938351E+03  0.47000000000E+01 0. -1.
         -5    1    4    4    0  502  0.26107660359E+02  0.65433450312E+00  0.19429254875E+01  0.26606447386E+02  0.47000000000E+01 0. -1.
          5    1    5    5  503    0 -0.16665784406E+01  0.72841380528E+02  0.45879119780E+03  0.46456441682E+03  0.47000000000E+01 0. -1.
         -5    1    5    5    0  503  0.14706862264E+02 -0.39034295320E+02  0.99616300441E+02  0.10809933081E+03  0.47000000000E+01 0. -1.
<mgrwt>
<rscale>  0 0.27323638E+03</rscale>
<asrwt>0</asrwt>
<pdfrwt beam="1">  1        1 0.33876421E-02 0.27323638E+03</pdfrwt>
<pdfrwt beam="2">  1       -1 0.13040458E+00 0.27323638E+03</pdfrwt>
<totfact> 0.15504372E+03</totfact>
</mgrwt>
</event>
<event>
 9    1  0.7984035E-001  0.2752662E+03  0.7818608E-02  0.1098303E+00
         -2   -1    0    0    0  501 -0.00000000000E+00  0.00000000000E+00  0.48066041723E+03  0.48066041723E+03  0.00000000000E+00 0. -1.
          2   -1    0    0  501    0  0.00000000000E+00 -0.00000000000E+00 -0.39410075800E+02  0.39410075800E+02  0.00000000000E+00 0. -1.
         35    2    1    2    0    0  0.00000000000E+00  0.35527136788E-14  0.44125034143E+03  0.52007049303E+03  0.27526615104E+03 0.  0.
         25    2    3    3    0    0  0.22590686366E+02  0.13610967165E+02  0.31551388485E+03  0.34037489586E+03  0.12494182910E+03 0.  0.
         25    2    3    3    0    0 -0.22590686366E+02 -0.13610967165E+02  0.12573645658E+03  0.17969559717E+03  0.12563937914E+03 0.  0.
          5    1    4    4  502    0  0.10630355090E+02  0.22777230938E+02  0.32221390390E+03  0.32322700470E+03  0.47000000000E+01 0. -1.
         -5    1    4    4    0  502  0.11960331276E+02 -0.91662637726E+01 -0.67000190547E+01  0.17147891156E+02  0.47000000000E+01 0. -1.
          5    1    5    5  503    0 -0.37537369853E+02 -0.61894679191E+02  0.48461002634E+02  0.87238547809E+02  0.47000000000E+01 0. -1.
         -5    1    5    5    0  503  0.14946683487E+02  0.48283712025E+02  0.77275453943E+02  0.92457049359E+02  0.47000000000E+01 0. -1.
<mgrwt>
<rscale>  0 0.27526615E+03</rscale>
<asrwt>0</asrwt>
<pdfrwt beam="1">  1        2 0.60630889E-02 0.27526615E+03</pdfrwt>
<pdfrwt beam="2">  1       -2 0.73947752E-01 0.27526615E+03</pdfrwt>
<totfact> 0.20593369E+03</totfact>
</mgrwt>
</event>
<event>
 9    1  0.7984035E-001  0.2728969E+03  0.7818608E-02  0.1099633E+00
         -2   -1    0    0    0  501 -0.00000000000E+00  0.00000000000E+00  0.40634474312E+02  0.40634474312E+02  0.00000000000E+00 0.  1.
          2   -1    0    0  501    0  0.00000000000E+00 -0.00000000000E+00 -0.45818666784E+03  0.45818666784E+03  0.00000000000E+00 0.  1.
         35    2    1    2    0    0 -0.35527136788E-14  0.00000000000E+00 -0.41755219353E+03  0.49882114216E+03  0.27289686246E+03 0.  0.
         25    2    3    3    0    0  0.58103260334E+01 -0.38950971571E+02 -0.15303926340E+03  0.20381697439E+03  0.12872220023E+03 0.  0.
         25    2    3    3    0    0 -0.58103260334E+01  0.38950971571E+02 -0.26451293013E+03  0.29500416777E+03  0.12453686490E+03 0.  0.
          5    1    4    4  502    0 -0.13159486943E+02 -0.62978010945E+02 -0.20472387271E+02  0.67680208331E+02  0.47000000000E+01 0.  1.
         -5    1    4    4    0  502  0.18969812976E+02  0.24027039375E+02 -0.13256687613E+03  0.13613676606E+03  0.47000000000E+01 0.  1.
          5    1    5    5  503    0 -0.34599869205E+02 -0.33515922082E+02 -0.67414305944E+02  0.82989436845E+02  0.47000000000E+01 0.  1.
         -5    1    5    5    0  503  0.28789543172E+02  0.72466893652E+02 -0.19709862419E+03  0.21201473092E+03  0.47000000000E+01 0.  1.
<mgrwt>
<rscale>  0 0.27289686E+03</rscale>
<asrwt>0</asrwt>
<pdfrwt beam="1">  1        2 0.70490254E-01 0.27289686E+03</pdfrwt>
<pdfrwt beam="2">  1       -2 0.62514579E-02 0.27289686E+03</pdfrwt>
<totfact> 0.94767409E+03</totfact>
</mgrwt>
</event>
<event>
 9    1  0.7984035E-001  0.2763339E+03  0.7818608E-02  0.1097708E+00
          2   -1    0    0  501    0  0.00000000000E+00  0.00000000000E+00  0.70741030078E+02  0.70741030078E+02  0.00000000000E+00 0. -1.
         -2   -1    0    0    0  501 -0.00000000000E+00 -0.00000000000E+00 -0.26985895798E+03  0.26985895798E+03  0.00000000000E+00 0. -1.
         35    2    1    2    0    0  0.00000000000E+00  0.00000000000E+00 -0.19911792790E+03  0.34059998806E+03  0.27633386085E+03 0.  0.
         25    2    3    3    0    0  0.43119102847E+02 -0.38876737959E+02 -0.99143783014E+02  0.17015277475E+03  0.12550625188E+03 0.  0.
         25    2    3    3    0    0 -0.43119102847E+02  0.38876737959E+02 -0.99974144888E+02  0.17044721331E+03  0.12524681670E+03 0.  0.
          5    1    4    4  502    0  0.73735373179E+02 -0.62479090974E+02 -0.55050257396E+02  0.11132458357E+03  0.47000000000E+01 0.  1.
         -5    1    4    4    0  502 -0.30616270332E+02  0.23602353014E+02 -0.44093525618E+02  0.58828191186E+02  0.47000000000E+01 0.  1.
          5    1    5    5  503    0 -0.46509625980E+02 -0.28194033515E+02 -0.61018196176E+01  0.54930602011E+02  0.47000000000E+01 0.  1.
         -5    1    5    5    0  503  0.33905231328E+01  0.67070771475E+02 -0.93872325270E+02  0.11551661129E+03  0.47000000000E+01 0.  1.
<mgrwt>
<rscale>  0 0.27633386E+03</rscale>
<asrwt>0</asrwt>
<pdfrwt beam="1">  1        2 0.10883236E-01 0.27633386E+03</pdfrwt>
<pdfrwt beam="2">  1       -2 0.41516762E-01 0.27633386E+03</pdfrwt>
<totfact> 0.31836484E+03</totfact>
</mgrwt>
</event>
<event>
 9    1  0.7984035E-001  0.2714943E+03  0.7818608E-02  0.1100427E+00
         -2   -1    0    0    0  501 -0.00000000000E+00  0.00000000000E+00  0.28552704769E+02  0.28552704769E+02  0.00000000000E+00 0. -1.
          2   -1    0    0  501    0  0.00000000000E+00 -0.00000000000E+00 -0.64537801467E+03  0.64537801467E+03  0.00000000000E+00 0. -1.
         35    2    1    2    0    0  0.00000000000E+00 -0.14210854715E-13 -0.61682530990E+03  0.67393071944E+03  0.27149429399E+03 0.  0.
         25    2    3    3    0    0 -0.11535807756E+02 -0.21514862495E+02 -0.19380586713E+03  0.23224870964E+03  0.12562955396E+03 0.  0.
         25    2    3    3    0    0  0.11535807756E+02  0.21514862495E+02 -0.42301944277E+03  0.44168200980E+03  0.12466589208E+03 0.  0.
          5    1    4    4  502    0 -0.95545651280E+01  0.50125624659E+02 -0.50466660004E+02  0.71922470301E+02  0.47000000000E+01 0. -1.
         -5    1    4    4    0  502 -0.19812426280E+01 -0.71640487153E+02 -0.14333920713E+03  0.16032623934E+03  0.47000000000E+01 0. -1.
          5    1    5    5  503    0 -0.27900703216E+02 -0.12899822774E+02 -0.35180540635E+03  0.35317699331E+03  0.47000000000E+01 0.  1.
         -5    1    5    5    0  503  0.39436510972E+02  0.34414685268E+02 -0.71214036421E+02  0.88505016486E+02  0.47000000000E+01 0.  1.
<mgrwt>
<rscale>  0 0.27149429E+03</rscale>
<asrwt>0</asrwt>
<pdfrwt beam="1">  1        2 0.99288919E-01 0.27149429E+03</pdfrwt>
<pdfrwt beam="2">  1       -2 0.43927241E-02 0.27149429E+03</pdfrwt>
<totfact> 0.10980615E+04</totfact>
</mgrwt>
</event>
<event>
 9    1  0.7984035E-001  0.2734071E+03  0.7818608E-02  0.1099345E+00
         -2   -1    0    0    0  501 -0.00000000000E+00  0.00000000000E+00  0.20842450921E+02  0.20842450921E+02  0.00000000000E+00 0. -1.
          2   -1    0    0  501    0  0.00000000000E+00 -0.00000000000E+00 -0.89662472049E+03  0.89662472049E+03  0.00000000000E+00 0. -1.
         35    2    1    2    0    0  0.00000000000E+00  0.00000000000E+00 -0.87578226957E+03  0.91746717141E+03  0.27340707183E+03 0.  0.
         25    2    3    3    0    0 -0.17848640947E+02  0.25264409021E+02 -0.27997705433E+03  0.30808999169E+03  0.12480155318E+03 0.  0.
         25    2    3    3    0    0  0.17848640947E+02 -0.25264409021E+02 -0.59580521523E+03  0.60937717972E+03  0.12409604475E+03 0.  0.
          5    1    4    4  502    0 -0.58156409167E+02  0.13573722804E+02 -0.24796163897E+03  0.25509503774E+03  0.47000000000E+01 0. -1.
         -5    1    4    4    0  502  0.40307768219E+02  0.11690686217E+02 -0.32015415365E+02  0.52994953949E+02  0.47000000000E+01 0. -1.
          5    1    5    5  503    0 -0.27405439776E+02 -0.61042467898E+02 -0.38357937943E+03  0.38940014297E+03  0.47000000000E+01 0. -1.
         -5    1    5    5    0  503  0.45254080724E+02  0.35778058877E+02 -0.21222583580E+03  0.21997703675E+03  0.47000000000E+01 0. -1.
<mgrwt>
<rscale>  0 0.27340707E+03</rscale>
<asrwt>0</asrwt>
<pdfrwt beam="1">  1        2 0.13794227E+00 0.27340707E+03</pdfrwt>
<pdfrwt beam="2">  1       -2 0.32065307E-02 0.27340707E+03</pdfrwt>
<totfact> 0.11668548E+04</totfact>
</mgrwt>
</event>
<event>
 9    1  0.7984035E-001  0.2674630E+03  0.7818608E-02  0.1102740E+00
          2   -1    0    0  501    0  0.00000000000E+00  0.00000000000E+00  0.10791206621E+04  0.10791206621E+04  0.00000000000E+00 0. -1.
         -2   -1    0    0    0  501 -0.00000000000E+00 -0.00000000000E+00 -0.16572860746E+02  0.16572860746E+02  0.00000000000E+00 0. -1.
         35    2    1    2    0    0  0.00000000000E+00  0.71054273576E-14  0.10625478013E+04  0.10956935228E+04  0.26746301771E+03 0.  0.
         25    2    3    3    0    0 -0.27336552252E+02  0.38044963631E+02  0.55718960012E+03  0.57295836771E+03  0.12500533711E+03 0.  0.
         25    2    3    3    0    0  0.27336552252E+02 -0.38044963631E+02  0.50535820120E+03  0.52273515509E+03  0.12518156617E+03 0.  0.
          5    1    4    4  502    0 -0.73188990725E+02  0.32577584136E+02  0.25808475969E+03  0.27027349210E+03  0.47000000000E+01 0. -1.
         -5    1    4    4    0  502  0.45852438473E+02  0.54673794949E+01  0.29910484043E+03  0.30268487561E+03  0.47000000000E+01 0. -1.
          5    1    5    5  503    0  0.58647103069E+02  0.23144069421E+02  0.28162968131E+03  0.28863904456E+03  0.47000000000E+01 0. -1.
         -5    1    5    5    0  503 -0.31310550817E+02 -0.61189033052E+02  0.22372851989E+03  0.23409611054E+03  0.47000000000E+01 0. -1.
<mgrwt>
<rscale>  0 0.26746302E+03</rscale>
<asrwt>0</asrwt>
<pdfrwt beam="1">  1        2 0.16601851E+00 0.26746302E+03</pdfrwt>
<pdfrwt beam="2">  1       -2 0.25496717E-02 0.26746302E+03</pdfrwt>
<totfact> 0.12647054E+04</totfact>
</mgrwt>
</event>
<event>
 9    1  0.7984035E-001  0.2762905E+03  0.7818608E-02  0.1097732E+00
          1   -1    0    0  501    0  0.00000000000E+00  0.00000000000E+00  0.17908311143E+04  0.17908311143E+04  0.00000000000E+00 0. -1.
         -1   -1    0    0    0  501 -0.00000000000E+00 -0.00000000000E+00 -0.10656564526E+02  0.10656564526E+02  0.00000000000E+00 0. -1.
         35    2    1    2    0    0  0.00000000000E+00  0.00000000000E+00  0.17801745498E+04  0.18014876789E+04  0.27629047993E+03 0.  0.
         25    2    3    3    0    0 -0.16776224882E+02  0.10230903910E+01  0.12281432371E+04  0.12345920578E+04  0.12489695722E+03 0.  0.
         25    2    3    3    0    0  0.16776224882E+02 -0.10230903910E+01  0.55203131274E+03  0.56689562109E+03  0.12786550171E+03 0.  0.
          5    1    4    4  502    0 -0.63789924592E+01  0.47929187818E+02  0.22027149068E+03  0.22556488688E+03  0.47000000000E+01 0.  1.
         -5    1    4    4    0  502 -0.10397232422E+02 -0.46906097427E+02  0.10078717464E+04  0.10090271709E+04  0.47000000000E+01 0.  1.
          5    1    5    5  503    0 -0.31225145561E+02 -0.34270375838E+02  0.41841635028E+03  0.42100332607E+03  0.47000000000E+01 0. -1.
         -5    1    5    5    0  503  0.48001370442E+02  0.33247285447E+02  0.13361496246E+03  0.14589229502E+03  0.47000000000E+01 0. -1.
<mgrwt>
<rscale>  0 0.27629048E+03</rscale>
<asrwt>0</asrwt>
<pdfrwt beam="1">  1        1 0.27551224E+00 0.27629048E+03</pdfrwt>
<pdfrwt beam="2">  1       -1 0.16394729E-02 0.27629048E+03</pdfrwt>
<totfact> 0.42296329E+03</totfact>
</mgrwt>
</event>
<event>
 9    1  0.7984035E-001  0.2745918E+03  0.7818608E-02  0.1098680E+00
          2   -1    0    0  501    0  0.00000000000E+00  0.00000000000E+00  0.20821110211E+03  0.20821110211E+03  0.00000000000E+00 0. -1.
         -2   -1    0    0    0  501 -0.00000000000E+00 -0.00000000000E+00 -0.90533895615E+02  0.90533895615E+02  0.00000000000E+00 0. -1.
         35    2    1    2    0    0  0.00000000000E+00  0.71054273576E-14  0.11767720650E+03  0.29874499773E+03  0.27459178563E+03 0.  0.
         25    2    3    3    0    0  0.24570780931E+02 -0.31963592343E+02  0.98119313559E+02  0.16415601233E+03  0.12527730114E+03 0.  0.
         25    2    3    3    0    0 -0.24570780931E+02  0.31963592343E+02  0.19557892936E+02  0.13458898539E+03  0.12691055631E+03 0.  0.
          5    1    4    4  502    0  0.36317695329E+02 -0.76304779260E+02  0.54389421814E+02  0.10060662770E+03  0.47000000000E+01 0.  1.
         -5    1    4    4    0  502 -0.11746914398E+02  0.44341186917E+02  0.43729891745E+02  0.63549384632E+02  0.47000000000E+01 0.  1.
          5    1    5    5  503    0 -0.28685621428E+02 -0.46240815722E+02  0.56164744509E+01  0.54906399450E+02  0.47000000000E+01 0. -1.
         -5    1    5    5    0  503  0.41148404976E+01  0.78204408065E+02  0.13941418485E+02  0.79682585942E+02  0.47000000000E+01 0. -1.
<mgrwt>
<rscale>  0 0.27459179E+03</rscale>
<asrwt>0</asrwt>
<pdfrwt beam="1">  1        2 0.32032477E-01 0.27459179E+03</pdfrwt>
<pdfrwt beam="2">  1       -2 0.13928292E-01 0.27459179E+03</pdfrwt>
<totfact> 0.62654383E+03</totfact>
</mgrwt>
</event>
<event>
 9    1  0.7984035E-001  0.2758903E+03  0.7818608E-02  0.1097955E+00
         -1   -1    0    0    0  501 -0.00000000000E+00  0.00000000000E+00  0.45004729380E+02  0.45004729380E+02  0.00000000000E+00 0.  1.
          1   -1    0    0  501    0  0.00000000000E+00 -0.00000000000E+00 -0.42281914837E+03  0.42281914837E+03  0.00000000000E+00 0.  1.
         35    2    1    2    0    0  0.00000000000E+00 -0.14210854715E-13 -0.37781441899E+03  0.46782387775E+03  0.27589027782E+03 0.  0.
         25    2    3    3    0    0 -0.38030521071E+02 -0.43569296059E+02 -0.21909458574E+03  0.25826267618E+03  0.12390548137E+03 0.  0.
         25    2    3    3    0    0  0.38030521071E+02  0.43569296059E+02 -0.15871983325E+03  0.20956120157E+03  0.12401333656E+03 0.  0.
          5    1    4    4  502    0 -0.18137413104E+02 -0.81122773261E+02 -0.91573019864E+02  0.12376420348E+03  0.47000000000E+01 0.  1.
         -5    1    4    4    0  502 -0.19893107968E+02  0.37553477201E+02 -0.12752156588E+03  0.13449847270E+03  0.47000000000E+01 0.  1.
          5    1    5    5  503    0  0.44179635010E+02 -0.35781823658E+02 -0.69308290321E+02  0.89765851865E+02  0.47000000000E+01 0.  1.
         -5    1    5    5    0  503 -0.61491139390E+01  0.79351119717E+02 -0.89411542925E+02  0.11979534970E+03  0.47000000000E+01 0.  1.
<mgrwt>
<rscale>  0 0.27589028E+03</rscale>
<asrwt>0</asrwt>
<pdfrwt beam="1">  1        1 0.65049099E-01 0.27589028E+03</pdfrwt>
<pdfrwt beam="2">  1       -1 0.69238046E-02 0.27589028E+03</pdfrwt>
<totfact> 0.60238496E+03</totfact>
</mgrwt>
</event>
<event>
 9    1  0.7984035E-001  0.2786148E+03  0.7818608E-02  0.1096448E+00
          3   -1    0    0  501    0  0.00000000000E+00  0.00000000000E+00  0.61532288511E+02  0.61532288511E+02  0.00000000000E+00 0.  1.
         -3   -1    0    0    0  501 -0.00000000000E+00 -0.00000000000E+00 -0.31538800522E+03  0.31538800522E+03  0.00000000000E+00 0.  1.
         35    2    1    2    0    0  0.71054273576E-14  0.00000000000E+00 -0.25385571671E+03  0.37692029373E+03  0.27861475718E+03 0.  0.
         25    2    3    3    0    0 -0.17058748708E+02 -0.58935707681E+02 -0.12410172596E+03  0.18608208279E+03  0.12434180552E+03 0.  0.
         25    2    3    3    0    0  0.17058748708E+02  0.58935707681E+02 -0.12975399075E+03  0.19083821094E+03  0.12577243773E+03 0.  0.
          5    1    4    4  502    0  0.45447426410E+02 -0.32445053299E+00 -0.16793113814E+02  0.48679282113E+02  0.47000000000E+01 0.  1.
         -5    1    4    4    0  502 -0.62506175118E+02 -0.58611257148E+02 -0.10730861215E+03  0.13740280067E+03  0.47000000000E+01 0.  1.
          5    1    5    5  503    0  0.57669632953E+02 -0.47439588888E+01 -0.84960815722E+02  0.10290151563E+03  0.47000000000E+01 0.  1.
         -5    1    5    5    0  503 -0.40610884245E+02  0.63679666570E+02 -0.44793175027E+02  0.87936695313E+02  0.47000000000E+01 0.  1.
<mgrwt>
<rscale>  0 0.27861476E+03</rscale>
<asrwt>0</asrwt>
<pdfrwt beam="1">  1        3 0.94665060E-02 0.27861476E+03</pdfrwt>
<pdfrwt beam="2">  1       -3 0.48521231E-01 0.27861476E+03</pdfrwt>
<totfact> 0.87297496E+02</totfact>
</mgrwt>
</event>
<event>
 9    1  0.7984035E-001  0.2750825E+03  0.7818608E-02  0.1098406E+00
         -2   -1    0    0    0  501 -0.00000000000E+00  0.00000000000E+00  0.10992076414E+02  0.10992076414E+02  0.00000000000E+00 0. -1.
          2   -1    0    0  501    0  0.00000000000E+00 -0.00000000000E+00 -0.17210207188E+04  0.17210207188E+04  0.00000000000E+00 0. -1.
         35    2    1    2    0    0  0.71054273576E-14  0.71054273576E-14 -0.17100286423E+04  0.17320127952E+04  0.27508246946E+03 0.  0.
         25    2    3    3    0    0 -0.46714689902E+02  0.32940752861E+02 -0.79748398532E+03  0.80933480373E+03  0.12559762032E+03 0.  0.
         25    2    3    3    0    0  0.46714689902E+02 -0.32940752861E+02 -0.91254465703E+03  0.92267799145E+03  0.12381263822E+03 0.  0.
          5    1    4    4  502    0 -0.57137094514E+02  0.41739215959E+02 -0.78982300364E+03  0.79300017453E+03  0.47000000000E+01 0.  1.
         -5    1    4    4    0  502  0.10422404612E+02 -0.87984630975E+01 -0.76609816755E+01  0.16334629197E+02  0.47000000000E+01 0.  1.
          5    1    5    5  503    0  0.24232031778E+02  0.38794181058E+02 -0.57480040296E+03  0.57663660401E+03  0.47000000000E+01 0.  1.
         -5    1    5    5    0  503  0.22482658125E+02 -0.71734933919E+02 -0.33774425407E+03  0.34604138744E+03  0.47000000000E+01 0.  1.
<mgrwt>
<rscale>  0 0.27508247E+03</rscale>
<asrwt>0</asrwt>
<pdfrwt beam="1">  1        2 0.26477237E+00 0.27508247E+03</pdfrwt>
<pdfrwt beam="2">  1       -2 0.16910890E-02 0.27508247E+03</pdfrwt>
<totfact> 0.10305405E+04</totfact>
</mgrwt>
</event>
<event>
 9    1  0.7984035E-001  0.2748644E+03  0.7818608E-02  0.1098527E+00
         -2   -1    0    0    0  501 -0.00000000000E+00  0.00000000000E+00  0.57081849000E+02  0.57081849000E+02  0.00000000000E+00 0. -1.
          2   -1    0    0  501    0  0.00000000000E+00 -0.00000000000E+00 -0.33088654936E+03  0.33088654936E+03  0.00000000000E+00 0. -1.
         35    2    1    2    0    0  0.53290705182E-14  0.00000000000E+00 -0.27380470036E+03  0.38796839836E+03  0.27486444693E+03 0.  0.
         25    2    3    3    0    0  0.12898165282E+02  0.52022825917E+02 -0.10491259300E+03  0.17266908633E+03  0.12623479758E+03 0.  0.
         25    2    3    3    0    0 -0.12898165282E+02 -0.52022825917E+02 -0.16889210736E+03  0.21529931203E+03  0.12229682231E+03 0.  0.
          5    1    4    4  502    0  0.27814251835E+02  0.85811559373E+02 -0.10057646638E+03  0.13518495448E+03  0.47000000000E+01 0. -1.
         -5    1    4    4    0  502 -0.14916086554E+02 -0.33788733456E+02 -0.43361266162E+01  0.37484131851E+02  0.47000000000E+01 0. -1.
          5    1    5    5  503    0 -0.43141190555E+02  0.20722477343E+02 -0.33582380078E+02  0.58655346231E+02  0.47000000000E+01 0.  1.
         -5    1    5    5    0  503  0.30243025274E+02 -0.72745303260E+02 -0.13530972729E+03  0.15664396580E+03  0.47000000000E+01 0.  1.
<mgrwt>
<rscale>  0 0.27486445E+03</rscale>
<asrwt>0</asrwt>
<pdfrwt beam="1">  1        2 0.50905623E-01 0.27486445E+03</pdfrwt>
<pdfrwt beam="2">  1       -2 0.87818229E-02 0.27486445E+03</pdfrwt>
<totfact> 0.79608747E+03</totfact>
</mgrwt>
</event>
<event>
 9    1  0.7984035E-001  0.2697965E+03  0.7818608E-02  0.1101396E+00
          2   -1    0    0  501    0  0.00000000000E+00  0.00000000000E+00  0.35422393480E+03  0.35422393480E+03  0.00000000000E+00 0. -1.
         -2   -1    0    0    0  501 -0.00000000000E+00 -0.00000000000E+00 -0.51372971943E+02  0.51372971943E+02  0.00000000000E+00 0. -1.
         35    2    1    2    0    0  0.00000000000E+00  0.00000000000E+00  0.30285096286E+03  0.40559690675E+03  0.26979648822E+03 0.  0.
         25    2    3    3    0    0  0.25960187522E+02 -0.40012610190E+02  0.17002515996E+03  0.21677836853E+03  0.12573530026E+03 0.  0.
         25    2    3    3    0    0 -0.25960187522E+02  0.40012610190E+02  0.13282580290E+03  0.18881853822E+03  0.12543845562E+03 0.  0.
          5    1    4    4  502    0  0.64362859596E+02 -0.20514175386E+02  0.15787074265E+03  0.17178087924E+03  0.47000000000E+01 0. -1.
         -5    1    4    4    0  502 -0.38402672074E+02 -0.19498434804E+02  0.12154417307E+02  0.44997489288E+02  0.47000000000E+01 0. -1.
          5    1    5    5  503    0  0.73042133200E+01 -0.20477551517E+02 -0.14154972912E+02  0.26365411176E+02  0.47000000000E+01 0.  1.
         -5    1    5    5    0  503 -0.33264400842E+02  0.60490161707E+02  0.14698077582E+03  0.16245312704E+03  0.47000000000E+01 0.  1.
<mgrwt>
<rscale>  0 0.26979649E+03</rscale>
<asrwt>0</asrwt>
<pdfrwt beam="1">  1        2 0.54495988E-01 0.26979649E+03</pdfrwt>
<pdfrwt beam="2">  1       -2 0.79035344E-02 0.26979649E+03</pdfrwt>
<totfact> 0.87180237E+03</totfact>
</mgrwt>
</event>
<event>
 9    1  0.7984035E-001  0.2678392E+03  0.7818608E-02  0.1102523E+00
         -2   -1    0    0    0  501 -0.00000000000E+00  0.00000000000E+00  0.26478596864E+03  0.26478596864E+03  0.00000000000E+00 0.  1.
          2   -1    0    0  501    0  0.00000000000E+00 -0.00000000000E+00 -0.67731887553E+02  0.67731887553E+02  0.00000000000E+00 0.  1.
         35    2    1    2    0    0  0.00000000000E+00  0.35527136788E-14  0.19705408109E+03  0.33251785619E+03  0.26783915661E+03 0.  0.
         25    2    3    3    0    0 -0.25369269861E+02 -0.20677324482E+02  0.53631197965E+02  0.13934891464E+03  0.12438112001E+03 0.  0.
         25    2    3    3    0    0  0.25369269861E+02  0.20677324482E+02  0.14342288312E+03  0.19316894156E+03  0.12519171290E+03 0.  0.
          5    1    4    4  502    0 -0.63550843429E+02 -0.49253295708E+02  0.30320570457E+02  0.86058258358E+02  0.47000000000E+01 0. -1.
         -5    1    4    4    0  502  0.38181573569E+02  0.28575971226E+02  0.23310627508E+02  0.53290656278E+02  0.47000000000E+01 0. -1.
          5    1    5    5  503    0 -0.26835146953E+02  0.40946800900E+01 -0.10684600877E+02  0.29548979896E+02  0.47000000000E+01 0.  1.
         -5    1    5    5    0  503  0.52204416813E+02  0.16582644393E+02  0.15410748400E+03  0.16361996166E+03  0.47000000000E+01 0.  1.
<mgrwt>
<rscale>  0 0.26783916E+03</rscale>
<asrwt>0</asrwt>
<pdfrwt beam="1">  1        2 0.10420291E-01 0.26783916E+03</pdfrwt>
<pdfrwt beam="2">  1       -2 0.40736302E-01 0.26783916E+03</pdfrwt>
<totfact> 0.34802337E+03</totfact>
</mgrwt>
</event>
<event>
 9    1  0.7984035E-001  0.2699688E+03  0.7818608E-02  0.1101297E+00
         -1   -1    0    0    0  501 -0.00000000000E+00  0.00000000000E+00  0.10477531475E+03  0.10477531475E+03  0.00000000000E+00 0.  1.
          1   -1    0    0  501    0  0.00000000000E+00 -0.00000000000E+00 -0.17390348032E+03  0.17390348032E+03  0.00000000000E+00 0.  1.
         35    2    1    2    0    0 -0.71054273576E-14  0.35527136788E-14 -0.69128165574E+02  0.27867879507E+03  0.26996882699E+03 0.  0.
         25    2    3    3    0    0 -0.49867916541E+02  0.12509499111E+02 -0.13903809813E+02  0.13361274210E+03  0.12253877858E+03 0.  0.
         25    2    3    3    0    0  0.49867916541E+02 -0.12509499111E+02 -0.55224355760E+02  0.14506605297E+03  0.12389969164E+03 0.  0.
          5    1    4    4  502    0  0.38885404423E+02 -0.36362726055E+01  0.91458474596E+01  0.40386058007E+02  0.47000000000E+01 0. -1.
         -5    1    4    4    0  502 -0.88753320964E+02  0.16145771717E+02 -0.23049657273E+02  0.93226684092E+02  0.47000000000E+01 0. -1.
          5    1    5    5  503    0  0.86446364458E+02  0.92610124931E+01 -0.53529783807E+02  0.10220698623E+03  0.47000000000E+01 0. -1.
         -5    1    5    5    0  503 -0.36578447917E+02 -0.21770511604E+02 -0.16945719535E+01  0.42859066738E+02  0.47000000000E+01 0. -1.
<mgrwt>
<rscale>  0 0.26996883E+03</rscale>
<asrwt>0</asrwt>
<pdfrwt beam="1">  1        1 0.26754381E-01 0.26996883E+03</pdfrwt>
<pdfrwt beam="2">  1       -1 0.16119279E-01 0.26996883E+03</pdfrwt>
<totfact> 0.49814300E+03</totfact>
</mgrwt>
</event>
<event>
 9    1  0.7984035E-001  0.2840294E+03  0.7818608E-02  0.1093508E+00
          1   -1    0    0  501    0  0.00000000000E+00  0.00000000000E+00  0.20683980148E+03  0.20683980148E+03  0.00000000000E+00 0.  1.
         -1   -1    0    0    0  501 -0.00000000000E+00 -0.00000000000E+00 -0.97506287725E+02  0.97506287725E+02  0.00000000000E+00 0.  1.
         35    2    1    2    0    0  0.00000000000E+00  0.00000000000E+00  0.10933351375E+03  0.30434608920E+03  0.28402944351E+03 0.  0.
         25    2    3    3    0    0 -0.38384092183E+02 -0.39751705703E+02  0.81520251181E+02  0.16590297464E+03  0.13350920943E+03 0.  0.
         25    2    3    3    0    0  0.38384092183E+02  0.39751705703E+02  0.27813262569E+02  0.13844311456E+03  0.12385225777E+03 0.  0.
          5    1    4    4  502    0  0.32612683760E+02 -0.14279853515E+02 -0.18615700090E+02  0.40449173641E+02  0.47000000000E+01 0.  1.
         -5    1    4    4    0  502 -0.70996775943E+02 -0.25471852188E+02  0.10013595127E+03  0.12545380100E+03  0.47000000000E+01 0.  1.
          5    1    5    5  503    0 -0.18402502081E+02  0.50327173451E+02  0.52760873138E+02  0.75347702053E+02  0.47000000000E+01 0. -1.
         -5    1    5    5    0  503  0.56786594264E+02 -0.10575467748E+02 -0.24947610569E+02  0.63095412506E+02  0.47000000000E+01 0. -1.
<mgrwt>
<rscale>  0 0.28402944E+03</rscale>
<asrwt>0</asrwt>
<pdfrwt beam="1">  1        1 0.31821508E-01 0.28402944E+03</pdfrwt>
<pdfrwt beam="2">  1       -1 0.15000967E-01 0.28402944E+03</pdfrwt>
<totfact> 0.44930962E+03</totfact>
</mgrwt>
</event>
<event>
 9    1  0.7984035E-001  0.2983174E+03  0.7818608E-02  0.1086085E+00
          1   -1    0    0  501    0  0.00000000000E+00  0.00000000000E+00  0.60779288728E+03  0.60779288728E+03  0.00000000000E+00 0. -1.
         -1   -1    0    0    0  501 -0.00000000000E+00 -0.00000000000E+00 -0.36605091901E+02  0.36605091901E+02  0.00000000000E+00 0. -1.
         35    2    1    2    0    0  0.35527136788E-14  0.00000000000E+00  0.57118779538E+03  0.64439797919E+03  0.29831737794E+03 0.  0.
         25    2    3    3    0    0  0.13082505595E+02 -0.40040371377E+02  0.43698620299E+03  0.45659826554E+03  0.12550159839E+03 0.  0.
         25    2    3    3    0    0 -0.13082505595E+02  0.40040371377E+02  0.13420159239E+03  0.18779971365E+03  0.12443585396E+03 0.  0.
          5    1    4    4  502    0  0.38902488605E+02  0.24142144649E+02  0.29517901348E+03  0.29874568912E+03  0.47000000000E+01 0.  1.
         -5    1    4    4    0  502 -0.25819983010E+02 -0.64182516027E+02  0.14180718951E+03  0.15785257642E+03  0.47000000000E+01 0.  1.
          5    1    5    5  503    0 -0.32037878915E+01 -0.41839340148E+02  0.75344146086E+02  0.86369120583E+02  0.47000000000E+01 0.  1.
         -5    1    5    5    0  503 -0.98787177039E+01  0.81879711526E+02  0.58857446308E+02  0.10143059306E+03  0.47000000000E+01 0.  1.
<mgrwt>
<rscale>  0 0.29831738E+03</rscale>
<asrwt>0</asrwt>
<pdfrwt beam="1">  1        1 0.93506591E-01 0.29831738E+03</pdfrwt>
<pdfrwt beam="2">  1       -1 0.56315531E-02 0.29831738E+03</pdfrwt>
<totfact> 0.50768531E+03</totfact>
</mgrwt>
</event>
<event>
 9    1  0.7984035E-001  0.2743261E+03  0.7818608E-02  0.1098829E+00
          2   -1    0    0  501    0  0.00000000000E+00  0.00000000000E+00  0.11347036876E+04  0.11347036876E+04  0.00000000000E+00 0.  1.
         -2   -1    0    0    0  501 -0.00000000000E+00 -0.00000000000E+00 -0.16580280519E+02  0.16580280519E+02  0.00000000000E+00 0.  1.
         35    2    1    2    0    0  0.00000000000E+00  0.14210854715E-13  0.11181234071E+04  0.11512839681E+04  0.27432612305E+03 0.  0.
         25    2    3    3    0    0  0.17473698103E+01  0.44712033189E+02  0.45091547785E+03  0.47005463556E+03  0.12499749208E+03 0.  0.
         25    2    3    3    0    0 -0.17473698103E+01 -0.44712033189E+02  0.66720792926E+03  0.68122933259E+03  0.13001831988E+03 0.  0.
          5    1    4    4  502    0 -0.43339622009E+02 -0.22990757909E+02  0.21106955307E+03  0.21674718918E+03  0.47000000000E+01 0.  1.
         -5    1    4    4    0  502  0.45086991819E+02  0.67702791098E+02  0.23984592478E+03  0.25330744637E+03  0.47000000000E+01 0.  1.
          5    1    5    5  503    0 -0.28946235797E+02  0.39318302423E+02  0.23520540923E+03  0.24026545320E+03  0.47000000000E+01 0.  1.
         -5    1    5    5    0  503  0.27198865986E+02 -0.84030335613E+02  0.43200252003E+03  0.44096387939E+03  0.47000000000E+01 0.  1.
<mgrwt>
<rscale>  0 0.27432612E+03</rscale>
<asrwt>0</asrwt>
<pdfrwt beam="1">  1        2 0.17456974E+00 0.27432612E+03</pdfrwt>
<pdfrwt beam="2">  1       -2 0.25508133E-02 0.27432612E+03</pdfrwt>
<totfact> 0.11735182E+04</totfact>
</mgrwt>
</event>
<event>
 9    1  0.7984035E-001  0.2681296E+03  0.7818608E-02  0.1102355E+00
         -2   -1    0    0    0  501 -0.00000000000E+00  0.00000000000E+00  0.29577840655E+02  0.29577840655E+02  0.00000000000E+00 0. -1.
          2   -1    0    0  501    0  0.00000000000E+00 -0.00000000000E+00 -0.60766352790E+03  0.60766352790E+03  0.00000000000E+00 0. -1.
         35    2    1    2    0    0  0.00000000000E+00  0.00000000000E+00 -0.57808568724E+03  0.63724136855E+03  0.26812963283E+03 0.  0.
         25    2    3    3    0    0  0.95044997243E+01  0.37107490011E+02 -0.35254920028E+03  0.37634772560E+03  0.12601337474E+03 0.  0.
         25    2    3    3    0    0 -0.95044997243E+01 -0.37107490011E+02 -0.22553648696E+03  0.26089364295E+03  0.12542521539E+03 0.  0.
          5    1    4    4  502    0  0.25341508215E+01 -0.96453751163E-02 -0.33394287588E+03  0.33398556311E+03  0.47000000000E+01 0. -1.
         -5    1    4    4    0  502  0.69703489028E+01  0.37117135386E+02 -0.18606324403E+02  0.42362162490E+02  0.47000000000E+01 0. -1.
          5    1    5    5  503    0  0.32155211819E+02  0.22544279453E+02 -0.15306568946E+03  0.15809300260E+03  0.47000000000E+01 0.  1.
         -5    1    5    5    0  503 -0.41659711544E+02 -0.59651769464E+02 -0.72470797503E+02  0.10280064035E+03  0.47000000000E+01 0.  1.
<mgrwt>
<rscale>  0 0.26812963E+03</rscale>
<asrwt>0</asrwt>
<pdfrwt beam="1">  1        2 0.93486695E-01 0.26812963E+03</pdfrwt>
<pdfrwt beam="2">  1       -2 0.45504371E-02 0.26812963E+03</pdfrwt>
<totfact> 0.11167670E+04</totfact>
</mgrwt>
</event>
<event>
 9    1  0.7984035E-001  0.2749322E+03  0.7818608E-02  0.1098490E+00
          2   -1    0    0  501    0  0.00000000000E+00  0.00000000000E+00  0.17004107190E+04  0.17004107190E+04  0.00000000000E+00 0. -1.
         -2   -1    0    0    0  501 -0.00000000000E+00 -0.00000000000E+00 -0.11113152779E+02  0.11113152779E+02  0.00000000000E+00 0. -1.
         35    2    1    2    0    0  0.00000000000E+00  0.00000000000E+00  0.16892975662E+04  0.17115238718E+04  0.27493216696E+03 0.  0.
         25    2    3    3    0    0 -0.33842265027E+02  0.34471716665E+02  0.10379449715E+04  0.10465795840E+04  0.12516174972E+03 0.  0.
         25    2    3    3    0    0  0.33842265027E+02 -0.34471716665E+02  0.65135259466E+03  0.66494428774E+03  0.12472812463E+03 0.  0.
          5    1    4    4  502    0 -0.55742600495E+02  0.28326663211E+02  0.10008548920E+04  0.10028171529E+04  0.47000000000E+01 0.  1.
         -5    1    4    4    0  502  0.21900335468E+02  0.61450534539E+01  0.37090079567E+02  0.43762431123E+02  0.47000000000E+01 0.  1.
          5    1    5    5  503    0  0.50223710509E+02 -0.68130197260E+01  0.61110335700E+03  0.61321957020E+03  0.47000000000E+01 0. -1.
         -5    1    5    5    0  503 -0.16381445482E+02 -0.27658696939E+02  0.40249237656E+02  0.51724717538E+02  0.47000000000E+01 0. -1.
<mgrwt>
<rscale>  0 0.27493217E+03</rscale>
<asrwt>0</asrwt>
<pdfrwt beam="1">  1        2 0.26160144E+00 0.27493217E+03</pdfrwt>
<pdfrwt beam="2">  1       -2 0.17097172E-02 0.27493217E+03</pdfrwt>
<totfact> 0.10397656E+04</totfact>
</mgrwt>
</event>
<event>
 9    1  0.7984035E-001  0.2736631E+03  0.7818608E-02  0.1099201E+00
          1   -1    0    0  501    0  0.00000000000E+00  0.00000000000E+00  0.20211194066E+04  0.20211194066E+04  0.00000000000E+00 0.  1.
         -1   -1    0    0    0  501 -0.00000000000E+00 -0.00000000000E+00 -0.92636178265E+01  0.92636178265E+01  0.00000000000E+00 0.  1.
         35    2    1    2    0    0 -0.71054273576E-14  0.00000000000E+00  0.20118557888E+04  0.20303830244E+04  0.27366313427E+03 0.  0.
         25    2    3    3    0    0 -0.53182707894E+02 -0.10968299899E+02  0.94710668528E+03  0.95687206504E+03  0.12507746211E+03 0.  0.
         25    2    3    3    0    0  0.53182707894E+02  0.10968299899E+02  0.10647491035E+04  0.10735109594E+04  0.12564403095E+03 0.  0.
          5    1    4    4  502    0 -0.69619604153E+02  0.19017598533E+02  0.29080993513E+03  0.29966826109E+03  0.47000000000E+01 0. -1.
         -5    1    4    4    0  502  0.16436896259E+02 -0.29985898432E+02  0.65629675015E+03  0.65720380395E+03  0.47000000000E+01 0. -1.
          5    1    5    5  503    0 -0.18737836775E+02 -0.37150769703E+02  0.19442884408E+03  0.19888678093E+03  0.47000000000E+01 0.  1.
         -5    1    5    5    0  503  0.71920544669E+02  0.48119069602E+02  0.87032025944E+03  0.87462417848E+03  0.47000000000E+01 0.  1.
<mgrwt>
<rscale>  0 0.27366313E+03</rscale>
<asrwt>0</asrwt>
<pdfrwt beam="1">  1        1 0.31094110E+00 0.27366313E+03</pdfrwt>
<pdfrwt beam="2">  1       -1 0.14251736E-02 0.27366313E+03</pdfrwt>
<totfact> 0.36757725E+03</totfact>
</mgrwt>
</event>
<event>
 9    1  0.7984035E-001  0.2767311E+03  0.7818608E-02  0.1097488E+00
          1   -1    0    0  501    0  0.00000000000E+00  0.00000000000E+00  0.67408667065E+03  0.67408667065E+03  0.00000000000E+00 0.  1.
         -1   -1    0    0    0  501 -0.00000000000E+00 -0.00000000000E+00 -0.28401427874E+02  0.28401427874E+02  0.00000000000E+00 0.  1.
         35    2    1    2    0    0  0.00000000000E+00  0.14210854715E-13  0.64568524277E+03  0.70248809852E+03  0.27673108938E+03 0.  0.
         25    2    3    3    0    0  0.20248824429E+02  0.43360521447E+02  0.26340141784E+03  0.29752879254E+03  0.12981881899E+03 0.  0.
         25    2    3    3    0    0 -0.20248824429E+02 -0.43360521447E+02  0.38228382494E+03  0.40495930598E+03  0.12474360496E+03 0.  0.
          5    1    4    4  502    0  0.49100460494E+02  0.18101564167E+02  0.29096275610E+02  0.60060012490E+02  0.47000000000E+01 0. -1.
         -5    1    4    4    0  502 -0.28851636065E+02  0.25258957280E+02  0.23430514223E+03  0.23746878005E+03  0.47000000000E+01 0. -1.
          5    1    5    5  503    0  0.31327571041E+02 -0.45191035645E+02  0.73800465192E+02  0.92153377977E+02  0.47000000000E+01 0.  1.
         -5    1    5    5    0  503 -0.51576395470E+02  0.18305141979E+01  0.30848335975E+03  0.31280592800E+03  0.47000000000E+01 0.  1.
<mgrwt>
<rscale>  0 0.27673109E+03</rscale>
<asrwt>0</asrwt>
<pdfrwt beam="1">  1        1 0.10370563E+00 0.27673109E+03</pdfrwt>
<pdfrwt beam="2">  1       -1 0.43694510E-02 0.27673109E+03</pdfrwt>
<totfact> 0.64015931E+03</totfact>
</mgrwt>
</event>
<event>
 9    1  0.7984035E-001  0.2944501E+03  0.7818608E-02  0.1088048E+00
         -1   -1    0    0    0  501 -0.00000000000E+00  0.00000000000E+00  0.68659638242E+02  0.68659638242E+02  0.00000000000E+00 0.  1.
          1   -1    0    0  501    0  0.00000000000E+00 -0.00000000000E+00 -0.31569077154E+03  0.31569077154E+03  0.00000000000E+00 0.  1.
         35    2    1    2    0    0 -0.71054273576E-14  0.00000000000E+00 -0.24703113330E+03  0.38435040978E+03  0.29445009200E+03 0.  0.
         25    2    3    3    0    0  0.40664009537E+02 -0.11613739005E+02 -0.37247508087E+02  0.13674545104E+03  0.12459334218E+03 0.  0.
         25    2    3    3    0    0 -0.40664009537E+02  0.11613739005E+02 -0.20978362521E+03  0.24760495875E+03  0.12454158174E+03 0.  0.
          5    1    4    4  502    0  0.64808643423E+02  0.33192407859E+02 -0.43971827505E+02  0.85191007835E+02  0.47000000000E+01 0.  1.
         -5    1    4    4    0  502 -0.24144633886E+02 -0.44806146864E+02  0.67243194185E+01  0.51554443202E+02  0.47000000000E+01 0.  1.
          5    1    5    5  503    0  0.20971030035E+02 -0.34972920549E+02 -0.27066085212E+02  0.49168610323E+02  0.47000000000E+01 0. -1.
         -5    1    5    5    0  503 -0.61635039571E+02  0.46586659554E+02 -0.18271754000E+03  0.19843634842E+03  0.47000000000E+01 0. -1.
<mgrwt>
<rscale>  0 0.29445009E+03</rscale>
<asrwt>0</asrwt>
<pdfrwt beam="1">  1        1 0.48567811E-01 0.29445009E+03</pdfrwt>
<pdfrwt beam="2">  1       -1 0.10563021E-01 0.29445009E+03</pdfrwt>
<totfact> 0.45810254E+03</totfact>
</mgrwt>
</event>
<event>
 9    1  0.7984035E-001  0.2732606E+03  0.7818608E-02  0.1099428E+00
         -2   -1    0    0    0  501 -0.00000000000E+00  0.00000000000E+00  0.14577107019E+03  0.14577107019E+03  0.00000000000E+00 0. -1.
          2   -1    0    0  501    0  0.00000000000E+00 -0.00000000000E+00 -0.12806275953E+03  0.12806275953E+03  0.00000000000E+00 0. -1.
         35    2    1    2    0    0  0.00000000000E+00 -0.53290705182E-14  0.17708310657E+02  0.27383382972E+03  0.27326064852E+03 0.  0.
         25    2    3    3    0    0  0.53949521865E+02  0.35161616905E+00  0.56081348130E+00  0.13641304990E+03  0.12528978860E+03 0.  0.
         25    2    3    3    0    0 -0.53949521865E+02 -0.35161616905E+00  0.17147497175E+02  0.13742077982E+03  0.12521884652E+03 0.  0.
          5    1    4    4  502    0 -0.23896192939E+02  0.39591015876E+02  0.12909415459E+02  0.48241264314E+02  0.47000000000E+01 0.  1.
         -5    1    4    4    0  502  0.77845714803E+02 -0.39239399707E+02 -0.12348601978E+02  0.88171785586E+02  0.47000000000E+01 0.  1.
          5    1    5    5  503    0  0.64065138946E+00  0.69196296700E+01  0.64253154888E+02  0.64798531018E+02  0.47000000000E+01 0. -1.
         -5    1    5    5    0  503 -0.54590173254E+02 -0.72712458391E+01 -0.47105657713E+02  0.72622248798E+02  0.47000000000E+01 0. -1.
<mgrwt>
<rscale>  0 0.27326065E+03</rscale>
<asrwt>0</asrwt>
<pdfrwt beam="1">  1        2 0.19701963E-01 0.27326065E+03</pdfrwt>
<pdfrwt beam="2">  1       -2 0.22426319E-01 0.27326065E+03</pdfrwt>
<totfact> 0.48326113E+03</totfact>
</mgrwt>
</event>
<event>
 9    1  0.7984035E-001  0.2744748E+03  0.7818608E-02  0.1098746E+00
          2   -1    0    0  501    0  0.00000000000E+00  0.00000000000E+00  0.29225616102E+04  0.29225616102E+04  0.00000000000E+00 0. -1.
         -2   -1    0    0    0  501 -0.00000000000E+00 -0.00000000000E+00 -0.64443828308E+01  0.64443828308E+01  0.00000000000E+00 0. -1.
         35    2    1    2    0    0  0.00000000000E+00  0.00000000000E+00  0.29161172274E+04  0.29290059931E+04  0.27447481387E+03 0.  0.
         25    2    3    3    0    0  0.28779682547E+02 -0.46079879982E+02  0.12915239889E+04  0.12986159051E+04  0.12416694268E+03 0.  0.
         25    2    3    3    0    0 -0.28779682547E+02  0.46079879982E+02  0.16245932386E+04  0.16303900880E+04  0.12616268393E+03 0.  0.
          5    1    4    4  502    0 -0.35960550895E+02 -0.45202923697E+02  0.34200032845E+03  0.34687574172E+03  0.47000000000E+01 0. -1.
         -5    1    4    4    0  502  0.64740233442E+02 -0.87695628578E+00  0.94952366040E+03  0.95174016335E+03  0.47000000000E+01 0. -1.
          5    1    5    5  503    0 -0.37266395427E+02  0.48827702071E+02  0.16159092166E+04  0.16170830576E+04  0.47000000000E+01 0. -1.
         -5    1    5    5    0  503  0.84867128794E+01 -0.27478220891E+01  0.86840219189E+01  0.13307030413E+02  0.47000000000E+01 0. -1.
<mgrwt>
<rscale>  0 0.27447481E+03</rscale>
<asrwt>0</asrwt>
<pdfrwt beam="1">  1        2 0.44962380E+00 0.27447481E+03</pdfrwt>
<pdfrwt beam="2">  1       -2 0.99144585E-03 0.27447481E+03</pdfrwt>
<totfact> 0.49963231E+03</totfact>
</mgrwt>
</event>
<event>
 9    1  0.7984035E-001  0.2736840E+03  0.7818608E-02  0.1099189E+00
          2   -1    0    0  501    0  0.00000000000E+00  0.00000000000E+00  0.26843020356E+04  0.26843020356E+04  0.00000000000E+00 0.  1.
         -2   -1    0    0    0  501 -0.00000000000E+00 -0.00000000000E+00 -0.69760176300E+01  0.69760176300E+01  0.00000000000E+00 0.  1.
         35    2    1    2    0    0  0.00000000000E+00 -0.35527136788E-14  0.26773260180E+04  0.26912780532E+04  0.27368403918E+03 0.  0.
         25    2    3    3    0    0 -0.32268640230E+02 -0.37226615955E+01  0.17818894868E+04  0.17865290328E+04  0.12450188177E+03 0.  0.
         25    2    3    3    0    0  0.32268640230E+02  0.37226615955E+01  0.89543653115E+03  0.90474902039E+03  0.12533588967E+03 0.  0.
          5    1    4    4  502    0  0.16807549604E+02 -0.33276022870E+02  0.19433224925E+03  0.19793155514E+03  0.47000000000E+01 0. -1.
         -5    1    4    4    0  502 -0.49076189835E+02  0.29553361274E+02  0.15875572376E+04  0.15885974777E+04  0.47000000000E+01 0. -1.
          5    1    5    5  503    0 -0.28145319382E+02  0.29260037503E+02  0.12501422827E+03  0.13152549589E+03  0.47000000000E+01 0. -1.
         -5    1    5    5    0  503  0.60413959613E+02 -0.25537375907E+02  0.77042230287E+03  0.77322352450E+03  0.47000000000E+01 0. -1.
<mgrwt>
<rscale>  0 0.27368404E+03</rscale>
<asrwt>0</asrwt>
<pdfrwt beam="1">  1        2 0.41296872E+00 0.27368404E+03</pdfrwt>
<pdfrwt beam="2">  1       -2 0.10732356E-02 0.27368404E+03</pdfrwt>
<totfact> 0.60965835E+03</totfact>
</mgrwt>
</event>
<event>
 9    1  0.7984035E-001  0.2756853E+03  0.7818608E-02  0.1098069E+00
          2   -1    0    0  501    0  0.00000000000E+00  0.00000000000E+00  0.36897398625E+04  0.36897398625E+04  0.00000000000E+00 0.  1.
         -2   -1    0    0    0  501 -0.00000000000E+00 -0.00000000000E+00 -0.51495755858E+01  0.51495755858E+01  0.00000000000E+00 0.  1.
         35    2    1    2    0    0  0.00000000000E+00  0.00000000000E+00  0.36845902869E+04  0.36948894381E+04  0.27568528662E+03 0.  0.
         25    2    3    3    0    0  0.20019915814E+01  0.35395428268E+02  0.12590142897E+04  0.12657925052E+04  0.12592394687E+03 0.  0.
         25    2    3    3    0    0 -0.20019915814E+01 -0.35395428268E+02  0.24255759972E+04  0.24290969328E+04  0.12584175175E+03 0.  0.
          5    1    4    4  502    0  0.39867856378E+02  0.12237991553E+02  0.10952769272E+04  0.10960806775E+04  0.47000000000E+01 0.  1.
         -5    1    4    4    0  502 -0.37865864796E+02  0.23157436715E+02  0.16373736253E+03  0.16971182775E+03  0.47000000000E+01 0.  1.
          5    1    5    5  503    0 -0.36799957176E+02 -0.53600767761E+02  0.69050626474E+03  0.69357643472E+03  0.47000000000E+01 0. -1.
         -5    1    5    5    0  503  0.34797965594E+02  0.18205339492E+02  0.17350697325E+04  0.17355204981E+04  0.47000000000E+01 0. -1.
<mgrwt>
<rscale>  0 0.27568529E+03</rscale>
<asrwt>0</asrwt>
<pdfrwt beam="1">  1        2 0.56765017E+00 0.27568529E+03</pdfrwt>
<pdfrwt beam="2">  1       -2 0.79224535E-03 0.27568529E+03</pdfrwt>
<totfact> 0.22526763E+03</totfact>
</mgrwt>
</event>
<event>
 9    1  0.7984035E-001  0.2778895E+03  0.7818608E-02  0.1096847E+00
         -1   -1    0    0    0  501 -0.00000000000E+00  0.00000000000E+00  0.10950937809E+03  0.10950937809E+03  0.00000000000E+00 0.  1.
          1   -1    0    0  501    0  0.00000000000E+00 -0.00000000000E+00 -0.17629219915E+03  0.17629219915E+03  0.00000000000E+00 0.  1.
         35    2    1    2    0    0 -0.71054273576E-14  0.00000000000E+00 -0.66782821053E+02  0.28580157724E+03  0.27788953986E+03 0.  0.
         25    2    3    3    0    0  0.38919936343E+02  0.27295611686E+02 -0.70767810071E+02  0.15150649710E+03  0.12524505523E+03 0.  0.
         25    2    3    3    0    0 -0.38919936343E+02 -0.27295611686E+02  0.39849890175E+01  0.13429508014E+03  0.12553675378E+03 0.  0.
          5    1    4    4  502    0 -0.18385901821E+01  0.38300310650E+02  0.25496318313E+02  0.46286568865E+02  0.47000000000E+01 0. -1.
         -5    1    4    4    0  502  0.40758526526E+02 -0.11004698964E+02 -0.96264128384E+02  0.10521992823E+03  0.47000000000E+01 0. -1.
          5    1    5    5  503    0 -0.70208871492E+02  0.20292087279E+02 -0.13639692697E+02  0.74492856430E+02  0.47000000000E+01 0.  1.
         -5    1    5    5    0  503  0.31288935148E+02 -0.47587698965E+02  0.17624681714E+02  0.59802223713E+02  0.47000000000E+01 0.  1.
<mgrwt>
<rscale>  0 0.27788954E+03</rscale>
<asrwt>0</asrwt>
<pdfrwt beam="1">  1        1 0.27121877E-01 0.27788954E+03</pdfrwt>
<pdfrwt beam="2">  1       -1 0.16847597E-01 0.27788954E+03</pdfrwt>
<totfact> 0.45663643E+03</totfact>
</mgrwt>
</event>
<event>
 9    1  0.7984035E-001  0.2770267E+03  0.7818608E-02  0.1097324E+00
         -2   -1    0    0    0  501 -0.00000000000E+00  0.00000000000E+00  0.27134895859E+02  0.27134895859E+02  0.00000000000E+00 0.  1.
          2   -1    0    0  501    0  0.00000000000E+00 -0.00000000000E+00 -0.70705807016E+03  0.70705807016E+03  0.00000000000E+00 0.  1.
         35    2    1    2    0    0 -0.71054273576E-14  0.71054273576E-14 -0.67992317430E+03  0.73419296602E+03  0.27702669258E+03 0.  0.
         25    2    3    3    0    0 -0.11156316991E+01  0.37476002887E+02 -0.21109698450E+03  0.24774405434E+03  0.12413494338E+03 0.  0.
         25    2    3    3    0    0  0.11156316991E+01 -0.37476002887E+02 -0.46882618979E+03  0.48644891167E+03  0.12421293012E+03 0.  0.
          5    1    4    4  502    0 -0.30712982904E+02 -0.30259188836E+02 -0.31887741549E+02  0.53831439596E+02  0.47000000000E+01 0.  1.
         -5    1    4    4    0  502  0.29597351205E+02  0.67735191723E+02 -0.17920924296E+03  0.19391261474E+03  0.47000000000E+01 0.  1.
          5    1    5    5  503    0 -0.59960922766E+02 -0.48516489949E+01 -0.21596343358E+03  0.22423457673E+03  0.47000000000E+01 0. -1.
         -5    1    5    5    0  503  0.61076554465E+02 -0.32624353892E+02 -0.25286275621E+03  0.26221433495E+03  0.47000000000E+01 0. -1.
<mgrwt>
<rscale>  0 0.27702669E+03</rscale>
<asrwt>0</asrwt>
<pdfrwt beam="1">  1        2 0.10877816E+00 0.27702669E+03</pdfrwt>
<pdfrwt beam="2">  1       -2 0.41745996E-02 0.27702669E+03</pdfrwt>
<totfact> 0.10635103E+04</totfact>
</mgrwt>
</event>
<event>
 9    1  0.7984035E-001  0.2782848E+03  0.7818608E-02  0.1096629E+00
          3   -1    0    0  501    0  0.00000000000E+00  0.00000000000E+00  0.32691809541E+03  0.32691809541E+03  0.00000000000E+00 0. -1.
         -3   -1    0    0    0  501 -0.00000000000E+00 -0.00000000000E+00 -0.59221565039E+02  0.59221565039E+02  0.00000000000E+00 0. -1.
         35    2    1    2    0    0  0.71054273576E-14  0.00000000000E+00  0.26769653037E+03  0.38613966045E+03  0.27828475524E+03 0.  0.
         25    2    3    3    0    0  0.24665288859E+02  0.16960975541E+02  0.50621333600E+02  0.13772907533E+03  0.12454207165E+03 0.  0.
         25    2    3    3    0    0 -0.24665288859E+02 -0.16960975541E+02  0.21707519677E+03  0.24841058512E+03  0.11700481434E+03 0.  0.
          5    1    4    4  502    0 -0.41516333385E+02 -0.22671935581E+02  0.45481726182E+01  0.47753517933E+02  0.47000000000E+01 0. -1.
         -5    1    4    4    0  502  0.66181622245E+02  0.39632911122E+02  0.46073160982E+02  0.89975557402E+02  0.47000000000E+01 0. -1.
          5    1    5    5  503    0 -0.40517227628E+02 -0.61079066939E+02  0.13934293157E+03  0.15751457307E+03  0.47000000000E+01 0. -1.
         -5    1    5    5    0  503  0.15851938768E+02  0.44118091398E+02  0.77732265207E+02  0.90896012044E+02  0.47000000000E+01 0. -1.
<mgrwt>
<rscale>  0 0.27828476E+03</rscale>
<asrwt>0</asrwt>
<pdfrwt beam="1">  1        3 0.50295090E-01 0.27828476E+03</pdfrwt>
<pdfrwt beam="2">  1       -3 0.91110102E-02 0.27828476E+03</pdfrwt>
<totfact> 0.86576727E+02</totfact>
</mgrwt>
</event>
<event>
 9    1  0.7984035E-001  0.2742053E+03  0.7818608E-02  0.1098897E+00
         -2   -1    0    0    0  501 -0.00000000000E+00  0.00000000000E+00  0.16953162116E+04  0.16953162116E+04  0.00000000000E+00 0. -1.
          2   -1    0    0  501    0  0.00000000000E+00 -0.00000000000E+00 -0.11087688706E+02  0.11087688706E+02  0.00000000000E+00 0. -1.
         35    2    1    2    0    0  0.00000000000E+00  0.00000000000E+00  0.16842285229E+04  0.17064039003E+04  0.27420531295E+03 0.  0.
         25    2    3    3    0    0 -0.46072364422E+02  0.28336532378E+02  0.74524962615E+03  0.75759981163E+03  0.12503938370E+03 0.  0.
         25    2    3    3    0    0  0.46072364422E+02 -0.28336532378E+02  0.93897889679E+03  0.94880408872E+03  0.12498883280E+03 0.  0.
          5    1    4    4  502    0 -0.86449743565E+02  0.36732530461E+02  0.48069848936E+03  0.48981217280E+03  0.47000000000E+01 0. -1.
         -5    1    4    4    0  502  0.40377379142E+02 -0.83959980835E+01  0.26455113679E+03  0.26778763882E+03  0.47000000000E+01 0. -1.
          5    1    5    5  503    0  0.42249005545E+02 -0.25318369493E+02  0.94055390220E+03  0.94185441086E+03  0.47000000000E+01 0.  1.
         -5    1    5    5    0  503  0.38233588773E+01 -0.30181628850E+01 -0.15750054154E+01  0.69496778604E+01  0.47000000000E+01 0.  1.
<mgrwt>
<rscale>  0 0.27420531E+03</rscale>
<asrwt>0</asrwt>
<pdfrwt beam="1">  1        2 0.17057996E-02 0.27420531E+03</pdfrwt>
<pdfrwt beam="2">  1       -2 0.26081767E+00 0.27420531E+03</pdfrwt>
<totfact> 0.42335947E+02</totfact>
</mgrwt>
</event>
<event>
 9    1  0.7984035E-001  0.2698647E+03  0.7818608E-02  0.1101357E+00
         -1   -1    0    0    0  501 -0.00000000000E+00  0.00000000000E+00  0.11335125099E+02  0.11335125099E+02  0.00000000000E+00 0. -1.
          1   -1    0    0  501    0  0.00000000000E+00 -0.00000000000E+00 -0.16062235527E+04  0.16062235527E+04  0.00000000000E+00 0. -1.
         35    2    1    2    0    0  0.26645352591E-14  0.00000000000E+00 -0.15948884276E+04  0.16175586778E+04  0.26986474321E+03 0.  0.
         25    2    3    3    0    0 -0.16037865956E+01 -0.27684334260E+02 -0.10227792371E+04  0.10308963499E+04  0.12609885697E+03 0.  0.
         25    2    3    3    0    0  0.16037865956E+01  0.27684334260E+02 -0.57210919043E+03  0.58666232791E+03  0.12686515172E+03 0.  0.
          5    1    4    4  502    0 -0.47569407729E+02  0.82069390105E+01 -0.19098936480E+03  0.19705133815E+03  0.47000000000E+01 0.  1.
         -5    1    4    4    0  502  0.45965621133E+02 -0.35891273271E+02 -0.83178987234E+03  0.83384501171E+03  0.47000000000E+01 0.  1.
          5    1    5    5  503    0 -0.49533029584E+01  0.21179980003E+02 -0.57536862592E+03  0.57579881248E+03  0.47000000000E+01 0. -1.
         -5    1    5    5    0  503  0.65570895540E+01  0.65043542575E+01  0.32594354917E+01  0.10863515428E+02  0.47000000000E+01 0. -1.
<mgrwt>
<rscale>  0 0.26986474E+03</rscale>
<asrwt>0</asrwt>
<pdfrwt beam="1">  1        1 0.24711129E+00 0.26986474E+03</pdfrwt>
<pdfrwt beam="2">  1       -1 0.17438656E-02 0.26986474E+03</pdfrwt>
<totfact> 0.51011168E+03</totfact>
</mgrwt>
</event>
<event>
 9    1  0.7984035E-001  0.2785285E+03  0.7818608E-02  0.1096495E+00
          1   -1    0    0  501    0  0.00000000000E+00  0.00000000000E+00  0.25502866814E+02  0.25502866814E+02  0.00000000000E+00 0.  1.
         -1   -1    0    0    0  501 -0.00000000000E+00 -0.00000000000E+00 -0.76048444835E+03  0.76048444835E+03  0.00000000000E+00 0.  1.
         35    2    1    2    0    0  0.71054273576E-14  0.00000000000E+00 -0.73498158154E+03  0.78598731517E+03  0.27852851632E+03 0.  0.
         25    2    3    3    0    0 -0.35705753205E+01 -0.16420760676E+02 -0.19368740389E+03  0.23094909199E+03  0.12466066852E+03 0.  0.
         25    2    3    3    0    0  0.35705753205E+01  0.16420760676E+02 -0.54129417765E+03  0.55503822318E+03  0.12159626655E+03 0.  0.
          5    1    4    4  502    0  0.37381871253E+02  0.40522675325E+02 -0.91100440960E+02  0.10658739070E+03  0.47000000000E+01 0. -1.
         -5    1    4    4    0  502 -0.40952446573E+02 -0.56943436001E+02 -0.10258696293E+03  0.12436170128E+03  0.47000000000E+01 0. -1.
          5    1    5    5  503    0  0.35858419202E+02 -0.42033450164E+02 -0.22429849506E+03  0.23105095119E+03  0.47000000000E+01 0.  1.
         -5    1    5    5    0  503 -0.32287843882E+02  0.58454210840E+02 -0.31699568260E+03  0.32398727199E+03  0.47000000000E+01 0.  1.
<mgrwt>
<rscale>  0 0.27852852E+03</rscale>
<asrwt>0</asrwt>
<pdfrwt beam="1">  1        1 0.39235182E-02 0.27852852E+03</pdfrwt>
<pdfrwt beam="2">  1       -1 0.11699760E+00 0.27852852E+03</pdfrwt>
<totfact> 0.16406011E+03</totfact>
</mgrwt>
</event>
<event>
 9    1  0.7984035E-001  0.2748646E+03  0.7818608E-02  0.1098527E+00
         -1   -1    0    0    0  501 -0.00000000000E+00  0.00000000000E+00  0.11906080369E+02  0.11906080369E+02  0.00000000000E+00 0. -1.
          1   -1    0    0  501    0  0.00000000000E+00 -0.00000000000E+00 -0.15863859242E+04  0.15863859242E+04  0.00000000000E+00 0. -1.
         35    2    1    2    0    0  0.00000000000E+00  0.00000000000E+00 -0.15744798438E+04  0.15982920045E+04  0.27486460892E+03 0.  0.
         25    2    3    3    0    0  0.47267475123E+01 -0.38025946370E+02 -0.54270185755E+03  0.55828440551E+03  0.12525117369E+03 0.  0.
         25    2    3    3    0    0 -0.47267475123E+01  0.38025946370E+02 -0.10317779862E+04  0.10400075990E+04  0.12482659324E+03 0.  0.
          5    1    4    4  502    0 -0.56032471208E+02  0.47052271419E+01 -0.24623674230E+03  0.25261908133E+03  0.47000000000E+01 0. -1.
         -5    1    4    4    0  502  0.60759218720E+02 -0.42731173512E+02 -0.29646511525E+03  0.30566532419E+03  0.47000000000E+01 0. -1.
          5    1    5    5  503    0  0.43031064478E+02  0.40601022667E+01 -0.78957276994E+03  0.79076887013E+03  0.47000000000E+01 0. -1.
         -5    1    5    5    0  503 -0.47757811990E+02  0.33965844104E+02 -0.24220521630E+03  0.24923872888E+03  0.47000000000E+01 0. -1.
<mgrwt>
<rscale>  0 0.27486461E+03</rscale>
<asrwt>0</asrwt>
<pdfrwt beam="1">  1        1 0.24405926E+00 0.27486461E+03</pdfrwt>
<pdfrwt beam="2">  1       -1 0.18317056E-02 0.27486461E+03</pdfrwt>
<totfact> 0.48933777E+03</totfact>
</mgrwt>
</event>
<event>
 9    1  0.7984035E-001  0.2740937E+03  0.7818608E-02  0.1098959E+00
         -3   -1    0    0    0  501 -0.00000000000E+00  0.00000000000E+00  0.13773764845E+02  0.13773764845E+02  0.00000000000E+00 0. -1.
          3   -1    0    0  501    0  0.00000000000E+00 -0.00000000000E+00 -0.13635953295E+04  0.13635953295E+04  0.00000000000E+00 0. -1.
         35    2    1    2    0    0  0.00000000000E+00 -0.71054273576E-14 -0.13498215646E+04  0.13773690943E+04  0.27409371691E+03 0.  0.
         25    2    3    3    0    0  0.22615849939E+02 -0.33398302319E+02 -0.87537567684E+03  0.88511624492E+03  0.12458438169E+03 0.  0.
         25    2    3    3    0    0 -0.22615849939E+02  0.33398302319E+02 -0.47444588781E+03  0.49225284942E+03  0.12484808381E+03 0.  0.
          5    1    4    4  502    0  0.38616546768E+02  0.54997503034E+01 -0.77737845946E+03  0.77837063419E+03  0.47000000000E+01 0. -1.
         -5    1    4    4    0  502 -0.16000696829E+02 -0.38898052622E+02 -0.97997217377E+02  0.10674561073E+03  0.47000000000E+01 0. -1.
          5    1    5    5  503    0 -0.60434756264E+02  0.88376345289E+00 -0.38491464252E+03  0.38965948318E+03  0.47000000000E+01 0.  1.
         -5    1    5    5    0  503  0.37818906325E+02  0.32514538866E+02 -0.89531245289E+02  0.10259336624E+03  0.47000000000E+01 0.  1.
<mgrwt>
<rscale>  0 0.27409372E+03</rscale>
<asrwt>0</asrwt>
<pdfrwt beam="1">  1        3 0.20978392E+00 0.27409372E+03</pdfrwt>
<pdfrwt beam="2">  1       -3 0.21190405E-02 0.27409372E+03</pdfrwt>
<totfact> 0.30948384E+02</totfact>
</mgrwt>
</event>
<event>
 9    1  0.7984035E-001  0.2731744E+03  0.7818608E-02  0.1099476E+00
          3   -1    0    0  501    0  0.00000000000E+00  0.00000000000E+00  0.55674779197E+02  0.55674779197E+02  0.00000000000E+00 0. -1.
         -3   -1    0    0    0  501 -0.00000000000E+00 -0.00000000000E+00 -0.33509013968E+03  0.33509013968E+03  0.00000000000E+00 0. -1.
         35    2    1    2    0    0  0.00000000000E+00  0.71054273576E-14 -0.27941536048E+03  0.39076491888E+03  0.27317444637E+03 0.  0.
         25    2    3    3    0    0 -0.36295768415E+01 -0.30128541360E+00 -0.21698248425E+03  0.25075044044E+03  0.12562292907E+03 0.  0.
         25    2    3    3    0    0  0.36295768415E+01  0.30128541360E+00 -0.62432876228E+02  0.14001447843E+03  0.12527140750E+03 0.  0.
          5    1    4    4  502    0  0.13827941211E+02  0.60460010594E+02 -0.11201030297E+03  0.12812112554E+03  0.47000000000E+01 0.  1.
         -5    1    4    4    0  502 -0.17457518052E+02 -0.60761296008E+02 -0.10497218129E+03  0.12262931490E+03  0.47000000000E+01 0.  1.
          5    1    5    5  503    0 -0.32052382191E+02  0.44134327745E+02  0.12187091987E+01  0.54761020276E+02  0.47000000000E+01 0.  1.
         -5    1    5    5    0  503  0.35681959033E+02 -0.43833042331E+02 -0.63651585427E+02  0.85253458157E+02  0.47000000000E+01 0.  1.
<mgrwt>
<rscale>  0 0.27317445E+03</rscale>
<asrwt>0</asrwt>
<pdfrwt beam="1">  1        3 0.85653507E-02 0.27317445E+03</pdfrwt>
<pdfrwt beam="2">  1       -3 0.51552329E-01 0.27317445E+03</pdfrwt>
<totfact> 0.90988186E+02</totfact>
</mgrwt>
</event>
<event>
 9    1  0.7984035E-001  0.2885609E+03  0.7818608E-02  0.1091103E+00
         -1   -1    0    0    0  501 -0.00000000000E+00  0.00000000000E+00  0.10766659469E+03  0.10766659469E+03  0.00000000000E+00 0. -1.
          1   -1    0    0  501    0  0.00000000000E+00 -0.00000000000E+00 -0.19334543494E+03  0.19334543494E+03  0.00000000000E+00 0. -1.
         35    2    1    2    0    0  0.00000000000E+00  0.00000000000E+00 -0.85678840255E+02  0.30101202963E+03  0.28856087454E+03 0.  0.
         25    2    3    3    0    0 -0.47757302880E+02  0.36552114138E+01  0.15208862078E+02  0.13303033394E+03  0.12317321021E+03 0.  0.
         25    2    3    3    0    0  0.47757302880E+02 -0.36552114138E+01 -0.10088770233E+03  0.16798169569E+03  0.12548068001E+03 0.  0.
          5    1    4    4  502    0  0.22954614120E+02 -0.27718221189E+02  0.37699258216E+02  0.52331043992E+02  0.47000000000E+01 0.  1.
         -5    1    4    4    0  502 -0.70711917000E+02  0.31373432603E+02 -0.22490396137E+02  0.80699289945E+02  0.47000000000E+01 0.  1.
          5    1    5    5  503    0  0.88729168842E+02 -0.14604687306E+02 -0.55945644020E+02  0.10601022300E+03  0.47000000000E+01 0.  1.
         -5    1    5    5    0  503 -0.40971865963E+02  0.10949475892E+02 -0.44942058314E+02  0.61971472697E+02  0.47000000000E+01 0.  1.
<mgrwt>
<rscale>  0 0.28856087E+03</rscale>
<asrwt>0</asrwt>
<pdfrwt beam="1">  1        1 0.29745452E-01 0.28856087E+03</pdfrwt>
<pdfrwt beam="2">  1       -1 0.16564091E-01 0.28856087E+03</pdfrwt>
<totfact> 0.41790519E+03</totfact>
</mgrwt>
</event>
<event>
 9    1  0.7984035E-001  0.2890459E+03  0.7818608E-02  0.1090848E+00
         -2   -1    0    0    0  501 -0.00000000000E+00  0.00000000000E+00  0.48868162836E+02  0.48868162836E+02  0.00000000000E+00 0.  1.
          2   -1    0    0  501    0  0.00000000000E+00 -0.00000000000E+00 -0.42741298240E+03  0.42741298240E+03  0.00000000000E+00 0.  1.
         35    2    1    2    0    0  0.14210854715E-13 -0.35527136788E-14 -0.37854481956E+03  0.47628114524E+03  0.28904592868E+03 0.  0.
         25    2    3    3    0    0 -0.62800017951E+02 -0.29754874272E+02 -0.22471312321E+03  0.26610491294E+03  0.12444533800E+03 0.  0.
         25    2    3    3    0    0  0.62800017951E+02  0.29754874272E+02 -0.15383169635E+03  0.21017623229E+03  0.12522245414E+03 0.  0.
          5    1    4    4  502    0  0.35375811045E+02  0.36616056126E+01 -0.83127835783E+02  0.90538292698E+02  0.47000000000E+01 0.  1.
         -5    1    4    4    0  502 -0.98175828996E+02 -0.33416479884E+02 -0.14158528743E+03  0.17556662024E+03  0.47000000000E+01 0.  1.
          5    1    5    5  503    0  0.66088347437E+02 -0.59622772844E+01 -0.17024173269E+02  0.68666810708E+02  0.47000000000E+01 0. -1.
         -5    1    5    5    0  503 -0.32883294857E+01  0.35717151556E+02 -0.13680752308E+03  0.14150942158E+03  0.47000000000E+01 0. -1.
<mgrwt>
<rscale>  0 0.28904593E+03</rscale>
<asrwt>0</asrwt>
<pdfrwt beam="1">  1        2 0.65755842E-01 0.28904593E+03</pdfrwt>
<pdfrwt beam="2">  1       -2 0.75181791E-02 0.28904593E+03</pdfrwt>
<totfact> 0.77047568E+03</totfact>
</mgrwt>
</event>
<event>
 9    1  0.7984035E-001  0.2988902E+03  0.7818608E-02  0.1085797E+00
          1   -1    0    0  501    0  0.00000000000E+00  0.00000000000E+00  0.65188198443E+03  0.65188198443E+03  0.00000000000E+00 0.  1.
         -1   -1    0    0    0  501 -0.00000000000E+00 -0.00000000000E+00 -0.34260550015E+02  0.34260550015E+02  0.00000000000E+00 0.  1.
         35    2    1    2    0    0 -0.35527136788E-14 -0.14210854715E-13  0.61762143441E+03  0.68614253444E+03  0.29889018272E+03 0.  0.
         25    2    3    3    0    0  0.21981905985E+01  0.81333196864E+02  0.32965451318E+03  0.36184036185E+03  0.12504570546E+03 0.  0.
         25    2    3    3    0    0 -0.21981905985E+01 -0.81333196864E+02  0.28796692123E+03  0.32430217259E+03  0.12500812160E+03 0.  0.
          5    1    4    4  502    0 -0.26269895191E+02 -0.26361931959E+02  0.75466100237E+02  0.84275032690E+02  0.47000000000E+01 0. -1.
         -5    1    4    4    0  502  0.28468085789E+02  0.10769512882E+03  0.25418841294E+03  0.27756532916E+03  0.47000000000E+01 0. -1.
          5    1    5    5  503    0 -0.43409259086E+02  0.12893673070E+02  0.74578074463E+02  0.87376139593E+02  0.47000000000E+01 0. -1.
         -5    1    5    5    0  503  0.41211068487E+02 -0.94226869935E+02  0.21338884677E+03  0.23692603299E+03  0.47000000000E+01 0. -1.
<mgrwt>
<rscale>  0 0.29889018E+03</rscale>
<asrwt>0</asrwt>
<pdfrwt beam="1">  1        1 0.10028953E+00 0.29889018E+03</pdfrwt>
<pdfrwt beam="2">  1       -1 0.52708543E-02 0.29889018E+03</pdfrwt>
<totfact> 0.50808536E+03</totfact>
</mgrwt>
</event>
<event>
 9    1  0.7984035E-001  0.2753911E+03  0.7818608E-02  0.1098233E+00
          2   -1    0    0  501    0  0.00000000000E+00  0.00000000000E+00  0.16004765644E+03  0.16004765644E+03  0.00000000000E+00 0.  1.
         -2   -1    0    0    0  501 -0.00000000000E+00 -0.00000000000E+00 -0.11846513645E+03  0.11846513645E+03  0.00000000000E+00 0.  1.
         35    2    1    2    0    0 -0.35527136788E-14  0.00000000000E+00  0.41582519989E+02  0.27851279289E+03  0.27539112156E+03 0.  0.
         25    2    3    3    0    0 -0.83117103044E+01 -0.11186092817E+02  0.76827934934E+02  0.14758052293E+03  0.12523284698E+03 0.  0.
         25    2    3    3    0    0  0.83117103044E+01  0.11186092817E+02 -0.35245414945E+02  0.13093226996E+03  0.12532680017E+03 0.  0.
          5    1    4    4  502    0  0.12951766903E+02 -0.59141812799E+02  0.85122723405E+01  0.61319255275E+02  0.47000000000E+01 0.  1.
         -5    1    4    4    0  502 -0.21263477208E+02  0.47955719982E+02  0.68315662593E+02  0.86261267655E+02  0.47000000000E+01 0.  1.
          5    1    5    5  503    0 -0.56502008106E+02 -0.11074562534E+01 -0.16024663850E+01  0.56730602657E+02  0.47000000000E+01 0.  1.
         -5    1    5    5    0  503  0.64813718410E+02  0.12293549070E+02 -0.33642948560E+02  0.74201667304E+02  0.47000000000E+01 0.  1.
<mgrwt>
<rscale>  0 0.27539112E+03</rscale>
<asrwt>0</asrwt>
<pdfrwt beam="1">  1        2 0.24622717E-01 0.27539112E+03</pdfrwt>
<pdfrwt beam="2">  1       -2 0.18225405E-01 0.27539112E+03</pdfrwt>
<totfact> 0.53572154E+03</totfact>
</mgrwt>
</event>
<event>
 9    1  0.7984035E-001  0.2738300E+03  0.7818608E-02  0.1099107E+00
         -2   -1    0    0    0  501 -0.00000000000E+00  0.00000000000E+00  0.12131251945E+03  0.12131251945E+03  0.00000000000E+00 0. -1.
          2   -1    0    0  501    0  0.00000000000E+00 -0.00000000000E+00 -0.15452417616E+03  0.15452417616E+03  0.00000000000E+00 0. -1.
         35    2    1    2    0    0  0.00000000000E+00 -0.35527136788E-14 -0.33211656714E+02  0.27583669560E+03  0.27382999927E+03 0.  0.
         25    2    3    3    0    0 -0.44778539346E+02  0.16799653149E+02  0.16143174349E+02  0.13428769419E+03  0.12443969142E+03 0.  0.
         25    2    3    3    0    0  0.44778539346E+02 -0.16799653149E+02 -0.49354831062E+02  0.14154900142E+03  0.12374519999E+03 0.  0.
          5    1    4    4  502    0 -0.58115902478E+02 -0.32853304736E+02  0.39402873786E+02  0.77662566372E+02  0.47000000000E+01 0.  1.
         -5    1    4    4    0  502  0.13337363132E+02  0.49652957885E+02 -0.23259699437E+02  0.56625127814E+02  0.47000000000E+01 0.  1.
          5    1    5    5  503    0  0.67112262894E+02  0.29633999103E+02 -0.54919960601E+01  0.73718937556E+02  0.47000000000E+01 0. -1.
         -5    1    5    5    0  503 -0.22333723548E+02 -0.46433652252E+02 -0.43862835002E+02  0.67830063862E+02  0.47000000000E+01 0. -1.
<mgrwt>
<rscale>  0 0.27383000E+03</rscale>
<asrwt>0</asrwt>
<pdfrwt beam="1">  1        2 0.23772950E-01 0.27383000E+03</pdfrwt>
<pdfrwt beam="2">  1       -2 0.18663464E-01 0.27383000E+03</pdfrwt>
<totfact> 0.53517988E+03</totfact>
</mgrwt>
</event>
<event>
 9    1  0.7984035E-001  0.2732723E+03  0.7818608E-02  0.1099421E+00
         -3   -1    0    0    0  501 -0.00000000000E+00  0.00000000000E+00  0.14376565943E+03  0.14376565943E+03  0.00000000000E+00 0.  1.
          3   -1    0    0  501    0  0.00000000000E+00 -0.00000000000E+00 -0.12986021263E+03  0.12986021263E+03  0.00000000000E+00 0.  1.
         35    2    1    2    0    0  0.00000000000E+00  0.35527136788E-14  0.13905446799E+02  0.27362587207E+03  0.27327231183E+03 0.  0.
         25    2    3    3    0    0  0.57367020306E+02 -0.13194960989E+02  0.35088337671E+02  0.13302711585E+03  0.11401727982E+03 0.  0.
         25    2    3    3    0    0 -0.57367020306E+02  0.13194960989E+02 -0.21182890872E+02  0.14059875622E+03  0.12591351544E+03 0.  0.
          5    1    4    4  502    0  0.78204616223E+02  0.26589005281E+02  0.17490358460E+02  0.84563229831E+02  0.47000000000E+01 0. -1.
         -5    1    4    4    0  502 -0.20837595917E+02 -0.39783966270E+02  0.17597979211E+02  0.48463886019E+02  0.47000000000E+01 0. -1.
          5    1    5    5  503    0 -0.63279140921E+02 -0.16842010976E+02  0.36508720875E+02  0.75119103491E+02  0.47000000000E+01 0. -1.
         -5    1    5    5    0  503  0.59121206148E+01  0.30036971965E+02 -0.57691611747E+02  0.65479652725E+02  0.47000000000E+01 0. -1.
<mgrwt>
<rscale>  0 0.27327231E+03</rscale>
<asrwt>0</asrwt>
<pdfrwt beam="1">  1        3 0.19978494E-01 0.27327231E+03</pdfrwt>
<pdfrwt beam="2">  1       -3 0.22117794E-01 0.27327231E+03</pdfrwt>
<totfact> 0.10715265E+03</totfact>
</mgrwt>
</event>
<event>
 9    1  0.7984035E-001  0.2725886E+03  0.7818608E-02  0.1099807E+00
         -2   -1    0    0    0  501 -0.00000000000E+00  0.00000000000E+00  0.18151735628E+02  0.18151735628E+02  0.00000000000E+00 0.  1.
          2   -1    0    0  501    0  0.00000000000E+00 -0.00000000000E+00 -0.10233803553E+04  0.10233803553E+04  0.00000000000E+00 0.  1.
         35    2    1    2    0    0  0.71054273576E-14  0.00000000000E+00 -0.10052286197E+04  0.10415320909E+04  0.27258855190E+03 0.  0.
         25    2    3    3    0    0 -0.24113855241E+02  0.15036029317E+02 -0.32253139078E+03  0.34702509243E+03  0.12486935793E+03 0.  0.
         25    2    3    3    0    0  0.24113855241E+02 -0.15036029317E+02 -0.68269722889E+03  0.69450699849E+03  0.12432579952E+03 0.  0.
          5    1    4    4  502    0  0.50419276107E+02  0.14921699778E+02 -0.15022172134E+03  0.15922756071E+03  0.47000000000E+01 0. -1.
         -5    1    4    4    0  502 -0.74533131348E+02  0.11432953933E+00 -0.17230966943E+03  0.18779753172E+03  0.47000000000E+01 0. -1.
          5    1    5    5  503    0  0.10767256454E+02  0.50988934617E+02 -0.42097909805E+03  0.42421845347E+03  0.47000000000E+01 0. -1.
         -5    1    5    5    0  503  0.13346598787E+02 -0.66024963934E+02 -0.26171813084E+03  0.27028854502E+03  0.47000000000E+01 0. -1.
<mgrwt>
<rscale>  0 0.27258855E+03</rscale>
<asrwt>0</asrwt>
<pdfrwt beam="1">  1        2 0.15744319E+00 0.27258855E+03</pdfrwt>
<pdfrwt beam="2">  1       -2 0.27925736E-02 0.27258855E+03</pdfrwt>
<totfact> 0.11941007E+04</totfact>
</mgrwt>
</event>
<event>
 8    1  0.7984035E-001  0.3364792E+03  0.7818608E-02  0.1068305E+00
         -2   -1    0    0    0  501 -0.00000000000E+00  0.00000000000E+00  0.16204798598E+02  0.16204798598E+02  0.00000000000E+00 0. -1.
          2   -1    0    0  501    0  0.00000000000E+00 -0.00000000000E+00 -0.17466783327E+04  0.17466783327E+04  0.00000000000E+00 0. -1.
         25    2    1    2    0    0 -0.58017677960E+02 -0.60685323582E+02 -0.47156229134E+03  0.49494978600E+03  0.12472183687E+03 0.  0.
         25    2    1    2    0    0  0.58017677960E+02  0.60685323582E+02 -0.12589112428E+04  0.12679333453E+04  0.12549379074E+03 0.  0.
          5    1    3    3  502    0 -0.28325736360E+02  0.21627147037E+02 -0.30152485013E+03  0.30366001725E+03  0.47000000000E+01 0.  1.
         -5    1    3    3    0  502 -0.29691941600E+02 -0.82312470619E+02 -0.17003744121E+03  0.19128976875E+03  0.47000000000E+01 0.  1.
          5    1    4    4  503    0  0.49739581089E+01  0.83868197971E+02 -0.52219325849E+03  0.52892958331E+03  0.47000000000E+01 0.  1.
         -5    1    4    4    0  503  0.53043719851E+02 -0.23182874389E+02 -0.73671798428E+03  0.73900376199E+03  0.47000000000E+01 0.  1.
<mgrwt>
<rscale>  0 0.33647925E+03</rscale>
<asrwt>0</asrwt>
<pdfrwt beam="1">  1        2 0.26871976E+00 0.33647925E+03</pdfrwt>
<pdfrwt beam="2">  1       -2 0.24930458E-02 0.33647925E+03</pdfrwt>
<totfact> 0.56399446E+03</totfact>
</mgrwt>
</event>
<event>
 9    1  0.7984035E-001  0.2731497E+03  0.7818608E-02  0.1099490E+00
          4   -1    0    0  501    0  0.00000000000E+00  0.00000000000E+00  0.29135425884E+03  0.29135425884E+03  0.00000000000E+00 0. -1.
         -4   -1    0    0    0  501 -0.00000000000E+00 -0.00000000000E+00 -0.64020667623E+02  0.64020667623E+02  0.00000000000E+00 0. -1.
         35    2    1    2    0    0 -0.21316282073E-13  0.35527136788E-14  0.22733359121E+03  0.35537492646E+03  0.27314973305E+03 0.  0.
         25    2    3    3    0    0 -0.48178738888E+02  0.28288890688E+02  0.11646729666E+03  0.17996723837E+03  0.12530811417E+03 0.  0.
         25    2    3    3    0    0  0.48178738888E+02 -0.28288890688E+02  0.11086629456E+03  0.17540768809E+03  0.12391557431E+03 0.  0.
          5    1    4    4  502    0 -0.97040272229E+01  0.61261227421E+02  0.11419023825E+02  0.63242313640E+02  0.47000000000E+01 0. -1.
         -5    1    4    4    0  502 -0.38474711665E+02 -0.32972336732E+02  0.10504827283E+03  0.11672492473E+03  0.47000000000E+01 0. -1.
          5    1    5    5  503    0 -0.29403759345E+02 -0.40926855767E+02  0.70868384111E+02  0.87086201278E+02  0.47000000000E+01 0. -1.
         -5    1    5    5    0  503  0.77582498233E+02  0.12637965078E+02  0.39997910445E+02  0.88321486815E+02  0.47000000000E+01 0. -1.
<mgrwt>
<rscale>  0 0.27314973E+03</rscale>
<asrwt>0</asrwt>
<pdfrwt beam="1">  1        4 0.44823731E-01 0.27314973E+03</pdfrwt>
<pdfrwt beam="2">  1       -4 0.98493337E-02 0.27314973E+03</pdfrwt>
<totfact> 0.70644853E+02</totfact>
</mgrwt>
</event>
<event>
 9    1  0.7984035E-001  0.3059747E+03  0.7818608E-02  0.1082291E+00
          3   -1    0    0  501    0  0.00000000000E+00  0.00000000000E+00  0.70775119279E+02  0.70775119279E+02  0.00000000000E+00 0.  1.
         -3   -1    0    0    0  501 -0.00000000000E+00 -0.00000000000E+00 -0.33069713617E+03  0.33069713617E+03  0.00000000000E+00 0.  1.
         35    2    1    2    0    0  0.00000000000E+00 -0.71054273576E-14 -0.25992201689E+03  0.40147225545E+03  0.30597469998E+03 0.  0.
         25    2    3    3    0    0 -0.52970007348E+02  0.50138687012E+01 -0.22401056781E+03  0.26171655807E+03  0.12443416621E+03 0.  0.
         25    2    3    3    0    0  0.52970007348E+02 -0.50138687012E+01 -0.35911449082E+02  0.13975569738E+03  0.12414129940E+03 0.  0.
          5    1    4    4  502    0 -0.35452510438E+02 -0.58212035836E+02 -0.13173705762E+03  0.14839900256E+03  0.47000000000E+01 0.  1.
         -5    1    4    4    0  502 -0.17517496909E+02  0.63225904538E+02 -0.92273510189E+02  0.11331755550E+03  0.47000000000E+01 0.  1.
          5    1    5    5  503    0  0.39446565715E+01  0.56122381416E+02 -0.12373331028E+02  0.57796810742E+02  0.47000000000E+01 0.  1.
         -5    1    5    5    0  503  0.49025350776E+02 -0.61136250117E+02 -0.23538118054E+02  0.81958886636E+02  0.47000000000E+01 0.  1.
<mgrwt>
<rscale>  0 0.30597470E+03</rscale>
<asrwt>0</asrwt>
<pdfrwt beam="1">  1        3 0.10888480E-01 0.30597470E+03</pdfrwt>
<pdfrwt beam="2">  1       -3 0.50876482E-01 0.30597470E+03</pdfrwt>
<totfact> 0.63339267E+02</totfact>
</mgrwt>
</event>
<event>
 9    1  0.7984035E-001  0.2841782E+03  0.7818608E-02  0.1093429E+00
         -1   -1    0    0    0  501 -0.00000000000E+00  0.00000000000E+00  0.21779250628E+02  0.21779250628E+02  0.00000000000E+00 0. -1.
          1   -1    0    0  501    0  0.00000000000E+00 -0.00000000000E+00 -0.92699755779E+03  0.92699755779E+03  0.00000000000E+00 0. -1.
         35    2    1    2    0    0 -0.71054273576E-14  0.71054273576E-14 -0.90521830717E+03  0.94877680842E+03  0.28417819862E+03 0.  0.
         25    2    3    3    0    0 -0.93219992095E+01  0.21448604054E+02 -0.60744573488E+03  0.62059278700E+03  0.12489253050E+03 0.  0.
         25    2    3    3    0    0  0.93219992095E+01 -0.21448604054E+02 -0.29777257229E+03  0.32818402142E+03  0.13597538315E+03 0.  0.
          5    1    4    4  502    0  0.31139893483E+02  0.12141619062E+02 -0.54132525045E+03  0.54237646395E+03  0.47000000000E+01 0. -1.
         -5    1    4    4    0  502 -0.40461892692E+02  0.93069849922E+01 -0.66120484429E+02  0.78216323047E+02  0.47000000000E+01 0. -1.
          5    1    5    5  503    0 -0.22098845211E+02 -0.64152423642E+02 -0.85037220461E+02  0.10889128194E+03  0.47000000000E+01 0.  1.
         -5    1    5    5    0  503  0.31420844420E+02  0.42703819589E+02 -0.21273535183E+03  0.21929273948E+03  0.47000000000E+01 0.  1.
<mgrwt>
<rscale>  0 0.28417820E+03</rscale>
<asrwt>0</asrwt>
<pdfrwt beam="1">  1        1 0.14261496E+00 0.28417820E+03</pdfrwt>
<pdfrwt beam="2">  1       -1 0.33506551E-02 0.28417820E+03</pdfrwt>
<totfact> 0.58227379E+03</totfact>
</mgrwt>
</event>
<event>
 9    1  0.7984035E-001  0.2754185E+03  0.7818608E-02  0.1098218E+00
          2   -1    0    0  501    0  0.00000000000E+00  0.00000000000E+00  0.64003769036E+03  0.64003769036E+03  0.00000000000E+00 0.  1.
         -2   -1    0    0    0  501 -0.00000000000E+00 -0.00000000000E+00 -0.29629256910E+02  0.29629256910E+02  0.00000000000E+00 0.  1.
         35    2    1    2    0    0  0.00000000000E+00  0.71054273576E-14  0.61040843345E+03  0.66966694727E+03  0.27541852632E+03 0.  0.
         25    2    3    3    0    0  0.83664887344E+01  0.10137914927E+01  0.44497164833E+03  0.46232986137E+03  0.12521224778E+03 0.  0.
         25    2    3    3    0    0 -0.83664887344E+01 -0.10137914927E+01  0.16543678512E+03  0.20733708589E+03  0.12469286832E+03 0.  0.
          5    1    4    4  502    0 -0.31954975552E+02  0.28719596872E+02  0.37106335540E+03  0.37357200033E+03  0.47000000000E+01 0. -1.
         -5    1    4    4    0  502  0.40321464286E+02 -0.27705805380E+02  0.73908292922E+02  0.88757861041E+02  0.47000000000E+01 0. -1.
          5    1    5    5  503    0 -0.33230125842E+02 -0.42204737889E+02  0.26206249092E+02  0.59952803565E+02  0.47000000000E+01 0.  1.
         -5    1    5    5    0  503  0.24863637108E+02  0.41190946396E+02  0.13923053603E+03  0.14738428233E+03  0.47000000000E+01 0.  1.
<mgrwt>
<rscale>  0 0.27541853E+03</rscale>
<asrwt>0</asrwt>
<pdfrwt beam="1">  1        2 0.98467327E-01 0.27541853E+03</pdfrwt>
<pdfrwt beam="2">  1       -2 0.45583477E-02 0.27541853E+03</pdfrwt>
<totfact> 0.10491386E+04</totfact>
</mgrwt>
</event>
<event>
 9    1  0.7984035E-001  0.2750465E+03  0.7818608E-02  0.1098426E+00
         -1   -1    0    0    0  501 -0.00000000000E+00  0.00000000000E+00  0.32139247329E+02  0.32139247329E+02  0.00000000000E+00 0.  1.
          1   -1    0    0  501    0  0.00000000000E+00 -0.00000000000E+00 -0.58845931823E+03  0.58845931823E+03  0.00000000000E+00 0.  1.
         35    2    1    2    0    0 -0.17763568394E-14  0.00000000000E+00 -0.55632007090E+03  0.62059856556E+03  0.27504646569E+03 0.  0.
         25    2    3    3    0    0 -0.50524759071E+01  0.55897345217E+02 -0.29134739185E+03  0.32195201285E+03  0.12497901873E+03 0.  0.
         25    2    3    3    0    0  0.50524759071E+01 -0.55897345217E+02 -0.26497267905E+03  0.29864655271E+03  0.12581415695E+03 0.  0.
          5    1    4    4  502    0 -0.22428547023E+01 -0.40076877654E+02 -0.98654580488E+02  0.10661145703E+03  0.47000000000E+01 0. -1.
         -5    1    4    4    0  502 -0.28096212048E+01  0.95974222871E+02 -0.19269281136E+03  0.21534055581E+03  0.47000000000E+01 0. -1.
          5    1    5    5  503    0 -0.15182659198E+02 -0.89265344257E+02 -0.13315690565E+03  0.16109520895E+03  0.47000000000E+01 0.  1.
         -5    1    5    5    0  503  0.20235135105E+02  0.33367999039E+02 -0.13181577340E+03  0.13755134376E+03  0.47000000000E+01 0.  1.
<mgrwt>
<rscale>  0 0.27504647E+03</rscale>
<asrwt>0</asrwt>
<pdfrwt beam="1">  1        1 0.90532208E-01 0.27504647E+03</pdfrwt>
<pdfrwt beam="2">  1       -1 0.49444993E-02 0.27504647E+03</pdfrwt>
<totfact> 0.64436719E+03</totfact>
</mgrwt>
</event>
<event>
 9    1  0.7984035E-001  0.2720898E+03  0.7818608E-02  0.1100089E+00
         -2   -1    0    0    0  501 -0.00000000000E+00  0.00000000000E+00  0.99865708756E+01  0.99865708756E+01  0.00000000000E+00 0.  1.
          2   -1    0    0  501    0  0.00000000000E+00 -0.00000000000E+00 -0.18533101264E+04  0.18533101264E+04  0.00000000000E+00 0.  1.
         35    2    1    2    0    0  0.17763568394E-14  0.35527136788E-14 -0.18433235556E+04  0.18632966973E+04  0.27208978615E+03 0.  0.
         25    2    3    3    0    0  0.17002997082E+01  0.83075914087E+01 -0.57038827194E+03  0.58418700353E+03  0.12593556782E+03 0.  0.
         25    2    3    3    0    0 -0.17002997082E+01 -0.83075914087E+01 -0.12729352836E+04  0.12791096938E+04  0.12524162777E+03 0.  0.
          5    1    4    4  502    0 -0.80405689292E+01 -0.28372503776E+02 -0.29593479637E+02  0.42041809622E+02  0.47000000000E+01 0. -1.
         -5    1    4    4    0  502  0.97408686374E+01  0.36680095185E+02 -0.54079479230E+03  0.54214519391E+03  0.47000000000E+01 0. -1.
          5    1    5    5  503    0  0.43627459077E+02  0.37592244392E+02 -0.74265509863E+03  0.74489946808E+03  0.47000000000E+01 0.  1.
         -5    1    5    5    0  503 -0.45327758785E+02 -0.45899835801E+02 -0.53028018499E+03  0.53421022570E+03  0.47000000000E+01 0.  1.
<mgrwt>
<rscale>  0 0.27208979E+03</rscale>
<asrwt>0</asrwt>
<pdfrwt beam="1">  1        2 0.28512441E+00 0.27208979E+03</pdfrwt>
<pdfrwt beam="2">  1       -2 0.15363967E-02 0.27208979E+03</pdfrwt>
<totfact> 0.10105008E+04</totfact>
</mgrwt>
</event>
<event>
 9    1  0.7984035E-001  0.2749863E+03  0.7818608E-02  0.1098459E+00
          2   -1    0    0  501    0  0.00000000000E+00  0.00000000000E+00  0.18298084529E+03  0.18298084529E+03  0.00000000000E+00 0. -1.
         -2   -1    0    0    0  501 -0.00000000000E+00 -0.00000000000E+00 -0.10331335386E+03  0.10331335386E+03  0.00000000000E+00 0. -1.
         35    2    1    2    0    0  0.35527136788E-14  0.71054273576E-14  0.79667491427E+02  0.28629419915E+03  0.27498628926E+03 0.  0.
         25    2    3    3    0    0 -0.22590145133E+02 -0.37321704464E+02  0.51655325701E+02  0.15153414154E+03  0.13561378653E+03 0.  0.
         25    2    3    3    0    0  0.22590145133E+02  0.37321704464E+02  0.28012165726E+02  0.13476005761E+03  0.12438797136E+03 0.  0.
          5    1    4    4  502    0 -0.63894615969E+02  0.63167338380E+01 -0.10188945525E+02  0.65179196736E+02  0.47000000000E+01 0.  1.
         -5    1    4    4    0  502  0.41304470836E+02 -0.43638438302E+02  0.61844271226E+02  0.86354944804E+02  0.47000000000E+01 0.  1.
          5    1    5    5  503    0  0.53141033357E+02  0.65375159551E+02 -0.19585162018E+00  0.84380147371E+02  0.47000000000E+01 0.  1.
         -5    1    5    5    0  503 -0.30550888224E+02 -0.28053455086E+02  0.28208017346E+02  0.50379910243E+02  0.47000000000E+01 0.  1.
<mgrwt>
<rscale>  0 0.27498629E+03</rscale>
<asrwt>0</asrwt>
<pdfrwt beam="1">  1        2 0.28150899E-01 0.27498629E+03</pdfrwt>
<pdfrwt beam="2">  1       -2 0.15894362E-01 0.27498629E+03</pdfrwt>
<totfact> 0.58060607E+03</totfact>
</mgrwt>
</event>
<event>
 9    1  0.7984035E-001  0.2767655E+03  0.7818608E-02  0.1097469E+00
          3   -1    0    0  501    0  0.00000000000E+00  0.00000000000E+00  0.11216501243E+03  0.11216501243E+03  0.00000000000E+00 0. -1.
         -3   -1    0    0    0  501 -0.00000000000E+00 -0.00000000000E+00 -0.17072866778E+03  0.17072866778E+03  0.00000000000E+00 0. -1.
         35    2    1    2    0    0  0.71054273576E-14  0.00000000000E+00 -0.58563655353E+02  0.28289368020E+03  0.27676548298E+03 0.  0.
         25    2    3    3    0    0 -0.49996107842E+02 -0.14149362175E+02 -0.58184617265E+02  0.14763672941E+03  0.12534487997E+03 0.  0.
         25    2    3    3    0    0  0.49996107842E+02  0.14149362175E+02 -0.37903808765E+00  0.13525695079E+03  0.12487787562E+03 0.  0.
          5    1    4    4  502    0 -0.61277005565E+02 -0.53939269527E+02 -0.66247732766E+02  0.10523862554E+03  0.47000000000E+01 0.  1.
         -5    1    4    4    0  502  0.11280897723E+02  0.39789907352E+02  0.80631155012E+01  0.42398103874E+02  0.47000000000E+01 0.  1.
          5    1    5    5  503    0 -0.22296777478E+02 -0.39091456027E+02 -0.26214845983E+01  0.45323839221E+02  0.47000000000E+01 0. -1.
         -5    1    5    5    0  503  0.72292885320E+02  0.53240818202E+02  0.22424465106E+01  0.89933111572E+02  0.47000000000E+01 0. -1.
<mgrwt>
<rscale>  0 0.27676548E+03</rscale>
<asrwt>0</asrwt>
<pdfrwt beam="1">  1        3 0.17256156E-01 0.27676548E+03</pdfrwt>
<pdfrwt beam="2">  1       -3 0.26265949E-01 0.27676548E+03</pdfrwt>
<totfact> 0.10167107E+03</totfact>
</mgrwt>
</event>
<event>
 9    1  0.7984035E-001  0.2737980E+03  0.7818608E-02  0.1099125E+00
          1   -1    0    0  501    0  0.00000000000E+00  0.00000000000E+00  0.72790891923E+03  0.72790891923E+03  0.00000000000E+00 0. -1.
         -1   -1    0    0    0  501 -0.00000000000E+00 -0.00000000000E+00 -0.25746815373E+02  0.25746815373E+02  0.00000000000E+00 0. -1.
         35    2    1    2    0    0  0.71054273576E-14  0.00000000000E+00  0.70216210385E+03  0.75365573460E+03  0.27379800256E+03 0.  0.
         25    2    3    3    0    0  0.16947835461E+02 -0.40878393590E+02  0.25431569025E+03  0.28696468729E+03  0.12535545163E+03 0.  0.
         25    2    3    3    0    0 -0.16947835461E+02  0.40878393590E+02  0.44784641360E+03  0.46669104731E+03  0.12359551478E+03 0.  0.
          5    1    4    4  502    0  0.36784099996E+02 -0.78482645831E+02  0.19845408511E+03  0.21660727044E+03  0.47000000000E+01 0.  1.
         -5    1    4    4    0  502 -0.19836264535E+02  0.37604252241E+02  0.55861605142E+02  0.70357416854E+02  0.47000000000E+01 0.  1.
          5    1    5    5  503    0  0.48029770294E+02  0.14849744151E+02  0.28405498812E+03  0.28850771222E+03  0.47000000000E+01 0.  1.
         -5    1    5    5    0  503 -0.64977605755E+02  0.26028649439E+02  0.16379142548E+03  0.17818333509E+03  0.47000000000E+01 0.  1.
<mgrwt>
<rscale>  0 0.27379800E+03</rscale>
<asrwt>0</asrwt>
<pdfrwt beam="1">  1        1 0.11198597E+00 0.27379800E+03</pdfrwt>
<pdfrwt beam="2">  1       -1 0.39610491E-02 0.27379800E+03</pdfrwt>
<totfact> 0.66207359E+03</totfact>
</mgrwt>
</event>
<event>
 9    1  0.7984035E-001  0.2739414E+03  0.7818608E-02  0.1099045E+00
         -2   -1    0    0    0  501 -0.00000000000E+00  0.00000000000E+00  0.13776042186E+02  0.13776042186E+02  0.00000000000E+00 0.  1.
          2   -1    0    0  501    0  0.00000000000E+00 -0.00000000000E+00 -0.13618547886E+04  0.13618547886E+04  0.00000000000E+00 0.  1.
         35    2    1    2    0    0  0.00000000000E+00  0.00000000000E+00 -0.13480787464E+04  0.13756308308E+04  0.27394137343E+03 0.  0.
         25    2    3    3    0    0 -0.13563985891E+02  0.51451046190E+02 -0.76210454313E+03  0.77415199861E+03  0.12520699030E+03 0.  0.
         25    2    3    3    0    0  0.13563985891E+02 -0.51451046190E+02 -0.58597420328E+03  0.60147883218E+03  0.12481917633E+03 0.  0.
          5    1    4    4  502    0  0.55776578773E+02  0.20961497642E+02 -0.30730456033E+03  0.31306324269E+03  0.47000000000E+01 0. -1.
         -5    1    4    4    0  502 -0.69340564664E+02  0.30489548549E+02 -0.45479998280E+03  0.46108875591E+03  0.47000000000E+01 0. -1.
          5    1    5    5  503    0  0.50024719020E+02 -0.74735654455E+02 -0.44160389686E+03  0.45069278038E+03  0.47000000000E+01 0. -1.
         -5    1    5    5    0  503 -0.36460733129E+02  0.23284608265E+02 -0.14437030642E+03  0.15078605180E+03  0.47000000000E+01 0. -1.
<mgrwt>
<rscale>  0 0.27394137E+03</rscale>
<asrwt>0</asrwt>
<pdfrwt beam="1">  1        2 0.20951608E+00 0.27394137E+03</pdfrwt>
<pdfrwt beam="2">  1       -2 0.21193915E-02 0.27394137E+03</pdfrwt>
<totfact> 0.11501327E+04</totfact>
</mgrwt>
</event>
<event>
 9    1  0.7984035E-001  0.2758238E+03  0.7818608E-02  0.1097992E+00
         -1   -1    0    0    0  501 -0.00000000000E+00  0.00000000000E+00  0.34293036813E+02  0.34293036813E+02  0.00000000000E+00 0. -1.
          1   -1    0    0  501    0  0.00000000000E+00 -0.00000000000E+00 -0.55462239386E+03  0.55462239386E+03  0.00000000000E+00 0. -1.
         35    2    1    2    0    0  0.00000000000E+00  0.00000000000E+00 -0.52032935705E+03  0.58891543067E+03  0.27582375655E+03 0.  0.
         25    2    3    3    0    0  0.35497576022E+02 -0.99457601114E+01 -0.35778728021E+03  0.38063891051E+03  0.12456021140E+03 0.  0.
         25    2    3    3    0    0 -0.35497576022E+02  0.99457601114E+01 -0.16254207684E+03  0.20827652017E+03  0.12490070481E+03 0.  0.
          5    1    4    4  502    0  0.77052195592E+02 -0.20919696445E+02 -0.16908300176E+03  0.18704498398E+03  0.47000000000E+01 0. -1.
         -5    1    4    4    0  502 -0.41554619570E+02  0.10973936333E+02 -0.18870427845E+03  0.19359392653E+03  0.47000000000E+01 0. -1.
          5    1    5    5  503    0 -0.30546380271E+02  0.14041551428E+02  0.10126647453E+02  0.35424363125E+02  0.47000000000E+01 0.  1.
         -5    1    5    5    0  503 -0.49511957508E+01 -0.40957913165E+01 -0.17266872429E+03  0.17285215704E+03  0.47000000000E+01 0.  1.
<mgrwt>
<rscale>  0 0.27582376E+03</rscale>
<asrwt>0</asrwt>
<pdfrwt beam="1">  1        1 0.85326521E-01 0.27582376E+03</pdfrwt>
<pdfrwt beam="2">  1       -1 0.52758519E-02 0.27582376E+03</pdfrwt>
<totfact> 0.63414090E+03</totfact>
</mgrwt>
</event>
<event>
 9    1  0.7984035E-001  0.2735416E+03  0.7818608E-02  0.1099270E+00
         -2   -1    0    0    0  501 -0.00000000000E+00  0.00000000000E+00  0.23866907505E+02  0.23866907505E+02  0.00000000000E+00 0.  1.
          2   -1    0    0  501    0  0.00000000000E+00 -0.00000000000E+00 -0.78377344815E+03  0.78377344815E+03  0.00000000000E+00 0.  1.
         35    2    1    2    0    0  0.71054273576E-14  0.00000000000E+00 -0.75990654065E+03  0.80764035566E+03  0.27354157557E+03 0.  0.
         25    2    3    3    0    0 -0.52935276423E+02  0.31859721203E+01 -0.43756048420E+03  0.45761762216E+03  0.12305452802E+03 0.  0.
         25    2    3    3    0    0  0.52935276423E+02 -0.31859721203E+01 -0.32234605644E+03  0.35002273350E+03  0.12568468463E+03 0.  0.
          5    1    4    4  502    0  0.28008257035E+02 -0.16205935022E+02 -0.25297226397E+03  0.25507675537E+03  0.47000000000E+01 0.  1.
         -5    1    4    4    0  502 -0.80943533458E+02  0.19391907142E+02 -0.18458822024E+03  0.20254086679E+03  0.47000000000E+01 0.  1.
          5    1    5    5  503    0  0.12245148981E+02 -0.61846215359E+02 -0.12439385299E+03  0.13953787546E+03  0.47000000000E+01 0.  1.
         -5    1    5    5    0  503  0.40690127442E+02  0.58660243239E+02 -0.19795220346E+03  0.21048485803E+03  0.47000000000E+01 0.  1.
<mgrwt>
<rscale>  0 0.27354158E+03</rscale>
<asrwt>0</asrwt>
<pdfrwt beam="1">  1        2 0.12058052E+00 0.27354158E+03</pdfrwt>
<pdfrwt beam="2">  1       -2 0.36718324E-02 0.27354158E+03</pdfrwt>
<totfact> 0.11346508E+04</totfact>
</mgrwt>
</event>
<event>
 9    1  0.7984035E-001  0.2760448E+03  0.7818608E-02  0.1097869E+00
          1   -1    0    0  501    0  0.00000000000E+00  0.00000000000E+00  0.72591000071E+02  0.72591000071E+02  0.00000000000E+00 0.  1.
         -1   -1    0    0    0  501 -0.00000000000E+00 -0.00000000000E+00 -0.26243166132E+03  0.26243166132E+03  0.00000000000E+00 0.  1.
         35    2    1    2    0    0 -0.71054273576E-14  0.00000000000E+00 -0.18984066125E+03  0.33502266139E+03  0.27604475540E+03 0.  0.
         25    2    3    3    0    0  0.40912037798E+02 -0.14971635698E+02 -0.44340570857E+02  0.13793900324E+03  0.12313869286E+03 0.  0.
         25    2    3    3    0    0 -0.40912037798E+02  0.14971635698E+02 -0.14550009039E+03  0.19708365815E+03  0.12559357982E+03 0.  0.
          5    1    4    4  502    0 -0.43611727766E+02  0.23639743061E+01 -0.10713917383E+02  0.45215585796E+02  0.47000000000E+01 0. -1.
         -5    1    4    4    0  502  0.84523765564E+02 -0.17335610005E+02 -0.33626653474E+02  0.92723417448E+02  0.47000000000E+01 0. -1.
          5    1    5    5  503    0  0.44038677705E+02 -0.17775236045E+01 -0.65604789454E+02  0.79174763173E+02  0.47000000000E+01 0.  1.
         -5    1    5    5    0  503 -0.84950715503E+02  0.16749159303E+02 -0.79895300937E+02  0.11790889497E+03  0.47000000000E+01 0.  1.
<mgrwt>
<rscale>  0 0.27604476E+03</rscale>
<asrwt>0</asrwt>
<pdfrwt beam="1">  1        1 0.11167846E-01 0.27604476E+03</pdfrwt>
<pdfrwt beam="2">  1       -1 0.40374102E-01 0.27604476E+03</pdfrwt>
<totfact> 0.33410820E+03</totfact>
</mgrwt>
</event>
<event>
 9    1  0.7984035E-001  0.2781495E+03  0.7818608E-02  0.1096704E+00
         -3   -1    0    0    0  501 -0.00000000000E+00  0.00000000000E+00  0.19276281370E+02  0.19276281370E+02  0.00000000000E+00 0.  1.
          3   -1    0    0  501    0  0.00000000000E+00 -0.00000000000E+00 -0.10033982730E+04  0.10033982730E+04  0.00000000000E+00 0.  1.
         35    2    1    2    0    0 -0.21316282073E-13  0.71054273576E-14 -0.98412199163E+03  0.10226745544E+04  0.27814950970E+03 0.  0.
         25    2    3    3    0    0  0.63633158876E+02  0.10260245686E+02 -0.50204033154E+03  0.52046387939E+03  0.12117633309E+03 0.  0.
         25    2    3    3    0    0 -0.63633158876E+02 -0.10260245686E+02 -0.48208166009E+03  0.50221067499E+03  0.12513346285E+03 0.  0.
          5    1    4    4  502    0 -0.23945062122E+02  0.37865406043E+02 -0.18042475660E+03  0.18596326995E+03  0.47000000000E+01 0.  1.
         -5    1    4    4    0  502  0.87578220998E+02 -0.27605160357E+02 -0.32161557494E+03  0.33450060944E+03  0.47000000000E+01 0.  1.
          5    1    5    5  503    0 -0.12019380094E+02  0.32832236225E+02 -0.36813603453E+03  0.36982245896E+03  0.47000000000E+01 0. -1.
         -5    1    5    5    0  503 -0.51613778782E+02 -0.43092481911E+02 -0.11394562556E+03  0.13238821602E+03  0.47000000000E+01 0. -1.
<mgrwt>
<rscale>  0 0.27814951E+03</rscale>
<asrwt>0</asrwt>
<pdfrwt beam="1">  1        3 0.15436897E+00 0.27814951E+03</pdfrwt>
<pdfrwt beam="2">  1       -3 0.29655817E-02 0.27814951E+03</pdfrwt>
<totfact> 0.42027163E+02</totfact>
</mgrwt>
</event>
<event>
 9    1  0.7984035E-001  0.2778135E+03  0.7818608E-02  0.1096889E+00
          2   -1    0    0  501    0  0.00000000000E+00  0.00000000000E+00  0.17944803719E+04  0.17944803719E+04  0.00000000000E+00 0.  1.
         -2   -1    0    0    0  501 -0.00000000000E+00 -0.00000000000E+00 -0.10752461412E+02  0.10752461412E+02  0.00000000000E+00 0.  1.
         35    2    1    2    0    0  0.00000000000E+00  0.00000000000E+00  0.17837279105E+04  0.18052328334E+04  0.27781346946E+03 0.  0.
         25    2    3    3    0    0  0.56362912366E+02  0.23408422763E+02  0.93801619906E+03  0.94836275510E+03  0.12566938142E+03 0.  0.
         25    2    3    3    0    0 -0.56362912366E+02 -0.23408422763E+02  0.84571171148E+03  0.85687007826E+03  0.12358519302E+03 0.  0.
          5    1    4    4  502    0  0.40273243144E+02 -0.50004001620E+02  0.42318534598E+03  0.42805404022E+03  0.47000000000E+01 0.  1.
         -5    1    4    4    0  502  0.16089669222E+02  0.73412424383E+02  0.51483085307E+03  0.52030871488E+03  0.47000000000E+01 0.  1.
          5    1    5    5  503    0  0.26535323516E+02 -0.41693176087E+02  0.22854406495E+03  0.23387373506E+03  0.47000000000E+01 0. -1.
         -5    1    5    5    0  503 -0.82898235882E+02  0.18284753324E+02  0.61716764653E+03  0.62299634320E+03  0.47000000000E+01 0. -1.
<mgrwt>
<rscale>  0 0.27781347E+03</rscale>
<asrwt>0</asrwt>
<pdfrwt beam="1">  1        2 0.27607366E+00 0.27781347E+03</pdfrwt>
<pdfrwt beam="2">  1       -2 0.16542263E-02 0.27781347E+03</pdfrwt>
<totfact> 0.97396902E+03</totfact>
</mgrwt>
</event>
<event>
 9    1  0.7984035E-001  0.2750537E+03  0.7818608E-02  0.1098422E+00
          1   -1    0    0  501    0  0.00000000000E+00  0.00000000000E+00  0.57797315045E+03  0.57797315045E+03  0.00000000000E+00 0.  1.
         -1   -1    0    0    0  501 -0.00000000000E+00 -0.00000000000E+00 -0.32724074050E+02  0.32724074050E+02  0.00000000000E+00 0.  1.
         35    2    1    2    0    0  0.71054273576E-14  0.00000000000E+00  0.54524907640E+03  0.61069722450E+03  0.27505371239E+03 0.  0.
         25    2    3    3    0    0  0.17286276980E+02  0.37707547373E+02  0.36259223190E+03  0.38575083579E+03  0.12493961013E+03 0.  0.
         25    2    3    3    0    0 -0.17286276980E+02 -0.37707547373E+02  0.18265684450E+03  0.22494638871E+03  0.12456596826E+03 0.  0.
          5    1    4    4  502    0  0.25498690401E+02 -0.14674832041E+02  0.13648637962E+02  0.32770554249E+02  0.47000000000E+01 0. -1.
         -5    1    4    4    0  502 -0.82124134210E+01  0.52382379414E+02  0.34894359394E+03  0.35298028154E+03  0.47000000000E+01 0. -1.
          5    1    5    5  503    0  0.41866803754E+02 -0.50978242817E+02  0.12360648847E+03  0.14018653462E+03  0.47000000000E+01 0.  1.
         -5    1    5    5    0  503 -0.59153080734E+02  0.13270695444E+02  0.59050356038E+02  0.84759854094E+02  0.47000000000E+01 0.  1.
<mgrwt>
<rscale>  0 0.27505371E+03</rscale>
<asrwt>0</asrwt>
<pdfrwt beam="1">  1        1 0.88918939E-01 0.27505371E+03</pdfrwt>
<pdfrwt beam="2">  1       -1 0.50344734E-02 0.27505371E+03</pdfrwt>
<totfact> 0.64292756E+03</totfact>
</mgrwt>
</event>
<event>
 9    1  0.7984035E-001  0.2752027E+03  0.7818608E-02  0.1098338E+00
         -2   -1    0    0    0  501 -0.00000000000E+00  0.00000000000E+00  0.19942572100E+02  0.19942572100E+02  0.00000000000E+00 0.  1.
          2   -1    0    0  501    0  0.00000000000E+00 -0.00000000000E+00 -0.94943293700E+03  0.94943293700E+03  0.00000000000E+00 0.  1.
         35    2    1    2    0    0  0.00000000000E+00  0.00000000000E+00 -0.92949036490E+03  0.96937550910E+03  0.27520272383E+03 0.  0.
         25    2    3    3    0    0  0.40529937953E+02  0.40016351672E+02 -0.48548030579E+03  0.50441948203E+03  0.12451466689E+03 0.  0.
         25    2    3    3    0    0 -0.40529937953E+02 -0.40016351672E+02 -0.44401005912E+03  0.46495602708E+03  0.12567891727E+03 0.  0.
          5    1    4    4  502    0  0.32636635372E+02 -0.45990900023E+01 -0.24854386149E+02  0.41546746059E+02  0.47000000000E+01 0.  1.
         -5    1    4    4    0  502  0.78933025810E+01  0.44615441675E+02 -0.46062591964E+03  0.46287273597E+03  0.47000000000E+01 0.  1.
          5    1    5    5  503    0 -0.62835941948E+02 -0.70979065555E+02 -0.36424263044E+03  0.37640558866E+03  0.47000000000E+01 0. -1.
         -5    1    5    5    0  503  0.22306003995E+02  0.30962713883E+02 -0.79767428683E+02  0.88550438418E+02  0.47000000000E+01 0. -1.
<mgrwt>
<rscale>  0 0.27520272E+03</rscale>
<asrwt>0</asrwt>
<pdfrwt beam="1">  1        2 0.14606656E+00 0.27520272E+03</pdfrwt>
<pdfrwt beam="2">  1       -2 0.30680890E-02 0.27520272E+03</pdfrwt>
<totfact> 0.11534938E+04</totfact>
</mgrwt>
</event>
<event>
 9    1  0.7984035E-001  0.2725406E+03  0.7818608E-02  0.1099834E+00
         -2   -1    0    0    0  501 -0.00000000000E+00  0.00000000000E+00  0.13465440093E+02  0.13465440093E+02  0.00000000000E+00 0. -1.
          2   -1    0    0  501    0  0.00000000000E+00 -0.00000000000E+00 -0.13790559884E+04  0.13790559884E+04  0.00000000000E+00 0. -1.
         35    2    1    2    0    0 -0.71054273576E-14  0.71054273576E-14 -0.13655905483E+04  0.13925214285E+04  0.27254060833E+03 0.  0.
         25    2    3    3    0    0  0.22167043195E+02 -0.43827044254E+02 -0.81115444524E+03  0.82223391449E+03  0.12523932482E+03 0.  0.
         25    2    3    3    0    0 -0.22167043195E+02  0.43827044254E+02 -0.55443610311E+03  0.57028751405E+03  0.12416226738E+03 0.  0.
          5    1    4    4  502    0 -0.38673511507E+02  0.16266956159E+02 -0.16019426940E+03  0.16566396200E+03  0.47000000000E+01 0.  1.
         -5    1    4    4    0  502  0.60840554702E+02 -0.60094000413E+02 -0.65096017584E+03  0.65656995249E+03  0.47000000000E+01 0.  1.
          5    1    5    5  503    0 -0.65161137037E+02  0.13253691438E+02 -0.17669824874E+03  0.18885442866E+03  0.47000000000E+01 0.  1.
         -5    1    5    5    0  503  0.42994093842E+02  0.30573352815E+02 -0.37773785437E+03  0.38143308539E+03  0.47000000000E+01 0.  1.
<mgrwt>
<rscale>  0 0.27254061E+03</rscale>
<asrwt>0</asrwt>
<pdfrwt beam="1">  1        2 0.21216229E+00 0.27254061E+03</pdfrwt>
<pdfrwt beam="2">  1       -2 0.20716079E-02 0.27254061E+03</pdfrwt>
<totfact> 0.11638381E+04</totfact>
</mgrwt>
</event>
<event>
 9    1  0.7984035E-001  0.2751269E+03  0.7818608E-02  0.1098381E+00
          2   -1    0    0  501    0  0.00000000000E+00  0.00000000000E+00  0.22589153439E+03  0.22589153439E+03  0.00000000000E+00 0.  1.
         -2   -1    0    0    0  501 -0.00000000000E+00 -0.00000000000E+00 -0.83773397663E+02  0.83773397663E+02  0.00000000000E+00 0.  1.
         35    2    1    2    0    0  0.00000000000E+00  0.00000000000E+00  0.14211813673E+03  0.30966493205E+03  0.27512688956E+03 0.  0.
         25    2    3    3    0    0 -0.34386796148E+01 -0.52113686860E+01  0.57806564645E+01  0.12476344104E+03  0.12447295831E+03 0.  0.
         25    2    3    3    0    0  0.34386796148E+01  0.52113686860E+01  0.13633748026E+03  0.18490149102E+03  0.12474642269E+03 0.  0.
          5    1    4    4  502    0  0.54856147513E+01 -0.63799975888E+02 -0.47678294087E+01  0.64384400982E+02  0.47000000000E+01 0. -1.
         -5    1    4    4    0  502 -0.89242943660E+01  0.58588607202E+02  0.10548485873E+02  0.60379040056E+02  0.47000000000E+01 0. -1.
          5    1    5    5  503    0 -0.88674990737E+01 -0.45370279989E+02  0.91045567769E+01  0.47350583948E+02  0.47000000000E+01 0. -1.
         -5    1    5    5    0  503  0.12306178688E+02  0.50581648675E+02  0.12723292349E+03  0.13755090707E+03  0.47000000000E+01 0. -1.
<mgrwt>
<rscale>  0 0.27512689E+03</rscale>
<asrwt>0</asrwt>
<pdfrwt beam="1">  1        2 0.34752544E-01 0.27512689E+03</pdfrwt>
<pdfrwt beam="2">  1       -2 0.12888215E-01 0.27512689E+03</pdfrwt>
<totfact> 0.65082753E+03</totfact>
</mgrwt>
</event>
<event>
 9    1  0.7984035E-001  0.2731182E+03  0.7818608E-02  0.1099508E+00
          2   -1    0    0  501    0  0.00000000000E+00  0.00000000000E+00  0.23228961712E+04  0.23228961712E+04  0.00000000000E+00 0.  1.
         -2   -1    0    0    0  501 -0.00000000000E+00 -0.00000000000E+00 -0.80280791318E+01  0.80280791318E+01  0.00000000000E+00 0.  1.
         35    2    1    2    0    0 -0.71054273576E-14  0.35527136788E-14  0.23148680921E+04  0.23309242503E+04  0.27311824749E+03 0.  0.
         25    2    3    3    0    0 -0.30108822751E+02 -0.23262571001E+02  0.79718234010E+03  0.80785683677E+03  0.12524095549E+03 0.  0.
         25    2    3    3    0    0  0.30108822751E+02  0.23262571001E+02  0.15176857520E+04  0.15230674135E+04  0.12213359943E+03 0.  0.
          5    1    4    4  502    0 -0.55221336597E+02  0.24865329261E+02  0.22398782073E+03  0.23207825070E+03  0.47000000000E+01 0.  1.
         -5    1    4    4    0  502  0.25112513847E+02 -0.48127900261E+02  0.57319451937E+03  0.57577858607E+03  0.47000000000E+01 0.  1.
          5    1    5    5  503    0 -0.20003873618E+02 -0.16162323995E+02  0.11175682365E+04  0.11178739772E+04  0.47000000000E+01 0. -1.
         -5    1    5    5    0  503  0.50112696369E+02  0.39424894996E+02  0.40011751546E+03  0.40519343635E+03  0.47000000000E+01 0. -1.
<mgrwt>
<rscale>  0 0.27311825E+03</rscale>
<asrwt>0</asrwt>
<pdfrwt beam="1">  1        2 0.35736811E+00 0.27311825E+03</pdfrwt>
<pdfrwt beam="2">  1       -2 0.12350909E-02 0.27311825E+03</pdfrwt>
<totfact> 0.78446738E+03</totfact>
</mgrwt>
</event>
<event>
 9    1  0.7984035E-001  0.2733647E+03  0.7818608E-02  0.1099369E+00
         -1   -1    0    0    0  501 -0.00000000000E+00  0.00000000000E+00  0.14039731141E+02  0.14039731141E+02  0.00000000000E+00 0. -1.
          1   -1    0    0  501    0  0.00000000000E+00 -0.00000000000E+00 -0.13306566972E+04  0.13306566972E+04  0.00000000000E+00 0. -1.
         35    2    1    2    0    0 -0.71054273576E-14  0.00000000000E+00 -0.13166169661E+04  0.13446964283E+04  0.27336468148E+03 0.  0.
         25    2    3    3    0    0 -0.75776443371E+01 -0.51141355441E+02 -0.75816301757E+03  0.77008994152E+03  0.12471767274E+03 0.  0.
         25    2    3    3    0    0  0.75776443371E+01  0.51141355441E+02 -0.55845394849E+03  0.57460648682E+03  0.12501577172E+03 0.  0.
          5    1    4    4  502    0 -0.44157624228E+02  0.17224726906E+02 -0.44047934768E+03  0.44304709990E+03  0.47000000000E+01 0. -1.
         -5    1    4    4    0  502  0.36579979891E+02 -0.68366082347E+02 -0.31768366989E+03  0.32704284162E+03  0.47000000000E+01 0. -1.
          5    1    5    5  503    0 -0.33224690995E+02  0.47241846885E+02 -0.49833540970E+03  0.50169307624E+03  0.47000000000E+01 0.  1.
         -5    1    5    5    0  503  0.40802335333E+02  0.38995085560E+01 -0.60118538791E+02  0.72913410577E+02  0.47000000000E+01 0.  1.
<mgrwt>
<rscale>  0 0.27336468E+03</rscale>
<asrwt>0</asrwt>
<pdfrwt beam="1">  1        1 0.20471641E+00 0.27336468E+03</pdfrwt>
<pdfrwt beam="2">  1       -1 0.21599587E-02 0.27336468E+03</pdfrwt>
<totfact> 0.56947543E+03</totfact>
</mgrwt>
</event>
<event>
 9    1  0.7984035E-001  0.2776510E+03  0.7818608E-02  0.1096979E+00
         -3   -1    0    0    0  501 -0.00000000000E+00  0.00000000000E+00  0.98527244079E+03  0.98527244079E+03  0.00000000000E+00 0. -1.
          3   -1    0    0  501    0  0.00000000000E+00 -0.00000000000E+00 -0.19560606276E+02  0.19560606276E+02  0.00000000000E+00 0. -1.
         35    2    1    2    0    0 -0.17763568394E-14  0.71054273576E-14  0.96571183451E+03  0.10048330471E+04  0.27765104926E+03 0.  0.
         25    2    3    3    0    0 -0.15245878219E+02  0.58592064300E+02  0.50666068218E+03  0.52538766122E+03  0.12514663757E+03 0.  0.
         25    2    3    3    0    0  0.15245878219E+02 -0.58592064300E+02  0.45905115233E+03  0.47944538584E+03  0.12439634539E+03 0.  0.
          5    1    4    4  502    0 -0.27164724872E+01  0.39837888632E+02  0.49970740311E+03  0.50132226692E+03  0.47000000000E+01 0. -1.
         -5    1    4    4    0  502 -0.12529405732E+02  0.18754175668E+02  0.69532790765E+01  0.24065394302E+02  0.47000000000E+01 0. -1.
          5    1    5    5  503    0  0.34041811502E+02  0.31216959693E+02  0.15994387610E+03  0.16654572046E+03  0.47000000000E+01 0.  1.
         -5    1    5    5    0  503 -0.18795933284E+02 -0.89809023993E+02  0.29910727623E+03  0.31289966538E+03  0.47000000000E+01 0.  1.
<mgrwt>
<rscale>  0 0.27765105E+03</rscale>
<asrwt>0</asrwt>
<pdfrwt beam="1">  1        3 0.30093248E-02 0.27765105E+03</pdfrwt>
<pdfrwt beam="2">  1       -3 0.15158034E+00 0.27765105E+03</pdfrwt>
<totfact> 0.42840394E+02</totfact>
</mgrwt>
</event>
<event>
 9    1  0.7984035E-001  0.2756427E+03  0.7818608E-02  0.1098093E+00
          1   -1    0    0  501    0  0.00000000000E+00  0.00000000000E+00  0.34893055025E+03  0.34893055025E+03  0.00000000000E+00 0.  1.
         -1   -1    0    0    0  501 -0.00000000000E+00 -0.00000000000E+00 -0.54436974648E+02  0.54436974648E+02  0.00000000000E+00 0.  1.
         35    2    1    2    0    0  0.71054273576E-14  0.17763568394E-14  0.29449357561E+03  0.40336752490E+03  0.27564269276E+03 0.  0.
         25    2    3    3    0    0  0.35169867256E+02 -0.92960430662E+01  0.82410756578E+02  0.15431253671E+03  0.12528962530E+03 0.  0.
         25    2    3    3    0    0 -0.35169867256E+02  0.92960430662E+01  0.21208281903E+03  0.24905498819E+03  0.12540306629E+03 0.  0.
          5    1    4    4  502    0  0.80397722582E+02 -0.98342499158E+01  0.34223731321E+02  0.88056005209E+02  0.47000000000E+01 0. -1.
         -5    1    4    4    0  502 -0.45227855326E+02  0.53820684954E+00  0.48187025257E+02  0.66256531505E+02  0.47000000000E+01 0. -1.
          5    1    5    5  503    0 -0.58535727994E+02 -0.12437299605E+02  0.35897977924E+02  0.69941923710E+02  0.47000000000E+01 0.  1.
         -5    1    5    5    0  503  0.23365860738E+02  0.21733342671E+02  0.17618484110E+03  0.17911306448E+03  0.47000000000E+01 0.  1.
<mgrwt>
<rscale>  0 0.27564269E+03</rscale>
<asrwt>0</asrwt>
<pdfrwt beam="1">  1        1 0.53681622E-01 0.27564269E+03</pdfrwt>
<pdfrwt beam="2">  1       -1 0.83749194E-02 0.27564269E+03</pdfrwt>
<totfact> 0.57617887E+03</totfact>
</mgrwt>
</event>
<event>
 9    1  0.7984035E-001  0.2749651E+03  0.7818608E-02  0.1098471E+00
         -1   -1    0    0    0  501 -0.00000000000E+00  0.00000000000E+00  0.11614986159E+02  0.11614986159E+02  0.00000000000E+00 0.  1.
          1   -1    0    0  501    0  0.00000000000E+00 -0.00000000000E+00 -0.16273328355E+04  0.16273328355E+04  0.00000000000E+00 0.  1.
         35    2    1    2    0    0  0.00000000000E+00 -0.35527136788E-14 -0.16157178494E+04  0.16389478217E+04  0.27496507678E+03 0.  0.
         25    2    3    3    0    0  0.51714417265E+02 -0.40619878475E+01 -0.98669285066E+03  0.99552669391E+03  0.12173633828E+03 0.  0.
         25    2    3    3    0    0 -0.51714417265E+02  0.40619878475E+01 -0.62902499873E+03  0.64342112779E+03  0.12500967148E+03 0.  0.
          5    1    4    4  502    0 -0.16864368577E+02 -0.46459485315E+01 -0.71641465161E+03  0.71664358980E+03  0.47000000000E+01 0. -1.
         -5    1    4    4    0  502  0.68578785842E+02  0.58396068404E+00 -0.27027819905E+03  0.27888310411E+03  0.47000000000E+01 0. -1.
          5    1    5    5  503    0  0.28647578598E+02  0.37648077288E+02 -0.25111646652E+03  0.25557705539E+03  0.47000000000E+01 0. -1.
         -5    1    5    5    0  503 -0.80361995862E+02 -0.33586089440E+02 -0.37790853221E+03  0.38784407240E+03  0.47000000000E+01 0. -1.
<mgrwt>
<rscale>  0 0.27496508E+03</rscale>
<asrwt>0</asrwt>
<pdfrwt beam="1">  1        1 0.25035871E+00 0.27496508E+03</pdfrwt>
<pdfrwt beam="2">  1       -1 0.17869223E-02 0.27496508E+03</pdfrwt>
<totfact> 0.47689772E+03</totfact>
</mgrwt>
</event>
<event>
 9    1  0.7984035E-001  0.2738037E+03  0.7818608E-02  0.1099122E+00
         -2   -1    0    0    0  501 -0.00000000000E+00  0.00000000000E+00  0.12575597466E+03  0.12575597466E+03  0.00000000000E+00 0. -1.
          2   -1    0    0  501    0  0.00000000000E+00 -0.00000000000E+00 -0.14903559215E+03  0.14903559215E+03  0.00000000000E+00 0. -1.
         35    2    1    2    0    0  0.00000000000E+00  0.14210854715E-13 -0.23279617489E+02  0.27479156680E+03  0.27380369719E+03 0.  0.
         25    2    3    3    0    0  0.34568918459E+02  0.29018578738E+02  0.20344980207E+02  0.13492264134E+03  0.12551140542E+03 0.  0.
         25    2    3    3    0    0 -0.34568918459E+02 -0.29018578738E+02 -0.43624597696E+02  0.13986892547E+03  0.12499249078E+03 0.  0.
          5    1    4    4  502    0 -0.21323307502E+01  0.34449776908E+02  0.66768825706E+02  0.75309362297E+02  0.47000000000E+01 0. -1.
         -5    1    4    4    0  502  0.36701249210E+02 -0.54311981696E+01 -0.46423845498E+02  0.59613279041E+02  0.47000000000E+01 0. -1.
          5    1    5    5  503    0 -0.72783796346E+01 -0.73025053456E+02 -0.25052144177E+01  0.73579884083E+02  0.47000000000E+01 0.  1.
         -5    1    5    5    0  503 -0.27290538825E+02  0.44006474718E+02 -0.41119383278E+02  0.66289041384E+02  0.47000000000E+01 0.  1.
<mgrwt>
<rscale>  0 0.27380370E+03</rscale>
<asrwt>0</asrwt>
<pdfrwt beam="1">  1        2 0.22928553E-01 0.27380370E+03</pdfrwt>
<pdfrwt beam="2">  1       -2 0.19347073E-01 0.27380370E+03</pdfrwt>
<totfact> 0.52435854E+03</totfact>
</mgrwt>
</event>
<event>
 9    1  0.7984035E-001  0.2735928E+03  0.7818608E-02  0.1099241E+00
          3   -1    0    0  501    0  0.00000000000E+00  0.00000000000E+00  0.18705420379E+02  0.18705420379E+02  0.00000000000E+00 0.  1.
         -3   -1    0    0    0  501 -0.00000000000E+00 -0.00000000000E+00 -0.10004185849E+04  0.10004185849E+04  0.00000000000E+00 0.  1.
         35    2    1    2    0    0  0.00000000000E+00  0.00000000000E+00 -0.98171316450E+03  0.10191240053E+04  0.27359276442E+03 0.  0.
         25    2    3    3    0    0 -0.55340392758E+02  0.18031113906E+01 -0.50252029582E+03  0.52075984631E+03  0.12489339269E+03 0.  0.
         25    2    3    3    0    0  0.55340392758E+02 -0.18031113906E+01 -0.47919286868E+03  0.49836415894E+03  0.12520071584E+03 0.  0.
          5    1    4    4  502    0 -0.71581340545E+02 -0.78439581326E+01 -0.49444842700E+03  0.49968665477E+03  0.47000000000E+01 0.  1.
         -5    1    4    4    0  502  0.16240947787E+02  0.96470695232E+01 -0.80718688175E+01  0.21073191538E+02  0.47000000000E+01 0.  1.
          5    1    5    5  503    0 -0.16176782068E+02 -0.47367471842E+02 -0.21751460006E+03  0.22324886764E+03  0.47000000000E+01 0. -1.
         -5    1    5    5    0  503  0.71517174826E+02  0.45564360452E+02 -0.26167826862E+03  0.27511529130E+03  0.47000000000E+01 0. -1.
<mgrwt>
<rscale>  0 0.27359276E+03</rscale>
<asrwt>0</asrwt>
<pdfrwt beam="1">  1        3 0.28777571E-02 0.27359276E+03</pdfrwt>
<pdfrwt beam="2">  1       -3 0.15391055E+00 0.27359276E+03</pdfrwt>
<totfact> 0.44129249E+02</totfact>
</mgrwt>
</event>
<event>
 9    1  0.7984035E-001  0.2718400E+03  0.7818608E-02  0.1100231E+00
         -3   -1    0    0    0  501 -0.00000000000E+00  0.00000000000E+00  0.88019462849E+02  0.88019462849E+02  0.00000000000E+00 0.  1.
          3   -1    0    0  501    0  0.00000000000E+00 -0.00000000000E+00 -0.20988814638E+03  0.20988814638E+03  0.00000000000E+00 0.  1.
         35    2    1    2    0    0  0.00000000000E+00  0.35527136788E-14 -0.12186868353E+03  0.29790760923E+03  0.27183996691E+03 0.  0.
         25    2    3    3    0    0  0.41750363271E+02 -0.10614935341E+02 -0.10465726842E+03  0.16508479084E+03  0.12018350406E+03 0.  0.
         25    2    3    3    0    0 -0.41750363271E+02  0.10614935341E+02 -0.17211415110E+02  0.13282281838E+03  0.12445842112E+03 0.  0.
          5    1    4    4  502    0  0.12294592498E+02  0.16645590199E+02  0.22935136899E+02  0.31246490721E+02  0.47000000000E+01 0.  1.
         -5    1    4    4    0  502  0.29455770773E+02 -0.27260525540E+02 -0.12759240532E+03  0.13383830012E+03  0.47000000000E+01 0.  1.
          5    1    5    5  503    0 -0.49167292102E+02  0.60744198701E+02  0.22851685523E+01  0.78323638090E+02  0.47000000000E+01 0. -1.
         -5    1    5    5    0  503  0.74169288307E+01 -0.50129263360E+02 -0.19496583663E+02  0.54499180295E+02  0.47000000000E+01 0. -1.
<mgrwt>
<rscale>  0 0.27183997E+03</rscale>
<asrwt>0</asrwt>
<pdfrwt beam="1">  1        3 0.32290484E-01 0.27183997E+03</pdfrwt>
<pdfrwt beam="2">  1       -3 0.13541456E-01 0.27183997E+03</pdfrwt>
<totfact> 0.10513081E+03</totfact>
</mgrwt>
</event>
<event>
 9    1  0.7984035E-001  0.2726839E+03  0.7818608E-02  0.1099753E+00
         -2   -1    0    0    0  501 -0.00000000000E+00  0.00000000000E+00  0.11373632929E+02  0.11373632929E+02  0.00000000000E+00 0. -1.
          2   -1    0    0  501    0  0.00000000000E+00 -0.00000000000E+00 -0.16344055568E+04  0.16344055568E+04  0.00000000000E+00 0. -1.
         35    2    1    2    0    0  0.00000000000E+00 -0.17763568394E-14 -0.16230319239E+04  0.16457791897E+04  0.27268391122E+03 0.  0.
         25    2    3    3    0    0  0.55329935419E+02 -0.18138685773E+01 -0.83239892437E+03  0.84354811989E+03  0.12498307650E+03 0.  0.
         25    2    3    3    0    0 -0.55329935419E+02  0.18138685773E+01 -0.79063299950E+03  0.80223106984E+03  0.12413483651E+03 0.  0.
          5    1    4    4  502    0  0.45117975421E+02  0.58808299122E+02 -0.40992534702E+03  0.41659924133E+03  0.47000000000E+01 0.  1.
         -5    1    4    4    0  502  0.10211959998E+02 -0.60622167699E+02 -0.42247357735E+03  0.42694887856E+03  0.47000000000E+01 0.  1.
          5    1    5    5  503    0 -0.92200322401E+02 -0.10732879714E+02 -0.46129035996E+03  0.47056028344E+03  0.47000000000E+01 0.  1.
         -5    1    5    5    0  503  0.36870386983E+02  0.12546748291E+02 -0.32934263954E+03  0.33167078640E+03  0.47000000000E+01 0.  1.
<mgrwt>
<rscale>  0 0.27268391E+03</rscale>
<asrwt>0</asrwt>
<pdfrwt beam="1">  1        2 0.25144681E+00 0.27268391E+03</pdfrwt>
<pdfrwt beam="2">  1       -2 0.17497911E-02 0.27268391E+03</pdfrwt>
<totfact> 0.10887608E+04</totfact>
</mgrwt>
</event>
<event>
 9    1  0.7984035E-001  0.2728789E+03  0.7818608E-02  0.1099643E+00
         -2   -1    0    0    0  501 -0.00000000000E+00  0.00000000000E+00  0.13061171815E+02  0.13061171815E+02  0.00000000000E+00 0.  1.
          2   -1    0    0  501    0  0.00000000000E+00 -0.00000000000E+00 -0.14252717441E+04  0.14252717441E+04  0.00000000000E+00 0.  1.
         35    2    1    2    0    0  0.00000000000E+00  0.35527136788E-14 -0.14122105722E+04  0.14383329159E+04  0.27287886787E+03 0.  0.
         25    2    3    3    0    0 -0.51181760959E+02 -0.13655373953E+02 -0.64328774254E+03  0.65746947453E+03  0.12506377713E+03 0.  0.
         25    2    3    3    0    0  0.51181760959E+02  0.13655373953E+02 -0.76892282970E+03  0.78086344133E+03  0.12529706336E+03 0.  0.
          5    1    4    4  502    0 -0.45875223650E+02  0.26895512099E+02 -0.10674927624E+03  0.11935410632E+03  0.47000000000E+01 0. -1.
         -5    1    4    4    0  502 -0.53065373085E+01 -0.40550886052E+02 -0.53653846629E+03  0.53811536822E+03  0.47000000000E+01 0. -1.
          5    1    5    5  503    0 -0.12631157967E+02  0.40939554174E+02 -0.53717460170E+03  0.53890095190E+03  0.47000000000E+01 0.  1.
         -5    1    5    5    0  503  0.63812918926E+02 -0.27284180221E+02 -0.23174822800E+03  0.24196248943E+03  0.47000000000E+01 0.  1.
<mgrwt>
<rscale>  0 0.27287887E+03</rscale>
<asrwt>0</asrwt>
<pdfrwt beam="1">  1        2 0.21927266E+00 0.27287887E+03</pdfrwt>
<pdfrwt beam="2">  1       -2 0.20094103E-02 0.27287887E+03</pdfrwt>
<totfact> 0.11489682E+04</totfact>
</mgrwt>
</event>
<event>
 9    1  0.7984035E-001  0.2716510E+03  0.7818608E-02  0.1100338E+00
          2   -1    0    0  501    0  0.00000000000E+00  0.00000000000E+00  0.25218960847E+02  0.25218960847E+02  0.00000000000E+00 0. -1.
         -2   -1    0    0    0  501 -0.00000000000E+00 -0.00000000000E+00 -0.73153543919E+03  0.73153543919E+03  0.00000000000E+00 0. -1.
         35    2    1    2    0    0  0.00000000000E+00  0.35527136788E-14 -0.70631647834E+03  0.75675440003E+03  0.27165097901E+03 0.  0.
         25    2    3    3    0    0  0.17821012170E+02  0.80078116576E+01 -0.21367390277E+03  0.24839745320E+03  0.12515208553E+03 0.  0.
         25    2    3    3    0    0 -0.17821012170E+02 -0.80078116576E+01 -0.49264257557E+03  0.50835694683E+03  0.12388851683E+03 0.  0.
          5    1    4    4  502    0 -0.50214868605E+02  0.25103160518E+02 -0.92680317857E+02  0.10845936112E+03  0.47000000000E+01 0.  1.
         -5    1    4    4    0  502  0.68035880776E+02 -0.17095348861E+02 -0.12099358491E+03  0.13993809208E+03  0.47000000000E+01 0.  1.
          5    1    5    5  503    0 -0.41523205411E+02 -0.17365697571E+02 -0.61079838781E+02  0.76016976691E+02  0.47000000000E+01 0.  1.
         -5    1    5    5    0  503  0.23702193241E+02  0.93578859131E+01 -0.43156273679E+03  0.43233997014E+03  0.47000000000E+01 0.  1.
<mgrwt>
<rscale>  0 0.27165098E+03</rscale>
<asrwt>0</asrwt>
<pdfrwt beam="1">  1        2 0.38798408E-02 0.27165098E+03</pdfrwt>
<pdfrwt beam="2">  1       -2 0.11254389E+00 0.27165098E+03</pdfrwt>
<totfact> 0.14305785E+03</totfact>
</mgrwt>
</event>
<event>
 9    1  0.7984035E-001  0.2853956E+03  0.7818608E-02  0.1092778E+00
          2   -1    0    0  501    0  0.00000000000E+00  0.00000000000E+00  0.68707449513E+02  0.68707449513E+02  0.00000000000E+00 0. -1.
         -2   -1    0    0    0  501 -0.00000000000E+00 -0.00000000000E+00 -0.29636764237E+03  0.29636764237E+03  0.00000000000E+00 0. -1.
         35    2    1    2    0    0  0.00000000000E+00  0.00000000000E+00 -0.22766019286E+03  0.36507509188E+03  0.28539561892E+03 0.  0.
         25    2    3    3    0    0  0.45206949759E+02  0.22470377075E+02 -0.35534702197E+02  0.12933720196E+03  0.11365214736E+03 0.  0.
         25    2    3    3    0    0 -0.45206949759E+02 -0.22470377075E+02 -0.19212549066E+03  0.23573788992E+03  0.12693132958E+03 0.  0.
          5    1    4    4  502    0  0.63477409600E+02  0.30982629336E+02  0.17059065466E+02  0.72817625371E+02  0.47000000000E+01 0. -1.
         -5    1    4    4    0  502 -0.18270459841E+02 -0.85122522601E+01 -0.52593767663E+02  0.56519576594E+02  0.47000000000E+01 0. -1.
          5    1    5    5  503    0 -0.50892087494E+02  0.69574397503E+01 -0.11845152639E+02  0.52922662239E+02  0.47000000000E+01 0. -1.
         -5    1    5    5    0  503  0.56851377353E+01 -0.29427816826E+02 -0.18028033802E+03  0.18281522768E+03  0.47000000000E+01 0. -1.
<mgrwt>
<rscale>  0 0.28539562E+03</rscale>
<asrwt>0</asrwt>
<pdfrwt beam="1">  1        2 0.10570377E-01 0.28539562E+03</pdfrwt>
<pdfrwt beam="2">  1       -2 0.45595023E-01 0.28539562E+03</pdfrwt>
<totfact> 0.27537534E+03</totfact>
</mgrwt>
</event>
<event>
 9    1  0.7984035E-001  0.2758914E+03  0.7818608E-02  0.1097954E+00
          2   -1    0    0  501    0  0.00000000000E+00  0.00000000000E+00  0.28912236642E+03  0.28912236642E+03  0.00000000000E+00 0.  1.
         -2   -1    0    0    0  501 -0.00000000000E+00 -0.00000000000E+00 -0.65816475941E+02  0.65816475941E+02  0.00000000000E+00 0.  1.
         35    2    1    2    0    0  0.00000000000E+00 -0.71054273576E-14  0.22330589048E+03  0.35493884236E+03  0.27589139366E+03 0.  0.
         25    2    3    3    0    0  0.34552972158E+02 -0.32092274843E+02  0.15700365324E+03  0.20595841094E+03  0.12467917996E+03 0.  0.
         25    2    3    3    0    0 -0.34552972158E+02  0.32092274843E+02  0.66302237242E+02  0.14898043142E+03  0.12480128322E+03 0.  0.
          5    1    4    4  502    0 -0.10161663782E+02 -0.71981727824E+02  0.93375117614E+02  0.11842985747E+03  0.47000000000E+01 0.  1.
         -5    1    4    4    0  502  0.44714635940E+02  0.39889452981E+02  0.63628535625E+02  0.87528553468E+02  0.47000000000E+01 0.  1.
          5    1    5    5  503    0  0.31200106286E+02  0.42945564512E+02 -0.21447611128E+01  0.53333461763E+02  0.47000000000E+01 0. -1.
         -5    1    5    5    0  503 -0.65753078443E+02 -0.10853289668E+02  0.68446998354E+02  0.95646969660E+02  0.47000000000E+01 0. -1.
<mgrwt>
<rscale>  0 0.27589139E+03</rscale>
<asrwt>0</asrwt>
<pdfrwt beam="1">  1        2 0.44480363E-01 0.27589139E+03</pdfrwt>
<pdfrwt beam="2">  1       -2 0.10125612E-01 0.27589139E+03</pdfrwt>
<totfact> 0.73491980E+03</totfact>
</mgrwt>
</event>
<event>
 9    1  0.7984035E-001  0.2698862E+03  0.7818608E-02  0.1101345E+00
          2   -1    0    0  501    0  0.00000000000E+00  0.00000000000E+00  0.89451388273E+03  0.89451388273E+03  0.00000000000E+00 0.  1.
         -2   -1    0    0    0  501 -0.00000000000E+00 -0.00000000000E+00 -0.20357030950E+02  0.20357030950E+02  0.00000000000E+00 0.  1.
         35    2    1    2    0    0 -0.17763568394E-14  0.71054273576E-14  0.87415685178E+03  0.91487091368E+03  0.26988624860E+03 0.  0.
         25    2    3    3    0    0 -0.28663475381E+01  0.40718643561E+02  0.32943743482E+03  0.35444294084E+03  0.12423586828E+03 0.  0.
         25    2    3    3    0    0  0.28663475381E+01 -0.40718643561E+02  0.54471941695E+03  0.56042797284E+03  0.12527587816E+03 0.  0.
          5    1    4    4  502    0 -0.18100365989E+02  0.51254166086E+02  0.48932134539E+02  0.73287492662E+02  0.47000000000E+01 0. -1.
         -5    1    4    4    0  502  0.15234018450E+02 -0.10535522526E+02  0.28050530028E+03  0.28115544818E+03  0.47000000000E+01 0. -1.
          5    1    5    5  503    0  0.23863286886E+02  0.33017073079E+02  0.85461498435E+02  0.94791040138E+02  0.47000000000E+01 0.  1.
         -5    1    5    5    0  503 -0.20996939348E+02 -0.73735716640E+02  0.45925791852E+03  0.46563693270E+03  0.47000000000E+01 0.  1.
<mgrwt>
<rscale>  0 0.26988625E+03</rscale>
<asrwt>0</asrwt>
<pdfrwt beam="1">  1        2 0.13761749E+00 0.26988625E+03</pdfrwt>
<pdfrwt beam="2">  1       -2 0.31318516E-02 0.26988625E+03</pdfrwt>
<totfact> 0.12118411E+04</totfact>
</mgrwt>
</event>
<event>
 9    1  0.7984035E-001  0.2769047E+03  0.7818608E-02  0.1097392E+00
         -2   -1    0    0    0  501 -0.00000000000E+00  0.00000000000E+00  0.42071956084E+02  0.42071956084E+02  0.00000000000E+00 0.  1.
          2   -1    0    0  501    0  0.00000000000E+00 -0.00000000000E+00 -0.45562528639E+03  0.45562528639E+03  0.00000000000E+00 0.  1.
         35    2    1    2    0    0  0.00000000000E+00  0.71054273576E-14 -0.41355333031E+03  0.49769724248E+03  0.27690465536E+03 0.  0.
         25    2    3    3    0    0  0.36513513813E+02  0.32776235346E+02 -0.14191877175E+03  0.19514515983E+03  0.12463216814E+03 0.  0.
         25    2    3    3    0    0 -0.36513513813E+02 -0.32776235346E+02 -0.27163455856E+03  0.30255208265E+03  0.12387457777E+03 0.  0.
          5    1    4    4  502    0  0.24958965963E+02  0.77802215150E+02 -0.62404363489E+02  0.10292001383E+03  0.47000000000E+01 0.  1.
         -5    1    4    4    0  502  0.11554547850E+02 -0.45025979803E+02 -0.79514408263E+02  0.92225146000E+02  0.47000000000E+01 0.  1.
          5    1    5    5  503    0  0.28788837419E+02 -0.21987751189E+02 -0.18657614370E+02  0.41017739287E+02  0.47000000000E+01 0.  1.
         -5    1    5    5    0  503 -0.65302351231E+02 -0.10788484158E+02 -0.25297694419E+03  0.26153434336E+03  0.47000000000E+01 0.  1.
<mgrwt>
<rscale>  0 0.27690466E+03</rscale>
<asrwt>0</asrwt>
<pdfrwt beam="1">  1        2 0.70096199E-01 0.27690466E+03</pdfrwt>
<pdfrwt beam="2">  1       -2 0.64726085E-02 0.27690466E+03</pdfrwt>
<totfact> 0.90436708E+03</totfact>
</mgrwt>
</event>
<event>
 9    1  0.7984035E-001  0.2718397E+03  0.7818608E-02  0.1100231E+00
          4   -1    0    0  501    0  0.00000000000E+00  0.00000000000E+00  0.42205582377E+03  0.42205582377E+03  0.00000000000E+00 0.  1.
         -4   -1    0    0    0  501 -0.00000000000E+00 -0.00000000000E+00 -0.43771950047E+02  0.43771950047E+02  0.00000000000E+00 0.  1.
         35    2    1    2    0    0  0.71054273576E-14  0.00000000000E+00  0.37828387372E+03  0.46582777382E+03  0.27183970597E+03 0.  0.
         25    2    3    3    0    0 -0.39685831738E+02 -0.32911670109E+02  0.15771487789E+03  0.20760300896E+03  0.12476731685E+03 0.  0.
         25    2    3    3    0    0  0.39685831738E+02  0.32911670109E+02  0.22056899583E+03  0.25822476485E+03  0.12398065974E+03 0.  0.
          5    1    4    4  502    0 -0.62511873211E+02  0.27542578167E+02  0.97573543537E+02  0.11920157005E+03  0.47000000000E+01 0.  1.
         -5    1    4    4    0  502  0.22826041473E+02 -0.60454248277E+02  0.60141334352E+02  0.88401438912E+02  0.47000000000E+01 0.  1.
          5    1    5    5  503    0  0.25263338808E+02  0.79909965694E+02  0.15326282246E+03  0.17474387444E+03  0.47000000000E+01 0. -1.
         -5    1    5    5    0  503  0.14422492930E+02 -0.46998295585E+02  0.67306173372E+02  0.83480890413E+02  0.47000000000E+01 0. -1.
<mgrwt>
<rscale>  0 0.27183971E+03</rscale>
<asrwt>0</asrwt>
<pdfrwt beam="1">  1        4 0.64931662E-01 0.27183971E+03</pdfrwt>
<pdfrwt beam="2">  1       -4 0.67341465E-02 0.27183971E+03</pdfrwt>
<totfact> 0.61621743E+02</totfact>
</mgrwt>
</event>
<event>
 9    1  0.7984035E-001  0.3171085E+03  0.7818608E-02  0.1076988E+00
          3   -1    0    0  501    0  0.00000000000E+00  0.00000000000E+00  0.43930672377E+03  0.43930672377E+03  0.00000000000E+00 0.  1.
         -3   -1    0    0    0  501 -0.00000000000E+00 -0.00000000000E+00 -0.57225292258E+02  0.57225292258E+02  0.00000000000E+00 0.  1.
         35    2    1    2    0    0  0.00000000000E+00  0.17763568394E-14  0.38208143151E+03  0.49653201603E+03  0.31710853447E+03 0.  0.
         25    2    3    3    0    0  0.89718566544E+02  0.65789822892E+01  0.25119470306E+03  0.29470374158E+03  0.12513517598E+03 0.  0.
         25    2    3    3    0    0 -0.89718566544E+02 -0.65789822892E+01  0.13088672845E+03  0.20182827445E+03  0.12454160948E+03 0.  0.
          5    1    4    4  502    0 -0.22807506791E+02  0.77500327481E+01  0.65869413141E+01  0.25411083595E+02  0.47000000000E+01 0. -1.
         -5    1    4    4    0  502  0.11252607333E+03 -0.11710504589E+01  0.24460776174E+03  0.26929265799E+03  0.47000000000E+01 0. -1.
          5    1    5    5  503    0  0.27325501811E+02  0.18625280102E+02  0.34842698093E+02  0.48266838704E+02  0.47000000000E+01 0. -1.
         -5    1    5    5    0  503 -0.11704406835E+03 -0.25204262391E+02  0.96044030359E+02  0.15356143574E+03  0.47000000000E+01 0. -1.
<mgrwt>
<rscale>  0 0.31710853E+03</rscale>
<asrwt>0</asrwt>
<pdfrwt beam="1">  1        3 0.67585648E-01 0.31710853E+03</pdfrwt>
<pdfrwt beam="2">  1       -3 0.88038914E-02 0.31710853E+03</pdfrwt>
<totfact> 0.50280687E+02</totfact>
</mgrwt>
</event>
<event>
 9    1  0.7984035E-001  0.2728053E+03  0.7818608E-02  0.1099685E+00
         -1   -1    0    0    0  501 -0.00000000000E+00  0.00000000000E+00  0.20324269387E+02  0.20324269387E+02  0.00000000000E+00 0.  1.
          1   -1    0    0  501    0  0.00000000000E+00 -0.00000000000E+00 -0.91544177146E+03  0.91544177146E+03  0.00000000000E+00 0.  1.
         35    2    1    2    0    0  0.00000000000E+00  0.00000000000E+00 -0.89511750207E+03  0.93576604084E+03  0.27280531645E+03 0.  0.
         25    2    3    3    0    0 -0.33127952993E+02  0.48640404731E+02 -0.44151006651E+03  0.46270010658E+03  0.12528726814E+03 0.  0.
         25    2    3    3    0    0  0.33127952993E+02 -0.48640404731E+02 -0.45360743557E+03  0.47306593427E+03  0.12069930540E+03 0.  0.
          5    1    4    4  502    0 -0.47378312914E+02  0.79828175007E+02 -0.38796203637E+03  0.39894094014E+03  0.47000000000E+01 0.  1.
         -5    1    4    4    0  502  0.14250359920E+02 -0.31187770276E+02 -0.53548030139E+02  0.63759166435E+02  0.47000000000E+01 0.  1.
          5    1    5    5  503    0  0.63458457200E+02 -0.58390404825E+02 -0.20596723050E+03  0.22334055881E+03  0.47000000000E+01 0. -1.
         -5    1    5    5    0  503 -0.30330504207E+02  0.97500000943E+01 -0.24764020506E+03  0.24972537546E+03  0.47000000000E+01 0. -1.
<mgrwt>
<rscale>  0 0.27280532E+03</rscale>
<asrwt>0</asrwt>
<pdfrwt beam="1">  1        1 0.14083718E+00 0.27280532E+03</pdfrwt>
<pdfrwt beam="2">  1       -1 0.31268110E-02 0.27280532E+03</pdfrwt>
<totfact> 0.65786799E+03</totfact>
</mgrwt>
</event>
<event>
 9    1  0.7984035E-001  0.2789955E+03  0.7818608E-02  0.1096239E+00
          3   -1    0    0  501    0  0.00000000000E+00  0.00000000000E+00  0.36883221280E+03  0.36883221280E+03  0.00000000000E+00 0. -1.
         -3   -1    0    0    0  501 -0.00000000000E+00 -0.00000000000E+00 -0.52760106288E+02  0.52760106288E+02  0.00000000000E+00 0. -1.
         35    2    1    2    0    0 -0.71054273576E-14  0.00000000000E+00  0.31607210651E+03  0.42159231909E+03  0.27899553222E+03 0.  0.
         25    2    3    3    0    0 -0.42977741626E+02  0.30784835276E+02  0.10804041944E+03  0.17336541574E+03  0.12485208362E+03 0.  0.
         25    2    3    3    0    0  0.42977741626E+02 -0.30784835276E+02  0.20803168707E+03  0.24822690334E+03  0.12467806688E+03 0.  0.
          5    1    4    4  502    0 -0.62818314791E+02  0.12780621579E+02  0.24460431149E+01  0.64323853181E+02  0.47000000000E+01 0. -1.
         -5    1    4    4    0  502  0.19840573165E+02  0.18004213697E+02  0.10559437633E+03  0.10904156256E+03  0.47000000000E+01 0. -1.
          5    1    5    5  503    0 -0.29765647356E+02 -0.87563853405E+01  0.14791314984E+03  0.15120535024E+03  0.47000000000E+01 0.  1.
         -5    1    5    5    0  503  0.72743388982E+02 -0.22028449935E+02  0.60118537229E+02  0.97021553099E+02  0.47000000000E+01 0.  1.
<mgrwt>
<rscale>  0 0.27899553E+03</rscale>
<asrwt>0</asrwt>
<pdfrwt beam="1">  1        3 0.56743416E-01 0.27899553E+03</pdfrwt>
<pdfrwt beam="2">  1       -3 0.81169397E-02 0.27899553E+03</pdfrwt>
<totfact> 0.81953084E+02</totfact>
</mgrwt>
</event>
<event>
 9    1  0.7984035E-001  0.2740894E+03  0.7818608E-02  0.1098962E+00
          2   -1    0    0  501    0  0.00000000000E+00  0.00000000000E+00  0.61660856108E+03  0.61660856108E+03  0.00000000000E+00 0.  1.
         -2   -1    0    0    0  501 -0.00000000000E+00 -0.00000000000E+00 -0.30458953528E+02  0.30458953528E+02  0.00000000000E+00 0.  1.
         35    2    1    2    0    0  0.00000000000E+00  0.00000000000E+00  0.58614960755E+03  0.64706751461E+03  0.27408941247E+03 0.  0.
         25    2    3    3    0    0  0.41462003533E+02 -0.59115978172E+01  0.19972171662E+03  0.23892319952E+03  0.12426377772E+03 0.  0.
         25    2    3    3    0    0 -0.41462003533E+02  0.59115978172E+01  0.38642789093E+03  0.40814431509E+03  0.12450390484E+03 0.  0.
          5    1    4    4  502    0 -0.14904355546E+02  0.39183914484E+02  0.23176911162E+02  0.48132921993E+02  0.47000000000E+01 0.  1.
         -5    1    4    4    0  502  0.56366359080E+02 -0.45095512301E+02  0.17654480545E+03  0.19079027753E+03  0.47000000000E+01 0.  1.
          5    1    5    5  503    0  0.32869523026E+02  0.36938327719E+02  0.12343648838E+03  0.13305450861E+03  0.47000000000E+01 0.  1.
         -5    1    5    5    0  503 -0.74331526559E+02 -0.31026729902E+02  0.26299140255E+03  0.27508980647E+03  0.47000000000E+01 0.  1.
<mgrwt>
<rscale>  0 0.27408941E+03</rscale>
<asrwt>0</asrwt>
<pdfrwt beam="1">  1        2 0.94862846E-01 0.27408941E+03</pdfrwt>
<pdfrwt beam="2">  1       -2 0.46859933E-02 0.27408941E+03</pdfrwt>
<totfact> 0.10510728E+04</totfact>
</mgrwt>
</event>
<event>
 9    1  0.7984035E-001  0.2892308E+03  0.7818608E-02  0.1090751E+00
          2   -1    0    0  501    0  0.00000000000E+00  0.00000000000E+00  0.19429237248E+03  0.19429237248E+03  0.00000000000E+00 0.  1.
         -2   -1    0    0    0  501 -0.00000000000E+00 -0.00000000000E+00 -0.10763988783E+03  0.10763988783E+03  0.00000000000E+00 0.  1.
         35    2    1    2    0    0  0.00000000000E+00  0.71054273576E-14  0.86652484654E+02  0.30193226031E+03  0.28923076725E+03 0.  0.
         25    2    3    3    0    0 -0.31677486435E+02  0.35269019348E+02 -0.13903637630E+02  0.13440301372E+03  0.12499396819E+03 0.  0.
         25    2    3    3    0    0  0.31677486435E+02 -0.35269019348E+02  0.10055612228E+03  0.16752924660E+03  0.12532816070E+03 0.  0.
          5    1    4    4  502    0  0.12380039305E+02  0.71679957681E+02 -0.22783574344E+02  0.76370563480E+02  0.47000000000E+01 0.  1.
         -5    1    4    4    0  502 -0.44057525740E+02 -0.36410938332E+02  0.88799367146E+01  0.58032450238E+02  0.47000000000E+01 0.  1.
          5    1    5    5  503    0  0.50907730354E+02 -0.22049598589E+02  0.12287364757E+03  0.13489924045E+03  0.47000000000E+01 0.  1.
         -5    1    5    5    0  503 -0.19230243919E+02 -0.13219420760E+02 -0.22317525282E+02  0.32630006147E+02  0.47000000000E+01 0.  1.
<mgrwt>
<rscale>  0 0.28923077E+03</rscale>
<asrwt>0</asrwt>
<pdfrwt beam="1">  1        2 0.29891134E-01 0.28923077E+03</pdfrwt>
<pdfrwt beam="2">  1       -2 0.16559983E-01 0.28923077E+03</pdfrwt>
<totfact> 0.50839531E+03</totfact>
</mgrwt>
</event>
<event>
 9    1  0.7984035E-001  0.2747390E+03  0.7818608E-02  0.1098598E+00
          2   -1    0    0  501    0  0.00000000000E+00  0.00000000000E+00  0.47175044332E+03  0.47175044332E+03  0.00000000000E+00 0.  1.
         -2   -1    0    0    0  501 -0.00000000000E+00 -0.00000000000E+00 -0.40000761667E+02  0.40000761667E+02  0.00000000000E+00 0.  1.
         35    2    1    2    0    0  0.00000000000E+00  0.71054273576E-14  0.43174968165E+03  0.51175120499E+03  0.27473898194E+03 0.  0.
         25    2    3    3    0    0  0.53552758218E+02 -0.20771831139E+02  0.21153029785E+03  0.25220065093E+03  0.12474267329E+03 0.  0.
         25    2    3    3    0    0 -0.53552758218E+02  0.20771831139E+02  0.22021938380E+03  0.25955055405E+03  0.12478199480E+03 0.  0.
          5    1    4    4  502    0  0.53557690564E+02  0.98453789141E+01  0.20031241773E+02  0.58212527445E+02  0.47000000000E+01 0.  1.
         -5    1    4    4    0  502 -0.49323459799E-02 -0.30617210053E+02  0.19149905608E+03  0.19398812349E+03  0.47000000000E+01 0.  1.
          5    1    5    5  503    0 -0.93166497511E+02  0.23285197310E+01  0.15438343388E+03  0.18039332836E+03  0.47000000000E+01 0. -1.
         -5    1    5    5    0  503  0.39613739293E+02  0.18443311408E+02  0.65835949925E+02  0.79157225691E+02  0.47000000000E+01 0. -1.
<mgrwt>
<rscale>  0 0.27473898E+03</rscale>
<asrwt>0</asrwt>
<pdfrwt beam="1">  1        2 0.72576987E-01 0.27473898E+03</pdfrwt>
<pdfrwt beam="2">  1       -2 0.61539637E-02 0.27473898E+03</pdfrwt>
<totfact> 0.94027407E+03</totfact>
</mgrwt>
</event>
<event>
 9    1  0.7984035E-001  0.2751206E+03  0.7818608E-02  0.1098384E+00
          2   -1    0    0  501    0  0.00000000000E+00  0.00000000000E+00  0.27124383981E+04  0.27124383981E+04  0.00000000000E+00 0.  1.
         -2   -1    0    0    0  501 -0.00000000000E+00 -0.00000000000E+00 -0.69763198949E+01  0.69763198949E+01  0.00000000000E+00 0.  1.
         35    2    1    2    0    0  0.00000000000E+00  0.00000000000E+00  0.27054620782E+04  0.27194147180E+04  0.27512061326E+03 0.  0.
         25    2    3    3    0    0 -0.39912993048E+02 -0.15202377414E+02  0.17488928783E+04  0.17538504373E+04  0.12466313554E+03 0.  0.
         25    2    3    3    0    0  0.39912993048E+02  0.15202377414E+02  0.95656919990E+03  0.96556428068E+03  0.12436071184E+03 0.  0.
          5    1    4    4  502    0 -0.54378828016E+02  0.14832325535E+02  0.16078734627E+04  0.16088679924E+04  0.47000000000E+01 0.  1.
         -5    1    4    4    0  502  0.14465834968E+02 -0.30034702949E+02  0.14101941563E+03  0.14498244496E+03  0.47000000000E+01 0.  1.
          5    1    5    5  503    0 -0.18649001424E+02  0.10061563869E+02  0.29517819909E+02  0.36638941221E+02  0.47000000000E+01 0.  1.
         -5    1    5    5    0  503  0.58561994472E+02  0.51408135445E+01  0.92705137999E+03  0.92892533946E+03  0.47000000000E+01 0.  1.
<mgrwt>
<rscale>  0 0.27512061E+03</rscale>
<asrwt>0</asrwt>
<pdfrwt beam="1">  1        2 0.41729737E+00 0.27512061E+03</pdfrwt>
<pdfrwt beam="2">  1       -2 0.10732822E-02 0.27512061E+03</pdfrwt>
<totfact> 0.58774679E+03</totfact>
</mgrwt>
</event>
<event>
 9    1  0.7984035E-001  0.2705726E+03  0.7818608E-02  0.1100952E+00
          1   -1    0    0  501    0  0.00000000000E+00  0.00000000000E+00  0.68951139597E+02  0.68951139597E+02  0.00000000000E+00 0. -1.
         -1   -1    0    0    0  501 -0.00000000000E+00 -0.00000000000E+00 -0.26543993703E+03  0.26543993703E+03  0.00000000000E+00 0. -1.
         35    2    1    2    0    0  0.71054273576E-14 -0.71054273576E-14 -0.19648879743E+03  0.33439107662E+03  0.27057262354E+03 0.  0.
         25    2    3    3    0    0 -0.30677532645E+02  0.42202882243E+02 -0.98232968084E+02  0.16721518336E+03  0.12485594598E+03 0.  0.
         25    2    3    3    0    0  0.30677532645E+02 -0.42202882243E+02 -0.98255829346E+02  0.16717589327E+03  0.12478532370E+03 0.  0.
          5    1    4    4  502    0 -0.20503526533E+02  0.83562388505E+02 -0.40223648371E+02  0.95095211558E+02  0.47000000000E+01 0. -1.
         -5    1    4    4    0  502 -0.10174006112E+02 -0.41359506263E+02 -0.58009319713E+02  0.72119971799E+02  0.47000000000E+01 0. -1.
          5    1    5    5  503    0  0.24236114724E+02 -0.41008667153E+02  0.17630036126E+02  0.51009883477E+02  0.47000000000E+01 0.  1.
         -5    1    5    5    0  503  0.64414179206E+01 -0.11942150899E+01 -0.11588586547E+03  0.11616600979E+03  0.47000000000E+01 0.  1.
<mgrwt>
<rscale>  0 0.27057262E+03</rscale>
<asrwt>0</asrwt>
<pdfrwt beam="1">  1        1 0.10607868E-01 0.27057262E+03</pdfrwt>
<pdfrwt beam="2">  1       -1 0.40836914E-01 0.27057262E+03</pdfrwt>
<totfact> 0.35052130E+03</totfact>
</mgrwt>
</event>
<event>
 9    1  0.7984035E-001  0.2723568E+03  0.7818608E-02  0.1099938E+00
          2   -1    0    0  501    0  0.00000000000E+00  0.00000000000E+00  0.73348747508E+03  0.73348747508E+03  0.00000000000E+00 0.  1.
         -2   -1    0    0    0  501 -0.00000000000E+00 -0.00000000000E+00 -0.25282723678E+02  0.25282723678E+02  0.00000000000E+00 0.  1.
         35    2    1    2    0    0  0.71054273576E-14  0.00000000000E+00  0.70820475140E+03  0.75877019875E+03  0.27235683324E+03 0.  0.
         25    2    3    3    0    0 -0.40717617124E+02 -0.16030823004E+02  0.34841010682E+03  0.37527828927E+03  0.13239818818E+03 0.  0.
         25    2    3    3    0    0  0.40717617124E+02  0.16030823004E+02  0.35979464458E+03  0.38349190948E+03  0.12529543783E+03 0.  0.
          5    1    4    4  502    0 -0.38226334977E+02  0.53652870353E+02  0.21135111065E+03  0.22143004573E+03  0.47000000000E+01 0. -1.
         -5    1    4    4    0  502 -0.24912821462E+01 -0.69683693357E+02  0.13705899618E+03  0.15384824354E+03  0.47000000000E+01 0. -1.
          5    1    5    5  503    0  0.45125605037E+02 -0.40047081195E+02  0.94187541193E+02  0.11195298950E+03  0.47000000000E+01 0.  1.
         -5    1    5    5    0  503 -0.44079879133E+01  0.56077904199E+02  0.26560710338E+03  0.27153891998E+03  0.47000000000E+01 0.  1.
<mgrwt>
<rscale>  0 0.27235683E+03</rscale>
<asrwt>0</asrwt>
<pdfrwt beam="1">  1        2 0.11284421E+00 0.27235683E+03</pdfrwt>
<pdfrwt beam="2">  1       -2 0.38896504E-02 0.27235683E+03</pdfrwt>
<totfact> 0.11301857E+04</totfact>
</mgrwt>
</event>
<event>
 9    1  0.7984035E-001  0.2796245E+03  0.7818608E-02  0.1095894E+00
          2   -1    0    0  501    0  0.00000000000E+00  0.00000000000E+00  0.66221223473E+03  0.66221223473E+03  0.00000000000E+00 0. -1.
         -2   -1    0    0    0  501 -0.00000000000E+00 -0.00000000000E+00 -0.29518429352E+02  0.29518429352E+02  0.00000000000E+00 0. -1.
         35    2    1    2    0    0  0.00000000000E+00  0.00000000000E+00  0.63269380538E+03  0.69173066408E+03  0.27962449869E+03 0.  0.
         25    2    3    3    0    0 -0.40310772778E+02 -0.42115869269E+02  0.24659425140E+03  0.28266819260E+03  0.12527520682E+03 0.  0.
         25    2    3    3    0    0  0.40310772778E+02  0.42115869269E+02  0.38609955398E+03  0.40906247148E+03  0.12190379461E+03 0.  0.
          5    1    4    4  502    0  0.44187949341E+02 -0.37354349519E+01  0.67484873528E+02  0.80887740087E+02  0.47000000000E+01 0. -1.
         -5    1    4    4    0  502 -0.84498722119E+02 -0.38380434317E+02  0.17910937787E+03  0.20178045252E+03  0.47000000000E+01 0. -1.
          5    1    5    5  503    0  0.64050330083E+02  0.66427468874E+02  0.33506182456E+03  0.34756807921E+03  0.47000000000E+01 0. -1.
         -5    1    5    5    0  503 -0.23739557305E+02 -0.24311599605E+02  0.51037729422E+02  0.61494392272E+02  0.47000000000E+01 0. -1.
<mgrwt>
<rscale>  0 0.27962450E+03</rscale>
<asrwt>0</asrwt>
<pdfrwt beam="1">  1        2 0.10187879E+00 0.27962450E+03</pdfrwt>
<pdfrwt beam="2">  1       -2 0.45412973E-02 0.27962450E+03</pdfrwt>
<totfact> 0.10138392E+04</totfact>
</mgrwt>
</event>
<event>
 9    1  0.7984035E-001  0.2768434E+03  0.7818608E-02  0.1097426E+00
         -1   -1    0    0    0  501 -0.00000000000E+00  0.00000000000E+00  0.28061892408E+03  0.28061892408E+03  0.00000000000E+00 0. -1.
          1   -1    0    0  501    0  0.00000000000E+00 -0.00000000000E+00 -0.68279662683E+02  0.68279662683E+02  0.00000000000E+00 0. -1.
         35    2    1    2    0    0  0.00000000000E+00  0.71054273576E-14  0.21233926140E+03  0.34889858676E+03  0.27684338879E+03 0.  0.
         25    2    3    3    0    0  0.28051737638E+02  0.50866454119E+02  0.11935856169E+03  0.18221310531E+03  0.12482328852E+03 0.  0.
         25    2    3    3    0    0 -0.28051737638E+02 -0.50866454119E+02  0.92980699702E+02  0.16668548145E+03  0.12555613514E+03 0.  0.
          5    1    4    4  502    0  0.15725522720E+02  0.38705542543E+02  0.14496962018E+03  0.15094267741E+03  0.47000000000E+01 0.  1.
         -5    1    4    4    0  502  0.12326214918E+02  0.12160911576E+02 -0.25611058484E+02  0.31270427903E+02  0.47000000000E+01 0.  1.
          5    1    5    5  503    0  0.20543460312E+02 -0.19342649876E+01  0.95203304478E+02  0.97527095344E+02  0.47000000000E+01 0. -1.
         -5    1    5    5    0  503 -0.48595197950E+02 -0.48932189132E+02 -0.22226047763E+01  0.69158386107E+02  0.47000000000E+01 0. -1.
<mgrwt>
<rscale>  0 0.27684339E+03</rscale>
<asrwt>0</asrwt>
<pdfrwt beam="1">  1        1 0.10504564E-01 0.27684339E+03</pdfrwt>
<pdfrwt beam="2">  1       -1 0.43172142E-01 0.27684339E+03</pdfrwt>
<totfact> 0.32170120E+03</totfact>
</mgrwt>
</event>
<event>
 9    1  0.7984035E-001  0.2778907E+03  0.7818608E-02  0.1096847E+00
         -1   -1    0    0    0  501 -0.00000000000E+00  0.00000000000E+00  0.46965422141E+02  0.46965422141E+02  0.00000000000E+00 0.  1.
          1   -1    0    0  501    0  0.00000000000E+00 -0.00000000000E+00 -0.41106426118E+03  0.41106426118E+03  0.00000000000E+00 0.  1.
         35    2    1    2    0    0  0.00000000000E+00  0.71054273576E-14 -0.36409883904E+03  0.45802968332E+03  0.27789067313E+03 0.  0.
         25    2    3    3    0    0 -0.49109535745E+02  0.35624844954E+02 -0.17792249264E+03  0.22562052341E+03  0.12476911123E+03 0.  0.
         25    2    3    3    0    0  0.49109535745E+02 -0.35624844954E+02 -0.18617634640E+03  0.23240915991E+03  0.12518590006E+03 0.  0.
          5    1    4    4  502    0  0.34908071146E+02 -0.81081315159E+01 -0.19727620695E+02  0.41177472556E+02  0.47000000000E+01 0. -1.
         -5    1    4    4    0  502 -0.84017606892E+02  0.43732976469E+02 -0.15819487194E+03  0.18444305085E+03  0.47000000000E+01 0. -1.
          5    1    5    5  503    0 -0.20297896067E+02  0.97486159332E+01 -0.13028210277E+03  0.13229722749E+03  0.47000000000E+01 0. -1.
         -5    1    5    5    0  503  0.69407431812E+02 -0.45373460887E+02 -0.55894243626E+02  0.10011193243E+03  0.47000000000E+01 0. -1.
<mgrwt>
<rscale>  0 0.27789067E+03</rscale>
<asrwt>0</asrwt>
<pdfrwt beam="1">  1        1 0.63240653E-01 0.27789067E+03</pdfrwt>
<pdfrwt beam="2">  1       -1 0.72254499E-02 0.27789067E+03</pdfrwt>
<totfact> 0.58563863E+03</totfact>
</mgrwt>
</event>
<event>
 9    1  0.7984035E-001  0.2759558E+03  0.7818608E-02  0.1097919E+00
          1   -1    0    0  501    0  0.00000000000E+00  0.00000000000E+00  0.39649558033E+04  0.39649558033E+04  0.00000000000E+00 0. -1.
         -1   -1    0    0    0  501 -0.00000000000E+00 -0.00000000000E+00 -0.48015419836E+01  0.48015419836E+01  0.00000000000E+00 0. -1.
         35    2    1    2    0    0  0.71054273576E-14  0.00000000000E+00  0.39601542613E+04  0.39697573453E+04  0.27595580626E+03 0.  0.
         25    2    3    3    0    0 -0.17312494979E+02 -0.32626131396E+01  0.11992713312E+04  0.12059673028E+04  0.12567832850E+03 0.  0.
         25    2    3    3    0    0  0.17312494979E+02  0.32626131396E+01  0.27608829300E+04  0.27637900425E+04  0.12550091021E+03 0.  0.
          5    1    4    4  502    0  0.23901383097E+02 -0.38637928237E+02  0.19746751292E+03  0.20268121342E+03  0.47000000000E+01 0.  1.
         -5    1    4    4    0  502 -0.41213878076E+02  0.35375315097E+02  0.10018038183E+04  0.10032860893E+04  0.47000000000E+01 0.  1.
          5    1    5    5  503    0 -0.19238171327E+02 -0.42911189350E+02  0.20209389073E+04  0.20214914382E+04  0.47000000000E+01 0. -1.
         -5    1    5    5    0  503  0.36550666306E+02  0.46173802490E+02  0.73994402271E+03  0.74229860433E+03  0.47000000000E+01 0. -1.
<mgrwt>
<rscale>  0 0.27595581E+03</rscale>
<asrwt>0</asrwt>
<pdfrwt beam="1">  1        1 0.60999058E+00 0.27595581E+03</pdfrwt>
<pdfrwt beam="2">  1       -1 0.73870194E-03 0.27595581E+03</pdfrwt>
<totfact> 0.39100972E+02</totfact>
</mgrwt>
</event>
<event>
 9    1  0.7984035E-001  0.2515723E+03  0.7818608E-02  0.1112315E+00
         -1   -1    0    0    0  501 -0.00000000000E+00  0.00000000000E+00  0.20028750938E+02  0.20028750938E+02  0.00000000000E+00 0. -1.
          1   -1    0    0  501    0  0.00000000000E+00 -0.00000000000E+00 -0.78997216845E+03  0.78997216845E+03  0.00000000000E+00 0. -1.
         35    2    1    2    0    0  0.71054273576E-14 -0.17763568394E-14 -0.76994341752E+03  0.81000091939E+03  0.25157230221E+03 0.  0.
         25    2    3    3    0    0 -0.12293626000E+02 -0.68650014701E+01 -0.41946674246E+03  0.43782742696E+03  0.12466854568E+03 0.  0.
         25    2    3    3    0    0  0.12293626000E+02  0.68650014701E+01 -0.35047667506E+03  0.37217349243E+03  0.12442245467E+03 0.  0.
          5    1    4    4  502    0  0.43109149548E+02  0.18434212863E+02 -0.29969993627E+03  0.30338154324E+03  0.47000000000E+01 0. -1.
         -5    1    4    4    0  502 -0.55402775548E+02 -0.25299214333E+02 -0.11976680619E+03  0.13444588372E+03  0.47000000000E+01 0. -1.
          5    1    5    5  503    0 -0.47112311161E+01  0.49889628471E+01  0.90026833153E+01  0.12256580102E+02  0.47000000000E+01 0.  1.
         -5    1    5    5    0  503  0.17004857116E+02  0.18760386231E+01 -0.35947935837E+03  0.35991691233E+03  0.47000000000E+01 0.  1.
<mgrwt>
<rscale>  0 0.25157230E+03</rscale>
<asrwt>0</asrwt>
<pdfrwt beam="1">  1        1 0.12153417E+00 0.25157230E+03</pdfrwt>
<pdfrwt beam="2">  1       -1 0.30813465E-02 0.25157230E+03</pdfrwt>
<totfact> 0.84686181E+03</totfact>
</mgrwt>
</event>
<event>
 8    1  0.7984035E-001  0.3546948E+03  0.7818608E-02  0.1060704E+00
          1   -1    0    0  501    0  0.00000000000E+00  0.00000000000E+00  0.91582102834E+03  0.91582102834E+03  0.00000000000E+00 0. -1.
         -1   -1    0    0    0  501 -0.00000000000E+00 -0.00000000000E+00 -0.34343066413E+02  0.34343066413E+02  0.00000000000E+00 0. -1.
         25    2    1    2    0    0  0.14992617809E+02  0.10614355730E+03  0.61739694632E+03  0.63897950153E+03  0.12499832281E+03 0.  0.
         25    2    1    2    0    0 -0.14992617809E+02 -0.10614355730E+03  0.26408101561E+03  0.31118459322E+03  0.12492331612E+03 0.  0.
          5    1    3    3  502    0  0.59952594461E+02  0.46968251317E+02  0.44030936866E+03  0.44687219688E+03  0.47000000000E+01 0.  1.
         -5    1    3    3    0  502 -0.44959976652E+02  0.59175305982E+02  0.17708757766E+03  0.19210730465E+03  0.47000000000E+01 0.  1.
          5    1    4    4  503    0 -0.44787516780E+02 -0.10092338323E+03  0.25701464107E+03  0.27976787998E+03  0.47000000000E+01 0.  1.
         -5    1    4    4    0  503  0.29794898971E+02 -0.52201740664E+01  0.70663745355E+01  0.31416713244E+02  0.47000000000E+01 0.  1.
<mgrwt>
<rscale>  0 0.35469481E+03</rscale>
<asrwt>0</asrwt>
<pdfrwt beam="1">  1        1 0.14089552E+00 0.35469481E+03</pdfrwt>
<pdfrwt beam="2">  1       -1 0.52835494E-02 0.35469481E+03</pdfrwt>
<totfact> 0.30138896E+03</totfact>
</mgrwt>
</event>
<event>
 9    1  0.7984035E-001  0.2746908E+03  0.7818608E-02  0.1098625E+00
         -1   -1    0    0    0  501 -0.00000000000E+00  0.00000000000E+00  0.17633051369E+03  0.17633051369E+03  0.00000000000E+00 0.  1.
          1   -1    0    0  501    0  0.00000000000E+00 -0.00000000000E+00 -0.10697953569E+03  0.10697953569E+03  0.00000000000E+00 0.  1.
         35    2    1    2    0    0 -0.14210854715E-13 -0.35527136788E-14  0.69350978007E+02  0.28331004938E+03  0.27469078239E+03 0.  0.
         25    2    3    3    0    0  0.57248999423E+02  0.19112632648E+01  0.44933214708E+02  0.14485726387E+03  0.12523391014E+03 0.  0.
         25    2    3    3    0    0 -0.57248999423E+02 -0.19112632648E+01  0.24417763299E+02  0.13845278551E+03  0.12366020293E+03 0.  0.
          5    1    4    4  502    0 -0.10150318048E+02 -0.25412121644E+02 -0.29621261079E+02  0.40599433381E+02  0.47000000000E+01 0. -1.
         -5    1    4    4    0  502  0.67399317472E+02  0.27323384909E+02  0.74554475787E+02  0.10425783049E+03  0.47000000000E+01 0. -1.
          5    1    5    5  503    0 -0.92882027688E+02  0.14817111818E+02  0.49939251949E+01  0.94306135319E+02  0.47000000000E+01 0.  1.
         -5    1    5    5    0  503  0.35633028264E+02 -0.16728375083E+02  0.19423838104E+02  0.44146650189E+02  0.47000000000E+01 0.  1.
<mgrwt>
<rscale>  0 0.27469078E+03</rscale>
<asrwt>0</asrwt>
<pdfrwt beam="1">  1        1 0.16458390E-01 0.27469078E+03</pdfrwt>
<pdfrwt beam="2">  1       -1 0.27127771E-01 0.27469078E+03</pdfrwt>
<totfact> 0.39759168E+03</totfact>
</mgrwt>
</event>
<event>
 9    1  0.7984035E-001  0.2717691E+03  0.7818608E-02  0.1100271E+00
         -2   -1    0    0    0  501 -0.00000000000E+00  0.00000000000E+00  0.31094149439E+02  0.31094149439E+02  0.00000000000E+00 0. -1.
          2   -1    0    0  501    0  0.00000000000E+00 -0.00000000000E+00 -0.59382930461E+03  0.59382930461E+03  0.00000000000E+00 0. -1.
         35    2    1    2    0    0  0.71054273576E-14  0.35527136788E-14 -0.56273515517E+03  0.62492345405E+03  0.27176914570E+03 0.  0.
         25    2    3    3    0    0  0.49035227208E+02 -0.33679377549E+00 -0.36956981796E+03  0.39368931327E+03  0.12651030829E+03 0.  0.
         25    2    3    3    0    0 -0.49035227208E+02  0.33679377549E+00 -0.19316533722E+03  0.23123414078E+03  0.11726812620E+03 0.  0.
          5    1    4    4  502    0  0.20538964706E+02 -0.62290020304E+02 -0.21114030760E+03  0.22114297455E+03  0.47000000000E+01 0. -1.
         -5    1    4    4    0  502  0.28496262502E+02  0.61953226529E+02 -0.15842951036E+03  0.17254633872E+03  0.47000000000E+01 0. -1.
          5    1    5    5  503    0  0.34401358450E+02 -0.19506901651E+02 -0.77852755117E+02  0.87447779586E+02  0.47000000000E+01 0.  1.
         -5    1    5    5    0  503 -0.83436585658E+02  0.19843695427E+02 -0.11531258210E+03  0.14378636119E+03  0.47000000000E+01 0.  1.
<mgrwt>
<rscale>  0 0.27176915E+03</rscale>
<asrwt>0</asrwt>
<pdfrwt beam="1">  1        2 0.91358344E-01 0.27176915E+03</pdfrwt>
<pdfrwt beam="2">  1       -2 0.47837158E-02 0.27176915E+03</pdfrwt>
<totfact> 0.10639767E+04</totfact>
</mgrwt>
</event>
<event>
 9    1  0.7984035E-001  0.2772424E+03  0.7818608E-02  0.1097205E+00
          1   -1    0    0  501    0  0.00000000000E+00  0.00000000000E+00  0.11082585891E+03  0.11082585891E+03  0.00000000000E+00 0.  1.
         -1   -1    0    0    0  501 -0.00000000000E+00 -0.00000000000E+00 -0.17338763857E+03  0.17338763857E+03  0.00000000000E+00 0.  1.
         35    2    1    2    0    0 -0.71054273576E-14  0.00000000000E+00 -0.62561779662E+02  0.28421349749E+03  0.27724237749E+03 0.  0.
         25    2    3    3    0    0 -0.20181655084E+02 -0.45325352867E+01  0.21679276800E+02  0.13120083319E+03  0.12773341188E+03 0.  0.
         25    2    3    3    0    0  0.20181655084E+02  0.45325352867E+01 -0.84241056462E+02  0.15301266429E+03  0.12604950124E+03 0.  0.
          5    1    4    4  502    0 -0.66730426461E+02  0.26945650412E+02  0.45273626853E+01  0.72260673292E+02  0.47000000000E+01 0. -1.
         -5    1    4    4    0  502  0.46548771377E+02 -0.31478185699E+02  0.17151914114E+02  0.58940159903E+02  0.47000000000E+01 0. -1.
          5    1    5    5  503    0 -0.33251498889E+02 -0.26616198510E+02  0.62496399569E+01  0.43303951333E+02  0.47000000000E+01 0. -1.
         -5    1    5    5    0  503  0.53433153973E+02  0.31148733797E+02 -0.90490696419E+02  0.10970871296E+03  0.47000000000E+01 0. -1.
<mgrwt>
<rscale>  0 0.27724238E+03</rscale>
<asrwt>0</asrwt>
<pdfrwt beam="1">  1        1 0.17050132E-01 0.27724238E+03</pdfrwt>
<pdfrwt beam="2">  1       -1 0.26675021E-01 0.27724238E+03</pdfrwt>
<totfact> 0.39068339E+03</totfact>
</mgrwt>
</event>
<event>
 9    1  0.7984035E-001  0.2764478E+03  0.7818608E-02  0.1097645E+00
         -1   -1    0    0    0  501 -0.00000000000E+00  0.00000000000E+00  0.31125220282E+02  0.31125220282E+02  0.00000000000E+00 0.  1.
          1   -1    0    0  501    0  0.00000000000E+00 -0.00000000000E+00 -0.61383823486E+03  0.61383823486E+03  0.00000000000E+00 0.  1.
         35    2    1    2    0    0  0.00000000000E+00 -0.35527136788E-14 -0.58271301458E+03  0.64496345514E+03  0.27644782710E+03 0.  0.
         25    2    3    3    0    0 -0.49009941117E+02 -0.34229714005E+01 -0.21126858600E+03  0.25028411223E+03  0.12487605994E+03 0.  0.
         25    2    3    3    0    0  0.49009941117E+02  0.34229714005E+01 -0.37144442858E+03  0.39467934291E+03  0.12404486743E+03 0.  0.
          5    1    4    4  502    0 -0.14483489393E+02 -0.31014056697E+02 -0.16336310225E+00  0.34550830168E+02  0.47000000000E+01 0.  1.
         -5    1    4    4    0  502 -0.34526451724E+02  0.27591085297E+02 -0.21110522290E+03  0.21573328206E+03  0.47000000000E+01 0.  1.
          5    1    5    5  503    0  0.27286777419E+02  0.68033308145E+01 -0.67599384168E+01  0.29302564725E+02  0.47000000000E+01 0. -1.
         -5    1    5    5    0  503  0.21723163698E+02 -0.33803594140E+01 -0.36468449016E+03  0.36537677818E+03  0.47000000000E+01 0. -1.
<mgrwt>
<rscale>  0 0.27644783E+03</rscale>
<asrwt>0</asrwt>
<pdfrwt beam="1">  1        1 0.94436648E-01 0.27644783E+03</pdfrwt>
<pdfrwt beam="2">  1       -1 0.47884956E-02 0.27644783E+03</pdfrwt>
<totfact> 0.63761046E+03</totfact>
</mgrwt>
</event>
<event>
 9    1  0.7984035E-001  0.2775343E+03  0.7818608E-02  0.1097043E+00
         -3   -1    0    0    0  501 -0.00000000000E+00  0.00000000000E+00  0.15351816610E+03  0.15351816610E+03  0.00000000000E+00 0.  1.
          3   -1    0    0  501    0  0.00000000000E+00 -0.00000000000E+00 -0.12543347334E+03  0.12543347334E+03  0.00000000000E+00 0.  1.
         35    2    1    2    0    0 -0.35527136788E-14  0.14210854715E-13  0.28084692765E+02  0.27895163944E+03  0.27753426307E+03 0.  0.
         25    2    3    3    0    0  0.11815026331E+02  0.43401025537E+02  0.55541803273E+02  0.14336779737E+03  0.12428270011E+03 0.  0.
         25    2    3    3    0    0 -0.11815026331E+02 -0.43401025537E+02 -0.27457110508E+02  0.13558384208E+03  0.12492334229E+03 0.  0.
          5    1    4    4  502    0  0.28983253183E+02 -0.29583111374E+02  0.54017694169E+02  0.68228958126E+02  0.47000000000E+01 0. -1.
         -5    1    4    4    0  502 -0.17168226852E+02  0.72984136911E+02  0.15241091041E+01  0.75138839240E+02  0.47000000000E+01 0. -1.
          5    1    5    5  503    0 -0.35145603103E+02 -0.46003138579E+01  0.40351767019E+02  0.53914111387E+02  0.47000000000E+01 0.  1.
         -5    1    5    5    0  503  0.23330576772E+02 -0.38800711679E+02 -0.67808877527E+02  0.81669730689E+02  0.47000000000E+01 0.  1.
<mgrwt>
<rscale>  0 0.27753426E+03</rscale>
<asrwt>0</asrwt>
<pdfrwt beam="1">  1        3 0.19297457E-01 0.27753426E+03</pdfrwt>
<pdfrwt beam="2">  1       -3 0.23618179E-01 0.27753426E+03</pdfrwt>
<totfact> 0.10138968E+03</totfact>
</mgrwt>
</event>
<event>
 9    1  0.7984035E-001  0.2764096E+03  0.7818608E-02  0.1097666E+00
         -1   -1    0    0    0  501 -0.00000000000E+00  0.00000000000E+00  0.37834800587E+02  0.37834800587E+02  0.00000000000E+00 0. -1.
          1   -1    0    0  501    0  0.00000000000E+00 -0.00000000000E+00 -0.50484125136E+03  0.50484125136E+03  0.00000000000E+00 0. -1.
         35    2    1    2    0    0 -0.71054273576E-14  0.14210854715E-13 -0.46700645078E+03  0.54267605195E+03  0.27640960962E+03 0.  0.
         25    2    3    3    0    0  0.31214118183E+02 -0.43406268083E+02 -0.26085778821E+03  0.29529656909E+03  0.12765129361E+03 0.  0.
         25    2    3    3    0    0 -0.31214118183E+02  0.43406268083E+02 -0.20614866257E+03  0.24737948286E+03  0.12586068561E+03 0.  0.
          5    1    4    4  502    0 -0.45608489778E+02 -0.36946346635E+02 -0.86989985910E+02  0.10504529746E+03  0.47000000000E+01 0. -1.
         -5    1    4    4    0  502  0.76822607961E+02 -0.64599214473E+01 -0.17386780230E+03  0.19025127163E+03  0.47000000000E+01 0. -1.
          5    1    5    5  503    0  0.27653345197E+02 -0.27073551642E+02 -0.31957714165E+02  0.50409028892E+02  0.47000000000E+01 0.  1.
         -5    1    5    5    0  503 -0.58867463381E+02  0.70479819725E+02 -0.17419094840E+03  0.19697045397E+03  0.47000000000E+01 0.  1.
<mgrwt>
<rscale>  0 0.27640961E+03</rscale>
<asrwt>0</asrwt>
<pdfrwt beam="1">  1        1 0.77667879E-01 0.27640961E+03</pdfrwt>
<pdfrwt beam="2">  1       -1 0.58207390E-02 0.27640961E+03</pdfrwt>
<totfact> 0.62082663E+03</totfact>
</mgrwt>
</event>
<event>
 9    1  0.7984035E-001  0.2758615E+03  0.7818608E-02  0.1097971E+00
         -2   -1    0    0    0  501 -0.00000000000E+00  0.00000000000E+00  0.25027528445E+03  0.25027528445E+03  0.00000000000E+00 0. -1.
          2   -1    0    0  501    0  0.00000000000E+00 -0.00000000000E+00 -0.76015869004E+02  0.76015869004E+02  0.00000000000E+00 0. -1.
         35    2    1    2    0    0  0.00000000000E+00  0.00000000000E+00  0.17425941545E+03  0.32629115346E+03  0.27586151046E+03 0.  0.
         25    2    3    3    0    0 -0.27737564412E+02  0.24307431506E+02  0.14034102362E+03  0.19158570918E+03  0.12509699174E+03 0.  0.
         25    2    3    3    0    0  0.27737564412E+02 -0.24307431506E+02  0.33918391827E+02  0.13470544428E+03  0.12503949660E+03 0.  0.
          5    1    4    4  502    0 -0.77380007371E+02  0.13933725551E+02  0.94906115034E+02  0.12333318661E+03  0.47000000000E+01 0.  1.
         -5    1    4    4    0  502  0.49642442960E+02  0.10373705955E+02  0.45434908589E+02  0.68252522567E+02  0.47000000000E+01 0.  1.
          5    1    5    5  503    0 -0.44043819821E+02 -0.87837709929E+01  0.40714717930E+02  0.60801241380E+02  0.47000000000E+01 0. -1.
         -5    1    5    5    0  503  0.71781384232E+02 -0.15523660513E+02 -0.67963261030E+01  0.73904202901E+02  0.47000000000E+01 0. -1.
<mgrwt>
<rscale>  0 0.27586151E+03</rscale>
<asrwt>0</asrwt>
<pdfrwt beam="1">  1        2 0.11694749E-01 0.27586151E+03</pdfrwt>
<pdfrwt beam="2">  1       -2 0.38503890E-01 0.27586151E+03</pdfrwt>
<totfact> 0.33659273E+03</totfact>
</mgrwt>
</event>
<event>
 9    1  0.7984035E-001  0.2779873E+03  0.7818608E-02  0.1096793E+00
         -1   -1    0    0    0  501 -0.00000000000E+00  0.00000000000E+00  0.51031122323E+02  0.51031122323E+02  0.00000000000E+00 0. -1.
          1   -1    0    0  501    0  0.00000000000E+00 -0.00000000000E+00 -0.37857760653E+03  0.37857760653E+03  0.00000000000E+00 0. -1.
         35    2    1    2    0    0  0.00000000000E+00 -0.14210854715E-13 -0.32754648421E+03  0.42960872885E+03  0.27798733890E+03 0.  0.
         25    2    3    3    0    0  0.94154465097E+01  0.34316637791E+02 -0.23970934370E+03  0.27244455794E+03  0.12449572455E+03 0.  0.
         25    2    3    3    0    0 -0.94154465097E+01 -0.34316637791E+02 -0.87837140505E+02  0.15716417091E+03  0.12537516143E+03 0.  0.
          5    1    4    4  502    0 -0.55339856773E+02  0.20110999576E+02 -0.79876280029E+02  0.99344160184E+02  0.47000000000E+01 0.  1.
         -5    1    4    4    0  502  0.64755303282E+02  0.14205638215E+02 -0.15983306367E+03  0.17310039775E+03  0.47000000000E+01 0.  1.
          5    1    5    5  503    0 -0.13820579104E+02 -0.35837222199E+02 -0.11908948412E+03  0.12521864929E+03  0.47000000000E+01 0. -1.
         -5    1    5    5    0  503  0.44051325941E+01  0.15205844080E+01  0.31252343617E+02  0.31945521621E+02  0.47000000000E+01 0. -1.
<mgrwt>
<rscale>  0 0.27798734E+03</rscale>
<asrwt>0</asrwt>
<pdfrwt beam="1">  1        1 0.58242708E-01 0.27798734E+03</pdfrwt>
<pdfrwt beam="2">  1       -1 0.78509420E-02 0.27798734E+03</pdfrwt>
<totfact> 0.57347742E+03</totfact>
</mgrwt>
</event>
<event>
 9    1  0.7984035E-001  0.2736074E+03  0.7818608E-02  0.1099233E+00
         -1   -1    0    0    0  501 -0.00000000000E+00  0.00000000000E+00  0.29169331647E+02  0.29169331647E+02  0.00000000000E+00 0.  1.
          1   -1    0    0  501    0  0.00000000000E+00 -0.00000000000E+00 -0.64160709127E+03  0.64160709127E+03  0.00000000000E+00 0.  1.
         35    2    1    2    0    0  0.00000000000E+00  0.71054273576E-14 -0.61243775962E+03  0.67077642291E+03  0.27360738318E+03 0.  0.
         25    2    3    3    0    0  0.13985750335E+02 -0.28340145220E+02 -0.41073313779E+03  0.43134794771E+03  0.12790846910E+03 0.  0.
         25    2    3    3    0    0 -0.13985750335E+02  0.28340145220E+02 -0.20170462183E+03  0.23942847521E+03  0.12506988138E+03 0.  0.
          5    1    4    4  502    0 -0.27840791406E+02 -0.59296202836E+02 -0.12840276642E+03  0.14422381828E+03  0.47000000000E+01 0. -1.
         -5    1    4    4    0  502  0.41826541741E+02  0.30956057616E+02 -0.28233037137E+03  0.28712412942E+03  0.47000000000E+01 0. -1.
          5    1    5    5  503    0 -0.61618114993E+02  0.36189570711E+02 -0.74725123163E+02  0.10350077852E+03  0.47000000000E+01 0. -1.
         -5    1    5    5    0  503  0.47632364658E+02 -0.78494254911E+01 -0.12697949867E+03  0.13592769668E+03  0.47000000000E+01 0. -1.
<mgrwt>
<rscale>  0 0.27360738E+03</rscale>
<asrwt>0</asrwt>
<pdfrwt beam="1">  1        1 0.98708779E-01 0.27360738E+03</pdfrwt>
<pdfrwt beam="2">  1       -1 0.44875897E-02 0.27360738E+03</pdfrwt>
<totfact> 0.65994202E+03</totfact>
</mgrwt>
</event>
<event>
 9    1  0.7984035E-001  0.2750378E+03  0.7818608E-02  0.1098430E+00
          1   -1    0    0  501    0  0.00000000000E+00  0.00000000000E+00  0.88240350772E+03  0.88240350772E+03  0.00000000000E+00 0. -1.
         -1   -1    0    0    0  501 -0.00000000000E+00 -0.00000000000E+00 -0.21431745897E+02  0.21431745897E+02  0.00000000000E+00 0. -1.
         35    2    1    2    0    0  0.71054273576E-14  0.00000000000E+00  0.86097176182E+03  0.90383525361E+03  0.27503779927E+03 0.  0.
         25    2    3    3    0    0 -0.38317549221E+02 -0.41021536663E+02  0.36880527527E+03  0.39316008835E+03  0.12412301542E+03 0.  0.
         25    2    3    3    0    0  0.38317549221E+02  0.41021536663E+02  0.49216648655E+03  0.51067516526E+03  0.12413812020E+03 0.  0.
          5    1    4    4  502    0  0.26075911690E+02 -0.60252284031E+02  0.14107829882E+03  0.15567744634E+03  0.47000000000E+01 0. -1.
         -5    1    4    4    0  502 -0.64393460911E+02  0.19230747367E+02  0.22772697645E+03  0.23748264201E+03  0.47000000000E+01 0. -1.
          5    1    5    5  503    0 -0.19469940772E+02 -0.43369642506E+00  0.35964615198E+03  0.36020370809E+03  0.47000000000E+01 0.  1.
         -5    1    5    5    0  503  0.57787489993E+02  0.41455233088E+02  0.13252033456E+03  0.15047145717E+03  0.47000000000E+01 0.  1.
<mgrwt>
<rscale>  0 0.27503780E+03</rscale>
<asrwt>0</asrwt>
<pdfrwt beam="1">  1        1 0.13575436E+00 0.27503780E+03</pdfrwt>
<pdfrwt beam="2">  1       -1 0.32971924E-02 0.27503780E+03</pdfrwt>
<totfact> 0.64585919E+03</totfact>
</mgrwt>
</event>
<event>
 9    1  0.7984035E-001  0.2780186E+03  0.7818608E-02  0.1096776E+00
         -4   -1    0    0    0  501 -0.00000000000E+00  0.00000000000E+00  0.17914588937E+03  0.17914588937E+03  0.00000000000E+00 0.  1.
          4   -1    0    0  501    0  0.00000000000E+00 -0.00000000000E+00 -0.10786510689E+03  0.10786510689E+03  0.00000000000E+00 0.  1.
         35    2    1    2    0    0  0.71054273576E-14  0.14210854715E-13  0.71280782472E+02  0.28701099626E+03  0.27801863611E+03 0.  0.
         25    2    3    3    0    0  0.28939461945E+02  0.52182475069E+02  0.54023127673E+01  0.13623142081E+03  0.12234913923E+03 0.  0.
         25    2    3    3    0    0 -0.28939461945E+02 -0.52182475069E+02  0.65878469705E+02  0.15077957545E+03  0.12179492781E+03 0.  0.
          5    1    4    4  502    0  0.46837693830E+02  0.83140644554E+02  0.19491962334E+02  0.97509809434E+02  0.47000000000E+01 0. -1.
         -5    1    4    4    0  502 -0.17898231885E+02 -0.30958169485E+02 -0.14089649566E+02  0.38721611374E+02  0.47000000000E+01 0. -1.
          5    1    5    5  503    0  0.20859889270E+02 -0.75677812927E+02  0.26749171284E+02  0.83065483290E+02  0.47000000000E+01 0. -1.
         -5    1    5    5    0  503 -0.49799351215E+02  0.23495337858E+02  0.39129298421E+02  0.67714092163E+02  0.47000000000E+01 0. -1.
<mgrwt>
<rscale>  0 0.27801864E+03</rscale>
<asrwt>0</asrwt>
<pdfrwt beam="1">  1        4 0.16594632E-01 0.27801864E+03</pdfrwt>
<pdfrwt beam="2">  1       -4 0.27560906E-01 0.27801864E+03</pdfrwt>
<totfact> 0.73925612E+02</totfact>
</mgrwt>
</event>
<event>
 9    1  0.7984035E-001  0.2756990E+03  0.7818608E-02  0.1098061E+00
          2   -1    0    0  501    0  0.00000000000E+00  0.00000000000E+00  0.25677555048E+03  0.25677555048E+03  0.00000000000E+00 0.  1.
         -2   -1    0    0    0  501 -0.00000000000E+00 -0.00000000000E+00 -0.74004276827E+02  0.74004276827E+02  0.00000000000E+00 0.  1.
         35    2    1    2    0    0  0.00000000000E+00  0.00000000000E+00  0.18277127365E+03  0.33077982731E+03  0.27569903098E+03 0.  0.
         25    2    3    3    0    0  0.38829087765E+02  0.43962814887E+02  0.10349359330E+03  0.17219149780E+03  0.12449321632E+03 0.  0.
         25    2    3    3    0    0 -0.38829087765E+02 -0.43962814887E+02  0.79277680352E+02  0.15858832951E+03  0.12419694242E+03 0.  0.
          5    1    4    4  502    0 -0.18516252526E+02  0.34200991837E+02 -0.13511786547E+02  0.41439327045E+02  0.47000000000E+01 0. -1.
         -5    1    4    4    0  502  0.57345340292E+02  0.97618230497E+01  0.11700537985E+03  0.13075217075E+03  0.47000000000E+01 0. -1.
          5    1    5    5  503    0  0.31018403575E+02 -0.31638060107E+02 -0.87889718996E+01  0.45414141352E+02  0.47000000000E+01 0. -1.
         -5    1    5    5    0  503 -0.69847491340E+02 -0.12324754780E+02  0.88066652252E+02  0.11317418816E+03  0.47000000000E+01 0. -1.
<mgrwt>
<rscale>  0 0.27569903E+03</rscale>
<asrwt>0</asrwt>
<pdfrwt beam="1">  1        2 0.39503930E-01 0.27569903E+03</pdfrwt>
<pdfrwt beam="2">  1       -2 0.11385273E-01 0.27569903E+03</pdfrwt>
<totfact> 0.69226586E+03</totfact>
</mgrwt>
</event>
<event>
 9    1  0.7984035E-001  0.2791728E+03  0.7818608E-02  0.1096142E+00
          1   -1    0    0  501    0  0.00000000000E+00  0.00000000000E+00  0.27866713670E+03  0.27866713670E+03  0.00000000000E+00 0.  1.
         -1   -1    0    0    0  501 -0.00000000000E+00 -0.00000000000E+00 -0.69919837908E+02  0.69919837908E+02  0.00000000000E+00 0.  1.
         35    2    1    2    0    0  0.00000000000E+00  0.00000000000E+00  0.20874729880E+03  0.34858697461E+03  0.27917278541E+03 0.  0.
         25    2    3    3    0    0  0.42879092189E+01  0.40470344698E+01  0.17821979357E+03  0.21916853855E+03  0.12742758264E+03 0.  0.
         25    2    3    3    0    0 -0.42879092189E+01 -0.40470344698E+01  0.30527505229E+02  0.12941843606E+03  0.12562817504E+03 0.  0.
          5    1    4    4  502    0 -0.25550473374E+02 -0.11022098753E+02  0.18292205951E+03  0.18508615077E+03  0.47000000000E+01 0. -1.
         -5    1    4    4    0  502  0.29838382593E+02  0.15069133223E+02 -0.47022659453E+01  0.34082387781E+02  0.47000000000E+01 0. -1.
          5    1    5    5  503    0  0.35745507718E+02  0.24859577833E+02  0.58031517060E+02  0.72701354213E+02  0.47000000000E+01 0.  1.
         -5    1    5    5    0  503 -0.40033416937E+02 -0.28906612303E+02 -0.27504011832E+02  0.56717081847E+02  0.47000000000E+01 0.  1.
<mgrwt>
<rscale>  0 0.27917279E+03</rscale>
<asrwt>0</asrwt>
<pdfrwt beam="1">  1        1 0.42871867E-01 0.27917279E+03</pdfrwt>
<pdfrwt beam="2">  1       -1 0.10756898E-01 0.27917279E+03</pdfrwt>
<totfact> 0.52031725E+03</totfact>
</mgrwt>
</event>
<event>
 9    1  0.7984035E-001  0.2787074E+03  0.7818608E-02  0.1096397E+00
         -1   -1    0    0    0  501 -0.00000000000E+00  0.00000000000E+00  0.13441867784E+02  0.13441867784E+02  0.00000000000E+00 0. -1.
          1   -1    0    0  501    0  0.00000000000E+00 -0.00000000000E+00 -0.14446988904E+04  0.14446988904E+04  0.00000000000E+00 0. -1.
         35    2    1    2    0    0  0.71054273576E-14  0.00000000000E+00 -0.14312570227E+04  0.14581407582E+04  0.27870738399E+03 0.  0.
         25    2    3    3    0    0  0.56313747728E+02 -0.21673284846E+02 -0.66324396789E+03  0.67762790825E+03  0.12508417822E+03 0.  0.
         25    2    3    3    0    0 -0.56313747728E+02  0.21673284846E+02 -0.76801305476E+03  0.78051284997E+03  0.12536062867E+03 0.  0.
          5    1    4    4  502    0 -0.45853471347E+01 -0.12617830530E+02 -0.53604349286E+03  0.53623218039E+03  0.47000000000E+01 0. -1.
         -5    1    4    4    0  502  0.60899094862E+02 -0.90554543158E+01 -0.12720047504E+03  0.14139572786E+03  0.47000000000E+01 0. -1.
          5    1    5    5  503    0  0.52990635530E+01 -0.45832654185E+02 -0.21147370684E+03  0.21649926316E+03  0.47000000000E+01 0. -1.
         -5    1    5    5    0  503 -0.61612811281E+02  0.67505939031E+02 -0.55653934792E+03  0.56401358680E+03  0.47000000000E+01 0. -1.
<mgrwt>
<rscale>  0 0.27870738E+03</rscale>
<asrwt>0</asrwt>
<pdfrwt beam="1">  1        1 0.22226135E+00 0.27870738E+03</pdfrwt>
<pdfrwt beam="2">  1       -1 0.20679798E-02 0.27870738E+03</pdfrwt>
<totfact> 0.50868778E+03</totfact>
</mgrwt>
</event>
<event>
 9    1  0.7984035E-001  0.2732291E+03  0.7818608E-02  0.1099446E+00
          2   -1    0    0  501    0  0.00000000000E+00  0.00000000000E+00  0.11152944078E+04  0.11152944078E+04  0.00000000000E+00 0. -1.
         -2   -1    0    0    0  501 -0.00000000000E+00 -0.00000000000E+00 -0.16734180638E+02  0.16734180638E+02  0.00000000000E+00 0. -1.
         35    2    1    2    0    0  0.00000000000E+00  0.00000000000E+00  0.10985602271E+04  0.11320285884E+04  0.27322912059E+03 0.  0.
         25    2    3    3    0    0 -0.33977052348E+02 -0.19801275274E+02  0.39113877181E+03  0.41257035019E+03  0.12521271682E+03 0.  0.
         25    2    3    3    0    0  0.33977052348E+02  0.19801275274E+02  0.70742145531E+03  0.71945823821E+03  0.12501404122E+03 0.  0.
          5    1    4    4  502    0 -0.79446098597E+02 -0.44970809313E+01  0.19653231556E+03  0.21208240704E+03  0.47000000000E+01 0. -1.
         -5    1    4    4    0  502  0.45469046249E+02 -0.15304194343E+02  0.19460645625E+03  0.20048794315E+03  0.47000000000E+01 0. -1.
          5    1    5    5  503    0  0.24752161316E+02  0.61037154689E+02  0.20798938891E+03  0.21821979663E+03  0.47000000000E+01 0. -1.
         -5    1    5    5    0  503  0.92248910317E+01 -0.41235879415E+02  0.49943206640E+03  0.50123844158E+03  0.47000000000E+01 0. -1.
<mgrwt>
<rscale>  0 0.27322912E+03</rscale>
<asrwt>0</asrwt>
<pdfrwt beam="1">  1        2 0.17158370E+00 0.27322912E+03</pdfrwt>
<pdfrwt beam="2">  1       -2 0.25744902E-02 0.27322912E+03</pdfrwt>
<totfact> 0.11879358E+04</totfact>
</mgrwt>
</event>
<event>
 9    1  0.7984035E-001  0.2748833E+03  0.7818608E-02  0.1098517E+00
          3   -1    0    0  501    0  0.00000000000E+00  0.00000000000E+00  0.22706588863E+03  0.22706588863E+03  0.00000000000E+00 0. -1.
         -3   -1    0    0    0  501 -0.00000000000E+00 -0.00000000000E+00 -0.83192594457E+02  0.83192594457E+02  0.00000000000E+00 0. -1.
         35    2    1    2    0    0  0.00000000000E+00  0.00000000000E+00  0.14387329417E+03  0.31025848309E+03  0.27488325076E+03 0.  0.
         25    2    3    3    0    0 -0.31322124124E+02 -0.42548541668E+02  0.97263731223E+02  0.16726786754E+03  0.12540674720E+03 0.  0.
         25    2    3    3    0    0  0.31322124124E+02  0.42548541668E+02  0.46609562951E+02  0.14299061554E+03  0.12442833647E+03 0.  0.
          5    1    4    4  502    0 -0.71636103990E+02 -0.61155445367E+01  0.84884644259E+02  0.11134012803E+03  0.47000000000E+01 0. -1.
         -5    1    4    4    0  502  0.40313979866E+02 -0.36432997132E+02  0.12379086964E+02  0.55927739510E+02  0.47000000000E+01 0. -1.
          5    1    5    5  503    0  0.48719395942E+02  0.35146469612E+02  0.82494618237E+02  0.10215823954E+03  0.47000000000E+01 0.  1.
         -5    1    5    5    0  503 -0.17397271818E+02  0.74020720563E+01 -0.35885055286E+02  0.40832376006E+02  0.47000000000E+01 0.  1.
<mgrwt>
<rscale>  0 0.27488325E+03</rscale>
<asrwt>0</asrwt>
<pdfrwt beam="1">  1        3 0.34933213E-01 0.27488325E+03</pdfrwt>
<pdfrwt beam="2">  1       -3 0.12798861E-01 0.27488325E+03</pdfrwt>
<totfact> 0.99831582E+02</totfact>
</mgrwt>
</event>
<event>
 9    1  0.7984035E-001  0.2826011E+03  0.7818608E-02  0.1094277E+00
          1   -1    0    0  501    0  0.00000000000E+00  0.00000000000E+00  0.11250181885E+04  0.11250181885E+04  0.00000000000E+00 0.  1.
         -1   -1    0    0    0  501 -0.00000000000E+00 -0.00000000000E+00 -0.17747133610E+02  0.17747133610E+02  0.00000000000E+00 0.  1.
         35    2    1    2    0    0  0.00000000000E+00  0.17763568394E-14  0.11072710549E+04  0.11427653221E+04  0.28260111893E+03 0.  0.
         25    2    3    3    0    0 -0.51415918025E+02  0.44206437524E+01  0.72318573494E+03  0.73565900010E+03  0.12463313564E+03 0.  0.
         25    2    3    3    0    0  0.51415918025E+02 -0.44206437524E+01  0.38408531994E+03  0.40710632199E+03  0.12470319040E+03 0.  0.
          5    1    4    4  502    0 -0.90791813946E+02 -0.11176907263E+02  0.52670784924E+03  0.53461324823E+03  0.47000000000E+01 0.  1.
         -5    1    4    4    0  502  0.39375895921E+02  0.15597551015E+02  0.19647788570E+03  0.20104575187E+03  0.47000000000E+01 0.  1.
          5    1    5    5  503    0  0.82455085430E+01 -0.61916640519E+02  0.19144181965E+03  0.20142919127E+03  0.47000000000E+01 0. -1.
         -5    1    5    5    0  503  0.43170409482E+02  0.57495996767E+02  0.19264350029E+03  0.20567713072E+03  0.47000000000E+01 0. -1.
<mgrwt>
<rscale>  0 0.28260112E+03</rscale>
<asrwt>0</asrwt>
<pdfrwt beam="1">  1        1 0.17307967E+00 0.28260112E+03</pdfrwt>
<pdfrwt beam="2">  1       -1 0.27303291E-02 0.28260112E+03</pdfrwt>
<totfact> 0.56147293E+03</totfact>
</mgrwt>
</event>
<event>
 9    1  0.7984035E-001  0.2817315E+03  0.7818608E-02  0.1094747E+00
          1   -1    0    0  501    0  0.00000000000E+00  0.00000000000E+00  0.13549423871E+03  0.13549423871E+03  0.00000000000E+00 0. -1.
         -1   -1    0    0    0  501 -0.00000000000E+00 -0.00000000000E+00 -0.14645023646E+03  0.14645023646E+03  0.00000000000E+00 0. -1.
         35    2    1    2    0    0 -0.35527136788E-14 -0.14210854715E-13 -0.10955997748E+02  0.28194447517E+03  0.28173152680E+03 0.  0.
         25    2    3    3    0    0 -0.24550326759E+02  0.57019803957E+02 -0.13718469390E+02  0.14065973574E+03  0.12547106547E+03 0.  0.
         25    2    3    3    0    0  0.24550326759E+02 -0.57019803957E+02  0.27624716416E+01  0.14128473942E+03  0.12688486812E+03 0.  0.
          5    1    4    4  502    0 -0.24732271186E+02  0.23970640804E+02  0.54539799077E+02  0.64675780180E+02  0.47000000000E+01 0.  1.
         -5    1    4    4    0  502  0.18194442726E+00  0.33049163153E+02 -0.68258268467E+02  0.75983955563E+02  0.47000000000E+01 0.  1.
          5    1    5    5  503    0 -0.50327808961E+02 -0.39653470178E+02  0.73456347614E+00  0.64248857076E+02  0.47000000000E+01 0. -1.
         -5    1    5    5    0  503  0.74878135720E+02 -0.17366333779E+02  0.20279081655E+01  0.77035882349E+02  0.47000000000E+01 0. -1.
<mgrwt>
<rscale>  0 0.28173153E+03</rscale>
<asrwt>0</asrwt>
<pdfrwt beam="1">  1        1 0.20845268E-01 0.28173153E+03</pdfrwt>
<pdfrwt beam="2">  1       -1 0.22530806E-01 0.28173153E+03</pdfrwt>
<totfact> 0.39888439E+03</totfact>
</mgrwt>
</event>
<event>
 9    1  0.7984035E-001  0.2730833E+03  0.7818608E-02  0.1099528E+00
          2   -1    0    0  501    0  0.00000000000E+00  0.00000000000E+00  0.33982387008E+02  0.33982387008E+02  0.00000000000E+00 0. -1.
         -2   -1    0    0    0  501 -0.00000000000E+00 -0.00000000000E+00 -0.54862586070E+03  0.54862586070E+03  0.00000000000E+00 0. -1.
         35    2    1    2    0    0  0.00000000000E+00 -0.71054273576E-14 -0.51464347370E+03  0.58260824771E+03  0.27308325705E+03 0.  0.
         25    2    3    3    0    0  0.36863677677E+02 -0.33043178335E+02 -0.27614699656E+03  0.30911320379E+03  0.12978068688E+03 0.  0.
         25    2    3    3    0    0 -0.36863677677E+02  0.33043178335E+02 -0.23849647714E+03  0.27349504392E+03  0.12437116656E+03 0.  0.
          5    1    4    4  502    0  0.87260078412E+01 -0.81591236569E+02 -0.15218363051E+03  0.17296017025E+03  0.47000000000E+01 0. -1.
         -5    1    4    4    0  502  0.28137669835E+02  0.48548058234E+02 -0.12396336604E+03  0.13615303354E+03  0.47000000000E+01 0. -1.
          5    1    5    5  503    0 -0.31700997553E+02 -0.44969118749E+02 -0.89443429132E+02  0.10511608774E+03  0.47000000000E+01 0.  1.
         -5    1    5    5    0  503 -0.51626801232E+01  0.78012297084E+02 -0.14905304801E+03  0.16837895618E+03  0.47000000000E+01 0.  1.
<mgrwt>
<rscale>  0 0.27308326E+03</rscale>
<asrwt>0</asrwt>
<pdfrwt beam="1">  1        2 0.52280595E-02 0.27308326E+03</pdfrwt>
<pdfrwt beam="2">  1       -2 0.84403980E-01 0.27308326E+03</pdfrwt>
<totfact> 0.18690365E+03</totfact>
</mgrwt>
</event>
<event>
 9    1  0.7984035E-001  0.2849747E+03  0.7818608E-02  0.1093002E+00
          2   -1    0    0  501    0  0.00000000000E+00  0.00000000000E+00  0.83956236484E+03  0.83956236484E+03  0.00000000000E+00 0.  1.
         -2   -1    0    0    0  501 -0.00000000000E+00 -0.00000000000E+00 -0.24182410062E+02  0.24182410062E+02  0.00000000000E+00 0.  1.
         35    2    1    2    0    0 -0.10658141036E-13  0.71054273576E-14  0.81537995478E+03  0.86374477490E+03  0.28497467522E+03 0.  0.
         25    2    3    3    0    0 -0.23458380770E+02  0.53605467281E+02  0.29990045328E+03  0.33033811458E+03  0.12553543847E+03 0.  0.
         25    2    3    3    0    0  0.23458380770E+02 -0.53605467281E+02  0.51547950150E+03  0.53340666033E+03  0.12401494695E+03 0.  0.
          5    1    4    4  502    0 -0.51290690869E+02 -0.20664938386E+02  0.88068253235E+02  0.10409554206E+03  0.47000000000E+01 0. -1.
         -5    1    4    4    0  502  0.27832310100E+02  0.74270405666E+02  0.21183220005E+03  0.22624257252E+03  0.47000000000E+01 0. -1.
          5    1    5    5  503    0  0.52044874363E+02  0.12235057648E+01  0.95460427421E+02  0.10883450334E+03  0.47000000000E+01 0. -1.
         -5    1    5    5    0  503 -0.28586493593E+02 -0.54828973045E+02  0.42001907408E+03  0.42457215699E+03  0.47000000000E+01 0. -1.
<mgrwt>
<rscale>  0 0.28497468E+03</rscale>
<asrwt>0</asrwt>
<pdfrwt beam="1">  1        2 0.12916342E+00 0.28497468E+03</pdfrwt>
<pdfrwt beam="2">  1       -2 0.37203714E-02 0.28497468E+03</pdfrwt>
<totfact> 0.10201036E+04</totfact>
</mgrwt>
</event>
<event>
 9    1  0.7984035E-001  0.2774333E+03  0.7818608E-02  0.1097099E+00
          2   -1    0    0  501    0  0.00000000000E+00  0.00000000000E+00  0.31238202189E+04  0.31238202189E+04  0.00000000000E+00 0. -1.
         -2   -1    0    0    0  501 -0.00000000000E+00 -0.00000000000E+00 -0.61598663343E+01  0.61598663343E+01  0.00000000000E+00 0. -1.
         35    2    1    2    0    0  0.00000000000E+00  0.00000000000E+00  0.31176603526E+04  0.31299800853E+04  0.27743334335E+03 0.  0.
         25    2    3    3    0    0 -0.38179744185E+02 -0.45528450544E+02  0.14751687445E+04  0.14816469447E+04  0.12499724513E+03 0.  0.
         25    2    3    3    0    0  0.38179744185E+02  0.45528450544E+02  0.16424916081E+04  0.16483331405E+04  0.12527141322E+03 0.  0.
          5    1    4    4  502    0  0.16084765457E+02 -0.52817970219E+02  0.11865501002E+04  0.11878432927E+04  0.47000000000E+01 0. -1.
         -5    1    4    4    0  502 -0.54264509642E+02  0.72895196747E+01  0.28861864433E+03  0.29380365205E+03  0.47000000000E+01 0. -1.
          5    1    5    5  503    0  0.36794931847E+02  0.68634828895E+01  0.13059428488E+03  0.13593355601E+03  0.47000000000E+01 0.  1.
         -5    1    5    5    0  503  0.13848123386E+01  0.38664967655E+02  0.15118973232E+04  0.15123995845E+04  0.47000000000E+01 0.  1.
<mgrwt>
<rscale>  0 0.27743334E+03</rscale>
<asrwt>0</asrwt>
<pdfrwt beam="1">  1        2 0.48058646E+00 0.27743334E+03</pdfrwt>
<pdfrwt beam="2">  1       -2 0.94767424E-03 0.27743334E+03</pdfrwt>
<totfact> 0.40469643E+03</totfact>
</mgrwt>
</event>
<event>
 9    1  0.7984035E-001  0.2555643E+03  0.7818608E-02  0.1109838E+00
          2   -1    0    0  501    0  0.00000000000E+00  0.00000000000E+00  0.70529290263E+03  0.70529290263E+03  0.00000000000E+00 0.  1.
         -2   -1    0    0    0  501 -0.00000000000E+00 -0.00000000000E+00 -0.23151056964E+02  0.23151056964E+02  0.00000000000E+00 0.  1.
         35    2    1    2    0    0 -0.26645352591E-14  0.00000000000E+00  0.68214184566E+03  0.72844395959E+03  0.25556428675E+03 0.  0.
         25    2    3    3    0    0 -0.50671169331E+00 -0.11908686858E+02  0.26507228706E+03  0.29317026107E+03  0.12467321697E+03 0.  0.
         25    2    3    3    0    0  0.50671169331E+00  0.11908686858E+02  0.41706955860E+03  0.43527369852E+03  0.12399234787E+03 0.  0.
          5    1    4    4  502    0 -0.46051632972E+02 -0.48075825177E+02  0.14866595192E+03  0.16295917625E+03  0.47000000000E+01 0.  1.
         -5    1    4    4    0  502  0.45544921278E+02  0.36167138318E+02  0.11640633515E+03  0.13021108482E+03  0.47000000000E+01 0.  1.
          5    1    5    5  503    0 -0.52997869876E+01 -0.25943184322E+02  0.38257792140E+03  0.38352195830E+03  0.47000000000E+01 0.  1.
         -5    1    5    5    0  503  0.58064986809E+01  0.37851871180E+02  0.34491637201E+02  0.51751740218E+02  0.47000000000E+01 0.  1.
<mgrwt>
<rscale>  0 0.25556429E+03</rscale>
<asrwt>0</asrwt>
<pdfrwt beam="1">  1        2 0.10850658E+00 0.25556429E+03</pdfrwt>
<pdfrwt beam="2">  1       -2 0.35617016E-02 0.25556429E+03</pdfrwt>
<totfact> 0.13495514E+04</totfact>
</mgrwt>
</event>
<event>
 9    1  0.7984035E-001  0.2776309E+03  0.7818608E-02  0.1096990E+00
         -2   -1    0    0    0  501 -0.00000000000E+00  0.00000000000E+00  0.14643740653E+03  0.14643740653E+03  0.00000000000E+00 0. -1.
          2   -1    0    0  501    0  0.00000000000E+00 -0.00000000000E+00 -0.13159023073E+03  0.13159023073E+03  0.00000000000E+00 0. -1.
         35    2    1    2    0    0 -0.71054273576E-14  0.00000000000E+00  0.14847175808E+02  0.27802763726E+03  0.27763092128E+03 0.  0.
         25    2    3    3    0    0 -0.52846961621E+02  0.23381828150E+02 -0.12202213416E+02  0.13802975621E+03  0.12475499328E+03 0.  0.
         25    2    3    3    0    0  0.52846961621E+02 -0.23381828150E+02  0.27049389223E+02  0.13999788105E+03  0.12461230276E+03 0.  0.
          5    1    4    4  502    0  0.21910389470E+02 -0.33021346278E+02  0.11079795562E+02  0.41416498481E+02  0.47000000000E+01 0.  1.
         -5    1    4    4    0  502 -0.74757351091E+02  0.56403174428E+02 -0.23282008978E+02  0.96613257733E+02  0.47000000000E+01 0.  1.
          5    1    5    5  503    0  0.70793401475E+02  0.27752079934E+02  0.37010678123E+02  0.84698075115E+02  0.47000000000E+01 0.  1.
         -5    1    5    5    0  503 -0.17946439854E+02 -0.51133908085E+02 -0.99612888994E+01  0.55299805931E+02  0.47000000000E+01 0.  1.
<mgrwt>
<rscale>  0 0.27763092E+03</rscale>
<asrwt>0</asrwt>
<pdfrwt beam="1">  1        2 0.20244651E-01 0.27763092E+03</pdfrwt>
<pdfrwt beam="2">  1       -2 0.22528832E-01 0.27763092E+03</pdfrwt>
<totfact> 0.46500803E+03</totfact>
</mgrwt>
</event>
<event>
 9    1  0.7984035E-001  0.2738573E+03  0.7818608E-02  0.1099092E+00
         -3   -1    0    0    0  501 -0.00000000000E+00  0.00000000000E+00  0.45964168490E+03  0.45964168490E+03  0.00000000000E+00 0. -1.
          3   -1    0    0  501    0  0.00000000000E+00 -0.00000000000E+00 -0.40791448548E+02  0.40791448548E+02  0.00000000000E+00 0. -1.
         35    2    1    2    0    0 -0.71054273576E-14  0.00000000000E+00  0.41885023635E+03  0.50043313345E+03  0.27385726311E+03 0.  0.
         25    2    3    3    0    0 -0.80547549195E+01 -0.57867539491E+02  0.24999075363E+03  0.28552944705E+03  0.12497262510E+03 0.  0.
         25    2    3    3    0    0  0.80547549195E+01  0.57867539491E+02  0.16885948272E+03  0.21490368640E+03  0.11940074674E+03 0.  0.
          5    1    4    4  502    0 -0.51986088435E+02  0.13575421435E+02  0.95387922398E+02  0.10958006752E+03  0.47000000000E+01 0.  1.
         -5    1    4    4    0  502  0.43931333516E+02 -0.71442960927E+02  0.15460283124E+03  0.17594937953E+03  0.47000000000E+01 0.  1.
          5    1    5    5  503    0  0.51906757844E+02  0.15227544765E+02  0.27624301064E+02  0.60921109960E+02  0.47000000000E+01 0.  1.
         -5    1    5    5    0  503 -0.43852002924E+02  0.42639994727E+02  0.14123518165E+03  0.15398257644E+03  0.47000000000E+01 0.  1.
<mgrwt>
<rscale>  0 0.27385726E+03</rscale>
<asrwt>0</asrwt>
<pdfrwt beam="1">  1        3 0.62756078E-02 0.27385726E+03</pdfrwt>
<pdfrwt beam="2">  1       -3 0.70714102E-01 0.27385726E+03</pdfrwt>
<totfact> 0.78292561E+02</totfact>
</mgrwt>
</event>
<event>
 9    1  0.7984035E-001  0.2702867E+03  0.7818608E-02  0.1101116E+00
          4   -1    0    0  501    0  0.00000000000E+00  0.00000000000E+00  0.12515876017E+03  0.12515876017E+03  0.00000000000E+00 0. -1.
         -4   -1    0    0    0  501 -0.00000000000E+00 -0.00000000000E+00 -0.14592449177E+03  0.14592449177E+03  0.00000000000E+00 0. -1.
         35    2    1    2    0    0  0.00000000000E+00  0.17763568394E-14 -0.20765731600E+02  0.27108325194E+03  0.27028672530E+03 0.  0.
         25    2    3    3    0    0  0.36675086860E+02 -0.53117914937E+01  0.25158231750E+02  0.13283667204E+03  0.12505745756E+03 0.  0.
         25    2    3    3    0    0 -0.36675086860E+02  0.53117914937E+01 -0.45923963350E+02  0.13824657990E+03  0.12501931578E+03 0.  0.
          5    1    4    4  502    0  0.23218444804E+02 -0.17408434480E+01  0.76150642008E+02  0.79769273491E+02  0.47000000000E+01 0.  1.
         -5    1    4    4    0  502  0.13456642055E+02 -0.35709480457E+01 -0.50992410258E+02  0.53067398554E+02  0.47000000000E+01 0.  1.
          5    1    5    5  503    0 -0.17157740156E+02  0.36219413631E+02  0.32357269567E+02  0.51723465322E+02  0.47000000000E+01 0. -1.
         -5    1    5    5    0  503 -0.19517346703E+02 -0.30907622138E+02 -0.78281232917E+02  0.86523114574E+02  0.47000000000E+01 0. -1.
<mgrwt>
<rscale>  0 0.27028673E+03</rscale>
<asrwt>0</asrwt>
<pdfrwt beam="1">  1        4 0.19255194E-01 0.27028673E+03</pdfrwt>
<pdfrwt beam="2">  1       -4 0.22449922E-01 0.27028673E+03</pdfrwt>
<totfact> 0.82631990E+02</totfact>
</mgrwt>
</event>
<event>
 9    1  0.7984035E-001  0.2810746E+03  0.7818608E-02  0.1095103E+00
          2   -1    0    0  501    0  0.00000000000E+00  0.00000000000E+00  0.30612962342E+03  0.30612962342E+03  0.00000000000E+00 0. -1.
         -2   -1    0    0    0  501 -0.00000000000E+00 -0.00000000000E+00 -0.64517531901E+02  0.64517531901E+02  0.00000000000E+00 0. -1.
         35    2    1    2    0    0  0.00000000000E+00  0.00000000000E+00  0.24161209152E+03  0.37064715532E+03  0.28107456480E+03 0.  0.
         25    2    3    3    0    0  0.12269331759E+02 -0.58268317930E+02  0.10679435744E+03  0.17461309173E+03  0.12465537953E+03 0.  0.
         25    2    3    3    0    0 -0.12269331759E+02  0.58268317930E+02  0.13481773407E+03  0.19603406359E+03  0.12925865267E+03 0.  0.
          5    1    4    4  502    0 -0.38517864151E+01 -0.47505235040E+02 -0.15781180622E+02  0.50425383257E+02  0.47000000000E+01 0.  1.
         -5    1    4    4    0  502  0.16121118174E+02 -0.10763082890E+02  0.12257553807E+03  0.12418770848E+03  0.47000000000E+01 0.  1.
          5    1    5    5  503    0 -0.55671083088E+02  0.50889398021E+02  0.13145793448E+03  0.15163205090E+03  0.47000000000E+01 0. -1.
         -5    1    5    5    0  503  0.43401751329E+02  0.73789199085E+01  0.33597995988E+01  0.44402012688E+02  0.47000000000E+01 0. -1.
<mgrwt>
<rscale>  0 0.28107456E+03</rscale>
<asrwt>0</asrwt>
<pdfrwt beam="1">  1        2 0.47096864E-01 0.28107456E+03</pdfrwt>
<pdfrwt beam="2">  1       -2 0.99257743E-02 0.28107456E+03</pdfrwt>
<totfact> 0.71384392E+03</totfact>
</mgrwt>
</event>
<event>
 9    1  0.7984035E-001  0.2772207E+03  0.7818608E-02  0.1097217E+00
          3   -1    0    0  501    0  0.00000000000E+00  0.00000000000E+00  0.32264824340E+02  0.32264824340E+02  0.00000000000E+00 0.  1.
         -3   -1    0    0    0  501 -0.00000000000E+00 -0.00000000000E+00 -0.59547307724E+03  0.59547307724E+03  0.00000000000E+00 0.  1.
         35    2    1    2    0    0  0.00000000000E+00  0.00000000000E+00 -0.56320825290E+03  0.62773790158E+03  0.27722073686E+03 0.  0.
         25    2    3    3    0    0 -0.26334497684E+02  0.30457396938E+02 -0.37484185134E+03  0.39717201927E+03  0.12497215921E+03 0.  0.
         25    2    3    3    0    0  0.26334497684E+02 -0.30457396938E+02 -0.18836640156E+03  0.23056588231E+03  0.12671845191E+03 0.  0.
          5    1    4    4  502    0  0.23827848368E+02  0.35486065002E+02 -0.31863087771E+03  0.32151944482E+03  0.47000000000E+01 0.  1.
         -5    1    4    4    0  502 -0.50162346052E+02 -0.50286680648E+01 -0.56210973623E+02  0.75652574442E+02  0.47000000000E+01 0.  1.
          5    1    5    5  503    0  0.35963204519E+01 -0.17968772331E+02 -0.20060801040E+03  0.20149807477E+03  0.47000000000E+01 0. -1.
         -5    1    5    5    0  503  0.22738177232E+02 -0.12488624606E+02  0.12241608838E+02  0.29067807543E+02  0.47000000000E+01 0. -1.
<mgrwt>
<rscale>  0 0.27722074E+03</rscale>
<asrwt>0</asrwt>
<pdfrwt beam="1">  1        3 0.49638199E-02 0.27722074E+03</pdfrwt>
<pdfrwt beam="2">  1       -3 0.91611228E-01 0.27722074E+03</pdfrwt>
<totfact> 0.64676824E+02</totfact>
</mgrwt>
</event>
<event>
 9    1  0.7984035E-001  0.2734549E+03  0.7818608E-02  0.1099318E+00
         -2   -1    0    0    0  501 -0.00000000000E+00  0.00000000000E+00  0.54659598340E+02  0.54659598340E+02  0.00000000000E+00 0.  1.
          2   -1    0    0  501    0  0.00000000000E+00 -0.00000000000E+00 -0.34201484736E+03  0.34201484736E+03  0.00000000000E+00 0.  1.
         35    2    1    2    0    0  0.00000000000E+00  0.35527136788E-14 -0.28735524902E+03  0.39667444570E+03  0.27345488976E+03 0.  0.
         25    2    3    3    0    0 -0.17545419447E+02 -0.27445693590E+02 -0.21127951314E+03  0.24757343602E+03  0.12486979503E+03 0.  0.
         25    2    3    3    0    0  0.17545419447E+02  0.27445693590E+02 -0.76075735881E+02  0.14910100968E+03  0.12402614909E+03 0.  0.
          5    1    4    4  502    0 -0.10960672881E+02  0.24037300056E+02 -0.18900127244E+03  0.19089656657E+03  0.47000000000E+01 0.  1.
         -5    1    4    4    0  502 -0.65847465653E+01 -0.51482993646E+02 -0.22278240700E+02  0.56676869451E+02  0.47000000000E+01 0.  1.
          5    1    5    5  503    0  0.43659092000E+02  0.17486261189E+02 -0.10090242038E+03  0.11142384881E+03  0.47000000000E+01 0. -1.
         -5    1    5    5    0  503 -0.26113672553E+02  0.99594324005E+01  0.24826684501E+02  0.37677160871E+02  0.47000000000E+01 0. -1.
<mgrwt>
<rscale>  0 0.27345489E+03</rscale>
<asrwt>0</asrwt>
<pdfrwt beam="1">  1        2 0.52617670E-01 0.27345489E+03</pdfrwt>
<pdfrwt beam="2">  1       -2 0.84091689E-02 0.27345489E+03</pdfrwt>
<totfact> 0.82217107E+03</totfact>
</mgrwt>
</event>
<event>
 9    1  0.7984035E-001  0.2757775E+03  0.7818608E-02  0.1098018E+00
          1   -1    0    0  501    0  0.00000000000E+00  0.00000000000E+00  0.12559949499E+04  0.12559949499E+04  0.00000000000E+00 0.  1.
         -1   -1    0    0    0  501 -0.00000000000E+00 -0.00000000000E+00 -0.15138044608E+02  0.15138044608E+02  0.00000000000E+00 0.  1.
         35    2    1    2    0    0 -0.21316282073E-13 -0.71054273576E-14  0.12408569053E+04  0.12711329945E+04  0.27577750147E+03 0.  0.
         25    2    3    3    0    0  0.51850014019E+02  0.27183167572E+02  0.56057850619E+03  0.57717252261E+03  0.12430812805E+03 0.  0.
         25    2    3    3    0    0 -0.51850014019E+02 -0.27183167572E+02  0.68027839910E+03  0.69396047190E+03  0.12399632141E+03 0.  0.
          5    1    4    4  502    0 -0.28357241430E+02 -0.85749433049E+00  0.33241059675E+03  0.33365215910E+03  0.47000000000E+01 0.  1.
         -5    1    4    4    0  502  0.80207255449E+02  0.28040661903E+02  0.22816790944E+03  0.24352036351E+03  0.47000000000E+01 0.  1.
          5    1    5    5  503    0 -0.85986699953E+02 -0.13197448028E+02  0.58882225692E+03  0.59523241297E+03  0.47000000000E+01 0. -1.
         -5    1    5    5    0  503  0.34136685935E+02 -0.13985719544E+02  0.91456142182E+02  0.98728058933E+02  0.47000000000E+01 0. -1.
<mgrwt>
<rscale>  0 0.27577750E+03</rscale>
<asrwt>0</asrwt>
<pdfrwt beam="1">  1        1 0.19322991E+00 0.27577750E+03</pdfrwt>
<pdfrwt beam="2">  1       -1 0.23289309E-02 0.27577750E+03</pdfrwt>
<totfact> 0.57372958E+03</totfact>
</mgrwt>
</event>
<event>
 9    1  0.7984035E-001  0.2743668E+03  0.7818608E-02  0.1098806E+00
          1   -1    0    0  501    0  0.00000000000E+00  0.00000000000E+00  0.12754435938E+03  0.12754435938E+03  0.00000000000E+00 0.  1.
         -1   -1    0    0    0  501 -0.00000000000E+00 -0.00000000000E+00 -0.14755093263E+03  0.14755093263E+03  0.00000000000E+00 0.  1.
         35    2    1    2    0    0  0.00000000000E+00  0.00000000000E+00 -0.20006573249E+02  0.27509529200E+03  0.27436682873E+03 0.  0.
         25    2    3    3    0    0 -0.39052903805E+02  0.34569358272E+02  0.68855490512E+01  0.13537829637E+03  0.12473853661E+03 0.  0.
         25    2    3    3    0    0  0.39052903805E+02 -0.34569358272E+02 -0.26892122300E+02  0.13971699564E+03  0.12679701416E+03 0.  0.
          5    1    4    4  502    0 -0.74016596760E+02  0.53256408555E+02 -0.10357788637E+02  0.91891650511E+02  0.47000000000E+01 0. -1.
         -5    1    4    4    0  502  0.34963692955E+02 -0.18687050283E+02  0.17243337688E+02  0.43486645858E+02  0.47000000000E+01 0. -1.
          5    1    5    5  503    0 -0.98361381337E+01  0.26342681930E+02 -0.50495790866E+02  0.57987941848E+02  0.47000000000E+01 0.  1.
         -5    1    5    5    0  503  0.48889041939E+02 -0.60912040202E+02  0.23603668566E+02  0.81729053788E+02  0.47000000000E+01 0.  1.
<mgrwt>
<rscale>  0 0.27436683E+03</rscale>
<asrwt>0</asrwt>
<pdfrwt beam="1">  1        1 0.19622209E-01 0.27436683E+03</pdfrwt>
<pdfrwt beam="2">  1       -1 0.22700144E-01 0.27436683E+03</pdfrwt>
<totfact> 0.42557906E+03</totfact>
</mgrwt>
</event>
<event>
 9    1  0.7984035E-001  0.2772401E+03  0.7818608E-02  0.1097206E+00
         -2   -1    0    0    0  501 -0.00000000000E+00  0.00000000000E+00  0.29547807266E+02  0.29547807266E+02  0.00000000000E+00 0. -1.
          2   -1    0    0  501    0  0.00000000000E+00 -0.00000000000E+00 -0.65031966400E+03  0.65031966400E+03  0.00000000000E+00 0. -1.
         35    2    1    2    0    0  0.35527136788E-14  0.00000000000E+00 -0.62077185673E+03  0.67986747127E+03  0.27724011321E+03 0.  0.
         25    2    3    3    0    0 -0.16405477896E+02  0.41594383024E+02 -0.21232691125E+03  0.25029030934E+03  0.12475291301E+03 0.  0.
         25    2    3    3    0    0  0.16405477896E+02 -0.41594383024E+02 -0.40844494549E+03  0.42957716193E+03  0.12533966711E+03 0.  0.
          5    1    4    4  502    0 -0.56813417046E+02 -0.17590481619E+02 -0.80870529547E+02  0.10049538273E+03  0.47000000000E+01 0. -1.
         -5    1    4    4    0  502  0.40407939150E+02  0.59184864643E+02 -0.13145638170E+03  0.14979492661E+03  0.47000000000E+01 0. -1.
          5    1    5    5  503    0 -0.16373390457E+02 -0.41191038679E+02 -0.40750483310E+02  0.60394382789E+02  0.47000000000E+01 0. -1.
         -5    1    5    5    0  503  0.32778868353E+02 -0.40334434460E+00 -0.36769446218E+03  0.36918277914E+03  0.47000000000E+01 0. -1.
<mgrwt>
<rscale>  0 0.27724011E+03</rscale>
<asrwt>0</asrwt>
<pdfrwt beam="1">  1        2 0.10004918E+00 0.27724011E+03</pdfrwt>
<pdfrwt beam="2">  1       -2 0.45458164E-02 0.27724011E+03</pdfrwt>
<totfact> 0.10340708E+04</totfact>
</mgrwt>
</event>
<event>
 9    1  0.7984035E-001  0.2658108E+03  0.7818608E-02  0.1103701E+00
          1   -1    0    0  501    0  0.00000000000E+00  0.00000000000E+00  0.22199522481E+03  0.22199522481E+03  0.00000000000E+00 0. -1.
         -1   -1    0    0    0  501 -0.00000000000E+00 -0.00000000000E+00 -0.79568611102E+02  0.79568611102E+02  0.00000000000E+00 0. -1.
         35    2    1    2    0    0  0.00000000000E+00 -0.14210854715E-13  0.14242661371E+03  0.30156383592E+03  0.26581084786E+03 0.  0.
         25    2    3    3    0    0 -0.24846387915E+02  0.34223701772E+02  0.73229490336E+02  0.15128232127E+03  0.12543993669E+03 0.  0.
         25    2    3    3    0    0  0.24846387915E+02 -0.34223701772E+02  0.69197123377E+02  0.15028151465E+03  0.12652148832E+03 0.  0.
          5    1    4    4  502    0 -0.67573878344E+02 -0.12506157170E+02  0.38531245498E+02  0.78926420680E+02  0.47000000000E+01 0.  1.
         -5    1    4    4    0  502  0.42727490429E+02  0.46729858942E+02  0.34698244838E+02  0.72355900588E+02  0.47000000000E+01 0.  1.
          5    1    5    5  503    0  0.17422021158E+02  0.41335707301E+02 -0.32685345504E+01  0.45221022074E+02  0.47000000000E+01 0. -1.
         -5    1    5    5    0  503  0.74243667572E+01 -0.75559409073E+02  0.72465657927E+02  0.10506049257E+03  0.47000000000E+01 0. -1.
<mgrwt>
<rscale>  0 0.26581085E+03</rscale>
<asrwt>0</asrwt>
<pdfrwt beam="1">  1        1 0.34153111E-01 0.26581085E+03</pdfrwt>
<pdfrwt beam="2">  1       -1 0.12241325E-01 0.26581085E+03</pdfrwt>
<totfact> 0.56501574E+03</totfact>
</mgrwt>
</event>
<event>
 9    1  0.7984035E-001  0.2752160E+03  0.7818608E-02  0.1098331E+00
         -2   -1    0    0    0  501 -0.00000000000E+00  0.00000000000E+00  0.51450464157E+03  0.51450464157E+03  0.00000000000E+00 0. -1.
          2   -1    0    0  501    0  0.00000000000E+00 -0.00000000000E+00 -0.36804259203E+02  0.36804259203E+02  0.00000000000E+00 0. -1.
         35    2    1    2    0    0  0.00000000000E+00  0.00000000000E+00  0.47770038237E+03  0.55130890078E+03  0.27521600382E+03 0.  0.
         25    2    3    3    0    0  0.16192135312E+01 -0.46145657190E+02  0.17473008893E+03  0.22033872722E+03  0.12604168836E+03 0.  0.
         25    2    3    3    0    0 -0.16192135312E+01  0.46145657190E+02  0.30297029344E+03  0.33097017356E+03  0.12497285125E+03 0.  0.
          5    1    4    4  502    0  0.52081506902E+02  0.11721301304E+02  0.97963701031E+02  0.11166400040E+03  0.47000000000E+01 0.  1.
         -5    1    4    4    0  502 -0.50462293371E+02 -0.57866958494E+02  0.76766387900E+02  0.10867472682E+03  0.47000000000E+01 0.  1.
          5    1    5    5  503    0  0.33391461955E+02  0.72368726822E+02  0.13057136875E+03  0.15304638085E+03  0.47000000000E+01 0. -1.
         -5    1    5    5    0  503 -0.35010675486E+02 -0.26223069632E+02  0.17239892469E+03  0.17792379271E+03  0.47000000000E+01 0. -1.
<mgrwt>
<rscale>  0 0.27521600E+03</rscale>
<asrwt>0</asrwt>
<pdfrwt beam="1">  1        2 0.56621941E-02 0.27521600E+03</pdfrwt>
<pdfrwt beam="2">  1       -2 0.79154555E-01 0.27521600E+03</pdfrwt>
<totfact> 0.19408491E+03</totfact>
</mgrwt>
</event>
<event>
 9    1  0.7984035E-001  0.2819433E+03  0.7818608E-02  0.1094632E+00
         -2   -1    0    0    0  501 -0.00000000000E+00  0.00000000000E+00  0.42365886507E+02  0.42365886507E+02  0.00000000000E+00 0. -1.
          2   -1    0    0  501    0  0.00000000000E+00 -0.00000000000E+00 -0.46908053313E+03  0.46908053313E+03  0.00000000000E+00 0. -1.
         35    2    1    2    0    0  0.00000000000E+00 -0.35527136788E-14 -0.42671464662E+03  0.51144641964E+03  0.28194334629E+03 0.  0.
         25    2    3    3    0    0 -0.52485398135E+02  0.11558606727E+02 -0.14622064207E+03  0.19966669973E+03  0.12489193892E+03 0.  0.
         25    2    3    3    0    0  0.52485398135E+02 -0.11558606727E+02 -0.28049400456E+03  0.31177971991E+03  0.12506553781E+03 0.  0.
          5    1    4    4  502    0 -0.25533559095E+02 -0.55805746794E+02 -0.82902094090E+02  0.10325256036E+03  0.47000000000E+01 0. -1.
         -5    1    4    4    0  502 -0.26951839040E+02  0.67364353521E+02 -0.63318547976E+02  0.96414139371E+02  0.47000000000E+01 0. -1.
          5    1    5    5  503    0 -0.36666095034E+02 -0.25877863217E+02 -0.10738202173E+03  0.11647770139E+03  0.47000000000E+01 0. -1.
         -5    1    5    5    0  503  0.89151493169E+02  0.14319256490E+02 -0.17311198282E+03  0.19530201852E+03  0.47000000000E+01 0. -1.
<mgrwt>
<rscale>  0 0.28194335E+03</rscale>
<asrwt>0</asrwt>
<pdfrwt beam="1">  1        2 0.72166239E-01 0.28194335E+03</pdfrwt>
<pdfrwt beam="2">  1       -2 0.65178284E-02 0.28194335E+03</pdfrwt>
<totfact> 0.86695340E+03</totfact>
</mgrwt>
</event>
<event>
 9    1  0.7984035E-001  0.2820597E+03  0.7818608E-02  0.1094569E+00
         -2   -1    0    0    0  501 -0.00000000000E+00  0.00000000000E+00  0.29614718816E+02  0.29614718816E+02  0.00000000000E+00 0.  1.
          2   -1    0    0  501    0  0.00000000000E+00 -0.00000000000E+00 -0.67160579424E+03  0.67160579424E+03  0.00000000000E+00 0.  1.
         35    2    1    2    0    0  0.71054273576E-14 -0.35527136788E-14 -0.64199107542E+03  0.70122051306E+03  0.28205968696E+03 0.  0.
         25    2    3    3    0    0 -0.19323675796E+02  0.11070751138E+02 -0.47241733411E+03  0.48897401112E+03  0.12418325169E+03 0.  0.
         25    2    3    3    0    0  0.19323675796E+02 -0.11070751138E+02 -0.16957374131E+03  0.21224650194E+03  0.12568754062E+03 0.  0.
          5    1    4    4  502    0  0.49484657109E+02  0.11104102158E+02 -0.27941069471E+03  0.28401489167E+03  0.47000000000E+01 0. -1.
         -5    1    4    4    0  502 -0.68808332905E+02 -0.33351019680E-01 -0.19300663940E+03  0.20495911944E+03  0.47000000000E+01 0. -1.
          5    1    5    5  503    0 -0.26720265909E+01  0.30137544876E+02 -0.16178606754E+03  0.16465792719E+03  0.47000000000E+01 0. -1.
         -5    1    5    5    0  503  0.21995702387E+02 -0.41208296014E+02 -0.77876737730E+01  0.47588574749E+02  0.47000000000E+01 0. -1.
<mgrwt>
<rscale>  0 0.28205969E+03</rscale>
<asrwt>0</asrwt>
<pdfrwt beam="1">  1        2 0.10332396E+00 0.28205969E+03</pdfrwt>
<pdfrwt beam="2">  1       -2 0.45561111E-02 0.28205969E+03</pdfrwt>
<totfact> 0.99229194E+03</totfact>
</mgrwt>
</event>
<event>
 9    1  0.7984035E-001  0.2841374E+03  0.7818608E-02  0.1093450E+00
         -1   -1    0    0    0  501 -0.00000000000E+00  0.00000000000E+00  0.88514347856E+01  0.88514347856E+01  0.00000000000E+00 0. -1.
          1   -1    0    0  501    0  0.00000000000E+00 -0.00000000000E+00 -0.22802529008E+04  0.22802529008E+04  0.00000000000E+00 0. -1.
         35    2    1    2    0    0  0.00000000000E+00  0.35527136788E-14 -0.22714014660E+04  0.22891043355E+04  0.28413736006E+03 0.  0.
         25    2    3    3    0    0 -0.50235476727E+02 -0.30795526302E+02 -0.13617344542E+04  0.13689890954E+04  0.12782195440E+03 0.  0.
         25    2    3    3    0    0  0.50235476727E+02  0.30795526302E+02 -0.90966701174E+03  0.92011524011E+03  0.12508403280E+03 0.  0.
          5    1    4    4  502    0  0.79661943796E+01 -0.53055828758E+02 -0.26186016875E+03  0.26734101667E+03  0.47000000000E+01 0. -1.
         -5    1    4    4    0  502 -0.58201671106E+02  0.22260302456E+02 -0.10998742855E+04  0.11016480788E+04  0.47000000000E+01 0. -1.
          5    1    5    5  503    0  0.40750840525E+02 -0.29915799812E+02 -0.15869177671E+03  0.16661559374E+03  0.47000000000E+01 0.  1.
         -5    1    5    5    0  503  0.94846362012E+01  0.60711326114E+02 -0.75097523503E+03  0.75349964636E+03  0.47000000000E+01 0.  1.
<mgrwt>
<rscale>  0 0.28413736E+03</rscale>
<asrwt>0</asrwt>
<pdfrwt beam="1">  1        1 0.35080783E+00 0.28413736E+03</pdfrwt>
<pdfrwt beam="2">  1       -1 0.13617604E-02 0.28413736E+03</pdfrwt>
<totfact> 0.26602515E+03</totfact>
</mgrwt>
</event>
<event>
 9    1  0.7984035E-001  0.2767940E+03  0.7818608E-02  0.1097453E+00
         -1   -1    0    0    0  501 -0.00000000000E+00  0.00000000000E+00  0.31261947101E+02  0.31261947101E+02  0.00000000000E+00 0.  1.
          1   -1    0    0  501    0  0.00000000000E+00 -0.00000000000E+00 -0.61268517451E+03  0.61268517451E+03  0.00000000000E+00 0.  1.
         35    2    1    2    0    0  0.00000000000E+00  0.17763568394E-14 -0.58142322741E+03  0.64394712161E+03  0.27679401377E+03 0.  0.
         25    2    3    3    0    0 -0.49651274719E+02  0.12588397214E+02 -0.19494271175E+03  0.23473690079E+03  0.12031223921E+03 0.  0.
         25    2    3    3    0    0  0.49651274719E+02 -0.12588397214E+02 -0.38648051566E+03  0.40921022082E+03  0.12434668880E+03 0.  0.
          5    1    4    4  502    0 -0.53364207910E+02  0.10741621057E+00 -0.16923866705E+02  0.56180579281E+02  0.47000000000E+01 0.  1.
         -5    1    4    4    0  502  0.37129331912E+01  0.12480981004E+02 -0.17801884504E+03  0.17855632151E+03  0.47000000000E+01 0.  1.
          5    1    5    5  503    0  0.87104910580E+02  0.93694313986E+01 -0.29624596972E+03  0.30896410190E+03  0.47000000000E+01 0. -1.
         -5    1    5    5    0  503 -0.37453635861E+02 -0.21957828613E+02 -0.90234545943E+02  0.10024611892E+03  0.47000000000E+01 0. -1.
<mgrwt>
<rscale>  0 0.27679401E+03</rscale>
<asrwt>0</asrwt>
<pdfrwt beam="1">  1        1 0.94259256E-01 0.27679401E+03</pdfrwt>
<pdfrwt beam="2">  1       -1 0.48095304E-02 0.27679401E+03</pdfrwt>
<totfact> 0.63513197E+03</totfact>
</mgrwt>
</event>
<event>
 9    1  0.7984035E-001  0.2786600E+03  0.7818608E-02  0.1096423E+00
         -2   -1    0    0    0  501 -0.00000000000E+00  0.00000000000E+00  0.15548036527E+02  0.15548036527E+02  0.00000000000E+00 0. -1.
          2   -1    0    0  501    0  0.00000000000E+00 -0.00000000000E+00 -0.12485719826E+04  0.12485719826E+04  0.00000000000E+00 0. -1.
         35    2    1    2    0    0 -0.17763568394E-14  0.17763568394E-14 -0.12330239461E+04  0.12641200191E+04  0.27865995616E+03 0.  0.
         25    2    3    3    0    0  0.53304268554E+00 -0.40202982123E+01 -0.34016166033E+03  0.36255072079E+03  0.12536595652E+03 0.  0.
         25    2    3    3    0    0 -0.53304268554E+00  0.40202982123E+01 -0.89286228573E+03  0.90156929833E+03  0.12493074669E+03 0.  0.
          5    1    4    4  502    0  0.12906655159E+02  0.49365078877E+01  0.61729256994E+01  0.15847582440E+02  0.47000000000E+01 0. -1.
         -5    1    4    4    0  502 -0.12373612473E+02 -0.89568061000E+01 -0.34633458603E+03  0.34670313835E+03  0.47000000000E+01 0. -1.
          5    1    5    5  503    0 -0.36646365233E+02 -0.46967833831E+02 -0.34519066177E+03  0.35032501548E+03  0.47000000000E+01 0.  1.
         -5    1    5    5    0  503  0.36113322547E+02  0.50988132043E+02 -0.54767162397E+03  0.55124428285E+03  0.47000000000E+01 0.  1.
<mgrwt>
<rscale>  0 0.27865996E+03</rscale>
<asrwt>0</asrwt>
<pdfrwt beam="1">  1        2 0.19208802E+00 0.27865996E+03</pdfrwt>
<pdfrwt beam="2">  1       -2 0.23920053E-02 0.27865996E+03</pdfrwt>
<totfact> 0.11119126E+04</totfact>
</mgrwt>
</event>
<event>
 9    1  0.7984035E-001  0.2743645E+03  0.7818608E-02  0.1098807E+00
         -1   -1    0    0    0  501 -0.00000000000E+00  0.00000000000E+00  0.29899394147E+02  0.29899394147E+02  0.00000000000E+00 0.  1.
          1   -1    0    0  501    0  0.00000000000E+00 -0.00000000000E+00 -0.62940961152E+03  0.62940961152E+03  0.00000000000E+00 0.  1.
         35    2    1    2    0    0  0.00000000000E+00 -0.35527136788E-14 -0.59951021738E+03  0.65930900567E+03  0.27436447332E+03 0.  0.
         25    2    3    3    0    0  0.47315205062E+02 -0.30428504058E+02 -0.27945417950E+03  0.31112264001E+03  0.12465165943E+03 0.  0.
         25    2    3    3    0    0 -0.47315205062E+02  0.30428504058E+02 -0.32005603787E+03  0.34818636566E+03  0.12503301708E+03 0.  0.
          5    1    4    4  502    0  0.57142383755E+02  0.15351976707E+02 -0.24681787091E+03  0.25385445950E+03  0.47000000000E+01 0.  1.
         -5    1    4    4    0  502 -0.98271786929E+01 -0.45780480765E+02 -0.32636308592E+02  0.57268180508E+02  0.47000000000E+01 0.  1.
          5    1    5    5  503    0  0.13281605300E+02 -0.70519184814E+01  0.40828403109E+01  0.16275447110E+02  0.47000000000E+01 0. -1.
         -5    1    5    5    0  503 -0.60596810362E+02  0.37480422539E+02 -0.32413887818E+03  0.33191091855E+03  0.47000000000E+01 0. -1.
<mgrwt>
<rscale>  0 0.27436447E+03</rscale>
<asrwt>0</asrwt>
<pdfrwt beam="1">  1        1 0.96832244E-01 0.27436447E+03</pdfrwt>
<pdfrwt beam="2">  1       -1 0.45999070E-02 0.27436447E+03</pdfrwt>
<totfact> 0.65355659E+03</totfact>
</mgrwt>
</event>
<event>
 9    1  0.7984035E-001  0.2738084E+03  0.7818608E-02  0.1099120E+00
          1   -1    0    0  501    0  0.00000000000E+00  0.00000000000E+00  0.38758379227E+02  0.38758379227E+02  0.00000000000E+00 0. -1.
         -1   -1    0    0    0  501 -0.00000000000E+00 -0.00000000000E+00 -0.48357959996E+03  0.48357959996E+03  0.00000000000E+00 0. -1.
         35    2    1    2    0    0  0.17763568394E-14  0.00000000000E+00 -0.44482122073E+03  0.52233797918E+03  0.27380841128E+03 0.  0.
         25    2    3    3    0    0 -0.15234458615E+02 -0.48285462553E+02 -0.18133922865E+03  0.22615584222E+03  0.12529554859E+03 0.  0.
         25    2    3    3    0    0  0.15234458615E+02  0.48285462553E+02 -0.26348199208E+03  0.29618213697E+03  0.12544928651E+03 0.  0.
          5    1    4    4  502    0  0.19595514352E+02 -0.61481165915E+02 -0.32019168554E+02  0.72188884878E+02  0.47000000000E+01 0. -1.
         -5    1    4    4    0  502 -0.34829972967E+02  0.13195703362E+02 -0.14932006010E+03  0.15396695734E+03  0.47000000000E+01 0. -1.
          5    1    5    5  503    0  0.89555674280E+01 -0.11896787053E+02 -0.22227747250E+03  0.22282526902E+03  0.47000000000E+01 0.  1.
         -5    1    5    5    0  503  0.62788911870E+01  0.60182249606E+02 -0.41204519574E+02  0.73356867951E+02  0.47000000000E+01 0.  1.
<mgrwt>
<rscale>  0 0.27380841E+03</rscale>
<asrwt>0</asrwt>
<pdfrwt beam="1">  1        1 0.59628276E-02 0.27380841E+03</pdfrwt>
<pdfrwt beam="2">  1       -1 0.74396862E-01 0.27380841E+03</pdfrwt>
<totfact> 0.24640785E+03</totfact>
</mgrwt>
</event>
<event>
 9    1  0.7984035E-001  0.2819810E+03  0.7818608E-02  0.1094612E+00
          2   -1    0    0  501    0  0.00000000000E+00  0.00000000000E+00  0.90387170573E+02  0.90387170573E+02  0.00000000000E+00 0. -1.
         -2   -1    0    0    0  501 -0.00000000000E+00 -0.00000000000E+00 -0.21992420395E+03  0.21992420395E+03  0.00000000000E+00 0. -1.
         35    2    1    2    0    0  0.00000000000E+00 -0.35527136788E-14 -0.12953703338E+03  0.31031137452E+03  0.28198103862E+03 0.  0.
         25    2    3    3    0    0 -0.12760195796E+02 -0.19313724430E+02  0.13893565081E+01  0.12673021641E+03  0.12459042857E+03 0.  0.
         25    2    3    3    0    0  0.12760195796E+02  0.19313724430E+02 -0.13092638988E+03  0.18358115811E+03  0.12658783313E+03 0.  0.
          5    1    4    4  502    0  0.42723391989E+02  0.29900338379E+02  0.23330336536E+01  0.52410414083E+02  0.47000000000E+01 0.  1.
         -5    1    4    4    0  502 -0.55483587786E+02 -0.49214062809E+02 -0.94367714543E+00  0.74319802330E+02  0.47000000000E+01 0.  1.
          5    1    5    5  503    0  0.53967080832E+02 -0.31752430386E+02 -0.67720158323E+02  0.92351353495E+02  0.47000000000E+01 0. -1.
         -5    1    5    5    0  503 -0.41206885036E+02  0.51066154816E+02 -0.63206231562E+02  0.91229804616E+02  0.47000000000E+01 0. -1.
<mgrwt>
<rscale>  0 0.28198104E+03</rscale>
<asrwt>0</asrwt>
<pdfrwt beam="1">  1        2 0.13905719E-01 0.28198104E+03</pdfrwt>
<pdfrwt beam="2">  1       -2 0.33834493E-01 0.28198104E+03</pdfrwt>
<totfact> 0.34813177E+03</totfact>
</mgrwt>
</event>
<event>
 9    1  0.7984035E-001  0.2760002E+03  0.7818608E-02  0.1097894E+00
         -1   -1    0    0    0  501 -0.00000000000E+00  0.00000000000E+00  0.10148545955E+02  0.10148545955E+02  0.00000000000E+00 0.  1.
          1   -1    0    0  501    0  0.00000000000E+00 -0.00000000000E+00 -0.18765275031E+04  0.18765275031E+04  0.00000000000E+00 0.  1.
         35    2    1    2    0    0  0.00000000000E+00  0.00000000000E+00 -0.18663789571E+04  0.18866760490E+04  0.27600018552E+03 0.  0.
         25    2    3    3    0    0 -0.47510139061E+02  0.13962003406E+02 -0.78966520044E+03  0.80124078092E+03  0.12634678219E+03 0.  0.
         25    2    3    3    0    0  0.47510139061E+02 -0.13962003406E+02 -0.10767137567E+04  0.10854352681E+04  0.12808222587E+03 0.  0.
          5    1    4    4  502    0  0.24845049238E+01 -0.27806015537E+02 -0.59956168935E+03  0.60022966987E+03  0.47000000000E+01 0. -1.
         -5    1    4    4    0  502 -0.49994643984E+02  0.41768018943E+02 -0.19010351109E+03  0.20101111104E+03  0.47000000000E+01 0. -1.
          5    1    5    5  503    0  0.54414121296E+02  0.94020653153E+01 -0.17909709991E+03  0.18747574943E+03  0.47000000000E+01 0.  1.
         -5    1    5    5    0  503 -0.69039822350E+01 -0.23364068722E+02 -0.89761665676E+03  0.89795951867E+03  0.47000000000E+01 0.  1.
<mgrwt>
<rscale>  0 0.27600019E+03</rscale>
<asrwt>0</asrwt>
<pdfrwt beam="1">  1        1 0.28869641E+00 0.27600019E+03</pdfrwt>
<pdfrwt beam="2">  1       -1 0.15613154E-02 0.27600019E+03</pdfrwt>
<totfact> 0.39951513E+03</totfact>
</mgrwt>
</event>
<event>
 9    1  0.7984035E-001  0.2732184E+03  0.7818608E-02  0.1099452E+00
          1   -1    0    0  501    0  0.00000000000E+00  0.00000000000E+00  0.48651354282E+03  0.48651354282E+03  0.00000000000E+00 0.  1.
         -1   -1    0    0    0  501 -0.00000000000E+00 -0.00000000000E+00 -0.38358802956E+02  0.38358802956E+02  0.00000000000E+00 0.  1.
         35    2    1    2    0    0 -0.35527136788E-14  0.00000000000E+00  0.44815473986E+03  0.52487234578E+03  0.27321842635E+03 0.  0.
         25    2    3    3    0    0  0.21796287889E+02  0.21230435823E+02  0.13349471040E+03  0.18486829224E+03  0.12421609476E+03 0.  0.
         25    2    3    3    0    0 -0.21796287889E+02 -0.21230435823E+02  0.31466002946E+03  0.34000405354E+03  0.12516394334E+03 0.  0.
          5    1    4    4  502    0  0.41553195984E+02 -0.12127914301E+02  0.13878762682E+03  0.14545738125E+03  0.47000000000E+01 0. -1.
         -5    1    4    4    0  502 -0.19756908095E+02  0.33358350123E+02 -0.52929164187E+01  0.39410910985E+02  0.47000000000E+01 0. -1.
          5    1    5    5  503    0  0.21166833239E+02 -0.37839997801E+02  0.33330869634E+02  0.54890228033E+02  0.47000000000E+01 0.  1.
         -5    1    5    5    0  503 -0.42963121128E+02  0.16609561978E+02  0.28132915982E+03  0.28511382550E+03  0.47000000000E+01 0.  1.
<mgrwt>
<rscale>  0 0.27321843E+03</rscale>
<asrwt>0</asrwt>
<pdfrwt beam="1">  1        1 0.74848233E-01 0.27321843E+03</pdfrwt>
<pdfrwt beam="2">  1       -1 0.59013547E-02 0.27321843E+03</pdfrwt>
<totfact> 0.63843130E+03</totfact>
</mgrwt>
</event>
<event>
 9    1  0.7984035E-001  0.2665637E+03  0.7818608E-02  0.1103263E+00
         -2   -1    0    0    0  501 -0.00000000000E+00  0.00000000000E+00  0.11479339944E+02  0.11479339944E+02  0.00000000000E+00 0. -1.
          2   -1    0    0  501    0  0.00000000000E+00 -0.00000000000E+00 -0.15474799437E+04  0.15474799437E+04  0.00000000000E+00 0. -1.
         35    2    1    2    0    0  0.00000000000E+00  0.00000000000E+00 -0.15360006038E+04  0.15589592837E+04  0.26656367592E+03 0.  0.
         25    2    3    3    0    0 -0.13983278355E+02 -0.21498955514E+02 -0.53566931635E+03  0.55063868828E+03  0.12491441625E+03 0.  0.
         25    2    3    3    0    0  0.13983278355E+02  0.21498955514E+02 -0.10003312874E+04  0.10083205954E+04  0.12405644407E+03 0.  0.
          5    1    4    4  502    0 -0.68807446296E+02 -0.78125795304E+01 -0.25361297100E+03  0.26293940390E+03  0.47000000000E+01 0. -1.
         -5    1    4    4    0  502  0.54824167941E+02 -0.13686375983E+02 -0.28205634535E+03  0.28769928437E+03  0.47000000000E+01 0. -1.
          5    1    5    5  503    0  0.59784565720E+02  0.29994198069E+02 -0.79004993972E+03  0.79289018374E+03  0.47000000000E+01 0.  1.
         -5    1    5    5    0  503 -0.45801287365E+02 -0.84952425552E+01 -0.21028134772E+03  0.21543041166E+03  0.47000000000E+01 0.  1.
<mgrwt>
<rscale>  0 0.26656368E+03</rscale>
<asrwt>0</asrwt>
<pdfrwt beam="1">  1        2 0.23807408E+00 0.26656368E+03</pdfrwt>
<pdfrwt beam="2">  1       -2 0.17660505E-02 0.26656368E+03</pdfrwt>
<totfact> 0.11937360E+04</totfact>
</mgrwt>
</event>
<event>
 9    1  0.7984035E-001  0.2784942E+03  0.7818608E-02  0.1096514E+00
         -2   -1    0    0    0  501 -0.00000000000E+00  0.00000000000E+00  0.26631732439E+02  0.26631732439E+02  0.00000000000E+00 0. -1.
          2   -1    0    0  501    0  0.00000000000E+00 -0.00000000000E+00 -0.72806955040E+03  0.72806955040E+03  0.00000000000E+00 0. -1.
         35    2    1    2    0    0  0.35527136788E-14  0.00000000000E+00 -0.70143781796E+03  0.75470128284E+03  0.27849418998E+03 0.  0.
         25    2    3    3    0    0 -0.18534352221E+02  0.12435431052E+01 -0.19154168635E+03  0.22942813837E+03  0.12491590952E+03 0.  0.
         25    2    3    3    0    0  0.18534352221E+02 -0.12435431052E+01 -0.50989613161E+03  0.52527314448E+03  0.12479079559E+03 0.  0.
          5    1    4    4  502    0 -0.34628011993E+02  0.80251936594E+01  0.11655449179E+01  0.35874105463E+02  0.47000000000E+01 0.  1.
         -5    1    4    4    0  502  0.16093659772E+02 -0.67816505542E+01 -0.19270723127E+03  0.19355403290E+03  0.47000000000E+01 0.  1.
          5    1    5    5  503    0  0.53088431027E+02  0.27655976446E+02 -0.13627286589E+03  0.14891480289E+03  0.47000000000E+01 0. -1.
         -5    1    5    5    0  503 -0.34554078806E+02 -0.28899519551E+02 -0.37362326573E+03  0.37635834159E+03  0.47000000000E+01 0. -1.
<mgrwt>
<rscale>  0 0.27849419E+03</rscale>
<asrwt>0</asrwt>
<pdfrwt beam="1">  1        2 0.11201071E+00 0.27849419E+03</pdfrwt>
<pdfrwt beam="2">  1       -2 0.40971893E-02 0.27849419E+03</pdfrwt>
<totfact> 0.10556158E+04</totfact>
</mgrwt>
</event>
<event>
 9    1  0.7984035E-001  0.2761260E+03  0.7818608E-02  0.1097824E+00
         -2   -1    0    0    0  501 -0.00000000000E+00  0.00000000000E+00  0.18813299725E+03  0.18813299725E+03  0.00000000000E+00 0. -1.
          2   -1    0    0  501    0  0.00000000000E+00 -0.00000000000E+00 -0.10131867231E+03  0.10131867231E+03  0.00000000000E+00 0. -1.
         35    2    1    2    0    0  0.00000000000E+00  0.00000000000E+00  0.86814324938E+02  0.28945166956E+03  0.27612595314E+03 0.  0.
         25    2    3    3    0    0  0.44354575439E+02  0.80931369030E+01  0.85170274556E+02  0.15633772436E+03  0.12310435070E+03 0.  0.
         25    2    3    3    0    0 -0.44354575439E+02 -0.80931369030E+01  0.16440503828E+01  0.13311394520E+03  0.12523494831E+03 0.  0.
          5    1    4    4  502    0 -0.16928612748E+02 -0.41779446928E+02  0.84460485888E+01  0.46103425599E+02  0.47000000000E+01 0.  1.
         -5    1    4    4    0  502  0.61283188187E+02  0.49872583831E+02  0.76724225967E+02  0.11023429876E+03  0.47000000000E+01 0.  1.
          5    1    5    5  503    0 -0.44883433589E+02 -0.48704126663E+02  0.39613399739E+02  0.77317048596E+02  0.47000000000E+01 0. -1.
         -5    1    5    5    0  503  0.52885814999E+00  0.40610989760E+02 -0.37969349356E+02  0.55796896605E+02  0.47000000000E+01 0. -1.
<mgrwt>
<rscale>  0 0.27612595E+03</rscale>
<asrwt>0</asrwt>
<pdfrwt beam="1">  1        2 0.15587488E-01 0.27612595E+03</pdfrwt>
<pdfrwt beam="2">  1       -2 0.28943538E-01 0.27612595E+03</pdfrwt>
<totfact> 0.40419752E+03</totfact>
</mgrwt>
</event>
<event>
 9    1  0.7984035E-001  0.2801161E+03  0.7818608E-02  0.1095626E+00
         -2   -1    0    0    0  501 -0.00000000000E+00  0.00000000000E+00  0.28518812511E+02  0.28518812511E+02  0.00000000000E+00 0. -1.
          2   -1    0    0  501    0  0.00000000000E+00 -0.00000000000E+00 -0.68783553221E+03  0.68783553221E+03  0.00000000000E+00 0. -1.
         35    2    1    2    0    0  0.14210854715E-13  0.00000000000E+00 -0.65931671970E+03  0.71635434472E+03  0.28011606581E+03 0.  0.
         25    2    3    3    0    0 -0.24240842926E+02  0.58649125855E+02 -0.32752655879E+03  0.35616699115E+03  0.12471543789E+03 0.  0.
         25    2    3    3    0    0  0.24240842926E+02 -0.58649125855E+02 -0.33179016092E+03  0.36018735357E+03  0.12499152116E+03 0.  0.
          5    1    4    4  502    0 -0.68591426691E+02  0.64689419814E+02 -0.20692284684E+03  0.22743935323E+03  0.47000000000E+01 0.  1.
         -5    1    4    4    0  502  0.44350583766E+02 -0.60402939592E+01 -0.12060371194E+03  0.12872763793E+03  0.47000000000E+01 0.  1.
          5    1    5    5  503    0 -0.37999177647E+02 -0.30516764598E+02 -0.24396329767E+03  0.24882803506E+03  0.47000000000E+01 0. -1.
         -5    1    5    5    0  503  0.62240020572E+02 -0.28132361257E+02 -0.87826863245E+02  0.11135931851E+03  0.47000000000E+01 0. -1.
<mgrwt>
<rscale>  0 0.28011607E+03</rscale>
<asrwt>0</asrwt>
<pdfrwt beam="1">  1        2 0.10582084E+00 0.28011607E+03</pdfrwt>
<pdfrwt beam="2">  1       -2 0.43875100E-02 0.28011607E+03</pdfrwt>
<totfact> 0.10205315E+04</totfact>
</mgrwt>
</event>
<event>
 9    1  0.7984035E-001  0.2732651E+03  0.7818608E-02  0.1099425E+00
         -2   -1    0    0    0  501 -0.00000000000E+00  0.00000000000E+00  0.76838746961E+01  0.76838746961E+01  0.00000000000E+00 0. -1.
          2   -1    0    0  501    0  0.00000000000E+00 -0.00000000000E+00 -0.24295627981E+04  0.24295627981E+04  0.00000000000E+00 0. -1.
         35    2    1    2    0    0 -0.71054273576E-14  0.35527136788E-14 -0.24218789234E+04  0.24372466728E+04  0.27326511747E+03 0.  0.
         25    2    3    3    0    0  0.48016268686E+02  0.22485452396E+02 -0.10583485911E+04  0.10669229654E+04  0.12414393275E+03 0.  0.
         25    2    3    3    0    0 -0.48016268686E+02 -0.22485452396E+02 -0.13635303323E+04  0.13703237074E+04  0.12554257645E+03 0.  0.
          5    1    4    4  502    0  0.39210704198E+02  0.40780295846E+02 -0.18939918229E+03  0.19772367614E+03  0.47000000000E+01 0.  1.
         -5    1    4    4    0  502  0.88055644872E+01 -0.18294843450E+02 -0.86894940885E+03  0.86919928923E+03  0.47000000000E+01 0.  1.
          5    1    5    5  503    0 -0.53482135561E+02 -0.23848844913E+02 -0.13614238632E+04  0.13626907688E+04  0.47000000000E+01 0.  1.
         -5    1    5    5    0  503  0.54658668757E+01  0.13633925175E+01 -0.21064691112E+01  0.76329386200E+01  0.47000000000E+01 0.  1.
<mgrwt>
<rscale>  0 0.27326512E+03</rscale>
<asrwt>0</asrwt>
<pdfrwt beam="1">  1        2 0.37377863E+00 0.27326512E+03</pdfrwt>
<pdfrwt beam="2">  1       -2 0.11821354E-02 0.27326512E+03</pdfrwt>
<totfact> 0.73226237E+03</totfact>
</mgrwt>
</event>
<event>
 9    1  0.7984035E-001  0.2758809E+03  0.7818608E-02  0.1097960E+00
         -2   -1    0    0    0  501 -0.00000000000E+00  0.00000000000E+00  0.55190023903E+03  0.55190023903E+03  0.00000000000E+00 0. -1.
          2   -1    0    0  501    0  0.00000000000E+00 -0.00000000000E+00 -0.34476463053E+02  0.34476463053E+02  0.00000000000E+00 0. -1.
         35    2    1    2    0    0  0.71054273576E-14 -0.71054273576E-14  0.51742377598E+03  0.58637670209E+03  0.27588090329E+03 0.  0.
         25    2    3    3    0    0 -0.32712548099E+02  0.14929412569E+02  0.36454574718E+03  0.38603273391E+03  0.12179766705E+03 0.  0.
         25    2    3    3    0    0  0.32712548099E+02 -0.14929412569E+02  0.15287802880E+03  0.20034396817E+03  0.12439057735E+03 0.  0.
          5    1    4    4  502    0  0.11453567404E+02 -0.47431329880E+02  0.11515249957E+03  0.12515232086E+03  0.47000000000E+01 0. -1.
         -5    1    4    4    0  502 -0.44166115503E+02  0.62360742449E+02  0.24939324762E+03  0.26088041305E+03  0.47000000000E+01 0. -1.
          5    1    5    5  503    0  0.63154096051E+02  0.33610491104E+02  0.91582824110E+02  0.11630824834E+03  0.47000000000E+01 0. -1.
         -5    1    5    5    0  503 -0.30441547952E+02 -0.48539903673E+02  0.61295204687E+02  0.84035719833E+02  0.47000000000E+01 0. -1.
<mgrwt>
<rscale>  0 0.27588090E+03</rscale>
<asrwt>0</asrwt>
<pdfrwt beam="1">  1        2 0.53040717E-02 0.27588090E+03</pdfrwt>
<pdfrwt beam="2">  1       -2 0.84907722E-01 0.27588090E+03</pdfrwt>
<totfact> 0.18101583E+03</totfact>
</mgrwt>
</event>
<event>
 9    1  0.7984035E-001  0.2739918E+03  0.7818608E-02  0.1099016E+00
         -1   -1    0    0    0  501 -0.00000000000E+00  0.00000000000E+00  0.66195302763E+02  0.66195302763E+02  0.00000000000E+00 0. -1.
          1   -1    0    0  501    0  0.00000000000E+00 -0.00000000000E+00 -0.28352277547E+03  0.28352277547E+03  0.00000000000E+00 0. -1.
         35    2    1    2    0    0  0.00000000000E+00  0.17763568394E-14 -0.21732747271E+03  0.34971807823E+03  0.27399179522E+03 0.  0.
         25    2    3    3    0    0  0.21506520810E+02 -0.33868544199E+01 -0.43244831814E+02  0.13415137644E+03  0.12510985214E+03 0.  0.
         25    2    3    3    0    0 -0.21506520810E+02  0.33868544199E+01 -0.17408264090E+03  0.21556670180E+03  0.12526067157E+03 0.  0.
          5    1    4    4  502    0  0.61784909329E+02  0.23177978846E+02  0.42392662899E+01  0.66292194886E+02  0.47000000000E+01 0.  1.
         -5    1    4    4    0  502 -0.40278388519E+02 -0.26564833266E+02 -0.47484098104E+02  0.67859181552E+02  0.47000000000E+01 0.  1.
          5    1    5    5  503    0  0.15429474833E+02  0.13669089138E+02 -0.17563992349E+03  0.17690784442E+03  0.47000000000E+01 0.  1.
         -5    1    5    5    0  503 -0.36935995643E+02 -0.10282234718E+02  0.15572825969E+01  0.38658857381E+02  0.47000000000E+01 0.  1.
<mgrwt>
<rscale>  0 0.27399180E+03</rscale>
<asrwt>0</asrwt>
<pdfrwt beam="1">  1        1 0.43618889E-01 0.27399180E+03</pdfrwt>
<pdfrwt beam="2">  1       -1 0.10183893E-01 0.27399180E+03</pdfrwt>
<totfact> 0.55389217E+03</totfact>
</mgrwt>
</event>
<event>
 9    1  0.7984035E-001  0.2759952E+03  0.7818608E-02  0.1097897E+00
          1   -1    0    0  501    0  0.00000000000E+00  0.00000000000E+00  0.45340454951E+03  0.45340454951E+03  0.00000000000E+00 0. -1.
         -1   -1    0    0    0  501 -0.00000000000E+00 -0.00000000000E+00 -0.42000750952E+02  0.42000750952E+02  0.00000000000E+00 0. -1.
         35    2    1    2    0    0  0.35527136788E-14 -0.71054273576E-14  0.41140379856E+03  0.49540530046E+03  0.27599515622E+03 0.  0.
         25    2    3    3    0    0 -0.29174753876E+02 -0.39179042329E+02  0.26214369029E+03  0.29480251302E+03  0.12571015751E+03 0.  0.
         25    2    3    3    0    0  0.29174753876E+02  0.39179042329E+02  0.14926010826E+03  0.20060278744E+03  0.12480678983E+03 0.  0.
          5    1    4    4  502    0  0.25642023837E+02 -0.67607140056E+02  0.15365463293E+03  0.16988253292E+03  0.47000000000E+01 0. -1.
         -5    1    4    4    0  502 -0.54816777713E+02  0.28428097727E+02  0.10848905737E+03  0.12491998010E+03  0.47000000000E+01 0. -1.
          5    1    5    5  503    0 -0.28960315514E+02  0.31888818641E+02  0.35424353212E+01  0.43476838397E+02  0.47000000000E+01 0. -1.
         -5    1    5    5    0  503  0.58135069390E+02  0.72902236886E+01  0.14571767294E+03  0.15712594904E+03  0.47000000000E+01 0. -1.
<mgrwt>
<rscale>  0 0.27599516E+03</rscale>
<asrwt>0</asrwt>
<pdfrwt beam="1">  1        1 0.69754543E-01 0.27599516E+03</pdfrwt>
<pdfrwt beam="2">  1       -1 0.64616543E-02 0.27599516E+03</pdfrwt>
<totfact> 0.61088305E+03</totfact>
</mgrwt>
</event>
<event>
 9    1  0.7984035E-001  0.2730670E+03  0.7818608E-02  0.1099537E+00
         -4   -1    0    0    0  501 -0.00000000000E+00  0.00000000000E+00  0.46713744780E+03  0.46713744780E+03  0.00000000000E+00 0. -1.
          4   -1    0    0  501    0  0.00000000000E+00 -0.00000000000E+00 -0.39905586432E+02  0.39905586432E+02  0.00000000000E+00 0. -1.
         35    2    1    2    0    0  0.00000000000E+00  0.00000000000E+00  0.42723186137E+03  0.50704303423E+03  0.27306697932E+03 0.  0.
         25    2    3    3    0    0  0.37773277280E+02 -0.55376364859E+00  0.13731370679E+03  0.18943997317E+03  0.12492126414E+03 0.  0.
         25    2    3    3    0    0 -0.37773277280E+02  0.55376364859E+00  0.28991815458E+03  0.31760306106E+03  0.12406466422E+03 0.  0.
          5    1    4    4  502    0 -0.27409921177E+02 -0.26538836851E+02  0.39178504058E+01  0.38640046481E+02  0.47000000000E+01 0. -1.
         -5    1    4    4    0  502  0.65183198457E+02  0.25985073202E+02  0.13339585638E+03  0.15079992669E+03  0.47000000000E+01 0. -1.
          5    1    5    5  503    0 -0.25905045478E+02  0.61406315533E+02  0.16657123241E+03  0.17947109081E+03  0.47000000000E+01 0. -1.
         -5    1    5    5    0  503 -0.11868231802E+02 -0.60852551884E+02  0.12334692217E+03  0.13813197025E+03  0.47000000000E+01 0. -1.
<mgrwt>
<rscale>  0 0.27306698E+03</rscale>
<asrwt>0</asrwt>
<pdfrwt beam="1">  1        4 0.61393213E-02 0.27306698E+03</pdfrwt>
<pdfrwt beam="2">  1       -4 0.71867296E-01 0.27306698E+03</pdfrwt>
<totfact> 0.57604090E+02</totfact>
</mgrwt>
</event>
<event>
 9    1  0.7984035E-001  0.2729022E+03  0.7818608E-02  0.1099630E+00
         -2   -1    0    0    0  501 -0.00000000000E+00  0.00000000000E+00  0.51637073988E+02  0.51637073988E+02  0.00000000000E+00 0. -1.
          2   -1    0    0  501    0  0.00000000000E+00 -0.00000000000E+00 -0.36057231926E+03  0.36057231926E+03  0.00000000000E+00 0. -1.
         35    2    1    2    0    0  0.71054273576E-14  0.00000000000E+00 -0.30893524527E+03  0.41220939325E+03  0.27290217681E+03 0.  0.
         25    2    3    3    0    0  0.31539507123E+02  0.22358198124E+02 -0.96515048207E+02  0.16335802698E+03  0.12600024173E+03 0.  0.
         25    2    3    3    0    0 -0.31539507123E+02 -0.22358198124E+02 -0.21242019706E+03  0.24885136626E+03  0.12373371746E+03 0.  0.
          5    1    4    4  502    0 -0.79516360369E+01  0.46263664841E+01  0.28851207853E+02  0.30644966587E+02  0.47000000000E+01 0.  1.
         -5    1    4    4    0  502  0.39491143160E+02  0.17731831639E+02 -0.12536625606E+03  0.13271306040E+03  0.47000000000E+01 0.  1.
          5    1    5    5  503    0  0.47030697982E+02  0.16336296931E+01 -0.74104427285E+02  0.87909677748E+02  0.47000000000E+01 0.  1.
         -5    1    5    5    0  503 -0.78570205105E+02 -0.23991827817E+02 -0.13831576978E+03  0.16094168851E+03  0.47000000000E+01 0.  1.
<mgrwt>
<rscale>  0 0.27290218E+03</rscale>
<asrwt>0</asrwt>
<pdfrwt beam="1">  1        2 0.55472663E-01 0.27290218E+03</pdfrwt>
<pdfrwt beam="2">  1       -2 0.79441655E-02 0.27290218E+03</pdfrwt>
<totfact> 0.84880305E+03</totfact>
</mgrwt>
</event>
<event>
 9    1  0.7984035E-001  0.2752637E+03  0.7818608E-02  0.1098304E+00
          1   -1    0    0  501    0  0.00000000000E+00  0.00000000000E+00  0.43310645025E+03  0.43310645025E+03  0.00000000000E+00 0.  1.
         -1   -1    0    0    0  501 -0.00000000000E+00 -0.00000000000E+00 -0.43736411097E+02  0.43736411097E+02  0.00000000000E+00 0.  1.
         35    2    1    2    0    0  0.71054273576E-14  0.00000000000E+00  0.38937003915E+03  0.47684286135E+03  0.27526366819E+03 0.  0.
         25    2    3    3    0    0  0.40690447784E+02 -0.31129028874E+01  0.12135747722E+03  0.17901349802E+03  0.12511112056E+03 0.  0.
         25    2    3    3    0    0 -0.40690447784E+02  0.31129028874E+01  0.26801256193E+03  0.29782936333E+03  0.12331339589E+03 0.  0.
          5    1    4    4  502    0 -0.14080073174E+01 -0.53671164155E+02  0.92419930374E+02  0.10698649390E+03  0.47000000000E+01 0. -1.
         -5    1    4    4    0  502  0.42098455101E+02  0.50558261268E+02  0.28937546849E+02  0.72027004117E+02  0.47000000000E+01 0. -1.
          5    1    5    5  503    0  0.29453848778E+02 -0.33012816819E+02  0.14447323509E+03  0.15116871680E+03  0.47000000000E+01 0. -1.
         -5    1    5    5    0  503 -0.70144296562E+02  0.36125719706E+02  0.12353932684E+03  0.14666064653E+03  0.47000000000E+01 0. -1.
<mgrwt>
<rscale>  0 0.27526367E+03</rscale>
<asrwt>0</asrwt>
<pdfrwt beam="1">  1        1 0.66631758E-01 0.27526367E+03</pdfrwt>
<pdfrwt beam="2">  1       -1 0.67286789E-02 0.27526367E+03</pdfrwt>
<totfact> 0.60976455E+03</totfact>
</mgrwt>
</event>
<event>
 9    1  0.7984035E-001  0.2757964E+03  0.7818608E-02  0.1098007E+00
          2   -1    0    0  501    0  0.00000000000E+00  0.00000000000E+00  0.10815804528E+03  0.10815804528E+03  0.00000000000E+00 0.  1.
         -2   -1    0    0    0  501 -0.00000000000E+00 -0.00000000000E+00 -0.17581602305E+03  0.17581602305E+03  0.00000000000E+00 0.  1.
         35    2    1    2    0    0 -0.71054273576E-14  0.71054273576E-14 -0.67657977772E+02  0.28397406832E+03  0.27579642768E+03 0.  0.
         25    2    3    3    0    0  0.54949282803E+02 -0.15567413006E+02 -0.41099169818E+02  0.14336848061E+03  0.12491441647E+03 0.  0.
         25    2    3    3    0    0 -0.54949282803E+02  0.15567413006E+02 -0.26558807954E+02  0.14060558772E+03  0.12570916032E+03 0.  0.
          5    1    4    4  502    0  0.19311947419E+02 -0.69163452688E+02 -0.29626416639E+02  0.77822548555E+02  0.47000000000E+01 0.  1.
         -5    1    4    4    0  502  0.35637335384E+02  0.53596039682E+02 -0.11472753179E+02  0.65545932050E+02  0.47000000000E+01 0.  1.
          5    1    5    5  503    0 -0.51851448261E+02 -0.40510558040E+02 -0.46623517747E+02  0.80780693279E+02  0.47000000000E+01 0. -1.
         -5    1    5    5    0  503 -0.30978345416E+01  0.56077971046E+02  0.20064709794E+02  0.59824894438E+02  0.47000000000E+01 0. -1.
<mgrwt>
<rscale>  0 0.27579643E+03</rscale>
<asrwt>0</asrwt>
<pdfrwt beam="1">  1        2 0.16639700E-01 0.27579643E+03</pdfrwt>
<pdfrwt beam="2">  1       -2 0.27048619E-01 0.27579643E+03</pdfrwt>
<totfact> 0.42270978E+03</totfact>
</mgrwt>
</event>
<event>
 9    1  0.7984035E-001  0.2760311E+03  0.7818608E-02  0.1097877E+00
         -1   -1    0    0    0  501 -0.00000000000E+00  0.00000000000E+00  0.81045653799E+01  0.81045653799E+01  0.00000000000E+00 0. -1.
          1   -1    0    0  501    0  0.00000000000E+00 -0.00000000000E+00 -0.23503161625E+04  0.23503161625E+04  0.00000000000E+00 0. -1.
         35    2    1    2    0    0  0.00000000000E+00  0.00000000000E+00 -0.23422115971E+04  0.23584207278E+04  0.27603109247E+03 0.  0.
         25    2    3    3    0    0 -0.16268365251E+02  0.42219723619E+02 -0.14915270129E+04  0.14973536747E+04  0.12396786830E+03 0.  0.
         25    2    3    3    0    0  0.16268365251E+02 -0.42219723619E+02 -0.85068458422E+03  0.86106705311E+03  0.12539953488E+03 0.  0.
          5    1    4    4  502    0 -0.83847484641E+01  0.79125407582E+02 -0.63502564933E+03  0.64000843701E+03  0.47000000000E+01 0. -1.
         -5    1    4    4    0  502 -0.78836167867E+01 -0.36905683963E+02 -0.85650136352E+03  0.85734523772E+03  0.47000000000E+01 0. -1.
          5    1    5    5  503    0  0.54574085262E+01  0.34561011780E+01  0.10232452065E+01  0.80538794334E+01  0.47000000000E+01 0. -1.
         -5    1    5    5    0  503  0.10810956725E+02 -0.45675824797E+02 -0.85170782943E+03  0.85301317368E+03  0.47000000000E+01 0. -1.
<mgrwt>
<rscale>  0 0.27603109E+03</rscale>
<asrwt>0</asrwt>
<pdfrwt beam="1">  1        1 0.36158762E+00 0.27603109E+03</pdfrwt>
<pdfrwt beam="2">  1       -1 0.12468544E-02 0.27603109E+03</pdfrwt>
<totfact> 0.27206246E+03</totfact>
</mgrwt>
</event>
<event>
 9    1  0.7984035E-001  0.2747125E+03  0.7818608E-02  0.1098612E+00
          2   -1    0    0  501    0  0.00000000000E+00  0.00000000000E+00  0.30107358041E+03  0.30107358041E+03  0.00000000000E+00 0.  1.
         -2   -1    0    0    0  501 -0.00000000000E+00 -0.00000000000E+00 -0.62664872505E+02  0.62664872505E+02  0.00000000000E+00 0.  1.
         35    2    1    2    0    0  0.00000000000E+00 -0.71054273576E-14  0.23840870791E+03  0.36373845292E+03  0.27471248629E+03 0.  0.
         25    2    3    3    0    0 -0.57861246221E+01  0.53589392099E+02  0.93774251702E+02  0.16526692330E+03  0.12495696647E+03 0.  0.
         25    2    3    3    0    0  0.57861246221E+01 -0.53589392099E+02  0.14463445621E+03  0.19847152962E+03  0.12476586057E+03 0.  0.
          5    1    4    4  502    0  0.17705277947E+02 -0.17695108596E+02 -0.17544164466E+02  0.30927034164E+02  0.47000000000E+01 0.  1.
         -5    1    4    4    0  502 -0.23491402569E+02  0.71284500694E+02  0.11131841617E+03  0.13433988913E+03  0.47000000000E+01 0.  1.
          5    1    5    5  503    0  0.64625534854E+02 -0.36215024568E+02  0.74419730758E+02  0.10511124624E+03  0.47000000000E+01 0. -1.
         -5    1    5    5    0  503 -0.58839410232E+02 -0.17374367531E+02  0.70214725449E+02  0.93360283383E+02  0.47000000000E+01 0. -1.
<mgrwt>
<rscale>  0 0.27471249E+03</rscale>
<asrwt>0</asrwt>
<pdfrwt beam="1">  1        2 0.46319011E-01 0.27471249E+03</pdfrwt>
<pdfrwt beam="2">  1       -2 0.96407498E-02 0.27471249E+03</pdfrwt>
<totfact> 0.76048486E+03</totfact>
</mgrwt>
</event>
<event>
 9    1  0.7984035E-001  0.2732702E+03  0.7818608E-02  0.1099422E+00
         -1   -1    0    0    0  501 -0.00000000000E+00  0.00000000000E+00  0.24309932998E+02  0.24309932998E+02  0.00000000000E+00 0. -1.
          1   -1    0    0  501    0  0.00000000000E+00 -0.00000000000E+00 -0.76796360309E+03  0.76796360309E+03  0.00000000000E+00 0. -1.
         35    2    1    2    0    0  0.35527136788E-14  0.00000000000E+00 -0.74365367009E+03  0.79227353608E+03  0.27327015012E+03 0.  0.
         25    2    3    3    0    0  0.28078268940E+02  0.19813446467E+02 -0.49607127306E+03  0.51350124903E+03  0.12812440420E+03 0.  0.
         25    2    3    3    0    0 -0.28078268940E+02 -0.19813446467E+02 -0.24758239703E+03  0.27877228706E+03  0.12343412358E+03 0.  0.
          5    1    4    4  502    0  0.64886483467E+01 -0.38242831332E+02 -0.51674580252E+02  0.64784017704E+02  0.47000000000E+01 0. -1.
         -5    1    4    4    0  502  0.21589620593E+02  0.58056277799E+02 -0.44439669280E+03  0.44871723132E+03  0.47000000000E+01 0. -1.
          5    1    5    5  503    0 -0.52858197396E+02 -0.15222730694E+02 -0.24703680020E+03  0.25313038382E+03  0.47000000000E+01 0.  1.
         -5    1    5    5    0  503  0.24779928456E+02 -0.45907157738E+01 -0.54559683100E+00  0.25641903235E+02  0.47000000000E+01 0.  1.
<mgrwt>
<rscale>  0 0.27327015E+03</rscale>
<asrwt>0</asrwt>
<pdfrwt beam="1">  1        1 0.11814825E+00 0.27327015E+03</pdfrwt>
<pdfrwt beam="2">  1       -1 0.37399897E-02 0.27327015E+03</pdfrwt>
<totfact> 0.66546946E+03</totfact>
</mgrwt>
</event>
<event>
 9    1  0.7984035E-001  0.2743169E+03  0.7818608E-02  0.1098834E+00
          4   -1    0    0  501    0  0.00000000000E+00  0.00000000000E+00  0.18354423412E+03  0.18354423412E+03  0.00000000000E+00 0.  1.
         -4   -1    0    0    0  501 -0.00000000000E+00 -0.00000000000E+00 -0.10249543605E+03  0.10249543605E+03  0.00000000000E+00 0.  1.
         35    2    1    2    0    0  0.17763568394E-14  0.00000000000E+00  0.81048798070E+02  0.28603967016E+03  0.27431694304E+03 0.  0.
         25    2    3    3    0    0 -0.66618491354E+01 -0.48640191293E+02  0.69503585198E+02  0.15108430697E+03  0.12484178393E+03 0.  0.
         25    2    3    3    0    0  0.66618491354E+01  0.48640191293E+02  0.11545212872E+02  0.13495536319E+03  0.12517751264E+03 0.  0.
          5    1    4    4  502    0  0.12251962707E+02  0.33427213589E+02 -0.77115078836E+01  0.36729369071E+02  0.47000000000E+01 0.  1.
         -5    1    4    4    0  502 -0.18913811842E+02 -0.82067404882E+02  0.77215093082E+02  0.11435493790E+03  0.47000000000E+01 0.  1.
          5    1    5    5  503    0 -0.64720435024E+01 -0.20685428536E+02  0.49829372827E+02  0.54542008555E+02  0.47000000000E+01 0. -1.
         -5    1    5    5    0  503  0.13133892638E+02  0.69325619829E+02 -0.38284159955E+02  0.80413354637E+02  0.47000000000E+01 0. -1.
<mgrwt>
<rscale>  0 0.27431694E+03</rscale>
<asrwt>0</asrwt>
<pdfrwt beam="1">  1        4 0.28237574E-01 0.27431694E+03</pdfrwt>
<pdfrwt beam="2">  1       -4 0.15768529E-01 0.27431694E+03</pdfrwt>
<totfact> 0.77167715E+02</totfact>
</mgrwt>
</event>
<event>
 9    1  0.7984035E-001  0.2674186E+03  0.7818608E-02  0.1102766E+00
          1   -1    0    0  501    0  0.00000000000E+00  0.00000000000E+00  0.22481361008E+02  0.22481361008E+02  0.00000000000E+00 0. -1.
         -1   -1    0    0    0  501 -0.00000000000E+00 -0.00000000000E+00 -0.79524416542E+03  0.79524416542E+03  0.00000000000E+00 0. -1.
         35    2    1    2    0    0 -0.71054273576E-14 -0.35527136788E-14 -0.77276280441E+03  0.81772552643E+03  0.26741855712E+03 0.  0.
         25    2    3    3    0    0 -0.32748761748E+02  0.30765443349E+02 -0.34693318834E+03  0.37155857399E+03  0.12519641704E+03 0.  0.
         25    2    3    3    0    0  0.32748761748E+02 -0.30765443349E+02 -0.42582961608E+03  0.44616695244E+03  0.12535985648E+03 0.  0.
          5    1    4    4  502    0  0.14607918483E+02 -0.38174215513E+02 -0.60781248741E+02  0.73396949602E+02  0.47000000000E+01 0.  1.
         -5    1    4    4    0  502 -0.47356680231E+02  0.68939658862E+02 -0.28615193959E+03  0.29816162439E+03  0.47000000000E+01 0.  1.
          5    1    5    5  503    0 -0.26077152133E+02 -0.40881610471E+01 -0.32644011373E+03  0.32753926295E+03  0.47000000000E+01 0. -1.
         -5    1    5    5    0  503  0.58825913881E+02 -0.26677282302E+02 -0.99389502351E+02  0.11862768948E+03  0.47000000000E+01 0. -1.
<mgrwt>
<rscale>  0 0.26741856E+03</rscale>
<asrwt>0</asrwt>
<pdfrwt beam="1">  1        1 0.34586716E-02 0.26741856E+03</pdfrwt>
<pdfrwt beam="2">  1       -1 0.12234523E+00 0.26741856E+03</pdfrwt>
<totfact> 0.17581350E+03</totfact>
</mgrwt>
</event>
<event>
 9    1  0.7984035E-001  0.2753181E+03  0.7818608E-02  0.1098274E+00
         -2   -1    0    0    0  501 -0.00000000000E+00  0.00000000000E+00  0.30633459373E+03  0.30633459373E+03  0.00000000000E+00 0. -1.
          2   -1    0    0  501    0  0.00000000000E+00 -0.00000000000E+00 -0.61860525234E+02  0.61860525234E+02  0.00000000000E+00 0. -1.
         35    2    1    2    0    0  0.00000000000E+00 -0.35527136788E-14  0.24447406850E+03  0.36819511897E+03  0.27531813500E+03 0.  0.
         25    2    3    3    0    0  0.19031965173E+02 -0.49705434235E+01  0.49602469127E+02  0.13575551908E+03  0.12482881886E+03 0.  0.
         25    2    3    3    0    0 -0.19031965173E+02  0.49705434235E+01  0.19487159937E+03  0.23243959988E+03  0.12516511236E+03 0.  0.
          5    1    4    4  502    0  0.28975972127E+02 -0.52059185517E+02 -0.82758489198E+01  0.60335275194E+02  0.47000000000E+01 0.  1.
         -5    1    4    4    0  502 -0.99440069549E+01  0.47088642093E+02  0.57878318047E+02  0.75420243890E+02  0.47000000000E+01 0.  1.
          5    1    5    5  503    0 -0.58529327948E+02  0.21545266684E+02  0.46500178090E+02  0.77937393521E+02  0.47000000000E+01 0.  1.
         -5    1    5    5    0  503  0.39497362775E+02 -0.16574723260E+02  0.14837142128E+03  0.15450220636E+03  0.47000000000E+01 0.  1.
<mgrwt>
<rscale>  0 0.27531814E+03</rscale>
<asrwt>0</asrwt>
<pdfrwt beam="1">  1        2 0.95170041E-02 0.27531814E+03</pdfrwt>
<pdfrwt beam="2">  1       -2 0.47128398E-01 0.27531814E+03</pdfrwt>
<totfact> 0.29369853E+03</totfact>
</mgrwt>
</event>
<event>
 9    1  0.7984035E-001  0.2746867E+03  0.7818608E-02  0.1098627E+00
         -1   -1    0    0    0  501 -0.00000000000E+00  0.00000000000E+00  0.27831905185E+02  0.27831905185E+02  0.00000000000E+00 0.  1.
          1   -1    0    0  501    0  0.00000000000E+00 -0.00000000000E+00 -0.67775455607E+03  0.67775455607E+03  0.00000000000E+00 0.  1.
         35    2    1    2    0    0 -0.35527136788E-14 -0.71054273576E-14 -0.64992265088E+03  0.70558646125E+03  0.27468673461E+03 0.  0.
         25    2    3    3    0    0 -0.11303715679E+02 -0.47840639168E+02 -0.25668800690E+03  0.28972695264E+03  0.12504588540E+03 0.  0.
         25    2    3    3    0    0  0.11303715679E+02  0.47840639168E+02 -0.39323464399E+03  0.41585950862E+03  0.12605215163E+03 0.  0.
          5    1    4    4  502    0  0.13319882557E+02 -0.39026976523E+02 -0.11451743377E+02  0.43055273710E+02  0.47000000000E+01 0.  1.
         -5    1    4    4    0  502 -0.24623598236E+02 -0.88136626445E+01 -0.24523626352E+03  0.24667167893E+03  0.47000000000E+01 0.  1.
          5    1    5    5  503    0 -0.53790134595E+02 -0.70589408167E-01 -0.17199827483E+03  0.18027445772E+03  0.47000000000E+01 0.  1.
         -5    1    5    5    0  503  0.65093850274E+02  0.47911228576E+02 -0.22123636915E+03  0.23558505089E+03  0.47000000000E+01 0.  1.
<mgrwt>
<rscale>  0 0.27468673E+03</rscale>
<asrwt>0</asrwt>
<pdfrwt beam="1">  1        1 0.10426994E+00 0.27468673E+03</pdfrwt>
<pdfrwt beam="2">  1       -1 0.42818314E-02 0.27468673E+03</pdfrwt>
<totfact> 0.65451327E+03</totfact>
</mgrwt>
</event>
<event>
 9    1  0.7984035E-001  0.2669514E+03  0.7818608E-02  0.1103037E+00
          1   -1    0    0  501    0  0.00000000000E+00  0.00000000000E+00  0.91253694253E+03  0.91253694253E+03  0.00000000000E+00 0. -1.
         -1   -1    0    0    0  501 -0.00000000000E+00 -0.00000000000E+00 -0.19523336511E+02  0.19523336511E+02  0.00000000000E+00 0. -1.
         35    2    1    2    0    0  0.00000000000E+00  0.00000000000E+00  0.89301360602E+03  0.93206027904E+03  0.26695142485E+03 0.  0.
         25    2    3    3    0    0 -0.18993150143E+02  0.42288186726E+02  0.43840367711E+03  0.45832655720E+03  0.12536514046E+03 0.  0.
         25    2    3    3    0    0  0.18993150143E+02 -0.42288186726E+02  0.45460992890E+03  0.47373372183E+03  0.12491765791E+03 0.  0.
          5    1    4    4  502    0  0.30790284621E+02 -0.19529223830E+02  0.26530833946E+03  0.26784330717E+03  0.47000000000E+01 0.  1.
         -5    1    4    4    0  502 -0.49783434764E+02  0.61817410556E+02  0.17309533765E+03  0.19048325003E+03  0.47000000000E+01 0.  1.
          5    1    5    5  503    0  0.54093923927E+02 -0.68942565273E+02  0.33025102771E+03  0.34171195651E+03  0.47000000000E+01 0.  1.
         -5    1    5    5    0  503 -0.35100773784E+02  0.26654378547E+02  0.12435890119E+03  0.13202176533E+03  0.47000000000E+01 0.  1.
<mgrwt>
<rscale>  0 0.26695142E+03</rscale>
<asrwt>0</asrwt>
<pdfrwt beam="1">  1        1 0.14039027E+00 0.26695142E+03</pdfrwt>
<pdfrwt beam="2">  1       -1 0.30035909E-02 0.26695142E+03</pdfrwt>
<totfact> 0.70135976E+03</totfact>
</mgrwt>
</event>
<event>
 9    1  0.7984035E-001  0.2728189E+03  0.7818608E-02  0.1099677E+00
          2   -1    0    0  501    0  0.00000000000E+00  0.00000000000E+00  0.23772933105E+03  0.23772933105E+03  0.00000000000E+00 0. -1.
         -2   -1    0    0    0  501 -0.00000000000E+00 -0.00000000000E+00 -0.78271954950E+02  0.78271954950E+02  0.00000000000E+00 0. -1.
         35    2    1    2    0    0  0.00000000000E+00  0.14210854715E-13  0.15945737610E+03  0.31600128600E+03  0.27281891056E+03 0.  0.
         25    2    3    3    0    0 -0.29197528479E+02  0.32591372877E+02  0.41997785348E+02  0.13904021962E+03  0.12511464919E+03 0.  0.
         25    2    3    3    0    0  0.29197528479E+02 -0.32591372877E+02  0.11745959075E+03  0.17696106638E+03  0.12491505233E+03 0.  0.
          5    1    4    4  502    0  0.89576674346E+01 -0.33662986653E+02  0.50971721849E+02  0.61916418699E+02  0.47000000000E+01 0. -1.
         -5    1    4    4    0  502 -0.38155195914E+02  0.66254359530E+02 -0.89739365013E+01  0.77123800920E+02  0.47000000000E+01 0. -1.
          5    1    5    5  503    0  0.38926967302E+02  0.41528588879E+02  0.57135224122E+02  0.80786485956E+02  0.47000000000E+01 0.  1.
         -5    1    5    5    0  503 -0.97294388223E+01 -0.74119961756E+02  0.60324366627E+02  0.96174580422E+02  0.47000000000E+01 0.  1.
<mgrwt>
<rscale>  0 0.27281891E+03</rscale>
<asrwt>0</asrwt>
<pdfrwt beam="1">  1        2 0.36573743E-01 0.27281891E+03</pdfrwt>
<pdfrwt beam="2">  1       -2 0.12041839E-01 0.27281891E+03</pdfrwt>
<totfact> 0.68717517E+03</totfact>
</mgrwt>
</event>
<event>
 9    1  0.7984035E-001  0.2828083E+03  0.7818608E-02  0.1094165E+00
         -2   -1    0    0    0  501 -0.00000000000E+00  0.00000000000E+00  0.10902223452E+04  0.10902223452E+04  0.00000000000E+00 0. -1.
          2   -1    0    0  501    0  0.00000000000E+00 -0.00000000000E+00 -0.18340417762E+02  0.18340417762E+02  0.00000000000E+00 0. -1.
         35    2    1    2    0    0  0.00000000000E+00  0.71054273576E-14  0.10718819274E+04  0.11085627630E+04  0.28280829736E+03 0.  0.
         25    2    3    3    0    0 -0.29870679726E+02  0.50679730221E+02  0.64806073343E+03  0.66277095508E+03  0.12578526194E+03 0.  0.
         25    2    3    3    0    0  0.29870679726E+02 -0.50679730221E+02  0.42382119400E+03  0.44579180787E+03  0.12508092949E+03 0.  0.
          5    1    4    4  502    0 -0.51141691854E+02  0.64020913579E+02  0.23498237631E+03  0.24890350982E+03  0.47000000000E+01 0. -1.
         -5    1    4    4    0  502  0.21271012127E+02 -0.13341183357E+02  0.41307835712E+03  0.41386744526E+03  0.47000000000E+01 0. -1.
          5    1    5    5  503    0  0.44841296124E+02  0.31203276632E+02  0.17186896145E+03  0.18040348173E+03  0.47000000000E+01 0. -1.
         -5    1    5    5    0  503 -0.14970616397E+02 -0.81883006854E+02  0.25195223255E+03  0.26538832614E+03  0.47000000000E+01 0. -1.
<mgrwt>
<rscale>  0 0.28280830E+03</rscale>
<asrwt>0</asrwt>
<pdfrwt beam="1">  1        2 0.28216036E-02 0.28280830E+03</pdfrwt>
<pdfrwt beam="2">  1       -2 0.16772646E+00 0.28280830E+03</pdfrwt>
<totfact> 0.80506293E+02</totfact>
</mgrwt>
</event>
<event>
 9    1  0.7984035E-001  0.2759269E+03  0.7818608E-02  0.1097935E+00
         -1   -1    0    0    0  501 -0.00000000000E+00  0.00000000000E+00  0.36369999138E+02  0.36369999138E+02  0.00000000000E+00 0.  1.
          1   -1    0    0  501    0  0.00000000000E+00 -0.00000000000E+00 -0.52334087996E+03  0.52334087996E+03  0.00000000000E+00 0.  1.
         35    2    1    2    0    0 -0.17763568394E-14 -0.71054273576E-14 -0.48697088082E+03  0.55971087909E+03  0.27592685519E+03 0.  0.
         25    2    3    3    0    0 -0.12081369396E+02  0.56724348891E+02 -0.24725354194E+03  0.28310022376E+03  0.12509121251E+03 0.  0.
         25    2    3    3    0    0  0.12081369396E+02 -0.56724348891E+02 -0.23971733888E+03  0.27661065533E+03  0.12524153002E+03 0.  0.
          5    1    4    4  502    0  0.75495985800E+00 -0.15915382768E+02  0.72171544906E+01  0.18112059297E+02  0.47000000000E+01 0.  1.
         -5    1    4    4    0  502 -0.12836329254E+02  0.72639731659E+02 -0.25447069643E+03  0.26498816446E+03  0.47000000000E+01 0.  1.
          5    1    5    5  503    0 -0.22986420317E+02 -0.80310533418E+02 -0.20600033583E+03  0.22234294606E+03  0.47000000000E+01 0. -1.
         -5    1    5    5    0  503  0.35067789714E+02  0.23586184527E+02 -0.33717003043E+02  0.54267709277E+02  0.47000000000E+01 0. -1.
<mgrwt>
<rscale>  0 0.27592686E+03</rscale>
<asrwt>0</asrwt>
<pdfrwt beam="1">  1        1 0.80513978E-01 0.27592686E+03</pdfrwt>
<pdfrwt beam="2">  1       -1 0.55953847E-02 0.27592686E+03</pdfrwt>
<totfact> 0.62787703E+03</totfact>
</mgrwt>
</event>
<event>
 9    1  0.7984035E-001  0.2730047E+03  0.7818608E-02  0.1099572E+00
          2   -1    0    0  501    0  0.00000000000E+00  0.00000000000E+00  0.17987324585E+04  0.17987324585E+04  0.00000000000E+00 0.  1.
         -2   -1    0    0    0  501 -0.00000000000E+00 -0.00000000000E+00 -0.10358898462E+02  0.10358898462E+02  0.00000000000E+00 0.  1.
         35    2    1    2    0    0 -0.71054273576E-14 -0.35527136788E-14  0.17883735601E+04  0.18090913570E+04  0.27300466588E+03 0.  0.
         25    2    3    3    0    0 -0.45882994876E+02 -0.17663759356E+02  0.83011833853E+03  0.84126903658E+03  0.12735728612E+03 0.  0.
         25    2    3    3    0    0  0.45882994876E+02  0.17663759356E+02  0.95825522154E+03  0.96782232041E+03  0.12652950909E+03 0.  0.
          5    1    4    4  502    0 -0.88992806386E+02 -0.17961761014E+02  0.48605235618E+03  0.49448086657E+03  0.47000000000E+01 0.  1.
         -5    1    4    4    0  502  0.43109811510E+02  0.29800165770E+00  0.34406598235E+03  0.34678817001E+03  0.47000000000E+01 0.  1.
          5    1    5    5  503    0  0.27801407386E+02  0.24021878917E+01  0.93097846011E+03  0.93140843455E+03  0.47000000000E+01 0.  1.
         -5    1    5    5    0  503  0.18081587490E+02  0.15261571465E+02  0.27276761426E+02  0.36413885863E+02  0.47000000000E+01 0.  1.
<mgrwt>
<rscale>  0 0.27300467E+03</rscale>
<asrwt>0</asrwt>
<pdfrwt beam="1">  1        2 0.27672782E+00 0.27300467E+03</pdfrwt>
<pdfrwt beam="2">  1       -2 0.15936781E-02 0.27300467E+03</pdfrwt>
<totfact> 0.10231274E+04</totfact>
</mgrwt>
</event>
<event>
 9    1  0.7984035E-001  0.2766252E+03  0.7818608E-02  0.1097547E+00
          1   -1    0    0  501    0  0.00000000000E+00  0.00000000000E+00  0.13474520272E+04  0.13474520272E+04  0.00000000000E+00 0. -1.
         -1   -1    0    0    0  501 -0.00000000000E+00 -0.00000000000E+00 -0.14197441187E+02  0.14197441187E+02  0.00000000000E+00 0. -1.
         35    2    1    2    0    0  0.00000000000E+00  0.71054273576E-14  0.13332545860E+04  0.13616494683E+04  0.27662516811E+03 0.  0.
         25    2    3    3    0    0 -0.50485711995E+02 -0.32598865799E+02  0.69621702554E+03  0.70992410248E+03  0.12515027552E+03 0.  0.
         25    2    3    3    0    0  0.50485711995E+02  0.32598865799E+02  0.63703756042E+03  0.65172536586E+03  0.12376431612E+03 0.  0.
          5    1    4    4  502    0 -0.65061862343E+02 -0.66878119132E+02  0.58808837216E+03  0.59546263713E+03  0.47000000000E+01 0. -1.
         -5    1    4    4    0  502  0.14576150347E+02  0.34279253333E+02  0.10812865338E+03  0.11446146535E+03  0.47000000000E+01 0. -1.
          5    1    5    5  503    0  0.74952362030E+02  0.42111015667E+01  0.21079951657E+03  0.22381714889E+03  0.47000000000E+01 0. -1.
         -5    1    5    5    0  503 -0.24466650035E+02  0.28387764233E+02  0.42623804385E+03  0.42790821697E+03  0.47000000000E+01 0. -1.
<mgrwt>
<rscale>  0 0.27662517E+03</rscale>
<asrwt>0</asrwt>
<pdfrwt beam="1">  1        1 0.20730021E+00 0.27662517E+03</pdfrwt>
<pdfrwt beam="2">  1       -1 0.21842228E-02 0.27662517E+03</pdfrwt>
<totfact> 0.54580148E+03</totfact>
</mgrwt>
</event>
<event>
 9    1  0.7984035E-001  0.2731954E+03  0.7818608E-02  0.1099465E+00
         -1   -1    0    0    0  501 -0.00000000000E+00  0.00000000000E+00  0.27471760077E+03  0.27471760077E+03  0.00000000000E+00 0. -1.
          1   -1    0    0  501    0  0.00000000000E+00 -0.00000000000E+00 -0.67920397039E+02  0.67920397039E+02  0.00000000000E+00 0. -1.
         35    2    1    2    0    0  0.00000000000E+00  0.00000000000E+00  0.20679720373E+03  0.34263799781E+03  0.27319537711E+03 0.  0.
         25    2    3    3    0    0  0.78009918012E+01 -0.45663690197E+02  0.65302918943E+02  0.14825899340E+03  0.12478072698E+03 0.  0.
         25    2    3    3    0    0 -0.78009918012E+01  0.45663690197E+02  0.14149428479E+03  0.19437900441E+03  0.12496614202E+03 0.  0.
          5    1    4    4  502    0 -0.29238643856E+02 -0.70268707536E+02  0.69724866069E+02  0.10332587528E+03  0.47000000000E+01 0. -1.
         -5    1    4    4    0  502  0.37039635658E+02  0.24605017339E+02 -0.44219471259E+01  0.44933118123E+02  0.47000000000E+01 0. -1.
          5    1    5    5  503    0 -0.21926503719E+02 -0.24636263023E+02  0.11174561353E+03  0.11660569954E+03  0.47000000000E+01 0. -1.
         -5    1    5    5    0  503  0.14125511918E+02  0.70299953220E+02  0.29748671261E+02  0.77773304877E+02  0.47000000000E+01 0. -1.
<mgrwt>
<rscale>  0 0.27319538E+03</rscale>
<asrwt>0</asrwt>
<pdfrwt beam="1">  1        1 0.10449292E-01 0.27319538E+03</pdfrwt>
<pdfrwt beam="2">  1       -1 0.42264246E-01 0.27319538E+03</pdfrwt>
<totfact> 0.33646600E+03</totfact>
</mgrwt>
</event>
<event>
 9    1  0.7984035E-001  0.2758991E+03  0.7818608E-02  0.1097950E+00
         -2   -1    0    0    0  501 -0.00000000000E+00  0.00000000000E+00  0.52345507775E+02  0.52345507775E+02  0.00000000000E+00 0.  1.
          2   -1    0    0  501    0  0.00000000000E+00 -0.00000000000E+00 -0.36354756553E+03  0.36354756553E+03  0.00000000000E+00 0.  1.
         35    2    1    2    0    0  0.35527136788E-14  0.14210854715E-13 -0.31120205775E+03  0.41589307330E+03  0.27589912590E+03 0.  0.
         25    2    3    3    0    0  0.54960848242E+01  0.53860000311E+02 -0.18052543633E+03  0.22623807911E+03  0.12515242185E+03 0.  0.
         25    2    3    3    0    0 -0.54960848242E+01 -0.53860000311E+02 -0.13067662143E+03  0.18965499420E+03  0.12633895225E+03 0.  0.
          5    1    4    4  502    0  0.21421279333E+02  0.71060288433E+02 -0.18718822228E+03  0.20141985096E+03  0.47000000000E+01 0. -1.
         -5    1    4    4    0  502 -0.15925194509E+02 -0.17200288123E+02  0.66627859531E+01  0.24818228146E+02  0.47000000000E+01 0. -1.
          5    1    5    5  503    0 -0.38438567567E+02 -0.79934370770E+02 -0.11325776542E+03  0.14393206222E+03  0.47000000000E+01 0.  1.
         -5    1    5    5    0  503  0.32942482742E+02  0.26074370459E+02 -0.17418856010E+02  0.45722931979E+02  0.47000000000E+01 0.  1.
<mgrwt>
<rscale>  0 0.27589913E+03</rscale>
<asrwt>0</asrwt>
<pdfrwt beam="1">  1        2 0.55930395E-01 0.27589913E+03</pdfrwt>
<pdfrwt beam="2">  1       -2 0.80531550E-02 0.27589913E+03</pdfrwt>
<totfact> 0.82392510E+03</totfact>
</mgrwt>
</event>
<event>
 9    1  0.7984035E-001  0.2761675E+03  0.7818608E-02  0.1097801E+00
         -3   -1    0    0    0  501 -0.00000000000E+00  0.00000000000E+00  0.36025678492E+03  0.36025678492E+03  0.00000000000E+00 0. -1.
          3   -1    0    0  501    0  0.00000000000E+00 -0.00000000000E+00 -0.52926488257E+02  0.52926488257E+02  0.00000000000E+00 0. -1.
         35    2    1    2    0    0  0.71054273576E-14  0.71054273576E-14  0.30733029666E+03  0.41318327318E+03  0.27616753246E+03 0.  0.
         25    2    3    3    0    0 -0.17274587639E+02 -0.25235588908E+02  0.22839774397E+03  0.26232645336E+03  0.12535705946E+03 0.  0.
         25    2    3    3    0    0  0.17274587639E+02  0.25235588908E+02  0.78932552689E+02  0.15085681981E+03  0.12486867455E+03 0.  0.
          5    1    4    4  502    0 -0.12578440712E+02 -0.67007531917E+02  0.67853020237E+02  0.96303420809E+02  0.47000000000E+01 0. -1.
         -5    1    4    4    0  502 -0.46961469277E+01  0.41771943009E+02  0.16054472374E+03  0.16602303256E+03  0.47000000000E+01 0. -1.
          5    1    5    5  503    0  0.54528862354E+01 -0.34170235280E+02 -0.15791092552E+02  0.38324764205E+02  0.47000000000E+01 0.  1.
         -5    1    5    5    0  503  0.11821701404E+02  0.59405824188E+02  0.94723645241E+02  0.11253205561E+03  0.47000000000E+01 0.  1.
<mgrwt>
<rscale>  0 0.27616753E+03</rscale>
<asrwt>0</asrwt>
<pdfrwt beam="1">  1        3 0.81425369E-02 0.27616753E+03</pdfrwt>
<pdfrwt beam="2">  1       -3 0.55424119E-01 0.27616753E+03</pdfrwt>
<totfact> 0.85419624E+02</totfact>
</mgrwt>
</event>
<event>
 9    1  0.7984035E-001  0.2775689E+03  0.7818608E-02  0.1097024E+00
          1   -1    0    0  501    0  0.00000000000E+00  0.00000000000E+00  0.34981498043E+02  0.34981498043E+02  0.00000000000E+00 0.  1.
         -1   -1    0    0    0  501 -0.00000000000E+00 -0.00000000000E+00 -0.55060905768E+03  0.55060905768E+03  0.00000000000E+00 0.  1.
         35    2    1    2    0    0  0.71054273576E-14  0.00000000000E+00 -0.51562755964E+03  0.58559055573E+03  0.27756894404E+03 0.  0.
         25    2    3    3    0    0  0.49745616319E+02 -0.11608101429E+02 -0.30666165760E+03  0.33515710960E+03  0.12521797598E+03 0.  0.
         25    2    3    3    0    0 -0.49745616319E+02  0.11608101429E+02 -0.20896590204E+03  0.25043344613E+03  0.12822163766E+03 0.  0.
          5    1    4    4  502    0  0.22502044402E+01 -0.30714975648E+02 -0.80837113577E+01  0.32185548596E+02  0.47000000000E+01 0. -1.
         -5    1    4    4    0  502  0.47495411879E+02  0.19106874219E+02 -0.29857794625E+03  0.30297156100E+03  0.47000000000E+01 0. -1.
          5    1    5    5  503    0 -0.59220424471E+02 -0.74996072797E+01 -0.24528219389E+02  0.64707235533E+02  0.47000000000E+01 0.  1.
         -5    1    5    5    0  503  0.94748081525E+01  0.19107708709E+02 -0.18443768265E+03  0.18572621059E+03  0.47000000000E+01 0.  1.
<mgrwt>
<rscale>  0 0.27756894E+03</rscale>
<asrwt>0</asrwt>
<pdfrwt beam="1">  1        1 0.53817685E-02 0.27756894E+03</pdfrwt>
<pdfrwt beam="2">  1       -1 0.84709092E-01 0.27756894E+03</pdfrwt>
<totfact> 0.21705376E+03</totfact>
</mgrwt>
</event>
<event>
 9    1  0.7984035E-001  0.2744729E+03  0.7818608E-02  0.1098747E+00
          2   -1    0    0  501    0  0.00000000000E+00  0.00000000000E+00  0.25305832840E+03  0.25305832840E+03  0.00000000000E+00 0.  1.
         -2   -1    0    0    0  501 -0.00000000000E+00 -0.00000000000E+00 -0.74424916450E+02  0.74424916450E+02  0.00000000000E+00 0.  1.
         35    2    1    2    0    0 -0.35527136788E-14 -0.14210854715E-13  0.17863341195E+03  0.32748324485E+03  0.27447291267E+03 0.  0.
         25    2    3    3    0    0  0.73035754418E+01  0.58485482112E+02  0.63111675662E+02  0.15190930748E+03  0.12497783908E+03 0.  0.
         25    2    3    3    0    0 -0.73035754418E+01 -0.58485482112E+02  0.11552173629E+03  0.17557393737E+03  0.11835135021E+03 0.  0.
          5    1    4    4  502    0 -0.18767241249E+02  0.78553974670E+02  0.36221444170E+00  0.80902147560E+02  0.47000000000E+01 0.  1.
         -5    1    4    4    0  502  0.26070816690E+02 -0.20068492559E+02  0.62749461220E+02  0.71007159920E+02  0.47000000000E+01 0.  1.
          5    1    5    5  503    0  0.10355800418E+02 -0.56140251226E+02  0.13627410658E+03  0.14782317996E+03  0.47000000000E+01 0. -1.
         -5    1    5    5    0  503 -0.17659375859E+02 -0.23452308856E+01 -0.20752370295E+02  0.27750757404E+02  0.47000000000E+01 0. -1.
<mgrwt>
<rscale>  0 0.27447291E+03</rscale>
<asrwt>0</asrwt>
<pdfrwt beam="1">  1        2 0.38932050E-01 0.27447291E+03</pdfrwt>
<pdfrwt beam="2">  1       -2 0.11449987E-01 0.27447291E+03</pdfrwt>
<totfact> 0.69675862E+03</totfact>
</mgrwt>
</event>
<event>
 9    1  0.7984035E-001  0.2834650E+03  0.7818608E-02  0.1093811E+00
         -2   -1    0    0    0  501 -0.00000000000E+00  0.00000000000E+00  0.93136528737E+02  0.93136528737E+02  0.00000000000E+00 0. -1.
          2   -1    0    0  501    0  0.00000000000E+00 -0.00000000000E+00 -0.21568444581E+03  0.21568444581E+03  0.00000000000E+00 0. -1.
         35    2    1    2    0    0  0.71054273576E-14  0.00000000000E+00 -0.12254791707E+03  0.30882097455E+03  0.28346499315E+03 0.  0.
         25    2    3    3    0    0  0.46961594119E+02 -0.45771619970E+02 -0.68657966606E+02  0.15711575166E+03  0.12518390682E+03 0.  0.
         25    2    3    3    0    0 -0.46961594119E+02  0.45771619970E+02 -0.53889950465E+02  0.15170522288E+03  0.12573748594E+03 0.  0.
          5    1    4    4  502    0  0.32509612626E+01  0.16201514484E+01 -0.89115384386E+02  0.89313131028E+02  0.47000000000E+01 0.  1.
         -5    1    4    4    0  502  0.43710632856E+02 -0.47391771418E+02  0.20457417780E+02  0.67802620635E+02  0.47000000000E+01 0.  1.
          5    1    5    5  503    0  0.35407525830E+02 -0.11718987071E+02 -0.30634196483E+02  0.48493005038E+02  0.47000000000E+01 0.  1.
         -5    1    5    5    0  503 -0.82369119949E+02  0.57490607040E+02 -0.23255753982E+02  0.10321221784E+03  0.47000000000E+01 0.  1.
<mgrwt>
<rscale>  0 0.28346499E+03</rscale>
<asrwt>0</asrwt>
<pdfrwt beam="1">  1        2 0.33182223E-01 0.28346499E+03</pdfrwt>
<pdfrwt beam="2">  1       -2 0.14328697E-01 0.28346499E+03</pdfrwt>
<totfact> 0.57611790E+03</totfact>
</mgrwt>
</event>
<event>
 9    1  0.7984035E-001  0.2764074E+03  0.7818608E-02  0.1097667E+00
         -4   -1    0    0    0  501 -0.00000000000E+00  0.00000000000E+00  0.52229166341E+03  0.52229166341E+03  0.00000000000E+00 0.  1.
          4   -1    0    0  501    0  0.00000000000E+00 -0.00000000000E+00 -0.36570107299E+02  0.36570107299E+02  0.00000000000E+00 0.  1.
         35    2    1    2    0    0  0.00000000000E+00  0.35527136788E-14  0.48572155611E+03  0.55886177070E+03  0.27640739623E+03 0.  0.
         25    2    3    3    0    0 -0.21874241468E+02 -0.44934882415E+01  0.13912770066E+03  0.19015478750E+03  0.12768575583E+03 0.  0.
         25    2    3    3    0    0  0.21874241468E+02  0.44934882415E+01  0.34659385544E+03  0.36870698320E+03  0.12376940234E+03 0.  0.
          5    1    4    4  502    0  0.34978121136E+02 -0.35102836029E+02  0.10671751279E+03  0.11775566055E+03  0.47000000000E+01 0.  1.
         -5    1    4    4    0  502 -0.56852362604E+02  0.30609347787E+02  0.32410187874E+02  0.72399126954E+02  0.47000000000E+01 0.  1.
          5    1    5    5  503    0  0.55593816145E+01 -0.29175015414E+02  0.32263223293E+03  0.32403045532E+03  0.47000000000E+01 0.  1.
         -5    1    5    5    0  503  0.16314859853E+02  0.33668503656E+02  0.23961622517E+02  0.44676527888E+02  0.47000000000E+01 0.  1.
<mgrwt>
<rscale>  0 0.27640740E+03</rscale>
<asrwt>0</asrwt>
<pdfrwt beam="1">  1        4 0.56261707E-02 0.27640740E+03</pdfrwt>
<pdfrwt beam="2">  1       -4 0.80352558E-01 0.27640740E+03</pdfrwt>
<totfact> 0.51986795E+02</totfact>
</mgrwt>
</event>
<event>
 9    1  0.7984035E-001  0.2731064E+03  0.7818608E-02  0.1099515E+00
          1   -1    0    0  501    0  0.00000000000E+00  0.00000000000E+00  0.15621527539E+04  0.15621527539E+04  0.00000000000E+00 0.  1.
         -1   -1    0    0    0  501 -0.00000000000E+00 -0.00000000000E+00 -0.11936592337E+02  0.11936592337E+02  0.00000000000E+00 0.  1.
         35    2    1    2    0    0 -0.14210854715E-13  0.00000000000E+00  0.15502161615E+04  0.15740893462E+04  0.27310643047E+03 0.  0.
         25    2    3    3    0    0 -0.54825152034E+02 -0.10030577517E+02  0.75921184621E+03  0.77131168060E+03  0.12414778056E+03 0.  0.
         25    2    3    3    0    0  0.54825152034E+02  0.10030577517E+02  0.79100431533E+03  0.80277766562E+03  0.12513090651E+03 0.  0.
          5    1    4    4  502    0  0.87264674563E+01 -0.29016132180E+02  0.56876132432E+03  0.56958723758E+03  0.47000000000E+01 0. -1.
         -5    1    4    4    0  502 -0.63551619490E+02  0.18985554663E+02  0.19045052189E+03  0.20172444302E+03  0.47000000000E+01 0. -1.
          5    1    5    5  503    0  0.82173211615E+01 -0.35902997962E+02  0.74144420025E+02  0.82921858702E+02  0.47000000000E+01 0.  1.
         -5    1    5    5    0  503  0.46607830872E+02  0.45933575479E+02  0.71685989531E+03  0.71985580692E+03  0.47000000000E+01 0.  1.
<mgrwt>
<rscale>  0 0.27310643E+03</rscale>
<asrwt>0</asrwt>
<pdfrwt beam="1">  1        1 0.24033103E+00 0.27310643E+03</pdfrwt>
<pdfrwt beam="2">  1       -1 0.18364001E-02 0.27310643E+03</pdfrwt>
<totfact> 0.50572384E+03</totfact>
</mgrwt>
</event>
<event>
 9    1  0.7984035E-001  0.2733743E+03  0.7818608E-02  0.1099364E+00
          2   -1    0    0  501    0  0.00000000000E+00  0.00000000000E+00  0.35272315649E+04  0.35272315649E+04  0.00000000000E+00 0. -1.
         -2   -1    0    0    0  501 -0.00000000000E+00 -0.00000000000E+00 -0.52968953343E+01  0.52968953343E+01  0.00000000000E+00 0. -1.
         35    2    1    2    0    0  0.00000000000E+00  0.00000000000E+00  0.35219346695E+04  0.35325284602E+04  0.27337429593E+03 0.  0.
         25    2    3    3    0    0  0.32452463970E+02  0.39621533497E+02  0.15047452291E+04  0.15108189900E+04  0.12527085772E+03 0.  0.
         25    2    3    3    0    0 -0.32452463970E+02 -0.39621533497E+02  0.20171894405E+04  0.20217094702E+04  0.12503165544E+03 0.  0.
          5    1    4    4  502    0 -0.23458000380E+01  0.78371011647E+02  0.10829098279E+04  0.10857547162E+04  0.47000000000E+01 0. -1.
         -5    1    4    4    0  502  0.34798264008E+02 -0.38749478151E+02  0.42183540112E+03  0.42506427381E+03  0.47000000000E+01 0. -1.
          5    1    5    5  503    0 -0.60903275974E+00 -0.41896760565E+02  0.18906604026E+04  0.18911304972E+04  0.47000000000E+01 0. -1.
         -5    1    5    5    0  503 -0.31843431210E+02  0.22752270687E+01  0.12652903790E+03  0.13057897305E+03  0.47000000000E+01 0. -1.
<mgrwt>
<rscale>  0 0.27337430E+03</rscale>
<asrwt>0</asrwt>
<pdfrwt beam="1">  1        2 0.54264913E+00 0.27337430E+03</pdfrwt>
<pdfrwt beam="2">  1       -2 0.81490979E-03 0.27337430E+03</pdfrwt>
<totfact> 0.27919859E+03</totfact>
</mgrwt>
</event>
<event>
 9    1  0.7984035E-001  0.2728803E+03  0.7818608E-02  0.1099642E+00
         -2   -1    0    0    0  501 -0.00000000000E+00  0.00000000000E+00  0.10567656106E+02  0.10567656106E+02  0.00000000000E+00 0.  1.
          2   -1    0    0  501    0  0.00000000000E+00 -0.00000000000E+00 -0.17615940661E+04  0.17615940661E+04  0.00000000000E+00 0.  1.
         35    2    1    2    0    0 -0.71054273576E-14 -0.35527136788E-14 -0.17510264100E+04  0.17721617222E+04  0.27288034220E+03 0.  0.
         25    2    3    3    0    0 -0.25028620347E+02 -0.76915246063E+01 -0.12135265535E+04  0.12201750685E+04  0.12447855365E+03 0.  0.
         25    2    3    3    0    0  0.25028620347E+02  0.76915246063E+01 -0.53749985648E+03  0.55198665371E+03  0.12287220502E+03 0.  0.
          5    1    4    4  502    0  0.42593620017E+02 -0.32963206353E+02 -0.45268150062E+03  0.45589847603E+03  0.47000000000E+01 0.  1.
         -5    1    4    4    0  502 -0.67622240364E+02  0.25271681747E+02 -0.76084505291E+03  0.76427659249E+03  0.47000000000E+01 0.  1.
          5    1    5    5  503    0  0.23209515814E+02 -0.34708508317E+02 -0.47156811865E+03  0.47343631324E+03  0.47000000000E+01 0. -1.
         -5    1    5    5    0  503  0.18191045328E+01  0.42400032923E+02 -0.65931737833E+02  0.78550340463E+02  0.47000000000E+01 0. -1.
<mgrwt>
<rscale>  0 0.27288034E+03</rscale>
<asrwt>0</asrwt>
<pdfrwt beam="1">  1        2 0.27101430E+00 0.27288034E+03</pdfrwt>
<pdfrwt beam="2">  1       -2 0.16257943E-02 0.27288034E+03</pdfrwt>
<totfact> 0.10392949E+04</totfact>
</mgrwt>
</event>
<event>
 9    1  0.7984035E-001  0.2691916E+03  0.7818608E-02  0.1101743E+00
         -2   -1    0    0    0  501 -0.00000000000E+00  0.00000000000E+00  0.78884680655E+01  0.78884680655E+01  0.00000000000E+00 0.  1.
          2   -1    0    0  501    0  0.00000000000E+00 -0.00000000000E+00 -0.22965198458E+04  0.22965198458E+04  0.00000000000E+00 0.  1.
         35    2    1    2    0    0 -0.71054273576E-14  0.00000000000E+00 -0.22886313778E+04  0.23044083139E+04  0.26919155607E+03 0.  0.
         25    2    3    3    0    0 -0.14881335404E+02  0.39977174447E+02 -0.92884070860E+03  0.93819005306E+03  0.12504353282E+03 0.  0.
         25    2    3    3    0    0  0.14881335404E+02 -0.39977174447E+02 -0.13597906692E+04  0.13662182608E+04  0.12530779567E+03 0.  0.
          5    1    4    4  502    0  0.39881364580E+02 -0.20968637975E+02 -0.22012581212E+03  0.22473911582E+03  0.47000000000E+01 0.  1.
         -5    1    4    4    0  502 -0.54762699984E+02  0.60945812422E+02 -0.70871489648E+03  0.71345093724E+03  0.47000000000E+01 0.  1.
          5    1    5    5  503    0  0.69632641699E+02 -0.15725767249E+02 -0.81143846784E+03  0.81458607994E+03  0.47000000000E+01 0. -1.
         -5    1    5    5    0  503 -0.54751306295E+02 -0.24251407198E+02 -0.54835220133E+03  0.55163218089E+03  0.47000000000E+01 0. -1.
<mgrwt>
<rscale>  0 0.26919156E+03</rscale>
<asrwt>0</asrwt>
<pdfrwt beam="1">  1        2 0.35331122E+00 0.26919156E+03</pdfrwt>
<pdfrwt beam="2">  1       -2 0.12136088E-02 0.26919156E+03</pdfrwt>
<totfact> 0.83141027E+03</totfact>
</mgrwt>
</event>
<event>
 9    1  0.7984035E-001  0.2754592E+03  0.7818608E-02  0.1098195E+00
         -1   -1    0    0    0  501 -0.00000000000E+00  0.00000000000E+00  0.35856670687E+02  0.35856670687E+02  0.00000000000E+00 0. -1.
          1   -1    0    0  501    0  0.00000000000E+00 -0.00000000000E+00 -0.52903512704E+03  0.52903512704E+03  0.00000000000E+00 0. -1.
         35    2    1    2    0    0  0.71054273576E-14 -0.35527136788E-14 -0.49317845635E+03  0.56489179772E+03  0.27545916817E+03 0.  0.
         25    2    3    3    0    0  0.24122828147E+02  0.17026971473E+02 -0.14810539708E+03  0.19653793626E+03  0.12577807103E+03 0.  0.
         25    2    3    3    0    0 -0.24122828147E+02 -0.17026971473E+02 -0.34507305927E+03  0.36835386146E+03  0.12544848513E+03 0.  0.
          5    1    4    4  502    0  0.29566986877E+02  0.47302878040E+02 -0.12436126367E+02  0.57345585906E+02  0.47000000000E+01 0.  1.
         -5    1    4    4    0  502 -0.54441587296E+01 -0.30275906567E+02 -0.13566927071E+03  0.13919235036E+03  0.47000000000E+01 0.  1.
          5    1    5    5  503    0  0.43399056568E+02 -0.38078169035E+02 -0.14932043744E+03  0.16016275505E+03  0.47000000000E+01 0.  1.
         -5    1    5    5    0  503 -0.67521884716E+02  0.21051197562E+02 -0.19575262183E+03  0.20819110641E+03  0.47000000000E+01 0.  1.
<mgrwt>
<rscale>  0 0.27545917E+03</rscale>
<asrwt>0</asrwt>
<pdfrwt beam="1">  1        1 0.81390018E-01 0.27545917E+03</pdfrwt>
<pdfrwt beam="2">  1       -1 0.55164110E-02 0.27545917E+03</pdfrwt>
<totfact> 0.63215487E+03</totfact>
</mgrwt>
</event>
<event>
 9    1  0.7984035E-001  0.2728857E+03  0.7818608E-02  0.1099639E+00
         -1   -1    0    0    0  501 -0.00000000000E+00  0.00000000000E+00  0.51989396512E+02  0.51989396512E+02  0.00000000000E+00 0. -1.
          1   -1    0    0  501    0  0.00000000000E+00 -0.00000000000E+00 -0.35808559157E+03  0.35808559157E+03  0.00000000000E+00 0. -1.
         35    2    1    2    0    0 -0.35527136788E-14 -0.71054273576E-14 -0.30609619506E+03  0.41007498809E+03  0.27288571825E+03 0.  0.
         25    2    3    3    0    0 -0.14247207009E+02 -0.44576628603E+02 -0.12886650199E+03  0.18590017787E+03  0.12554776808E+03 0.  0.
         25    2    3    3    0    0  0.14247207009E+02  0.44576628603E+02 -0.17722969307E+03  0.22417481022E+03  0.12905007829E+03 0.  0.
          5    1    4    4  502    0 -0.49402053688E+02 -0.19036972213E+01 -0.46808107269E+01  0.49881729729E+02  0.47000000000E+01 0. -1.
         -5    1    4    4    0  502  0.35154846679E+02 -0.42672931382E+02 -0.12418569127E+03  0.13601844814E+03  0.47000000000E+01 0. -1.
          5    1    5    5  503    0 -0.26635016542E+02 -0.35826905335E+02 -0.41466626047E+02  0.61111065510E+02  0.47000000000E+01 0.  1.
         -5    1    5    5    0  503  0.40882223552E+02  0.80403533938E+02 -0.13576306702E+03  0.16306374471E+03  0.47000000000E+01 0.  1.
<mgrwt>
<rscale>  0 0.27288572E+03</rscale>
<asrwt>0</asrwt>
<pdfrwt beam="1">  1        1 0.55090089E-01 0.27288572E+03</pdfrwt>
<pdfrwt beam="2">  1       -1 0.79983691E-02 0.27288572E+03</pdfrwt>
<totfact> 0.59798489E+03</totfact>
</mgrwt>
</event>
<event>
 9    1  0.7984035E-001  0.2677396E+03  0.7818608E-02  0.1102580E+00
         -1   -1    0    0    0  501 -0.00000000000E+00  0.00000000000E+00  0.25023262278E+03  0.25023262278E+03  0.00000000000E+00 0. -1.
          1   -1    0    0  501    0  0.00000000000E+00 -0.00000000000E+00 -0.71617836270E+02  0.71617836270E+02  0.00000000000E+00 0. -1.
         35    2    1    2    0    0  0.35527136788E-14  0.71054273576E-14  0.17861478651E+03  0.32185045905E+03  0.26773956755E+03 0.  0.
         25    2    3    3    0    0  0.27454535655E+02  0.34020423346E+02  0.50808624192E+02  0.14138348891E+03  0.12448547671E+03 0.  0.
         25    2    3    3    0    0 -0.27454535655E+02 -0.34020423346E+02  0.12780616232E+03  0.18046697014E+03  0.11967778178E+03 0.  0.
          5    1    4    4  502    0  0.44211616583E+02  0.12001119451E+02 -0.30587354635E+02  0.55284447836E+02  0.47000000000E+01 0. -1.
         -5    1    4    4    0  502 -0.16757080928E+02  0.22019303895E+02  0.81395978827E+02  0.86099041077E+02  0.47000000000E+01 0. -1.
          5    1    5    5  503    0  0.22458185907E+02 -0.48228974642E+02  0.13869785090E+02  0.55180295828E+02  0.47000000000E+01 0.  1.
         -5    1    5    5    0  503 -0.49912721562E+02  0.14208551295E+02  0.11393637723E+03  0.12528667431E+03  0.47000000000E+01 0.  1.
<mgrwt>
<rscale>  0 0.26773957E+03</rscale>
<asrwt>0</asrwt>
<pdfrwt beam="1">  1        1 0.11018129E-01 0.26773957E+03</pdfrwt>
<pdfrwt beam="2">  1       -1 0.38497326E-01 0.26773957E+03</pdfrwt>
<totfact> 0.36977339E+03</totfact>
</mgrwt>
</event>
<event>
 9    1  0.7984035E-001  0.2838102E+03  0.7818608E-02  0.1093626E+00
         -2   -1    0    0    0  501 -0.00000000000E+00  0.00000000000E+00  0.43348710292E+01  0.43348710292E+01  0.00000000000E+00 0.  1.
          2   -1    0    0  501    0  0.00000000000E+00 -0.00000000000E+00 -0.46453649773E+04  0.46453649773E+04  0.00000000000E+00 0.  1.
         35    2    1    2    0    0  0.00000000000E+00  0.00000000000E+00 -0.46410301063E+04  0.46496998483E+04  0.28381020461E+03 0.  0.
         25    2    3    3    0    0 -0.43961878588E+02 -0.18811784599E+02 -0.15390194757E+04  0.15447819464E+04  0.12443385944E+03 0.  0.
         25    2    3    3    0    0  0.43961878588E+02  0.18811784599E+02 -0.31020106305E+04  0.31049179019E+04  0.12553364269E+03 0.  0.
          5    1    4    4  502    0  0.13790545389E+02 -0.40745393815E+02 -0.21487234251E+03  0.21918617620E+03  0.47000000000E+01 0.  1.
         -5    1    4    4    0  502 -0.57752423977E+02  0.21933609216E+02 -0.13241471332E+04  0.13255957702E+04  0.47000000000E+01 0.  1.
          5    1    5    5  503    0  0.69883740558E+02 -0.28554371995E+02 -0.13971415748E+04  0.13991875355E+04  0.47000000000E+01 0.  1.
         -5    1    5    5    0  503 -0.25921861970E+02  0.47366156593E+02 -0.17048690557E+04  0.17057303664E+04  0.47000000000E+01 0.  1.
<mgrwt>
<rscale>  0 0.28381020E+03</rscale>
<asrwt>0</asrwt>
<pdfrwt beam="1">  1        2 0.71467088E+00 0.28381020E+03</pdfrwt>
<pdfrwt beam="2">  1       -2 0.66690384E-03 0.28381020E+03</pdfrwt>
<totfact> 0.47093009E+02</totfact>
</mgrwt>
</event>
<event>
 9    1  0.7984035E-001  0.2726782E+03  0.7818608E-02  0.1099757E+00
         -2   -1    0    0    0  501 -0.00000000000E+00  0.00000000000E+00  0.13841558837E+04  0.13841558837E+04  0.00000000000E+00 0. -1.
          2   -1    0    0  501    0  0.00000000000E+00 -0.00000000000E+00 -0.13429377695E+02  0.13429377695E+02  0.00000000000E+00 0. -1.
         35    2    1    2    0    0  0.88817841970E-15 -0.35527136788E-14  0.13707265060E+04  0.13975852614E+04  0.27267821439E+03 0.  0.
         25    2    3    3    0    0 -0.41135531758E+01 -0.25362041267E+02  0.93537877264E+03  0.94393591885E+03  0.12418299450E+03 0.  0.
         25    2    3    3    0    0  0.41135531758E+01  0.25362041267E+02  0.43534773336E+03  0.45364934255E+03  0.12493967581E+03 0.  0.
          5    1    4    4  502    0 -0.11809698492E+02  0.27418508814E+02  0.62570186774E+02  0.69486415053E+02  0.47000000000E+01 0.  1.
         -5    1    4    4    0  502  0.76961453166E+01 -0.52780550081E+02  0.87280858587E+03  0.87444950380E+03  0.47000000000E+01 0.  1.
          5    1    5    5  503    0  0.16849859460E+02 -0.20409142320E+01  0.38814555446E+00  0.17616008393E+02  0.47000000000E+01 0. -1.
         -5    1    5    5    0  503 -0.12736306284E+02  0.27402955499E+02  0.43495958781E+03  0.43603333415E+03  0.47000000000E+01 0. -1.
<mgrwt>
<rscale>  0 0.27267821E+03</rscale>
<asrwt>0</asrwt>
<pdfrwt beam="1">  1        2 0.20660592E-02 0.27267821E+03</pdfrwt>
<pdfrwt beam="2">  1       -2 0.21294695E+00 0.27267821E+03</pdfrwt>
<totfact> 0.62664703E+02</totfact>
</mgrwt>
</event>
<event>
 9    1  0.7984035E-001  0.2799744E+03  0.7818608E-02  0.1095703E+00
         -2   -1    0    0    0  501 -0.00000000000E+00  0.00000000000E+00  0.24881104536E+03  0.24881104536E+03  0.00000000000E+00 0. -1.
          2   -1    0    0  501    0  0.00000000000E+00 -0.00000000000E+00 -0.78760248395E+02  0.78760248395E+02  0.00000000000E+00 0. -1.
         35    2    1    2    0    0 -0.35527136788E-14  0.00000000000E+00  0.17005079696E+03  0.32757129375E+03  0.27997442552E+03 0.  0.
         25    2    3    3    0    0 -0.26083110405E+02  0.55224213631E+02  0.66213480456E+02  0.15372390497E+03  0.12456633391E+03 0.  0.
         25    2    3    3    0    0  0.26083110405E+02 -0.55224213631E+02  0.10383731651E+03  0.17384738879E+03  0.12534226689E+03 0.  0.
          5    1    4    4  502    0 -0.54631587772E+02  0.23552577902E+00 -0.96346750361E+01  0.55673897097E+02  0.47000000000E+01 0. -1.
         -5    1    4    4    0  502  0.28548477367E+02  0.54988687852E+02  0.75848155492E+02  0.98050007870E+02  0.47000000000E+01 0. -1.
          5    1    5    5  503    0  0.20090511065E+02 -0.10910612876E+02  0.12283691999E+03  0.12503467127E+03  0.47000000000E+01 0.  1.
         -5    1    5    5    0  503  0.59925993398E+01 -0.44313600755E+02 -0.18999603480E+02  0.48812717514E+02  0.47000000000E+01 0.  1.
<mgrwt>
<rscale>  0 0.27997443E+03</rscale>
<asrwt>0</asrwt>
<pdfrwt beam="1">  1        2 0.12116961E-01 0.27997443E+03</pdfrwt>
<pdfrwt beam="2">  1       -2 0.38278622E-01 0.27997443E+03</pdfrwt>
<totfact> 0.32610563E+03</totfact>
</mgrwt>
</event>
<event>
 9    1  0.7984035E-001  0.2720331E+03  0.7818608E-02  0.1100122E+00
          2   -1    0    0  501    0  0.00000000000E+00  0.00000000000E+00  0.77021347305E+03  0.77021347305E+03  0.00000000000E+00 0. -1.
         -2   -1    0    0    0  501 -0.00000000000E+00 -0.00000000000E+00 -0.24019968484E+02  0.24019968484E+02  0.00000000000E+00 0. -1.
         35    2    1    2    0    0 -0.35527136788E-14  0.35527136788E-14  0.74619350457E+03  0.79423344154E+03  0.27203311084E+03 0.  0.
         25    2    3    3    0    0 -0.30716829925E+02  0.22256733487E+02  0.46379883760E+03  0.48226139295E+03  0.12660096185E+03 0.  0.
         25    2    3    3    0    0  0.30716829925E+02 -0.22256733487E+02  0.28239466697E+03  0.31197204859E+03  0.12704694149E+03 0.  0.
          5    1    4    4  502    0  0.23540401739E+02  0.24803943758E+02  0.32110995115E+02  0.47144375563E+02  0.47000000000E+01 0.  1.
         -5    1    4    4    0  502 -0.54257231664E+02 -0.25472102703E+01  0.43168784249E+03  0.43511701739E+03  0.47000000000E+01 0.  1.
          5    1    5    5  503    0  0.48578246960E+02 -0.57887109239E+02  0.24739291001E+03  0.25872012952E+03  0.47000000000E+01 0. -1.
         -5    1    5    5    0  503 -0.17861417035E+02  0.35630375752E+02  0.35001756956E+02  0.53251919070E+02  0.47000000000E+01 0. -1.
<mgrwt>
<rscale>  0 0.27203311E+03</rscale>
<asrwt>0</asrwt>
<pdfrwt beam="1">  1        2 0.11849436E+00 0.27203311E+03</pdfrwt>
<pdfrwt beam="2">  1       -2 0.36953804E-02 0.27203311E+03</pdfrwt>
<totfact> 0.11485541E+04</totfact>
</mgrwt>
</event>
<event>
 9    1  0.7984035E-001  0.2739175E+03  0.7818608E-02  0.1099058E+00
         -2   -1    0    0    0  501 -0.00000000000E+00  0.00000000000E+00  0.18928477208E+02  0.18928477208E+02  0.00000000000E+00 0.  1.
          2   -1    0    0  501    0  0.00000000000E+00 -0.00000000000E+00 -0.99097782716E+03  0.99097782716E+03  0.00000000000E+00 0.  1.
         35    2    1    2    0    0 -0.44408920985E-14 -0.17763568394E-14 -0.97204934996E+03  0.10099063044E+04  0.27391751470E+03 0.  0.
         25    2    3    3    0    0 -0.63674271954E+01 -0.15961758587E+01 -0.68581775718E+03  0.69721091917E+03  0.12535540611E+03 0.  0.
         25    2    3    3    0    0  0.63674271954E+01  0.15961758587E+01 -0.28623159278E+03  0.31269538521E+03  0.12572504650E+03 0.  0.
          5    1    4    4  502    0  0.32398304814E+02 -0.14817603813E+02 -0.60874296109E+03  0.60980266826E+03  0.47000000000E+01 0.  1.
         -5    1    4    4    0  502 -0.38765732010E+02  0.13221427955E+02 -0.77074796087E+02  0.87408250911E+02  0.47000000000E+01 0.  1.
          5    1    5    5  503    0 -0.13222951039E+01 -0.44540405566E+02 -0.34334441216E+02  0.56449446817E+02  0.47000000000E+01 0.  1.
         -5    1    5    5    0  503  0.76897222993E+01  0.46136581425E+02 -0.25189715156E+03  0.25624593839E+03  0.47000000000E+01 0.  1.
<mgrwt>
<rscale>  0 0.27391751E+03</rscale>
<asrwt>0</asrwt>
<pdfrwt beam="1">  1        2 0.15245813E+00 0.27391751E+03</pdfrwt>
<pdfrwt beam="2">  1       -2 0.29120733E-02 0.27391751E+03</pdfrwt>
<totfact> 0.11745068E+04</totfact>
</mgrwt>
</event>
<event>
 9    1  0.7984035E-001  0.2756681E+03  0.7818608E-02  0.1098079E+00
          1   -1    0    0  501    0  0.00000000000E+00  0.00000000000E+00  0.40964780079E+03  0.40964780079E+03  0.00000000000E+00 0.  1.
         -1   -1    0    0    0  501 -0.00000000000E+00 -0.00000000000E+00 -0.46376975733E+02  0.46376975733E+02  0.00000000000E+00 0.  1.
         35    2    1    2    0    0  0.00000000000E+00 -0.71054273576E-14  0.36327082506E+03  0.45602477653E+03  0.27566810564E+03 0.  0.
         25    2    3    3    0    0  0.72264602608E+01  0.47236707125E+02  0.12662784178E+03  0.18407677994E+03  0.12476426720E+03 0.  0.
         25    2    3    3    0    0 -0.72264602608E+01 -0.47236707125E+02  0.23664298328E+03  0.27194799659E+03  0.12518898948E+03 0.  0.
          5    1    4    4  502    0  0.24317386105E+02  0.77770971667E+02  0.12428964719E+03  0.14869319319E+03  0.47000000000E+01 0. -1.
         -5    1    4    4    0  502 -0.17090925844E+02 -0.30534264542E+02  0.23381945881E+01  0.35383586749E+02  0.47000000000E+01 0. -1.
          5    1    5    5  503    0  0.10687447010E+02  0.37841993472E+02  0.12016631847E+03  0.12652380048E+03  0.47000000000E+01 0.  1.
         -5    1    5    5    0  503 -0.17913907271E+02 -0.85078700597E+02  0.11647666481E+03  0.14542419611E+03  0.47000000000E+01 0.  1.
<mgrwt>
<rscale>  0 0.27566811E+03</rscale>
<asrwt>0</asrwt>
<pdfrwt beam="1">  1        1 0.63022736E-01 0.27566811E+03</pdfrwt>
<pdfrwt beam="2">  1       -1 0.71349196E-02 0.27566811E+03</pdfrwt>
<totfact> 0.59947869E+03</totfact>
</mgrwt>
</event>
<event>
 9    1  0.7984035E-001  0.2748971E+03  0.7818608E-02  0.1098509E+00
          1   -1    0    0  501    0  0.00000000000E+00  0.00000000000E+00  0.24889027058E+02  0.24889027058E+02  0.00000000000E+00 0. -1.
         -1   -1    0    0    0  501 -0.00000000000E+00 -0.00000000000E+00 -0.75905374203E+03  0.75905374203E+03  0.00000000000E+00 0. -1.
         35    2    1    2    0    0  0.35527136788E-14  0.71054273576E-14 -0.73416471497E+03  0.78394276909E+03  0.27489713803E+03 0.  0.
         25    2    3    3    0    0  0.14930225120E+02  0.44559738361E+02 -0.40058491771E+03  0.42177997398E+03  0.12337580093E+03 0.  0.
         25    2    3    3    0    0 -0.14930225120E+02 -0.44559738361E+02 -0.33357979726E+03  0.36216279510E+03  0.13295836607E+03 0.  0.
          5    1    4    4  502    0 -0.16667905571E+02  0.59978999864E+02 -0.92113604430E+02  0.11127580879E+03  0.47000000000E+01 0.  1.
         -5    1    4    4    0  502  0.31598130691E+02 -0.15419261502E+02 -0.30847131328E+03  0.31050416519E+03  0.47000000000E+01 0.  1.
          5    1    5    5  503    0  0.23722585709E+01  0.18419222594E+02 -0.27070680063E+03  0.27138378227E+03  0.47000000000E+01 0. -1.
         -5    1    5    5    0  503 -0.17302483691E+02 -0.62978960955E+02 -0.62872996631E+02  0.90779012829E+02  0.47000000000E+01 0. -1.
<mgrwt>
<rscale>  0 0.27489714E+03</rscale>
<asrwt>0</asrwt>
<pdfrwt beam="1">  1        1 0.38290818E-02 0.27489714E+03</pdfrwt>
<pdfrwt beam="2">  1       -1 0.11677748E+00 0.27489714E+03</pdfrwt>
<totfact> 0.17045364E+03</totfact>
</mgrwt>
</event>
<event>
 9    1  0.7984035E-001  0.2752509E+03  0.7818608E-02  0.1098311E+00
         -2   -1    0    0    0  501 -0.00000000000E+00  0.00000000000E+00  0.13502982707E+02  0.13502982707E+02  0.00000000000E+00 0. -1.
          2   -1    0    0  501    0  0.00000000000E+00 -0.00000000000E+00 -0.14027093974E+04  0.14027093974E+04  0.00000000000E+00 0. -1.
         35    2    1    2    0    0  0.71054273576E-14  0.00000000000E+00 -0.13892064146E+04  0.14162123801E+04  0.27525087274E+03 0.  0.
         25    2    3    3    0    0  0.46658213433E+02  0.17978169286E+02 -0.84703831933E+03  0.85757664500E+03  0.12435266054E+03 0.  0.
         25    2    3    3    0    0 -0.46658213433E+02 -0.17978169286E+02 -0.54216809532E+03  0.55863573507E+03  0.12500974945E+03 0.  0.
          5    1    4    4  502    0  0.18700671713E+02  0.50020190246E+02 -0.15116098792E+03  0.16038537596E+03  0.47000000000E+01 0.  1.
         -5    1    4    4    0  502  0.27957541720E+02 -0.32042020960E+02 -0.69587733141E+03  0.69719126903E+03  0.47000000000E+01 0.  1.
          5    1    5    5  503    0 -0.68016328796E+02 -0.28266709780E+02 -0.52190188987E+03  0.52709477375E+03  0.47000000000E+01 0.  1.
         -5    1    5    5    0  503  0.21358115363E+02  0.10288540494E+02 -0.20266205451E+02  0.31540961316E+02  0.47000000000E+01 0.  1.
<mgrwt>
<rscale>  0 0.27525087E+03</rscale>
<asrwt>0</asrwt>
<pdfrwt beam="1">  1        2 0.21580152E+00 0.27525087E+03</pdfrwt>
<pdfrwt beam="2">  1       -2 0.20773812E-02 0.27525087E+03</pdfrwt>
<totfact> 0.11255136E+04</totfact>
</mgrwt>
</event>
<event>
 9    1  0.7984035E-001  0.2767368E+03  0.7818608E-02  0.1097485E+00
          1   -1    0    0  501    0  0.00000000000E+00  0.00000000000E+00  0.81678338612E+03  0.81678338612E+03  0.00000000000E+00 0. -1.
         -1   -1    0    0    0  501 -0.00000000000E+00 -0.00000000000E+00 -0.23440496494E+02  0.23440496494E+02  0.00000000000E+00 0. -1.
         35    2    1    2    0    0 -0.71054273576E-14 -0.35527136788E-14  0.79334288963E+03  0.84022388262E+03  0.27673675650E+03 0.  0.
         25    2    3    3    0    0 -0.48344130886E+02  0.25140773524E+02  0.45956006962E+03  0.47964335551E+03  0.12606774928E+03 0.  0.
         25    2    3    3    0    0  0.48344130886E+02 -0.25140773524E+02  0.33378282001E+03  0.36058052711E+03  0.12505251742E+03 0.  0.
          5    1    4    4  502    0  0.32438993492E+02 -0.17381526972E+02  0.22244859308E+03  0.22552133456E+03  0.47000000000E+01 0.  1.
         -5    1    4    4    0  502 -0.80783124378E+02  0.42522300496E+02  0.23711147654E+03  0.25412202094E+03  0.47000000000E+01 0.  1.
          5    1    5    5  503    0  0.15317482679E+02  0.40960805248E+02  0.46900932459E+02  0.64297747299E+02  0.47000000000E+01 0.  1.
         -5    1    5    5    0  503  0.33026648207E+02 -0.66101578772E+02  0.28688188755E+03  0.29628277981E+03  0.47000000000E+01 0.  1.
<mgrwt>
<rscale>  0 0.27673676E+03</rscale>
<asrwt>0</asrwt>
<pdfrwt beam="1">  1        1 0.12565896E+00 0.27673676E+03</pdfrwt>
<pdfrwt beam="2">  1       -1 0.36062309E-02 0.27673676E+03</pdfrwt>
<totfact> 0.63927070E+03</totfact>
</mgrwt>
</event>
<event>
 9    1  0.7984035E-001  0.2728599E+03  0.7818608E-02  0.1099654E+00
         -1   -1    0    0    0  501 -0.00000000000E+00  0.00000000000E+00  0.16203551458E+03  0.16203551458E+03  0.00000000000E+00 0. -1.
          1   -1    0    0  501    0  0.00000000000E+00 -0.00000000000E+00 -0.11487072024E+03  0.11487072024E+03  0.00000000000E+00 0. -1.
         35    2    1    2    0    0  0.00000000000E+00  0.00000000000E+00  0.47164794340E+02  0.27690623483E+03  0.27285993671E+03 0.  0.
         25    2    3    3    0    0  0.36470233672E+02  0.16536102082E+02  0.67877348253E+02  0.14858218263E+03  0.12595955689E+03 0.  0.
         25    2    3    3    0    0 -0.36470233672E+02 -0.16536102082E+02 -0.20712553912E+02  0.12832405220E+03  0.12014379662E+03 0.  0.
          5    1    4    4  502    0  0.41995928002E+02  0.22757012968E+01 -0.28412269966E+02  0.50972383402E+02  0.47000000000E+01 0. -1.
         -5    1    4    4    0  502 -0.55256943291E+01  0.14260400785E+02  0.96289618219E+02  0.97609799226E+02  0.47000000000E+01 0. -1.
          5    1    5    5  503    0  0.32944302455E+02  0.34367432872E+01 -0.41223502388E+02  0.53090539815E+02  0.47000000000E+01 0.  1.
         -5    1    5    5    0  503 -0.69414536128E+02 -0.19972845369E+02  0.20510948476E+02  0.75233512382E+02  0.47000000000E+01 0.  1.
<mgrwt>
<rscale>  0 0.27285994E+03</rscale>
<asrwt>0</asrwt>
<pdfrwt beam="1">  1        1 0.17672418E-01 0.27285994E+03</pdfrwt>
<pdfrwt beam="2">  1       -1 0.24928541E-01 0.27285994E+03</pdfrwt>
<totfact> 0.41731403E+03</totfact>
</mgrwt>
</event>
<event>
 9    1  0.7984035E-001  0.2785293E+03  0.7818608E-02  0.1096495E+00
         -2   -1    0    0    0  501 -0.00000000000E+00  0.00000000000E+00  0.17084124002E+02  0.17084124002E+02  0.00000000000E+00 0. -1.
          2   -1    0    0  501    0  0.00000000000E+00 -0.00000000000E+00 -0.11352435302E+04  0.11352435302E+04  0.00000000000E+00 0. -1.
         35    2    1    2    0    0  0.00000000000E+00 -0.35527136788E-14 -0.11181594062E+04  0.11523276542E+04  0.27852928926E+03 0.  0.
         25    2    3    3    0    0  0.97466159172E+01  0.23703418968E+02 -0.33060851261E+03  0.35411801588E+03  0.12426074187E+03 0.  0.
         25    2    3    3    0    0 -0.97466159172E+01 -0.23703418968E+02 -0.78755089361E+03  0.79820963834E+03  0.12745731884E+03 0.  0.
          5    1    4    4  502    0 -0.11142017112E+02  0.43278510828E+02 -0.32013717965E+03  0.32327554476E+03  0.47000000000E+01 0. -1.
         -5    1    4    4    0  502  0.20888633029E+02 -0.19575091860E+02 -0.10471332963E+02  0.30842471126E+02  0.47000000000E+01 0. -1.
          5    1    5    5  503    0 -0.41559777221E+01 -0.29458435355E+02 -0.78830523383E+03  0.78888041125E+03  0.47000000000E+01 0. -1.
         -5    1    5    5    0  503 -0.55906381951E+01  0.57550163869E+01  0.75434022029E+00  0.93292270961E+01  0.47000000000E+01 0. -1.
<mgrwt>
<rscale>  0 0.27852929E+03</rscale>
<asrwt>0</asrwt>
<pdfrwt beam="1">  1        2 0.17465286E+00 0.27852929E+03</pdfrwt>
<pdfrwt beam="2">  1       -2 0.26283266E-02 0.27852929E+03</pdfrwt>
<totfact> 0.11222858E+04</totfact>
</mgrwt>
</event>
<event>
 9    1  0.7984035E-001  0.2893117E+03  0.7818608E-02  0.1090709E+00
          1   -1    0    0  501    0  0.00000000000E+00  0.00000000000E+00  0.11901843340E+03  0.11901843340E+03  0.00000000000E+00 0.  1.
         -1   -1    0    0    0  501 -0.00000000000E+00 -0.00000000000E+00 -0.17581576006E+03  0.17581576006E+03  0.00000000000E+00 0.  1.
         35    2    1    2    0    0  0.00000000000E+00 -0.14210854715E-13 -0.56797326656E+02  0.29483419346E+03  0.28931170961E+03 0.  0.
         25    2    3    3    0    0 -0.31380171894E+02  0.54483943836E+02  0.11151599055E+02  0.14016039197E+03  0.12476923496E+03 0.  0.
         25    2    3    3    0    0  0.31380171894E+02 -0.54483943836E+02 -0.67948925711E+02  0.15467380149E+03  0.12391010063E+03 0.  0.
          5    1    4    4  502    0 -0.14229823021E+02  0.43781835310E+02 -0.54389390264E+02  0.71411712902E+02  0.47000000000E+01 0.  1.
         -5    1    4    4    0  502 -0.17150348873E+02  0.10702108527E+02  0.65540989319E+02  0.68748679073E+02  0.47000000000E+01 0.  1.
          5    1    5    5  503    0  0.21574226003E+02 -0.77847575716E+02 -0.89805198593E+02  0.12088323278E+03  0.47000000000E+01 0. -1.
         -5    1    5    5    0  503  0.98059458911E+01  0.23363631880E+02  0.21856272882E+02  0.33790568710E+02  0.47000000000E+01 0. -1.
<mgrwt>
<rscale>  0 0.28931171E+03</rscale>
<asrwt>0</asrwt>
<pdfrwt beam="1">  1        1 0.18310528E-01 0.28931171E+03</pdfrwt>
<pdfrwt beam="2">  1       -1 0.27048579E-01 0.28931171E+03</pdfrwt>
<totfact> 0.34826137E+03</totfact>
</mgrwt>
</event>
<event>
 9    1  0.7984035E-001  0.2939501E+03  0.7818608E-02  0.1088305E+00
         -2   -1    0    0    0  501 -0.00000000000E+00  0.00000000000E+00  0.19769095267E+03  0.19769095267E+03  0.00000000000E+00 0. -1.
          2   -1    0    0  501    0  0.00000000000E+00 -0.00000000000E+00 -0.10926983881E+03  0.10926983881E+03  0.00000000000E+00 0. -1.
         35    2    1    2    0    0 -0.14210854715E-13  0.71054273576E-14  0.88421113857E+02  0.30696079148E+03  0.29395005380E+03 0.  0.
         25    2    3    3    0    0 -0.64587935311E+02  0.40875905056E+02  0.37849678559E+02  0.15150134453E+03  0.12521029600E+03 0.  0.
         25    2    3    3    0    0  0.64587935311E+02 -0.40875905056E+02  0.50571435298E+02  0.15545944696E+03  0.12556961646E+03 0.  0.
          5    1    4    4  502    0 -0.98745085758E+01  0.78283661024E+02  0.10871513963E+02  0.79787952215E+02  0.47000000000E+01 0. -1.
         -5    1    4    4    0  502 -0.54713426735E+02 -0.37407755968E+02  0.26978164596E+02  0.71713392310E+02  0.47000000000E+01 0. -1.
          5    1    5    5  503    0  0.68149277047E+02 -0.67513821924E+02 -0.21813040710E+01  0.96069184446E+02  0.47000000000E+01 0. -1.
         -5    1    5    5    0  503 -0.35613417356E+01  0.26637916868E+02  0.52752739369E+02  0.59390262510E+02  0.47000000000E+01 0. -1.
<mgrwt>
<rscale>  0 0.29395005E+03</rscale>
<asrwt>0</asrwt>
<pdfrwt beam="1">  1        2 0.16810744E-01 0.29395005E+03</pdfrwt>
<pdfrwt beam="2">  1       -2 0.30413993E-01 0.29395005E+03</pdfrwt>
<totfact> 0.33864002E+03</totfact>
</mgrwt>
</event>
<event>
 9    1  0.7984035E-001  0.2707594E+03  0.7818608E-02  0.1100846E+00
          2   -1    0    0  501    0  0.00000000000E+00  0.00000000000E+00  0.37736312300E+02  0.37736312300E+02  0.00000000000E+00 0. -1.
         -2   -1    0    0    0  501 -0.00000000000E+00 -0.00000000000E+00 -0.48567701288E+03  0.48567701288E+03  0.00000000000E+00 0. -1.
         35    2    1    2    0    0 -0.35527136788E-14  0.00000000000E+00 -0.44794070058E+03  0.52341332518E+03  0.27075937240E+03 0.  0.
         25    2    3    3    0    0 -0.11587781039E+02  0.29611364967E+02 -0.29235799271E+03  0.31949493648E+03  0.12487076893E+03 0.  0.
         25    2    3    3    0    0  0.11587781039E+02 -0.29611364967E+02 -0.15558270787E+03  0.20391838870E+03  0.12792818554E+03 0.  0.
          5    1    4    4  502    0  0.44210886204E+02 -0.23868060898E+02 -0.13487121430E+03  0.14400215706E+03  0.47000000000E+01 0. -1.
         -5    1    4    4    0  502 -0.55798667243E+02  0.53479425865E+02 -0.15748677841E+03  0.17549277942E+03  0.47000000000E+01 0. -1.
          5    1    5    5  503    0  0.27467060761E+02 -0.10996915962E+02  0.13607714076E+02  0.32903365631E+02  0.47000000000E+01 0.  1.
         -5    1    5    5    0  503 -0.15879279722E+02 -0.18614449005E+02 -0.16919042195E+03  0.17101502307E+03  0.47000000000E+01 0.  1.
<mgrwt>
<rscale>  0 0.27075937E+03</rscale>
<asrwt>0</asrwt>
<pdfrwt beam="1">  1        2 0.58055866E-02 0.27075937E+03</pdfrwt>
<pdfrwt beam="2">  1       -2 0.74719540E-01 0.27075937E+03</pdfrwt>
<totfact> 0.21297681E+03</totfact>
</mgrwt>
</event>
<event>
 9    1  0.7984035E-001  0.2710734E+03  0.7818608E-02  0.1100667E+00
          1   -1    0    0  501    0  0.00000000000E+00  0.00000000000E+00  0.13768707118E+04  0.13768707118E+04  0.00000000000E+00 0.  1.
         -1   -1    0    0    0  501 -0.00000000000E+00 -0.00000000000E+00 -0.13341994125E+02  0.13341994125E+02  0.00000000000E+00 0.  1.
         35    2    1    2    0    0  0.17763568394E-14  0.00000000000E+00  0.13635287176E+04  0.13902127059E+04  0.27107342878E+03 0.  0.
         25    2    3    3    0    0 -0.12922398772E+02 -0.35836626246E+02  0.86873461635E+03  0.87853776857E+03  0.12520992372E+03 0.  0.
         25    2    3    3    0    0  0.12922398772E+02  0.35836626246E+02  0.49479410129E+03  0.51167493731E+03  0.12465466953E+03 0.  0.
          5    1    4    4  502    0  0.25270231046E+01 -0.53462240844E+02  0.14873904261E+03  0.15814547049E+03  0.47000000000E+01 0.  1.
         -5    1    4    4    0  502 -0.15449421876E+02  0.17625614598E+02  0.71999557374E+03  0.72039229808E+03  0.47000000000E+01 0.  1.
          5    1    5    5  503    0  0.15674675881E+02  0.58153118337E+02  0.48121053830E+03  0.48498778625E+03  0.47000000000E+01 0. -1.
         -5    1    5    5    0  503 -0.27522771092E+01 -0.22316492091E+02  0.13583562982E+02  0.26687151062E+02  0.47000000000E+01 0. -1.
<mgrwt>
<rscale>  0 0.27107343E+03</rscale>
<asrwt>0</asrwt>
<pdfrwt beam="1">  1        1 0.21182615E+00 0.27107343E+03</pdfrwt>
<pdfrwt beam="2">  1       -1 0.20526156E-02 0.27107343E+03</pdfrwt>
<totfact> 0.57089421E+03</totfact>
</mgrwt>
</event>
<event>
 9    1  0.7984035E-001  0.2788871E+03  0.7818608E-02  0.1096298E+00
         -1   -1    0    0    0  501 -0.00000000000E+00  0.00000000000E+00  0.48726590913E+02  0.48726590913E+02  0.00000000000E+00 0.  1.
          1   -1    0    0  501    0  0.00000000000E+00 -0.00000000000E+00 -0.39905313070E+03  0.39905313070E+03  0.00000000000E+00 0.  1.
         35    2    1    2    0    0  0.00000000000E+00  0.00000000000E+00 -0.35032653979E+03  0.44777972161E+03  0.27888706426E+03 0.  0.
         25    2    3    3    0    0 -0.19834598701E+02  0.53272366779E+02 -0.21514455780E+03  0.25506480450E+03  0.12465760055E+03 0.  0.
         25    2    3    3    0    0  0.19834598701E+02 -0.53272366779E+02 -0.13518198198E+03  0.19271491711E+03  0.12503405399E+03 0.  0.
          5    1    4    4  502    0 -0.70139507324E+02  0.12519551792E+02 -0.12543720616E+03  0.14433597041E+03  0.47000000000E+01 0.  1.
         -5    1    4    4    0  502  0.50304908623E+02  0.40752814986E+02 -0.89707351648E+02  0.11072883410E+03  0.47000000000E+01 0.  1.
          5    1    5    5  503    0  0.50044543578E+02  0.22003831979E+02 -0.42091869319E+02  0.69155190886E+02  0.47000000000E+01 0. -1.
         -5    1    5    5    0  503 -0.30209944877E+02 -0.75276198758E+02 -0.93090112665E+02  0.12355972623E+03  0.47000000000E+01 0. -1.
<mgrwt>
<rscale>  0 0.27888706E+03</rscale>
<asrwt>0</asrwt>
<pdfrwt beam="1">  1        1 0.61392786E-01 0.27888706E+03</pdfrwt>
<pdfrwt beam="2">  1       -1 0.74963990E-02 0.27888706E+03</pdfrwt>
<totfact> 0.57530362E+03</totfact>
</mgrwt>
</event>
<event>
 9    1  0.7984035E-001  0.2726647E+03  0.7818608E-02  0.1099764E+00
         -2   -1    0    0    0  501 -0.00000000000E+00  0.00000000000E+00  0.10269032317E+02  0.10269032317E+02  0.00000000000E+00 0.  1.
          2   -1    0    0  501    0  0.00000000000E+00 -0.00000000000E+00 -0.18099567613E+04  0.18099567613E+04  0.00000000000E+00 0.  1.
         35    2    1    2    0    0  0.00000000000E+00  0.35527136788E-14 -0.17996877290E+04  0.18202257937E+04  0.27266466200E+03 0.  0.
         25    2    3    3    0    0  0.33967919770E+02  0.17589173936E+02 -0.11884705885E+04  0.11951627367E+04  0.12036788980E+03 0.  0.
         25    2    3    3    0    0 -0.33967919770E+02 -0.17589173936E+02 -0.61121714055E+03  0.62506305696E+03  0.12511688004E+03 0.  0.
          5    1    4    4  502    0  0.34045219921E+02  0.42867753299E+02 -0.23469214352E+03  0.24103778438E+03  0.47000000000E+01 0. -1.
         -5    1    4    4    0  502 -0.77300151714E-01 -0.25278579363E+02 -0.95377844497E+03  0.95412495232E+03  0.47000000000E+01 0. -1.
          5    1    5    5  503    0  0.11972136669E+02 -0.63280358597E+02 -0.34858629590E+03  0.35451689879E+03  0.47000000000E+01 0.  1.
         -5    1    5    5    0  503 -0.45940056439E+02  0.45691184661E+02 -0.26263084465E+03  0.27054615817E+03  0.47000000000E+01 0.  1.
<mgrwt>
<rscale>  0 0.27266466E+03</rscale>
<asrwt>0</asrwt>
<pdfrwt beam="1">  1        2 0.27845496E+00 0.27266466E+03</pdfrwt>
<pdfrwt beam="2">  1       -2 0.15798507E-02 0.27266466E+03</pdfrwt>
<totfact> 0.10222800E+04</totfact>
</mgrwt>
</event>
<event>
 9    1  0.7984035E-001  0.2742683E+03  0.7818608E-02  0.1098861E+00
          2   -1    0    0  501    0  0.00000000000E+00  0.00000000000E+00  0.80622680161E+03  0.80622680161E+03  0.00000000000E+00 0. -1.
         -2   -1    0    0    0  501 -0.00000000000E+00 -0.00000000000E+00 -0.23325666836E+02  0.23325666836E+02  0.00000000000E+00 0. -1.
         35    2    1    2    0    0  0.35527136788E-14  0.71054273576E-14  0.78290113477E+03  0.82955246845E+03  0.27426831949E+03 0.  0.
         25    2    3    3    0    0 -0.21516395324E+02 -0.29142554576E+02  0.53669236059E+03  0.55107419470E+03  0.11971563969E+03 0.  0.
         25    2    3    3    0    0  0.21516395324E+02  0.29142554576E+02  0.24620877418E+03  0.27847827375E+03  0.12497657665E+03 0.  0.
          5    1    4    4  502    0 -0.18628853929E+02  0.39159483310E+02  0.34001413230E+03  0.34280052436E+03  0.47000000000E+01 0. -1.
         -5    1    4    4    0  502 -0.28875413948E+01 -0.68302037886E+02  0.19667822829E+03  0.20827367034E+03  0.47000000000E+01 0. -1.
          5    1    5    5  503    0  0.25117617961E+02 -0.13025169168E+01  0.24613634782E+03  0.24746269011E+03  0.47000000000E+01 0.  1.
         -5    1    5    5    0  503 -0.36012226372E+01  0.30445071493E+02  0.72426366467E-01  0.31015583636E+02  0.47000000000E+01 0.  1.
<mgrwt>
<rscale>  0 0.27426832E+03</rscale>
<asrwt>0</asrwt>
<pdfrwt beam="1">  1        2 0.12403487E+00 0.27426832E+03</pdfrwt>
<pdfrwt beam="2">  1       -2 0.35885647E-02 0.27426832E+03</pdfrwt>
<totfact> 0.11330654E+04</totfact>
</mgrwt>
</event>
<event>
 9    1  0.7984035E-001  0.2727487E+03  0.7818608E-02  0.1099717E+00
          1   -1    0    0  501    0  0.00000000000E+00  0.00000000000E+00  0.79931583663E+03  0.79931583663E+03  0.00000000000E+00 0. -1.
         -1   -1    0    0    0  501 -0.00000000000E+00 -0.00000000000E+00 -0.23267352766E+02  0.23267352766E+02  0.00000000000E+00 0. -1.
         35    2    1    2    0    0 -0.35527136788E-14  0.71054273576E-14  0.77604848386E+03  0.82258318939E+03  0.27274870150E+03 0.  0.
         25    2    3    3    0    0  0.24116453019E+02  0.25360332477E+02  0.26253866107E+03  0.29297438193E+03  0.12523054793E+03 0.  0.
         25    2    3    3    0    0 -0.24116453019E+02 -0.25360332477E+02  0.51350982279E+03  0.52960880747E+03  0.12477339893E+03 0.  0.
          5    1    4    4  502    0  0.31177847606E+02 -0.33805545760E+02  0.35740640038E+02  0.58432494862E+02  0.47000000000E+01 0.  1.
         -5    1    4    4    0  502 -0.70613945870E+01  0.59165878237E+02  0.22679802104E+03  0.23454188706E+03  0.47000000000E+01 0.  1.
          5    1    5    5  503    0 -0.14130751169E+02 -0.76013582162E+02  0.32469838935E+03  0.33380964164E+03  0.47000000000E+01 0.  1.
         -5    1    5    5    0  503 -0.99857018495E+01  0.50653249685E+02  0.18881143343E+03  0.19579916583E+03  0.47000000000E+01 0.  1.
<mgrwt>
<rscale>  0 0.27274870E+03</rscale>
<asrwt>0</asrwt>
<pdfrwt beam="1">  1        1 0.12297165E+00 0.27274870E+03</pdfrwt>
<pdfrwt beam="2">  1       -1 0.35795934E-02 0.27274870E+03</pdfrwt>
<totfact> 0.66806918E+03</totfact>
</mgrwt>
</event>
<event>
 9    1  0.7984035E-001  0.2769234E+03  0.7818608E-02  0.1097381E+00
          2   -1    0    0  501    0  0.00000000000E+00  0.00000000000E+00  0.93776526682E+03  0.93776526682E+03  0.00000000000E+00 0.  1.
         -2   -1    0    0    0  501 -0.00000000000E+00 -0.00000000000E+00 -0.20443974237E+02  0.20443974237E+02  0.00000000000E+00 0.  1.
         35    2    1    2    0    0  0.71054273576E-14  0.00000000000E+00  0.91732129258E+03  0.95820924105E+03  0.27692344758E+03 0.  0.
         25    2    3    3    0    0 -0.31753432717E+02 -0.14809669929E+01  0.64311966399E+03  0.65589977951E+03  0.12486450574E+03 0.  0.
         25    2    3    3    0    0  0.31753432717E+02  0.14809669929E+01  0.27420162859E+03  0.30230946155E+03  0.12326395932E+03 0.  0.
          5    1    4    4  502    0 -0.44040034504E+02 -0.31974106969E+02  0.12139394656E+03  0.13311817463E+03  0.47000000000E+01 0. -1.
         -5    1    4    4    0  502  0.12286601787E+02  0.30493139976E+02  0.52172571743E+03  0.52278160487E+03  0.47000000000E+01 0. -1.
          5    1    5    5  503    0 -0.44225834298E+02 -0.17783319841E+02  0.12150721751E+03  0.13060729226E+03  0.47000000000E+01 0. -1.
         -5    1    5    5    0  503  0.75979267015E+02  0.19264286834E+02  0.15269441108E+03  0.17170216929E+03  0.47000000000E+01 0. -1.
<mgrwt>
<rscale>  0 0.27692345E+03</rscale>
<asrwt>0</asrwt>
<pdfrwt beam="1">  1        2 0.14427155E+00 0.27692345E+03</pdfrwt>
<pdfrwt beam="2">  1       -2 0.31452275E-02 0.27692345E+03</pdfrwt>
<totfact> 0.11308015E+04</totfact>
</mgrwt>
</event>
<event>
 9    1  0.7984035E-001  0.2711120E+03  0.7818608E-02  0.1100645E+00
          1   -1    0    0  501    0  0.00000000000E+00  0.00000000000E+00  0.20277708966E+04  0.20277708966E+04  0.00000000000E+00 0.  1.
         -1   -1    0    0    0  501 -0.00000000000E+00 -0.00000000000E+00 -0.90618841873E+01  0.90618841873E+01  0.00000000000E+00 0.  1.
         35    2    1    2    0    0 -0.53290705182E-14  0.71054273576E-14  0.20187090124E+04  0.20368327808E+04  0.27111196966E+03 0.  0.
         25    2    3    3    0    0  0.57774619395E+00 -0.33954693304E+02  0.71514721983E+03  0.72703410099E+03  0.12645071367E+03 0.  0.
         25    2    3    3    0    0 -0.57774619395E+00  0.33954693304E+02  0.13035617926E+04  0.13097986798E+04  0.12306900309E+03 0.  0.
          5    1    4    4  502    0 -0.32376123447E+02  0.30284522553E+02  0.13001697954E+03  0.13744770149E+03  0.47000000000E+01 0.  1.
         -5    1    4    4    0  502  0.32953869641E+02 -0.64239215857E+02  0.58513024029E+03  0.58958639950E+03  0.47000000000E+01 0.  1.
          5    1    5    5  503    0  0.10665435617E+02 -0.14807809313E+02  0.31233509188E+02  0.36478004739E+02  0.47000000000E+01 0. -1.
         -5    1    5    5    0  503 -0.11243181811E+02  0.48762502617E+02  0.12723282834E+04  0.12733206750E+04  0.47000000000E+01 0. -1.
<mgrwt>
<rscale>  0 0.27111197E+03</rscale>
<asrwt>0</asrwt>
<pdfrwt beam="1">  1        1 0.31196439E+00 0.27111197E+03</pdfrwt>
<pdfrwt beam="2">  1       -1 0.13941376E-02 0.27111197E+03</pdfrwt>
<totfact> 0.37579128E+03</totfact>
</mgrwt>
</event>
<event>
 9    1  0.7984035E-001  0.2699768E+03  0.7818608E-02  0.1101293E+00
          2   -1    0    0  501    0  0.00000000000E+00  0.00000000000E+00  0.57772619461E+03  0.57772619461E+03  0.00000000000E+00 0.  1.
         -2   -1    0    0    0  501 -0.00000000000E+00 -0.00000000000E+00 -0.31540657398E+02  0.31540657398E+02  0.00000000000E+00 0.  1.
         35    2    1    2    0    0  0.00000000000E+00  0.00000000000E+00  0.54618553721E+03  0.60926685201E+03  0.26997676918E+03 0.  0.
         25    2    3    3    0    0  0.41481053494E+02  0.24358568744E+02  0.29762204203E+03  0.32656305816E+03  0.12550112899E+03 0.  0.
         25    2    3    3    0    0 -0.41481053494E+02 -0.24358568744E+02  0.24856349518E+03  0.28270379385E+03  0.12579191648E+03 0.  0.
          5    1    4    4  502    0  0.14380593967E+02 -0.18278450388E+02  0.26539733886E+03  0.26645588885E+03  0.47000000000E+01 0. -1.
         -5    1    4    4    0  502  0.27100459527E+02  0.42637019133E+02  0.32224703177E+02  0.60107169305E+02  0.47000000000E+01 0. -1.
          5    1    5    5  503    0 -0.14936049491E+02 -0.73056379793E+02  0.17637655593E+03  0.19154920957E+03  0.47000000000E+01 0.  1.
         -5    1    5    5    0  503 -0.26545004002E+02  0.48697811049E+02  0.72186939248E+02  0.91154584286E+02  0.47000000000E+01 0.  1.
<mgrwt>
<rscale>  0 0.26997677E+03</rscale>
<asrwt>0</asrwt>
<pdfrwt beam="1">  1        2 0.88880945E-01 0.26997677E+03</pdfrwt>
<pdfrwt beam="2">  1       -2 0.48524092E-02 0.26997677E+03</pdfrwt>
<totfact> 0.10745091E+04</totfact>
</mgrwt>
</event>
<event>
 9    1  0.7984035E-001  0.2710825E+03  0.7818608E-02  0.1100662E+00
          3   -1    0    0  501    0  0.00000000000E+00  0.00000000000E+00  0.41898772893E+02  0.41898772893E+02  0.00000000000E+00 0. -1.
         -3   -1    0    0    0  501 -0.00000000000E+00 -0.00000000000E+00 -0.43847190054E+03  0.43847190054E+03  0.00000000000E+00 0. -1.
         35    2    1    2    0    0  0.00000000000E+00  0.35527136788E-14 -0.39657312765E+03  0.48037067343E+03  0.27108253047E+03 0.  0.
         25    2    3    3    0    0 -0.41109364579E+02 -0.16602906832E+02 -0.25001651235E+03  0.28237323313E+03  0.12353440804E+03 0.  0.
         25    2    3    3    0    0  0.41109364579E+02  0.16602906832E+02 -0.14655661530E+03  0.19799744031E+03  0.12553289811E+03 0.  0.
          5    1    4    4  502    0  0.16007576837E+02 -0.56145266560E+02 -0.84569822106E+02  0.10287214533E+03  0.47000000000E+01 0.  1.
         -5    1    4    4    0  502 -0.57116941417E+02  0.39542359728E+02 -0.16544669024E+03  0.17950108780E+03  0.47000000000E+01 0.  1.
          5    1    5    5  503    0  0.66361938384E+02  0.37938337120E+02 -0.40143929409E+02  0.86468776780E+02  0.47000000000E+01 0.  1.
         -5    1    5    5    0  503 -0.25252573804E+02 -0.21335430288E+02 -0.10641268589E+03  0.11152866353E+03  0.47000000000E+01 0.  1.
<mgrwt>
<rscale>  0 0.27108253E+03</rscale>
<asrwt>0</asrwt>
<pdfrwt beam="1">  1        3 0.64459654E-02 0.27108253E+03</pdfrwt>
<pdfrwt beam="2">  1       -3 0.67457212E-01 0.27108253E+03</pdfrwt>
<totfact> 0.82821353E+02</totfact>
</mgrwt>
</event>
<event>
 9    1  0.7984035E-001  0.2749677E+03  0.7818608E-02  0.1098470E+00
         -2   -1    0    0    0  501 -0.00000000000E+00  0.00000000000E+00  0.16815826835E+02  0.16815826835E+02  0.00000000000E+00 0. -1.
          2   -1    0    0  501    0  0.00000000000E+00 -0.00000000000E+00 -0.11240483853E+04  0.11240483853E+04  0.00000000000E+00 0. -1.
         35    2    1    2    0    0 -0.71054273576E-14  0.00000000000E+00 -0.11072325585E+04  0.11408642121E+04  0.27496765629E+03 0.  0.
         25    2    3    3    0    0  0.19958949769E+02 -0.47769886881E+02 -0.48376587226E+03  0.50232311639E+03  0.12497508686E+03 0.  0.
         25    2    3    3    0    0 -0.19958949769E+02  0.47769886881E+02 -0.62346668621E+03  0.63854109575E+03  0.12784248265E+03 0.  0.
          5    1    4    4  502    0  0.44316935631E+02 -0.59819546866E+02 -0.15104122244E+03  0.16845744225E+03  0.47000000000E+01 0.  1.
         -5    1    4    4    0  502 -0.24357985861E+02  0.12049659985E+02 -0.33272464981E+03  0.33386567415E+03  0.47000000000E+01 0.  1.
          5    1    5    5  503    0 -0.52292926212E+02  0.10204378659E+01 -0.49749568598E+03  0.50025957161E+03  0.47000000000E+01 0.  1.
         -5    1    5    5    0  503  0.32333976442E+02  0.46749449015E+02 -0.12597100024E+03  0.13828152413E+03  0.47000000000E+01 0.  1.
<mgrwt>
<rscale>  0 0.27496766E+03</rscale>
<asrwt>0</asrwt>
<pdfrwt beam="1">  1        2 0.17293053E+00 0.27496766E+03</pdfrwt>
<pdfrwt beam="2">  1       -2 0.25870502E-02 0.27496766E+03</pdfrwt>
<totfact> 0.11658397E+04</totfact>
</mgrwt>
</event>
<event>
 9    1  0.7984035E-001  0.2742189E+03  0.7818608E-02  0.1098889E+00
          2   -1    0    0  501    0  0.00000000000E+00  0.00000000000E+00  0.28637542325E+04  0.28637542325E+04  0.00000000000E+00 0. -1.
         -2   -1    0    0    0  501 -0.00000000000E+00 -0.00000000000E+00 -0.65644613795E+01  0.65644613795E+01  0.00000000000E+00 0. -1.
         35    2    1    2    0    0  0.00000000000E+00 -0.14210854715E-13  0.28571897712E+04  0.28703186939E+04  0.27421892028E+03 0.  0.
         25    2    3    3    0    0 -0.11501989326E+02 -0.52793557112E+02  0.11734071217E+04  0.11810017662E+04  0.12231697730E+03 0.  0.
         25    2    3    3    0    0  0.11501989326E+02  0.52793557112E+02  0.16837826494E+04  0.16893169277E+04  0.12549189787E+03 0.  0.
          5    1    4    4  502    0 -0.27858723270E+02  0.30251958757E+02  0.59222401872E+03  0.59366881998E+03  0.47000000000E+01 0. -1.
         -5    1    4    4    0  502  0.16356733943E+02 -0.83045515870E+02  0.58118310302E+03  0.58733294620E+03  0.47000000000E+01 0. -1.
          5    1    5    5  503    0  0.59984986618E+02  0.60485192782E+02  0.11993961774E+04  0.12024266869E+04  0.47000000000E+01 0. -1.
         -5    1    5    5    0  503 -0.48482997292E+02 -0.76916356694E+01  0.48438647207E+03  0.48689024082E+03  0.47000000000E+01 0. -1.
<mgrwt>
<rscale>  0 0.27421892E+03</rscale>
<asrwt>0</asrwt>
<pdfrwt beam="1">  1        2 0.44057658E+00 0.27421892E+03</pdfrwt>
<pdfrwt beam="2">  1       -2 0.10099194E-02 0.27421892E+03</pdfrwt>
<totfact> 0.52625681E+03</totfact>
</mgrwt>
</event>
<event>
 9    1  0.7984035E-001  0.2721610E+03  0.7818608E-02  0.1100049E+00
         -2   -1    0    0    0  501 -0.00000000000E+00  0.00000000000E+00  0.36762743836E+02  0.36762743836E+02  0.00000000000E+00 0. -1.
          2   -1    0    0  501    0  0.00000000000E+00 -0.00000000000E+00 -0.50371379613E+03  0.50371379613E+03  0.00000000000E+00 0. -1.
         35    2    1    2    0    0  0.35527136788E-14  0.35527136788E-14 -0.46695105229E+03  0.54047653996E+03  0.27216099099E+03 0.  0.
         25    2    3    3    0    0  0.22477137666E+02  0.28121942054E+02 -0.15635579766E+03  0.20376191371E+03  0.12560141987E+03 0.  0.
         25    2    3    3    0    0 -0.22477137666E+02 -0.28121942054E+02 -0.31059525463E+03  0.33671462626E+03  0.12494503589E+03 0.  0.
          5    1    4    4  502    0 -0.16476617765E+02  0.30818564205E+02  0.68189526742E+01  0.35914494960E+02  0.47000000000E+01 0.  1.
         -5    1    4    4    0  502  0.38953755430E+02 -0.26966221510E+01 -0.16317475033E+03  0.16784741875E+03  0.47000000000E+01 0.  1.
          5    1    5    5  503    0  0.48034050703E+01 -0.11621981463E+02 -0.30339676931E+03  0.30369364955E+03  0.47000000000E+01 0. -1.
         -5    1    5    5    0  503 -0.27280542736E+02 -0.16499960591E+02 -0.71984853243E+01  0.33020976704E+02  0.47000000000E+01 0. -1.
<mgrwt>
<rscale>  0 0.27216099E+03</rscale>
<asrwt>0</asrwt>
<pdfrwt beam="1">  1        2 0.77494431E-01 0.27216099E+03</pdfrwt>
<pdfrwt beam="2">  1       -2 0.56558067E-02 0.27216099E+03</pdfrwt>
<totfact> 0.99439903E+03</totfact>
</mgrwt>
</event>
<event>
 9    1  0.7984035E-001  0.2750971E+03  0.7818608E-02  0.1098397E+00
          2   -1    0    0  501    0  0.00000000000E+00  0.00000000000E+00  0.25860661442E+03  0.25860661442E+03  0.00000000000E+00 0. -1.
         -2   -1    0    0    0  501 -0.00000000000E+00 -0.00000000000E+00 -0.73159797542E+02  0.73159797542E+02  0.00000000000E+00 0. -1.
         35    2    1    2    0    0  0.00000000000E+00  0.00000000000E+00  0.18544681688E+03  0.33176641196E+03  0.27509712869E+03 0.  0.
         25    2    3    3    0    0  0.23067096481E+02  0.43183791779E+02  0.51347136712E+02  0.14185312057E+03  0.12283667430E+03 0.  0.
         25    2    3    3    0    0 -0.23067096481E+02 -0.43183791779E+02  0.13409968017E+03  0.18991329140E+03  0.12524936413E+03 0.  0.
          5    1    4    4  502    0 -0.45289425727E+00  0.20603503137E+02 -0.39729282402E+02  0.45002392546E+02  0.47000000000E+01 0. -1.
         -5    1    4    4    0  502  0.23519990738E+02  0.22580288642E+02  0.91076419114E+02  0.96850728021E+02  0.47000000000E+01 0. -1.
          5    1    5    5  503    0 -0.15652303091E+02  0.41249939005E+02  0.72612592158E+02  0.85095420558E+02  0.47000000000E+01 0.  1.
         -5    1    5    5    0  503 -0.74147933902E+01 -0.84433730784E+02  0.61487088008E+02  0.10481787084E+03  0.47000000000E+01 0.  1.
<mgrwt>
<rscale>  0 0.27509713E+03</rscale>
<asrwt>0</asrwt>
<pdfrwt beam="1">  1        2 0.39785633E-01 0.27509713E+03</pdfrwt>
<pdfrwt beam="2">  1       -2 0.11255354E-01 0.27509713E+03</pdfrwt>
<totfact> 0.69970807E+03</totfact>
</mgrwt>
</event>
<event>
 9    1  0.7984035E-001  0.2765754E+03  0.7818608E-02  0.1097574E+00
          2   -1    0    0  501    0  0.00000000000E+00  0.00000000000E+00  0.13221642718E+03  0.13221642718E+03  0.00000000000E+00 0.  1.
         -2   -1    0    0    0  501 -0.00000000000E+00 -0.00000000000E+00 -0.14463774955E+03  0.14463774955E+03  0.00000000000E+00 0.  1.
         35    2    1    2    0    0 -0.71054273576E-14  0.00000000000E+00 -0.12421322371E+02  0.27685417673E+03  0.27657538922E+03 0.  0.
         25    2    3    3    0    0 -0.94720709149E+01 -0.31732782118E+02 -0.56181865780E+02  0.14079938183E+03  0.12478531280E+03 0.  0.
         25    2    3    3    0    0  0.94720709149E+01  0.31732782118E+02  0.43760543408E+02  0.13605479490E+03  0.12449591346E+03 0.  0.
          5    1    4    4  502    0  0.54631687400E+02 -0.26106092611E+02 -0.44352571045E+02  0.75202326413E+02  0.47000000000E+01 0.  1.
         -5    1    4    4    0  502 -0.64103758315E+02 -0.56266895063E+01 -0.11829294735E+02  0.65597055413E+02  0.47000000000E+01 0.  1.
          5    1    5    5  503    0  0.26721380229E+02  0.59112262105E+02  0.68943635505E+02  0.94781889458E+02  0.47000000000E+01 0. -1.
         -5    1    5    5    0  503 -0.17249309314E+02 -0.27379479988E+02 -0.25183092097E+02  0.41272905444E+02  0.47000000000E+01 0. -1.
<mgrwt>
<rscale>  0 0.27657539E+03</rscale>
<asrwt>0</asrwt>
<pdfrwt beam="1">  1        2 0.20340989E-01 0.27657539E+03</pdfrwt>
<pdfrwt beam="2">  1       -2 0.22251961E-01 0.27657539E+03</pdfrwt>
<totfact> 0.47247167E+03</totfact>
</mgrwt>
</event>
<event>
 9    1  0.7984035E-001  0.2757963E+03  0.7818608E-02  0.1098007E+00
         -2   -1    0    0    0  501 -0.00000000000E+00  0.00000000000E+00  0.96040423240E+02  0.96040423240E+02  0.00000000000E+00 0. -1.
          2   -1    0    0  501    0  0.00000000000E+00 -0.00000000000E+00 -0.19799895902E+03  0.19799895902E+03  0.00000000000E+00 0. -1.
         35    2    1    2    0    0 -0.35527136788E-14  0.00000000000E+00 -0.10195853578E+03  0.29403938226E+03  0.27579632938E+03 0.  0.
         25    2    3    3    0    0  0.12772848302E+02 -0.30782492824E+02 -0.98075085566E+02  0.16295997779E+03  0.12580351519E+03 0.  0.
         25    2    3    3    0    0 -0.12772848302E+02  0.30782492824E+02 -0.38834502157E+01  0.13107940447E+03  0.12671235761E+03 0.  0.
          5    1    4    4  502    0 -0.18867651862E+02 -0.72482200337E+02 -0.41559427808E+02  0.85784227526E+02  0.47000000000E+01 0. -1.
         -5    1    4    4    0  502  0.31640500164E+02  0.41699707514E+02 -0.56515657758E+02  0.77175750266E+02  0.47000000000E+01 0. -1.
          5    1    5    5  503    0 -0.14502399458E+02 -0.45501364184E+02 -0.21569723449E+02  0.52612134554E+02  0.47000000000E+01 0.  1.
         -5    1    5    5    0  503  0.17295511558E+01  0.76283857007E+02  0.17686273233E+02  0.78467269916E+02  0.47000000000E+01 0.  1.
<mgrwt>
<rscale>  0 0.27579633E+03</rscale>
<asrwt>0</asrwt>
<pdfrwt beam="1">  1        2 0.30461378E-01 0.27579633E+03</pdfrwt>
<pdfrwt beam="2">  1       -2 0.14775450E-01 0.27579633E+03</pdfrwt>
<totfact> 0.60083063E+03</totfact>
</mgrwt>
</event>
<event>
 9    1  0.7984035E-001  0.2759472E+03  0.7818608E-02  0.1097923E+00
          2   -1    0    0  501    0  0.00000000000E+00  0.00000000000E+00  0.19740560640E+04  0.19740560640E+04  0.00000000000E+00 0. -1.
         -2   -1    0    0    0  501 -0.00000000000E+00 -0.00000000000E+00 -0.96434514475E+01  0.96434514475E+01  0.00000000000E+00 0. -1.
         35    2    1    2    0    0  0.71054273576E-14  0.00000000000E+00  0.19644126126E+04  0.19836995155E+04  0.27594719646E+03 0.  0.
         25    2    3    3    0    0  0.18460031677E+02  0.13455734219E+02  0.58967859174E+03  0.60311214838E+03  0.12450539110E+03 0.  0.
         25    2    3    3    0    0 -0.18460031677E+02 -0.13455734219E+02  0.13747340209E+04  0.13805873671E+04  0.12492405923E+03 0.  0.
          5    1    4    4  502    0  0.50372889286E+02  0.62419578211E+01  0.54580792061E+03  0.54818315025E+03  0.47000000000E+01 0. -1.
         -5    1    4    4    0  502 -0.31912857609E+02  0.72137763984E+01  0.43870671131E+02  0.54928998136E+02  0.47000000000E+01 0. -1.
          5    1    5    5  503    0  0.43056919506E+02  0.13898939528E+02  0.27093140070E+03  0.27472348411E+03  0.47000000000E+01 0.  1.
         -5    1    5    5    0  503 -0.61516951184E+02 -0.27354673747E+02  0.11038026202E+04  0.11058638830E+04  0.47000000000E+01 0.  1.
<mgrwt>
<rscale>  0 0.27594720E+03</rscale>
<asrwt>0</asrwt>
<pdfrwt beam="1">  1        2 0.30370061E+00 0.27594720E+03</pdfrwt>
<pdfrwt beam="2">  1       -2 0.14836095E-02 0.27594720E+03</pdfrwt>
<totfact> 0.91923092E+03</totfact>
</mgrwt>
</event>
<event>
 9    1  0.7984035E-001  0.2535689E+03  0.7818608E-02  0.1111070E+00
          1   -1    0    0  501    0  0.00000000000E+00  0.00000000000E+00  0.23705759746E+03  0.23705759746E+03  0.00000000000E+00 0. -1.
         -1   -1    0    0    0  501 -0.00000000000E+00 -0.00000000000E+00 -0.67807571123E+02  0.67807571123E+02  0.00000000000E+00 0. -1.
         35    2    1    2    0    0  0.00000000000E+00 -0.35527136788E-14  0.16925002633E+03  0.30486516858E+03  0.25356892475E+03 0.  0.
         25    2    3    3    0    0 -0.78631217309E+01  0.58206403280E+01  0.59672616477E+02  0.13857634541E+03  0.12468710364E+03 0.  0.
         25    2    3    3    0    0  0.78631217309E+01 -0.58206403280E+01  0.10957740986E+03  0.16628882317E+03  0.12469585166E+03 0.  0.
          5    1    4    4  502    0  0.14410728689E+02  0.60422317070E+02  0.47104450481E+02  0.78098942096E+02  0.47000000000E+01 0. -1.
         -5    1    4    4    0  502 -0.22273850420E+02 -0.54601676741E+02  0.12568165997E+02  0.60477403318E+02  0.47000000000E+01 0. -1.
          5    1    5    5  503    0  0.55862386947E+02  0.17007242659E+01  0.12250875974E+02  0.57407949803E+02  0.47000000000E+01 0.  1.
         -5    1    5    5    0  503 -0.47999265216E+02 -0.75213645940E+01  0.97326533882E+02  0.10888087336E+03  0.47000000000E+01 0.  1.
<mgrwt>
<rscale>  0 0.25356892E+03</rscale>
<asrwt>0</asrwt>
<pdfrwt beam="1">  1        1 0.36470399E-01 0.25356892E+03</pdfrwt>
<pdfrwt beam="2">  1       -1 0.10431934E-01 0.25356892E+03</pdfrwt>
<totfact> 0.66606125E+03</totfact>
</mgrwt>
</event>
<event>
 9    1  0.7984035E-001  0.2764380E+03  0.7818608E-02  0.1097650E+00
         -2   -1    0    0    0  501 -0.00000000000E+00  0.00000000000E+00  0.51162390317E+02  0.51162390317E+02  0.00000000000E+00 0. -1.
          2   -1    0    0  501    0  0.00000000000E+00 -0.00000000000E+00 -0.37340893150E+03  0.37340893150E+03  0.00000000000E+00 0. -1.
         35    2    1    2    0    0 -0.71054273576E-14 -0.35527136788E-14 -0.32224654118E+03  0.42457132182E+03  0.27643801114E+03 0.  0.
         25    2    3    3    0    0  0.14876622838E+02 -0.31887186608E+02 -0.96442016047E+02  0.16352304862E+03  0.12728164987E+03 0.  0.
         25    2    3    3    0    0 -0.14876622838E+02  0.31887186608E+02 -0.22580452514E+03  0.26104827320E+03  0.12617611022E+03 0.  0.
          5    1    4    4  502    0 -0.54465953443E+02 -0.30327274917E+02 -0.47071095342E+02  0.78256384436E+02  0.47000000000E+01 0. -1.
         -5    1    4    4    0  502  0.69342576280E+02 -0.15599116915E+01 -0.49370920704E+02  0.85266664183E+02  0.47000000000E+01 0. -1.
          5    1    5    5  503    0 -0.46406317663E+02  0.25029145914E+02 -0.26692461222E+02  0.59283909708E+02  0.47000000000E+01 0. -1.
         -5    1    5    5    0  503  0.31529694825E+02  0.68580406942E+01 -0.19911206392E+03  0.20176436349E+03  0.47000000000E+01 0. -1.
<mgrwt>
<rscale>  0 0.27643801E+03</rscale>
<asrwt>0</asrwt>
<pdfrwt beam="1">  1        2 0.57447531E-01 0.27643801E+03</pdfrwt>
<pdfrwt beam="2">  1       -2 0.78711365E-02 0.27643801E+03</pdfrwt>
<totfact> 0.82956201E+03</totfact>
</mgrwt>
</event>
<event>
 9    1  0.7984035E-001  0.3031665E+03  0.7818608E-02  0.1083668E+00
         -2   -1    0    0    0  501 -0.00000000000E+00  0.00000000000E+00  0.50828393271E+02  0.50828393271E+02  0.00000000000E+00 0. -1.
          2   -1    0    0  501    0  0.00000000000E+00 -0.00000000000E+00 -0.45206005295E+03  0.45206005295E+03  0.00000000000E+00 0. -1.
         35    2    1    2    0    0  0.71054273576E-14 -0.71054273576E-14 -0.40123165968E+03  0.50288844623E+03  0.30316652951E+03 0.  0.
         25    2    3    3    0    0 -0.59547047729E+02 -0.35831504126E+02 -0.28421194165E+03  0.31817522127E+03  0.12501718311E+03 0.  0.
         25    2    3    3    0    0  0.59547047729E+02  0.35831504126E+02 -0.11701971803E+03  0.18471322496E+03  0.12488239861E+03 0.  0.
          5    1    4    4  502    0 -0.87753773825E+02  0.10527531724E+02 -0.17150021187E+03  0.19299214081E+03  0.47000000000E+01 0.  1.
         -5    1    4    4    0  502  0.28206726096E+02 -0.46359035850E+02 -0.11271172978E+03  0.12518308046E+03  0.47000000000E+01 0.  1.
          5    1    5    5  503    0 -0.27704931916E+01 -0.11245411037E+02  0.21934145843E+02  0.25245428414E+02  0.47000000000E+01 0. -1.
         -5    1    5    5    0  503  0.62317540921E+02  0.47076915163E+02 -0.13895386388E+03  0.15946779654E+03  0.47000000000E+01 0. -1.
<mgrwt>
<rscale>  0 0.30316653E+03</rscale>
<asrwt>0</asrwt>
<pdfrwt beam="1">  1        2 0.69547703E-01 0.30316653E+03</pdfrwt>
<pdfrwt beam="2">  1       -2 0.78197525E-02 0.30316653E+03</pdfrwt>
<totfact> 0.68225924E+03</totfact>
</mgrwt>
</event>
<event>
 9    1  0.7984035E-001  0.2751247E+03  0.7818608E-02  0.1098382E+00
         -1   -1    0    0    0  501 -0.00000000000E+00  0.00000000000E+00  0.37792695035E+02  0.37792695035E+02  0.00000000000E+00 0. -1.
          1   -1    0    0  501    0  0.00000000000E+00 -0.00000000000E+00 -0.50071574177E+03  0.50071574177E+03  0.00000000000E+00 0. -1.
         35    2    1    2    0    0  0.00000000000E+00  0.00000000000E+00 -0.46292304674E+03  0.53850843681E+03  0.27512467958E+03 0.  0.
         25    2    3    3    0    0  0.50921658461E+02  0.22663928532E+02 -0.20476688195E+03  0.24623505503E+03  0.12488217416E+03 0.  0.
         25    2    3    3    0    0 -0.50921658461E+02 -0.22663928532E+02 -0.25815616478E+03  0.29227338178E+03  0.12518967739E+03 0.  0.
          5    1    4    4  502    0 -0.31870341012E+02  0.27005485131E+02 -0.26812749269E+02  0.49860088114E+02  0.47000000000E+01 0. -1.
         -5    1    4    4    0  502  0.82791999473E+02 -0.43415565995E+01 -0.17795413269E+03  0.19637496691E+03  0.47000000000E+01 0. -1.
          5    1    5    5  503    0 -0.42328268605E+02  0.33773953990E+02 -0.42098167287E+02  0.68751058030E+02  0.47000000000E+01 0.  1.
         -5    1    5    5    0  503 -0.85933898560E+01 -0.56437882522E+02 -0.21605799750E+03  0.22352232375E+03  0.47000000000E+01 0.  1.
<mgrwt>
<rscale>  0 0.27512468E+03</rscale>
<asrwt>0</asrwt>
<pdfrwt beam="1">  1        1 0.77033195E-01 0.27512468E+03</pdfrwt>
<pdfrwt beam="2">  1       -1 0.58142605E-02 0.27512468E+03</pdfrwt>
<totfact> 0.62860505E+03</totfact>
</mgrwt>
</event>
<event>
 9    1  0.7984035E-001  0.2785831E+03  0.7818608E-02  0.1096465E+00
         -2   -1    0    0    0  501 -0.00000000000E+00  0.00000000000E+00  0.39340329954E+02  0.39340329954E+02  0.00000000000E+00 0.  1.
          2   -1    0    0  501    0  0.00000000000E+00 -0.00000000000E+00 -0.49318697111E+03  0.49318697111E+03  0.00000000000E+00 0.  1.
         35    2    1    2    0    0  0.00000000000E+00 -0.35527136788E-14 -0.45384664116E+03  0.53252730107E+03  0.27858311631E+03 0.  0.
         25    2    3    3    0    0 -0.51759047719E+02 -0.24790457519E+02 -0.27469475409E+03  0.30721811339E+03  0.12502877855E+03 0.  0.
         25    2    3    3    0    0  0.51759047719E+02  0.24790457519E+02 -0.17915188707E+03  0.22530918768E+03  0.12399703870E+03 0.  0.
          5    1    4    4  502    0 -0.65118682490E+02  0.36089450286E+02 -0.13678741839E+03  0.15580686461E+03  0.47000000000E+01 0. -1.
         -5    1    4    4    0  502  0.13359634771E+02 -0.60879907806E+02 -0.13790733570E+03  0.15141124878E+03  0.47000000000E+01 0. -1.
          5    1    5    5  503    0  0.87642238907E+02  0.88797369460E+01 -0.82078852361E+02  0.12049497821E+03  0.47000000000E+01 0. -1.
         -5    1    5    5    0  503 -0.35883191188E+02  0.15910720573E+02 -0.97073034705E+02  0.10481420947E+03  0.47000000000E+01 0. -1.
<mgrwt>
<rscale>  0 0.27858312E+03</rscale>
<asrwt>0</asrwt>
<pdfrwt beam="1">  1        2 0.75874917E-01 0.27858312E+03</pdfrwt>
<pdfrwt beam="2">  1       -2 0.60523586E-02 0.27858312E+03</pdfrwt>
<totfact> 0.91858468E+03</totfact>
</mgrwt>
</event>
<event>
 9    1  0.7984035E-001  0.2787974E+03  0.7818608E-02  0.1096348E+00
         -2   -1    0    0    0  501 -0.00000000000E+00  0.00000000000E+00  0.11095585290E+02  0.11095585290E+02  0.00000000000E+00 0. -1.
          2   -1    0    0  501    0  0.00000000000E+00 -0.00000000000E+00 -0.17513265120E+04  0.17513265120E+04  0.00000000000E+00 0. -1.
         35    2    1    2    0    0  0.00000000000E+00 -0.71054273576E-14 -0.17402309267E+04  0.17624220973E+04  0.27879736501E+03 0.  0.
         25    2    3    3    0    0 -0.33585619236E+02 -0.50494955477E+02 -0.87550171837E+03  0.88647092413E+03  0.12509878538E+03 0.  0.
         25    2    3    3    0    0  0.33585619236E+02  0.50494955477E+02 -0.86472920835E+03  0.87595117318E+03  0.12592108506E+03 0.  0.
          5    1    4    4  502    0 -0.73039047587E+02 -0.21884978527E+02 -0.32773438332E+03  0.33651979253E+03  0.47000000000E+01 0. -1.
         -5    1    4    4    0  502  0.39453428351E+02 -0.28609976950E+02 -0.54776733505E+03  0.54995113159E+03  0.47000000000E+01 0. -1.
          5    1    5    5  503    0  0.35248350260E+02  0.57307083493E+02 -0.19805224564E+03  0.20922076861E+03  0.47000000000E+01 0. -1.
         -5    1    5    5    0  503 -0.16627310238E+01 -0.68121280159E+01 -0.66667696272E+03  0.66673040457E+03  0.47000000000E+01 0. -1.
<mgrwt>
<rscale>  0 0.27879737E+03</rscale>
<asrwt>0</asrwt>
<pdfrwt beam="1">  1        2 0.26943487E+00 0.27879737E+03</pdfrwt>
<pdfrwt beam="2">  1       -2 0.17070130E-02 0.27879737E+03</pdfrwt>
<totfact> 0.98003577E+03</totfact>
</mgrwt>
</event>
<event>
 9    1  0.7984035E-001  0.2627373E+03  0.7818608E-02  0.1105510E+00
         -2   -1    0    0    0  501 -0.00000000000E+00  0.00000000000E+00  0.38264095406E+02  0.38264095406E+02  0.00000000000E+00 0. -1.
          2   -1    0    0  501    0  0.00000000000E+00 -0.00000000000E+00 -0.45101600065E+03  0.45101600065E+03  0.00000000000E+00 0. -1.
         35    2    1    2    0    0  0.00000000000E+00 -0.35527136788E-14 -0.41275190524E+03  0.48928009605E+03  0.26273727774E+03 0.  0.
         25    2    3    3    0    0 -0.24374435561E+02  0.13491035915E+02 -0.16087065178E+03  0.20650236811E+03  0.12644263628E+03 0.  0.
         25    2    3    3    0    0  0.24374435561E+02 -0.13491035915E+02 -0.25188125346E+03  0.28277772795E+03  0.12547093854E+03 0.  0.
          5    1    4    4  502    0 -0.62439561865E+02  0.44666706112E+02 -0.11916426847E+03  0.14183097828E+03  0.47000000000E+01 0.  1.
         -5    1    4    4    0  502  0.38065126304E+02 -0.31175670197E+02 -0.41706383309E+02  0.64671389822E+02  0.47000000000E+01 0.  1.
          5    1    5    5  503    0 -0.36257833885E+02  0.32198292203E+02 -0.66824365108E+02  0.82697922047E+02  0.47000000000E+01 0.  1.
         -5    1    5    5    0  503  0.60632269446E+02 -0.45689328118E+02 -0.18505688835E+03  0.20007980590E+03  0.47000000000E+01 0.  1.
<mgrwt>
<rscale>  0 0.26273728E+03</rscale>
<asrwt>0</asrwt>
<pdfrwt beam="1">  1        2 0.69387077E-01 0.26273728E+03</pdfrwt>
<pdfrwt beam="2">  1       -2 0.58867839E-02 0.26273728E+03</pdfrwt>
<totfact> 0.10558092E+04</totfact>
</mgrwt>
</event>
<event>
 9    1  0.7984035E-001  0.2709603E+03  0.7818608E-02  0.1100731E+00
         -2   -1    0    0    0  501 -0.00000000000E+00  0.00000000000E+00  0.13598213775E+02  0.13598213775E+02  0.00000000000E+00 0. -1.
          2   -1    0    0  501    0  0.00000000000E+00 -0.00000000000E+00 -0.13498001059E+04  0.13498001059E+04  0.00000000000E+00 0. -1.
         35    2    1    2    0    0  0.00000000000E+00  0.17763568394E-14 -0.13362018922E+04  0.13633983197E+04  0.27096029521E+03 0.  0.
         25    2    3    3    0    0 -0.45528124315E+02 -0.70133519711E+01 -0.55576002616E+03  0.57157545421E+03  0.12532875156E+03 0.  0.
         25    2    3    3    0    0  0.45528124315E+02  0.70133519711E+01 -0.78044186600E+03  0.79182286550E+03  0.12558641215E+03 0.  0.
          5    1    4    4  502    0  0.84786415299E+01  0.15659096257E+02 -0.45166537784E+03  0.45204070414E+03  0.47000000000E+01 0.  1.
         -5    1    4    4    0  502 -0.54006765845E+02 -0.22672448228E+02 -0.10409464832E+03  0.11953475007E+03  0.47000000000E+01 0.  1.
          5    1    5    5  503    0 -0.74538564567E+01 -0.42873437250E+02 -0.12713235383E+03  0.13445600392E+03  0.47000000000E+01 0.  1.
         -5    1    5    5    0  503  0.52981980772E+02  0.49886789221E+02 -0.65330951216E+03  0.65736686158E+03  0.47000000000E+01 0.  1.
<mgrwt>
<rscale>  0 0.27096030E+03</rscale>
<asrwt>0</asrwt>
<pdfrwt beam="1">  1        2 0.20766145E+00 0.27096030E+03</pdfrwt>
<pdfrwt beam="2">  1       -2 0.20920340E-02 0.27096030E+03</pdfrwt>
<totfact> 0.11899727E+04</totfact>
</mgrwt>
</event>
<event>
 9    1  0.7984035E-001  0.2750861E+03  0.7818608E-02  0.1098403E+00
         -1   -1    0    0    0  501 -0.00000000000E+00  0.00000000000E+00  0.81692066729E+02  0.81692066729E+02  0.00000000000E+00 0. -1.
          1   -1    0    0  501    0  0.00000000000E+00 -0.00000000000E+00 -0.23157802231E+03  0.23157802231E+03  0.00000000000E+00 0. -1.
         35    2    1    2    0    0  0.16098233857E-14  0.00000000000E+00 -0.14988595558E+03  0.31327008904E+03  0.27508607563E+03 0.  0.
         25    2    3    3    0    0 -0.28981395916E+00 -0.44803360613E+02 -0.30484466264E+02  0.13582858568E+03  0.12454989719E+03 0.  0.
         25    2    3    3    0    0  0.28981395916E+00  0.44803360613E+02 -0.11940148932E+03  0.17744150336E+03  0.12337482056E+03 0.  0.
          5    1    4    4  502    0 -0.61033178466E+02 -0.35103423727E+02 -0.13545760232E+02  0.71853161735E+02  0.47000000000E+01 0. -1.
         -5    1    4    4    0  502  0.60743364507E+02 -0.96999368860E+01 -0.16938706032E+02  0.63975423947E+02  0.47000000000E+01 0. -1.
          5    1    5    5  503    0  0.61690023972E+00  0.37224410289E+02 -0.14529019638E+03  0.15005788367E+03  0.47000000000E+01 0. -1.
         -5    1    5    5    0  503 -0.32708628055E+00  0.75789503246E+01  0.25888707066E+02  0.27383619684E+02  0.47000000000E+01 0. -1.
<mgrwt>
<rscale>  0 0.27508608E+03</rscale>
<asrwt>0</asrwt>
<pdfrwt beam="1">  1        1 0.35627389E-01 0.27508608E+03</pdfrwt>
<pdfrwt beam="2">  1       -1 0.12568010E-01 0.27508608E+03</pdfrwt>
<totfact> 0.51476130E+03</totfact>
</mgrwt>
</event>
<event>
 9    1  0.7984035E-001  0.2743289E+03  0.7818608E-02  0.1098827E+00
         -1   -1    0    0    0  501 -0.00000000000E+00  0.00000000000E+00  0.24481359651E+02  0.24481359651E+02  0.00000000000E+00 0.  1.
          1   -1    0    0  501    0  0.00000000000E+00 -0.00000000000E+00 -0.76850656195E+03  0.76850656195E+03  0.00000000000E+00 0.  1.
         35    2    1    2    0    0  0.17763568394E-14  0.00000000000E+00 -0.74402520230E+03  0.79298792160E+03  0.27432889412E+03 0.  0.
         25    2    3    3    0    0 -0.57250473843E+01  0.53883410482E+02 -0.32156375111E+03  0.34905339010E+03  0.12449427705E+03 0.  0.
         25    2    3    3    0    0  0.57250473843E+01 -0.53883410482E+02 -0.42246145119E+03  0.44393453150E+03  0.12517185157E+03 0.  0.
          5    1    4    4  502    0 -0.11862963840E+02 -0.18190592205E+01 -0.27700246414E+03  0.27730217098E+03  0.47000000000E+01 0. -1.
         -5    1    4    4    0  502  0.61379164561E+01  0.55702469702E+02 -0.44561286967E+02  0.71751219122E+02  0.47000000000E+01 0. -1.
          5    1    5    5  503    0 -0.15949929173E+02 -0.77839547738E+02 -0.15265269440E+03  0.17215786517E+03  0.47000000000E+01 0. -1.
         -5    1    5    5    0  503  0.21674976557E+02  0.23956137257E+02 -0.26980875679E+03  0.27177666633E+03  0.47000000000E+01 0. -1.
<mgrwt>
<rscale>  0 0.27432889E+03</rscale>
<asrwt>0</asrwt>
<pdfrwt beam="1">  1        1 0.11823176E+00 0.27432889E+03</pdfrwt>
<pdfrwt beam="2">  1       -1 0.37663638E-02 0.27432889E+03</pdfrwt>
<totfact> 0.65792831E+03</totfact>
</mgrwt>
</event>
<event>
 9    1  0.7984035E-001  0.2787222E+03  0.7818608E-02  0.1096389E+00
         -1   -1    0    0    0  501 -0.00000000000E+00  0.00000000000E+00  0.16750527667E+04  0.16750527667E+04  0.00000000000E+00 0. -1.
          1   -1    0    0  501    0  0.00000000000E+00 -0.00000000000E+00 -0.11594571075E+02  0.11594571075E+02  0.00000000000E+00 0. -1.
         35    2    1    2    0    0 -0.71054273576E-14  0.00000000000E+00  0.16634581956E+04  0.16866473378E+04  0.27872221553E+03 0.  0.
         25    2    3    3    0    0 -0.50176313231E+02  0.28526933367E+02  0.99272396391E+03  0.10020573875E+04  0.12363935828E+03 0.  0.
         25    2    3    3    0    0  0.50176313231E+02 -0.28526933367E+02  0.67073423171E+03  0.68458995031E+03  0.12428814156E+03 0.  0.
          5    1    4    4  502    0 -0.36349860384E+02  0.12617965356E+02  0.78217731972E+02  0.87296214091E+02  0.47000000000E+01 0.  1.
         -5    1    4    4    0  502 -0.13826452847E+02  0.15908968011E+02  0.91450623194E+03  0.91476117338E+03  0.47000000000E+01 0.  1.
          5    1    5    5  503    0 -0.34279496778E+02 -0.17949036339E+02  0.96695562946E+02  0.10425628853E+03  0.47000000000E+01 0.  1.
         -5    1    5    5    0  503  0.84455810009E+02 -0.10577897028E+02  0.57403866877E+03  0.58033366178E+03  0.47000000000E+01 0.  1.
<mgrwt>
<rscale>  0 0.27872222E+03</rscale>
<asrwt>0</asrwt>
<pdfrwt beam="1">  1        1 0.17837815E-02 0.27872222E+03</pdfrwt>
<pdfrwt beam="2">  1       -1 0.25770023E+00 0.27872222E+03</pdfrwt>
<totfact> 0.50495970E+02</totfact>
</mgrwt>
</event>
<event>
 9    1  0.7984035E-001  0.2717394E+03  0.7818608E-02  0.1100288E+00
          3   -1    0    0  501    0  0.00000000000E+00  0.00000000000E+00  0.15990513456E+03  0.15990513456E+03  0.00000000000E+00 0. -1.
         -3   -1    0    0    0  501 -0.00000000000E+00 -0.00000000000E+00 -0.11544708287E+03  0.11544708287E+03  0.00000000000E+00 0. -1.
         35    2    1    2    0    0  0.00000000000E+00  0.00000000000E+00  0.44458051685E+02  0.27535221743E+03  0.27173944374E+03 0.  0.
         25    2    3    3    0    0 -0.38099334664E+02 -0.35829657394E+01  0.60886994508E+02  0.14403583996E+03  0.12479863841E+03 0.  0.
         25    2    3    3    0    0  0.38099334664E+02  0.35829657394E+01 -0.16428942823E+02  0.13131637747E+03  0.12453788132E+03 0.  0.
          5    1    4    4  502    0  0.27739914676E+02  0.41429478297E+02  0.30009013806E+02  0.58382663932E+02  0.47000000000E+01 0.  1.
         -5    1    4    4    0  502 -0.65839249340E+02 -0.45012444036E+02  0.30877980701E+02  0.85653176030E+02  0.47000000000E+01 0.  1.
          5    1    5    5  503    0  0.70999835609E+01 -0.56815091542E+02 -0.25140747176E+02  0.62709740568E+02  0.47000000000E+01 0.  1.
         -5    1    5    5    0  503  0.30999351103E+02  0.60398057282E+02  0.87118043528E+01  0.68606636904E+02  0.47000000000E+01 0.  1.
<mgrwt>
<rscale>  0 0.27173944E+03</rscale>
<asrwt>0</asrwt>
<pdfrwt beam="1">  1        3 0.24600790E-01 0.27173944E+03</pdfrwt>
<pdfrwt beam="2">  1       -3 0.17761090E-01 0.27173944E+03</pdfrwt>
<totfact> 0.10874665E+03</totfact>
</mgrwt>
</event>
<event>
 9    1  0.7984035E-001  0.2790172E+03  0.7818608E-02  0.1096227E+00
         -1   -1    0    0    0  501 -0.00000000000E+00  0.00000000000E+00  0.36763397418E+02  0.36763397418E+02  0.00000000000E+00 0. -1.
          1   -1    0    0  501    0  0.00000000000E+00 -0.00000000000E+00 -0.52940272250E+03  0.52940272250E+03  0.00000000000E+00 0. -1.
         35    2    1    2    0    0  0.14210854715E-13  0.71054273576E-14 -0.49263932508E+03  0.56616611992E+03  0.27901715131E+03 0.  0.
         25    2    3    3    0    0 -0.56821344453E+02 -0.27243971074E+02 -0.28677824704E+03  0.31731092583E+03  0.12030611594E+03 0.  0.
         25    2    3    3    0    0  0.56821344453E+02  0.27243971074E+02 -0.20586107804E+03  0.24885519409E+03  0.12481676580E+03 0.  0.
          5    1    4    4  502    0 -0.59322960724E+02  0.76177308818E+00 -0.28223784409E+03  0.28844424870E+03  0.47000000000E+01 0. -1.
         -5    1    4    4    0  502  0.25016162708E+01 -0.28005744162E+02 -0.45404029489E+01  0.28866677138E+02  0.47000000000E+01 0. -1.
          5    1    5    5  503    0  0.51127188856E+02  0.70586470191E+02 -0.92080831274E+02  0.12687556385E+03  0.47000000000E+01 0. -1.
         -5    1    5    5    0  503  0.56941555975E+01 -0.43342499117E+02 -0.11378024677E+03  0.12197963023E+03  0.47000000000E+01 0. -1.
<mgrwt>
<rscale>  0 0.27901715E+03</rscale>
<asrwt>0</asrwt>
<pdfrwt beam="1">  1        1 0.81446567E-01 0.27901715E+03</pdfrwt>
<pdfrwt beam="2">  1       -1 0.56559077E-02 0.27901715E+03</pdfrwt>
<totfact> 0.60850805E+03</totfact>
</mgrwt>
</event>
<event>
 9    1  0.7984035E-001  0.2742653E+03  0.7818608E-02  0.1098863E+00
         -1   -1    0    0    0  501 -0.00000000000E+00  0.00000000000E+00  0.24416233262E+02  0.24416233262E+02  0.00000000000E+00 0. -1.
          1   -1    0    0  501    0  0.00000000000E+00 -0.00000000000E+00 -0.77019940333E+03  0.77019940333E+03  0.00000000000E+00 0. -1.
         35    2    1    2    0    0  0.35527136788E-14  0.00000000000E+00 -0.74578317006E+03  0.79461563659E+03  0.27426533350E+03 0.  0.
         25    2    3    3    0    0 -0.20115370018E+02 -0.29371308824E+02 -0.32715811986E+03  0.35207209382E+03  0.12512003023E+03 0.  0.
         25    2    3    3    0    0  0.20115370018E+02  0.29371308824E+02 -0.41862505021E+03  0.44254354277E+03  0.13903435796E+03 0.  0.
          5    1    4    4  502    0 -0.60239145226E+02  0.22332679729E+02 -0.15701941388E+03  0.16971944361E+03  0.47000000000E+01 0. -1.
         -5    1    4    4    0  502  0.40123775208E+02 -0.51703988553E+02 -0.17013870597E+03  0.18235265021E+03  0.47000000000E+01 0. -1.
          5    1    5    5  503    0 -0.20061092587E+02 -0.38223595472E+02 -0.52941996826E+02  0.68472152840E+02  0.47000000000E+01 0.  1.
         -5    1    5    5    0  503  0.40176462605E+02  0.67594904296E+02 -0.36568305338E+03  0.37407138993E+03  0.47000000000E+01 0.  1.
<mgrwt>
<rscale>  0 0.27426533E+03</rscale>
<asrwt>0</asrwt>
<pdfrwt beam="1">  1        1 0.11849221E+00 0.27426533E+03</pdfrwt>
<pdfrwt beam="2">  1       -1 0.37563439E-02 0.27426533E+03</pdfrwt>
<totfact> 0.65833442E+03</totfact>
</mgrwt>
</event>
<event>
 9    1  0.7984035E-001  0.2748922E+03  0.7818608E-02  0.1098512E+00
          1   -1    0    0  501    0  0.00000000000E+00  0.00000000000E+00  0.14378290265E+03  0.14378290265E+03  0.00000000000E+00 0. -1.
         -1   -1    0    0    0  501 -0.00000000000E+00 -0.00000000000E+00 -0.13138853867E+03  0.13138853867E+03  0.00000000000E+00 0. -1.
         35    2    1    2    0    0  0.15543122345E-14  0.00000000000E+00  0.12394363981E+02  0.27517144132E+03  0.27489216406E+03 0.  0.
         25    2    3    3    0    0 -0.75834848521E+00 -0.88443259514E+00  0.63155116326E+02  0.14000545505E+03  0.12494639415E+03 0.  0.
         25    2    3    3    0    0  0.75834848521E+00  0.88443259514E+00 -0.50760752345E+02  0.13516598627E+03  0.12526704496E+03 0.  0.
          5    1    4    4  502    0 -0.32017626148E-01 -0.57222262018E+02  0.30622967517E+01  0.57496573437E+02  0.47000000000E+01 0.  1.
         -5    1    4    4    0  502 -0.72633085906E+00  0.56337829423E+02  0.60092819574E+02  0.82508881612E+02  0.47000000000E+01 0.  1.
          5    1    5    5  503    0 -0.19127030008E+02 -0.54256372758E+02 -0.49985337630E+02  0.76355885430E+02  0.47000000000E+01 0.  1.
         -5    1    5    5    0  503  0.19885378493E+02  0.55140805353E+02 -0.77541471457E+00  0.58810100840E+02  0.47000000000E+01 0.  1.
<mgrwt>
<rscale>  0 0.27489216E+03</rscale>
<asrwt>0</asrwt>
<pdfrwt beam="1">  1        1 0.22120447E-01 0.27489216E+03</pdfrwt>
<pdfrwt beam="2">  1       -1 0.20213621E-01 0.27489216E+03</pdfrwt>
<totfact> 0.44112416E+03</totfact>
</mgrwt>
</event>
<event>
 9    1  0.7984035E-001  0.2743670E+03  0.7818608E-02  0.1098806E+00
          2   -1    0    0  501    0  0.00000000000E+00  0.00000000000E+00  0.22236436754E+04  0.22236436754E+04  0.00000000000E+00 0.  1.
         -2   -1    0    0    0  501 -0.00000000000E+00 -0.00000000000E+00 -0.84632794375E+01  0.84632794375E+01  0.00000000000E+00 0.  1.
         35    2    1    2    0    0 -0.35527136788E-14  0.00000000000E+00  0.22151803960E+04  0.22321069549E+04  0.27436703734E+03 0.  0.
         25    2    3    3    0    0 -0.88241855361E+01 -0.37153318028E+02  0.14025167020E+04  0.14089443078E+04  0.12889037121E+03 0.  0.
         25    2    3    3    0    0  0.88241855361E+01  0.37153318028E+02  0.81266369403E+03  0.82316264711E+03  0.12536438374E+03 0.  0.
          5    1    4    4  502    0 -0.31139855296E+02 -0.36872530420E+02  0.13585420149E+04  0.13594071393E+04  0.47000000000E+01 0. -1.
         -5    1    4    4    0  502  0.22315669760E+02 -0.28078760817E+00  0.43974687088E+02  0.49537168500E+02  0.47000000000E+01 0. -1.
          5    1    5    5  503    0  0.46736684982E+02  0.44883005469E+01  0.67435281122E+03  0.67600167645E+03  0.47000000000E+01 0. -1.
         -5    1    5    5    0  503 -0.37912499446E+02  0.32665017481E+02  0.13831088281E+03  0.14716097066E+03  0.47000000000E+01 0. -1.
<mgrwt>
<rscale>  0 0.27436704E+03</rscale>
<asrwt>0</asrwt>
<pdfrwt beam="1">  1        2 0.34209856E+00 0.27436704E+03</pdfrwt>
<pdfrwt beam="2">  1       -2 0.13020448E-02 0.27436704E+03</pdfrwt>
<totfact> 0.82083142E+03</totfact>
</mgrwt>
</event>
<event>
 9    1  0.7984035E-001  0.2760413E+03  0.7818608E-02  0.1097871E+00
         -2   -1    0    0    0  501 -0.00000000000E+00  0.00000000000E+00  0.52448906090E+03  0.52448906090E+03  0.00000000000E+00 0. -1.
          2   -1    0    0  501    0  0.00000000000E+00 -0.00000000000E+00 -0.36320483340E+02  0.36320483340E+02  0.00000000000E+00 0. -1.
         35    2    1    2    0    0  0.00000000000E+00  0.71054273576E-14  0.48816857756E+03  0.56080954424E+03  0.27604127372E+03 0.  0.
         25    2    3    3    0    0  0.21657869268E+02 -0.45231505697E+02  0.31201443421E+03  0.33988571764E+03  0.12511731092E+03 0.  0.
         25    2    3    3    0    0 -0.21657869268E+02  0.45231505697E+02  0.17615414335E+03  0.22092382660E+03  0.12353988235E+03 0.  0.
          5    1    4    4  502    0 -0.69408036058E+00 -0.39709715205E+02  0.31378222824E+03  0.31632059684E+03  0.47000000000E+01 0.  1.
         -5    1    4    4    0  502  0.22351949629E+02 -0.55217904916E+01 -0.17677940276E+01  0.23565120797E+02  0.47000000000E+01 0.  1.
          5    1    5    5  503    0  0.38049190171E+00  0.51008331172E+02  0.88189510192E+01  0.51979404769E+02  0.47000000000E+01 0.  1.
         -5    1    5    5    0  503 -0.22038361170E+02 -0.57768254754E+01  0.16733519233E+03  0.16894442183E+03  0.47000000000E+01 0.  1.
<mgrwt>
<rscale>  0 0.27604127E+03</rscale>
<asrwt>0</asrwt>
<pdfrwt beam="1">  1        2 0.55877671E-02 0.27604127E+03</pdfrwt>
<pdfrwt beam="2">  1       -2 0.80690619E-01 0.27604127E+03</pdfrwt>
<totfact> 0.18929903E+03</totfact>
</mgrwt>
</event>
<event>
 9    1  0.7984035E-001  0.2758188E+03  0.7818608E-02  0.1097995E+00
          2   -1    0    0  501    0  0.00000000000E+00  0.00000000000E+00  0.16720921495E+04  0.16720921495E+04  0.00000000000E+00 0.  1.
         -2   -1    0    0    0  501 -0.00000000000E+00 -0.00000000000E+00 -0.11374375533E+02  0.11374375533E+02  0.00000000000E+00 0.  1.
         35    2    1    2    0    0  0.00000000000E+00  0.35527136788E-14  0.16607177740E+04  0.16834665251E+04  0.27581881034E+03 0.  0.
         25    2    3    3    0    0 -0.54059184259E+02  0.17048012268E+02  0.71639484014E+03  0.72929939046E+03  0.12426988301E+03 0.  0.
         25    2    3    3    0    0  0.54059184259E+02 -0.17048012268E+02  0.94432293384E+03  0.95416713459E+03  0.12440292287E+03 0.  0.
          5    1    4    4  502    0 -0.93852939880E+02  0.14432125759E+02  0.54776550553E+03  0.55595485395E+03  0.47000000000E+01 0.  1.
         -5    1    4    4    0  502  0.39793755622E+02  0.26158865090E+01  0.16862933461E+03  0.17334453652E+03  0.47000000000E+01 0.  1.
          5    1    5    5  503    0  0.80827320272E+02  0.15089604825E+02  0.78748663060E+03  0.79178155779E+03  0.47000000000E+01 0.  1.
         -5    1    5    5    0  503 -0.26768136014E+02 -0.32137617093E+02  0.15683630324E+03  0.16238557680E+03  0.47000000000E+01 0.  1.
<mgrwt>
<rscale>  0 0.27581881E+03</rscale>
<asrwt>0</asrwt>
<pdfrwt beam="1">  1        2 0.25724475E+00 0.27581881E+03</pdfrwt>
<pdfrwt beam="2">  1       -2 0.17499052E-02 0.27581881E+03</pdfrwt>
<totfact> 0.10401212E+04</totfact>
</mgrwt>
</event>
<event>
 9    1  0.7984035E-001  0.2746700E+03  0.7818608E-02  0.1098636E+00
          2   -1    0    0  501    0  0.00000000000E+00  0.00000000000E+00  0.34573136403E+04  0.34573136403E+04  0.00000000000E+00 0.  1.
         -2   -1    0    0    0  501 -0.00000000000E+00 -0.00000000000E+00 -0.54553636549E+01  0.54553636549E+01  0.00000000000E+00 0.  1.
         35    2    1    2    0    0  0.00000000000E+00  0.00000000000E+00  0.34518582767E+04  0.34627690040E+04  0.27467000693E+03 0.  0.
         25    2    3    3    0    0 -0.14796951635E+02 -0.46885693493E+02  0.13773479694E+04  0.13839219115E+04  0.12544006635E+03 0.  0.
         25    2    3    3    0    0  0.14796951635E+02  0.46885693493E+02  0.20745103073E+04  0.20788470925E+04  0.12487994623E+03 0.  0.
          5    1    4    4  502    0 -0.24594955295E+02 -0.54675635709E+02  0.27524708304E+03  0.28173992207E+03  0.47000000000E+01 0. -1.
         -5    1    4    4    0  502  0.97980036591E+01  0.77899422167E+01  0.11021008864E+04  0.11021819894E+04  0.47000000000E+01 0. -1.
          5    1    5    5  503    0  0.23220595432E+02 -0.33554001998E+02  0.11685110097E+04  0.11692327129E+04  0.47000000000E+01 0. -1.
         -5    1    5    5    0  503 -0.84236437969E+01  0.80439695491E+02  0.90599929754E+03  0.90961437958E+03  0.47000000000E+01 0. -1.
<mgrwt>
<rscale>  0 0.27467001E+03</rscale>
<asrwt>0</asrwt>
<pdfrwt beam="1">  1        2 0.53189265E+00 0.27467001E+03</pdfrwt>
<pdfrwt beam="2">  1       -2 0.83928948E-03 0.27467001E+03</pdfrwt>
<totfact> 0.29751845E+03</totfact>
</mgrwt>
</event>
<event>
 9    1  0.7984035E-001  0.2730761E+03  0.7818608E-02  0.1099532E+00
          2   -1    0    0  501    0  0.00000000000E+00  0.00000000000E+00  0.32130123709E+03  0.32130123709E+03  0.00000000000E+00 0. -1.
         -2   -1    0    0    0  501 -0.00000000000E+00 -0.00000000000E+00 -0.58022306777E+02  0.58022306777E+02  0.00000000000E+00 0. -1.
         35    2    1    2    0    0  0.14210854715E-13 -0.17763568394E-14  0.26327893031E+03  0.37932354386E+03  0.27307609889E+03 0.  0.
         25    2    3    3    0    0 -0.48809478298E+02  0.13985460556E+02  0.99419224710E+02  0.16736818041E+03  0.12469950798E+03 0.  0.
         25    2    3    3    0    0  0.48809478298E+02 -0.13985460556E+02  0.16385970560E+03  0.21195536346E+03  0.12448740780E+03 0.  0.
          5    1    4    4  502    0 -0.28902827842E+02 -0.82554447254E+01  0.12445997880E+03  0.12812455716E+03  0.47000000000E+01 0. -1.
         -5    1    4    4    0  502 -0.19906650456E+02  0.22240905282E+02 -0.25040754089E+02  0.39243623246E+02  0.47000000000E+01 0. -1.
          5    1    5    5  503    0  0.88723164162E+02 -0.24763059151E+01  0.86514935716E+02  0.12403570475E+03  0.47000000000E+01 0. -1.
         -5    1    5    5    0  503 -0.39913685864E+02 -0.11509154641E+02  0.77344769884E+02  0.87919658713E+02  0.47000000000E+01 0. -1.
<mgrwt>
<rscale>  0 0.27307610E+03</rscale>
<asrwt>0</asrwt>
<pdfrwt beam="1">  1        2 0.49430959E-01 0.27307610E+03</pdfrwt>
<pdfrwt beam="2">  1       -2 0.89265089E-02 0.27307610E+03</pdfrwt>
<totfact> 0.80062049E+03</totfact>
</mgrwt>
</event>
<event>
 9    1  0.7984035E-001  0.2711253E+03  0.7818608E-02  0.1100637E+00
         -2   -1    0    0    0  501 -0.00000000000E+00  0.00000000000E+00  0.95216882826E+01  0.95216882826E+01  0.00000000000E+00 0.  1.
          2   -1    0    0  501    0  0.00000000000E+00 -0.00000000000E+00 -0.19300386384E+04  0.19300386384E+04  0.00000000000E+00 0.  1.
         35    2    1    2    0    0  0.71054273576E-14 -0.71054273576E-14 -0.19205169501E+04  0.19395603267E+04  0.27112525731E+03 0.  0.
         25    2    3    3    0    0  0.47721689723E+02  0.91150643325E+01 -0.10096067809E+04  0.10185892962E+04  0.12592798773E+03 0.  0.
         25    2    3    3    0    0 -0.47721689723E+02 -0.91150643325E+01 -0.91091016918E+03  0.92097103051E+03  0.12676694623E+03 0.  0.
          5    1    4    4  502    0 -0.11301554918E+02  0.40908860545E+02 -0.13945342678E+03  0.14584446598E+03  0.47000000000E+01 0.  1.
         -5    1    4    4    0  502  0.59023244642E+02 -0.31793796213E+02 -0.87015335414E+03  0.87274483018E+03  0.47000000000E+01 0.  1.
          5    1    5    5  503    0 -0.10568953092E+02  0.57526307760E+02 -0.44033827336E+03  0.44423064262E+03  0.47000000000E+01 0. -1.
         -5    1    5    5    0  503 -0.37152736631E+02 -0.66641372092E+02 -0.47057189582E+03  0.47674038789E+03  0.47000000000E+01 0. -1.
<mgrwt>
<rscale>  0 0.27112526E+03</rscale>
<asrwt>0</asrwt>
<pdfrwt beam="1">  1        2 0.29692876E+00 0.27112526E+03</pdfrwt>
<pdfrwt beam="2">  1       -2 0.14648764E-02 0.27112526E+03</pdfrwt>
<totfact> 0.98749041E+03</totfact>
</mgrwt>
</event>
<event>
 9    1  0.7984035E-001  0.2778355E+03  0.7818608E-02  0.1096877E+00
         -2   -1    0    0    0  501 -0.00000000000E+00  0.00000000000E+00  0.44052120114E+02  0.44052120114E+02  0.00000000000E+00 0. -1.
          2   -1    0    0  501    0  0.00000000000E+00 -0.00000000000E+00 -0.43807524114E+03  0.43807524114E+03  0.00000000000E+00 0. -1.
         35    2    1    2    0    0  0.35527136788E-14 -0.35527136788E-14 -0.39402312102E+03  0.48212736125E+03  0.27783551351E+03 0.  0.
         25    2    3    3    0    0 -0.96283449139E+01 -0.17616692794E+02 -0.10102868299E+03  0.16296720089E+03  0.12628721585E+03 0.  0.
         25    2    3    3    0    0  0.96283449139E+01  0.17616692794E+02 -0.29299443804E+03  0.31916016036E+03  0.12495765024E+03 0.  0.
          5    1    4    4  502    0  0.46060515411E+02  0.21060750850E+02 -0.74064236503E+02  0.89848357998E+02  0.47000000000E+01 0.  1.
         -5    1    4    4    0  502 -0.55688860325E+02 -0.38677443645E+02 -0.26964446486E+02  0.73118842889E+02  0.47000000000E+01 0.  1.
          5    1    5    5  503    0  0.30866152396E+02 -0.22276067802E+02 -0.21660018605E+02  0.44047576169E+02  0.47000000000E+01 0.  1.
         -5    1    5    5    0  503 -0.21237807482E+02  0.39892760596E+02 -0.27133441943E+03  0.27511258419E+03  0.47000000000E+01 0.  1.
<mgrwt>
<rscale>  0 0.27783551E+03</rscale>
<asrwt>0</asrwt>
<pdfrwt beam="1">  1        2 0.67396187E-01 0.27783551E+03</pdfrwt>
<pdfrwt beam="2">  1       -2 0.67772496E-02 0.27783551E+03</pdfrwt>
<totfact> 0.87971017E+03</totfact>
</mgrwt>
</event>
<event>
 9    1  0.7984035E-001  0.2739124E+03  0.7818608E-02  0.1099061E+00
          2   -1    0    0  501    0  0.00000000000E+00  0.00000000000E+00  0.20018264893E+03  0.20018264893E+03  0.00000000000E+00 0. -1.
         -2   -1    0    0    0  501 -0.00000000000E+00 -0.00000000000E+00 -0.93699446487E+02  0.93699446487E+02  0.00000000000E+00 0. -1.
         35    2    1    2    0    0  0.00000000000E+00  0.00000000000E+00  0.10648320244E+03  0.29388209541E+03  0.27391241958E+03 0.  0.
         25    2    3    3    0    0  0.39562722659E+02  0.32407439484E+01  0.96750337779E+02  0.16295238112E+03  0.12496855287E+03 0.  0.
         25    2    3    3    0    0 -0.39562722659E+02 -0.32407439484E+01  0.97328646592E+01  0.13092971429E+03  0.12438709734E+03 0.  0.
          5    1    4    4  502    0  0.61603249334E+02  0.37903299735E+02  0.97634360098E+02  0.12159843227E+03  0.47000000000E+01 0. -1.
         -5    1    4    4    0  502 -0.22040526675E+02 -0.34662555787E+02 -0.88402231863E+00  0.41353948847E+02  0.47000000000E+01 0. -1.
          5    1    5    5  503    0 -0.82439016814E+02  0.10361427850E+02  0.17500108622E+02  0.85040546106E+02  0.47000000000E+01 0.  1.
         -5    1    5    5    0  503  0.42876294155E+02 -0.13602171798E+02 -0.77672439625E+01  0.45889168187E+02  0.47000000000E+01 0.  1.
<mgrwt>
<rscale>  0 0.27391242E+03</rscale>
<asrwt>0</asrwt>
<pdfrwt beam="1">  1        2 0.30797331E-01 0.27391242E+03</pdfrwt>
<pdfrwt beam="2">  1       -2 0.14415300E-01 0.27391242E+03</pdfrwt>
<totfact> 0.61812678E+03</totfact>
</mgrwt>
</event>
<event>
 9    1  0.7984035E-001  0.2752398E+03  0.7818608E-02  0.1098318E+00
          2   -1    0    0  501    0  0.00000000000E+00  0.00000000000E+00  0.20138717760E+04  0.20138717760E+04  0.00000000000E+00 0.  1.
         -2   -1    0    0    0  501 -0.00000000000E+00 -0.00000000000E+00 -0.94043929621E+01  0.94043929621E+01  0.00000000000E+00 0.  1.
         35    2    1    2    0    0  0.00000000000E+00  0.00000000000E+00  0.20044673830E+04  0.20232761690E+04  0.27523983401E+03 0.  0.
         25    2    3    3    0    0 -0.33870653470E+02 -0.21952645132E+02  0.13163139653E+04  0.13228237897E+04  0.12470438445E+03 0.  0.
         25    2    3    3    0    0  0.33870653470E+02  0.21952645132E+02  0.68815341773E+03  0.70045237928E+03  0.12429509043E+03 0.  0.
          5    1    4    4  502    0  0.91381974861E+01 -0.61559956244E+02  0.42222461169E+03  0.42681242669E+03  0.47000000000E+01 0.  1.
         -5    1    4    4    0  502 -0.43008850956E+02  0.39607311112E+02  0.89408935362E+03  0.89601136299E+03  0.47000000000E+01 0.  1.
          5    1    5    5  503    0  0.66553752109E+01 -0.44457434823E+02  0.43309336395E+03  0.43544541499E+03  0.47000000000E+01 0.  1.
         -5    1    5    5    0  503  0.27215278259E+02  0.66410079955E+02  0.25506005378E+03  0.26500696429E+03  0.47000000000E+01 0.  1.
<mgrwt>
<rscale>  0 0.27523983E+03</rscale>
<asrwt>0</asrwt>
<pdfrwt beam="1">  1        2 0.30982609E+00 0.27523983E+03</pdfrwt>
<pdfrwt beam="2">  1       -2 0.14468313E-02 0.27523983E+03</pdfrwt>
<totfact> 0.90867892E+03</totfact>
</mgrwt>
</event>
<event>
 9    1  0.7984035E-001  0.2723374E+03  0.7818608E-02  0.1099949E+00
          1   -1    0    0  501    0  0.00000000000E+00  0.00000000000E+00  0.24344881363E+02  0.24344881363E+02  0.00000000000E+00 0.  1.
         -1   -1    0    0    0  501 -0.00000000000E+00 -0.00000000000E+00 -0.76163515288E+03  0.76163515288E+03  0.00000000000E+00 0.  1.
         35    2    1    2    0    0  0.35527136788E-14  0.00000000000E+00 -0.73729027152E+03  0.78598003424E+03  0.27233741894E+03 0.  0.
         25    2    3    3    0    0  0.24862874447E+02  0.19173818964E+02 -0.49497579368E+03  0.51170224757E+03  0.12590613954E+03 0.  0.
         25    2    3    3    0    0 -0.24862874447E+02 -0.19173818964E+02 -0.24231447783E+03  0.27427778667E+03  0.12460417423E+03 0.  0.
          5    1    4    4  502    0  0.14692146639E+02  0.37074233095E+02 -0.41542254115E+02  0.57777217045E+02  0.47000000000E+01 0.  1.
         -5    1    4    4    0  502  0.10170727808E+02 -0.17900414131E+02 -0.45343353957E+03  0.45392503052E+03  0.47000000000E+01 0.  1.
          5    1    5    5  503    0  0.33363045441E+02 -0.24221878065E+02 -0.19375101935E+03  0.19814474426E+03  0.47000000000E+01 0.  1.
         -5    1    5    5    0  503 -0.58225919888E+02  0.50480591015E+01 -0.48563458478E+02  0.76133042412E+02  0.47000000000E+01 0.  1.
<mgrwt>
<rscale>  0 0.27233742E+03</rscale>
<asrwt>0</asrwt>
<pdfrwt beam="1">  1        1 0.37453670E-02 0.27233742E+03</pdfrwt>
<pdfrwt beam="2">  1       -1 0.11717462E+00 0.27233742E+03</pdfrwt>
<totfact> 0.17437242E+03</totfact>
</mgrwt>
</event>
<event>
 9    1  0.7984035E-001  0.2754410E+03  0.7818608E-02  0.1098205E+00
         -1   -1    0    0    0  501 -0.00000000000E+00  0.00000000000E+00  0.62438922487E+03  0.62438922487E+03  0.00000000000E+00 0. -1.
          1   -1    0    0  501    0  0.00000000000E+00 -0.00000000000E+00 -0.30376783398E+02  0.30376783398E+02  0.00000000000E+00 0. -1.
         35    2    1    2    0    0  0.00000000000E+00 -0.17763568394E-14  0.59401244147E+03  0.65476600827E+03  0.27544100087E+03 0.  0.
         25    2    3    3    0    0  0.57724845308E+02  0.60416511482E+00  0.30091601678E+03  0.33096606698E+03  0.12512220248E+03 0.  0.
         25    2    3    3    0    0 -0.57724845308E+02 -0.60416511482E+00  0.29309642469E+03  0.32379994129E+03  0.12493344241E+03 0.  0.
          5    1    4    4  502    0 -0.50573684921E+01  0.26062747641E+02  0.50807313055E+01  0.27436246487E+02  0.47000000000E+01 0. -1.
         -5    1    4    4    0  502  0.62782213800E+02 -0.25458582527E+02  0.29583528548E+03  0.30352982049E+03  0.47000000000E+01 0. -1.
          5    1    5    5  503    0  0.34715702028E+02 -0.69696181392E+01  0.37056632527E+02  0.51468821228E+02  0.47000000000E+01 0.  1.
         -5    1    5    5    0  503 -0.92440547337E+02  0.63654530244E+01  0.25603979217E+03  0.27233112007E+03  0.47000000000E+01 0.  1.
<mgrwt>
<rscale>  0 0.27544100E+03</rscale>
<asrwt>0</asrwt>
<pdfrwt beam="1">  1        1 0.46733518E-02 0.27544100E+03</pdfrwt>
<pdfrwt beam="2">  1       -1 0.96059871E-01 0.27544100E+03</pdfrwt>
<totfact> 0.20134704E+03</totfact>
</mgrwt>
</event>
<event>
 9    1  0.7984035E-001  0.2717547E+03  0.7818608E-02  0.1100280E+00
          2   -1    0    0  501    0  0.00000000000E+00  0.00000000000E+00  0.45760557130E+03  0.45760557130E+03  0.00000000000E+00 0.  1.
         -2   -1    0    0    0  501 -0.00000000000E+00 -0.00000000000E+00 -0.40346221924E+02  0.40346221924E+02  0.00000000000E+00 0.  1.
         35    2    1    2    0    0  0.00000000000E+00  0.00000000000E+00  0.41725934937E+03  0.49795179322E+03  0.27175471244E+03 0.  0.
         25    2    3    3    0    0  0.92719547908E+01  0.49427706444E+02  0.19852700491E+03  0.24026506883E+03  0.12563942180E+03 0.  0.
         25    2    3    3    0    0 -0.92719547908E+01 -0.49427706444E+02  0.21873234446E+03  0.25768672439E+03  0.12660782797E+03 0.  0.
          5    1    4    4  502    0 -0.32546953355E+02  0.33966826319E+02  0.12485814856E+02  0.48898210964E+02  0.47000000000E+01 0. -1.
         -5    1    4    4    0  502  0.41818908145E+02  0.15460880125E+02  0.18604119006E+03  0.19136685787E+03  0.47000000000E+01 0. -1.
          5    1    5    5  503    0  0.90700858484E+01 -0.89732310702E+02  0.12847072620E+03  0.15703812127E+03  0.47000000000E+01 0.  1.
         -5    1    5    5    0  503 -0.18342040639E+02  0.40304604257E+02  0.90261618263E+02  0.10064860312E+03  0.47000000000E+01 0.  1.
<mgrwt>
<rscale>  0 0.27175471E+03</rscale>
<asrwt>0</asrwt>
<pdfrwt beam="1">  1        2 0.70400853E-01 0.27175471E+03</pdfrwt>
<pdfrwt beam="2">  1       -2 0.62071114E-02 0.27175471E+03</pdfrwt>
<totfact> 0.95928750E+03</totfact>
</mgrwt>
</event>
<event>
 9    1  0.7984035E-001  0.2736118E+03  0.7818608E-02  0.1099230E+00
          1   -1    0    0  501    0  0.00000000000E+00  0.00000000000E+00  0.29702294835E+04  0.29702294835E+04  0.00000000000E+00 0. -1.
         -1   -1    0    0    0  501 -0.00000000000E+00 -0.00000000000E+00 -0.63011452850E+01  0.63011452850E+01  0.00000000000E+00 0. -1.
         35    2    1    2    0    0 -0.71054273576E-14 -0.14210854715E-13  0.29639283382E+04  0.29765306288E+04  0.27361175052E+03 0.  0.
         25    2    3    3    0    0  0.13050855457E+02 -0.52959930251E+02  0.14856506141E+04  0.14918963259E+04  0.12498728431E+03 0.  0.
         25    2    3    3    0    0 -0.13050855457E+02  0.52959930251E+02  0.14782777241E+04  0.14846343028E+04  0.12593214215E+03 0.  0.
          5    1    4    4  502    0 -0.53804340395E+02 -0.36672547353E+02  0.59218341687E+03  0.59577098955E+03  0.47000000000E+01 0.  1.
         -5    1    4    4    0  502  0.66855195852E+02 -0.16287382897E+02  0.89346719719E+03  0.89612533638E+03  0.47000000000E+01 0.  1.
          5    1    5    5  503    0 -0.53756836461E+02  0.53645749547E+02  0.52599356377E+03  0.53146870373E+03  0.47000000000E+01 0.  1.
         -5    1    5    5    0  503  0.40705981004E+02 -0.68581929638E+00  0.95228416037E+03  0.95316559911E+03  0.47000000000E+01 0.  1.
<mgrwt>
<rscale>  0 0.27361175E+03</rscale>
<asrwt>0</asrwt>
<pdfrwt beam="1">  1        1 0.45695726E+00 0.27361175E+03</pdfrwt>
<pdfrwt beam="2">  1       -1 0.96940934E-03 0.27361175E+03</pdfrwt>
<totfact> 0.14941816E+03</totfact>
</mgrwt>
</event>
<event>
 9    1  0.7984035E-001  0.2769144E+03  0.7818608E-02  0.1097386E+00
         -2   -1    0    0    0  501 -0.00000000000E+00  0.00000000000E+00  0.71425056354E+01  0.71425056354E+01  0.00000000000E+00 0. -1.
          2   -1    0    0  501    0  0.00000000000E+00 -0.00000000000E+00 -0.26839880920E+04  0.26839880920E+04  0.00000000000E+00 0. -1.
         35    2    1    2    0    0 -0.14210854715E-13  0.00000000000E+00 -0.26768455864E+04  0.26911305977E+04  0.27691442774E+03 0.  0.
         25    2    3    3    0    0 -0.45502391365E+02 -0.32493411035E+01 -0.16997265971E+04  0.17049303662E+04  0.12504408376E+03 0.  0.
         25    2    3    3    0    0  0.45502391365E+02  0.32493411035E+01 -0.97711898929E+03  0.98620023146E+03  0.12549243584E+03 0.  0.
          5    1    4    4  502    0 -0.18850748895E+02  0.11761962972E+02 -0.50029522905E+02  0.54943040223E+02  0.47000000000E+01 0. -1.
         -5    1    4    4    0  502 -0.26651642470E+02 -0.15011304075E+02 -0.16496970742E+04  0.16499873260E+04  0.47000000000E+01 0. -1.
          5    1    5    5  503    0  0.77962347803E+02 -0.13028078240E+02 -0.39092324668E+03  0.39886204794E+03  0.47000000000E+01 0. -1.
         -5    1    5    5    0  503 -0.32459956438E+02  0.16277419344E+02 -0.58619574261E+03  0.58733818351E+03  0.47000000000E+01 0. -1.
<mgrwt>
<rscale>  0 0.27691443E+03</rscale>
<asrwt>0</asrwt>
<pdfrwt beam="1">  1        2 0.41292144E+00 0.27691443E+03</pdfrwt>
<pdfrwt beam="2">  1       -2 0.10988465E-02 0.27691443E+03</pdfrwt>
<totfact> 0.58925608E+03</totfact>
</mgrwt>
</event>
<event>
 9    1  0.7984035E-001  0.2727438E+03  0.7818608E-02  0.1099719E+00
          3   -1    0    0  501    0  0.00000000000E+00  0.00000000000E+00  0.10215894532E+03  0.10215894532E+03  0.00000000000E+00 0. -1.
         -3   -1    0    0    0  501 -0.00000000000E+00 -0.00000000000E+00 -0.18204268106E+03  0.18204268106E+03  0.00000000000E+00 0. -1.
         35    2    1    2    0    0  0.00000000000E+00  0.71054273576E-14 -0.79883735742E+02  0.28420162637E+03  0.27274375006E+03 0.  0.
         25    2    3    3    0    0 -0.40963945964E+02 -0.28606977155E+02 -0.45657494305E+02  0.14525341739E+03  0.12852059938E+03 0.  0.
         25    2    3    3    0    0  0.40963945964E+02  0.28606977155E+02 -0.34226241437E+02  0.13894820898E+03  0.12505504854E+03 0.  0.
          5    1    4    4  502    0 -0.13814071021E+02  0.50642178903E+02 -0.80721074195E+01  0.53317049435E+02  0.47000000000E+01 0.  1.
         -5    1    4    4    0  502 -0.27149874944E+02 -0.79249156058E+02 -0.37585386885E+02  0.91936367954E+02  0.47000000000E+01 0.  1.
          5    1    5    5  503    0 -0.21612364857E+02  0.43227024818E+02  0.22115586159E+02  0.53355966306E+02  0.47000000000E+01 0. -1.
         -5    1    5    5    0  503  0.62576310822E+02 -0.14620047663E+02 -0.56341827597E+02  0.85592242678E+02  0.47000000000E+01 0. -1.
<mgrwt>
<rscale>  0 0.27274375E+03</rscale>
<asrwt>0</asrwt>
<pdfrwt beam="1">  1        3 0.15716761E-01 0.27274375E+03</pdfrwt>
<pdfrwt beam="2">  1       -3 0.28006566E-01 0.27274375E+03</pdfrwt>
<totfact> 0.10613562E+03</totfact>
</mgrwt>
</event>
<event>
 9    1  0.7984035E-001  0.2724096E+03  0.7818608E-02  0.1099908E+00
         -1   -1    0    0    0  501 -0.00000000000E+00  0.00000000000E+00  0.31146180319E+02  0.31146180319E+02  0.00000000000E+00 0. -1.
          1   -1    0    0  501    0  0.00000000000E+00 -0.00000000000E+00 -0.59563481139E+03  0.59563481139E+03  0.00000000000E+00 0. -1.
         35    2    1    2    0    0 -0.71054273576E-14 -0.71054273576E-14 -0.56448863107E+03  0.62678099171E+03  0.27240961246E+03 0.  0.
         25    2    3    3    0    0  0.26787914341E+02  0.21968564490E+02 -0.19164144376E+03  0.23185623688E+03  0.12581995642E+03 0.  0.
         25    2    3    3    0    0 -0.26787914341E+02 -0.21968564490E+02 -0.37284718731E+03  0.39492475483E+03  0.12550030561E+03 0.  0.
          5    1    4    4  502    0  0.72529557545E+02  0.31554328336E+02 -0.14731422930E+03  0.16727158907E+03  0.47000000000E+01 0. -1.
         -5    1    4    4    0  502 -0.45741643204E+02 -0.95857638460E+01 -0.44327214454E+02  0.64584647811E+02  0.47000000000E+01 0. -1.
          5    1    5    5  503    0 -0.18156082226E+02  0.52153214079E+02 -0.15802309486E+03  0.16746041195E+03  0.47000000000E+01 0.  1.
         -5    1    5    5    0  503 -0.86318321148E+01 -0.74121778570E+02 -0.21482409245E+03  0.22746434288E+03  0.47000000000E+01 0.  1.
<mgrwt>
<rscale>  0 0.27240961E+03</rscale>
<asrwt>0</asrwt>
<pdfrwt beam="1">  1        1 0.91636121E-01 0.27240961E+03</pdfrwt>
<pdfrwt beam="2">  1       -1 0.47917203E-02 0.27240961E+03</pdfrwt>
<totfact> 0.66393914E+03</totfact>
</mgrwt>
</event>
<event>
 9    1  0.7984035E-001  0.2748684E+03  0.7818608E-02  0.1098525E+00
          2   -1    0    0  501    0  0.00000000000E+00  0.00000000000E+00  0.78524564836E+03  0.78524564836E+03  0.00000000000E+00 0. -1.
         -2   -1    0    0    0  501 -0.00000000000E+00 -0.00000000000E+00 -0.24053824075E+02  0.24053824075E+02  0.00000000000E+00 0. -1.
         35    2    1    2    0    0  0.00000000000E+00  0.00000000000E+00  0.76119182429E+03  0.80929947244E+03  0.27486840983E+03 0.  0.
         25    2    3    3    0    0 -0.32857295411E+02 -0.44062416969E+02  0.41456658725E+03  0.43669531618E+03  0.12576265525E+03 0.  0.
         25    2    3    3    0    0  0.32857295411E+02  0.44062416969E+02  0.34662523703E+03  0.37260415626E+03  0.12515471969E+03 0.  0.
          5    1    4    4  502    0 -0.65031925474E+02 -0.39797522096E+02  0.13420100416E+03  0.15441824249E+03  0.47000000000E+01 0. -1.
         -5    1    4    4    0  502  0.32174630063E+02 -0.42648948731E+01  0.28036558309E+03  0.28227707369E+03  0.47000000000E+01 0. -1.
          5    1    5    5  503    0  0.14179921775E+02  0.87128563329E+02  0.20250274322E+03  0.22095680062E+03  0.47000000000E+01 0. -1.
         -5    1    5    5    0  503  0.18677373636E+02 -0.43066146359E+02  0.14412249381E+03  0.15164735563E+03  0.47000000000E+01 0. -1.
<mgrwt>
<rscale>  0 0.27486841E+03</rscale>
<asrwt>0</asrwt>
<pdfrwt beam="1">  1        2 0.12080700E+00 0.27486841E+03</pdfrwt>
<pdfrwt beam="2">  1       -2 0.37005889E-02 0.27486841E+03</pdfrwt>
<totfact> 0.11189950E+04</totfact>
</mgrwt>
</event>
<event>
 9    1  0.7984035E-001  0.2736238E+03  0.7818608E-02  0.1099223E+00
         -2   -1    0    0    0  501 -0.00000000000E+00  0.00000000000E+00  0.13379771454E+02  0.13379771454E+02  0.00000000000E+00 0.  1.
          2   -1    0    0  501    0  0.00000000000E+00 -0.00000000000E+00 -0.13989398489E+04  0.13989398489E+04  0.00000000000E+00 0.  1.
         35    2    1    2    0    0  0.71054273576E-14  0.00000000000E+00 -0.13855600774E+04  0.14123196204E+04  0.27362379616E+03 0.  0.
         25    2    3    3    0    0 -0.26072800361E+02 -0.44296278356E+02 -0.80100520765E+03  0.81239828891E+03  0.12545790510E+03 0.  0.
         25    2    3    3    0    0  0.26072800361E+02  0.44296278356E+02 -0.58455486980E+03  0.59992133144E+03  0.12473675048E+03 0.  0.
          5    1    4    4  502    0 -0.14689113854E+02  0.29530840798E+02 -0.69485927533E+02  0.77059877687E+02  0.47000000000E+01 0.  1.
         -5    1    4    4    0  502 -0.11383686507E+02 -0.73827119154E+02 -0.73151928012E+03  0.73533841122E+03  0.47000000000E+01 0.  1.
          5    1    5    5  503    0  0.69938108560E+02 -0.21441592564E+00 -0.36132191115E+03  0.36805841721E+03  0.47000000000E+01 0.  1.
         -5    1    5    5    0  503 -0.43865308199E+02  0.44510694281E+02 -0.22323295864E+03  0.23186291423E+03  0.47000000000E+01 0.  1.
<mgrwt>
<rscale>  0 0.27362380E+03</rscale>
<asrwt>0</asrwt>
<pdfrwt beam="1">  1        2 0.21522155E+00 0.27362380E+03</pdfrwt>
<pdfrwt beam="2">  1       -2 0.20584260E-02 0.27362380E+03</pdfrwt>
<totfact> 0.11460389E+04</totfact>
</mgrwt>
</event>
<event>
 9    1  0.7984035E-001  0.2746484E+03  0.7818608E-02  0.1098648E+00
          2   -1    0    0  501    0  0.00000000000E+00  0.00000000000E+00  0.15837039785E+04  0.15837039785E+04  0.00000000000E+00 0. -1.
         -2   -1    0    0    0  501 -0.00000000000E+00 -0.00000000000E+00 -0.11907488571E+02  0.11907488571E+02  0.00000000000E+00 0. -1.
         35    2    1    2    0    0  0.00000000000E+00 -0.17763568394E-14  0.15717964899E+04  0.15956114670E+04  0.27464840814E+03 0.  0.
         25    2    3    3    0    0  0.28335418677E+02  0.53522721067E+01  0.10678117066E+04  0.10755262310E+04  0.12531276871E+03 0.  0.
         25    2    3    3    0    0 -0.28335418677E+02 -0.53522721067E+01  0.50398478328E+03  0.52008523605E+03  0.12512572959E+03 0.  0.
          5    1    4    4  502    0  0.49501632908E+02  0.33185824692E+01  0.16289598884E+03  0.17034851872E+03  0.47000000000E+01 0. -1.
         -5    1    4    4    0  502 -0.21166214232E+02  0.20336896374E+01  0.90491571778E+03  0.90517771227E+03  0.47000000000E+01 0. -1.
          5    1    5    5  503    0 -0.19332951232E+01  0.32627185953E+02  0.43867950631E+03  0.43992052708E+03  0.47000000000E+01 0.  1.
         -5    1    5    5    0  503 -0.26402123553E+02 -0.37979458060E+02  0.65305276975E+02  0.80164708965E+02  0.47000000000E+01 0.  1.
<mgrwt>
<rscale>  0 0.27464841E+03</rscale>
<asrwt>0</asrwt>
<pdfrwt beam="1">  1        2 0.24364660E+00 0.27464841E+03</pdfrwt>
<pdfrwt beam="2">  1       -2 0.18319226E-02 0.27464841E+03</pdfrwt>
<totfact> 0.10829398E+04</totfact>
</mgrwt>
</event>
<event>
 9    1  0.7984035E-001  0.2760724E+03  0.7818608E-02  0.1097854E+00
          2   -1    0    0  501    0  0.00000000000E+00  0.00000000000E+00  0.43372675561E+03  0.43372675561E+03  0.00000000000E+00 0.  1.
         -2   -1    0    0    0  501 -0.00000000000E+00 -0.00000000000E+00 -0.43930854522E+02  0.43930854522E+02  0.00000000000E+00 0.  1.
         35    2    1    2    0    0  0.00000000000E+00  0.14210854715E-13  0.38979590109E+03  0.47765761013E+03  0.27607236010E+03 0.  0.
         25    2    3    3    0    0  0.33422511863E+01 -0.40781435041E+02  0.12281103233E+03  0.18016408337E+03  0.12530862376E+03 0.  0.
         25    2    3    3    0    0 -0.33422511863E+01  0.40781435041E+02  0.26698486876E+03  0.29749352676E+03  0.12468834039E+03 0.  0.
          5    1    4    4  502    0 -0.22435145130E+02 -0.18998054477E+02 -0.18334089788E+02  0.34964133899E+02  0.47000000000E+01 0.  1.
         -5    1    4    4    0  502  0.25777396316E+02 -0.21783380563E+02  0.14114512212E+03  0.14519994947E+03  0.47000000000E+01 0.  1.
          5    1    5    5  503    0 -0.81485948189E+01  0.83811913623E+02  0.20561952063E+03  0.22224381595E+03  0.47000000000E+01 0.  1.
         -5    1    5    5    0  503  0.48063436326E+01 -0.43030478583E+02  0.61365348129E+02  0.75249710811E+02  0.47000000000E+01 0.  1.
<mgrwt>
<rscale>  0 0.27607236E+03</rscale>
<asrwt>0</asrwt>
<pdfrwt beam="1">  1        2 0.66727190E-01 0.27607236E+03</pdfrwt>
<pdfrwt beam="2">  1       -2 0.67585933E-02 0.27607236E+03</pdfrwt>
<totfact> 0.89297061E+03</totfact>
</mgrwt>
</event>
<event>
 9    1  0.7984035E-001  0.2793268E+03  0.7818608E-02  0.1096057E+00
         -1   -1    0    0    0  501 -0.00000000000E+00  0.00000000000E+00  0.70495227404E+02  0.70495227404E+02  0.00000000000E+00 0.  1.
          1   -1    0    0  501    0  0.00000000000E+00 -0.00000000000E+00 -0.27669772398E+03  0.27669772398E+03  0.00000000000E+00 0.  1.
         35    2    1    2    0    0 -0.71054273576E-14  0.00000000000E+00 -0.20620249657E+03  0.34719295138E+03  0.27932682631E+03 0.  0.
         25    2    3    3    0    0 -0.54216776127E+02  0.25571327590E+02 -0.12060297845E+03  0.18365282009E+03  0.12485963442E+03 0.  0.
         25    2    3    3    0    0  0.54216776127E+02 -0.25571327590E+02 -0.85599518124E+02  0.16354013130E+03  0.12579644444E+03 0.  0.
          5    1    4    4  502    0 -0.92404848323E+02  0.33735359679E+02 -0.94193637623E+02  0.13627641709E+03  0.47000000000E+01 0.  1.
         -5    1    4    4    0  502  0.38188072196E+02 -0.81640320892E+01 -0.26409340828E+02  0.47376402997E+02  0.47000000000E+01 0.  1.
          5    1    5    5  503    0  0.70086740774E+02 -0.53983103331E+02 -0.94442513271E+02  0.12949055947E+03  0.47000000000E+01 0.  1.
         -5    1    5    5    0  503 -0.15869964647E+02  0.28411775741E+02  0.88429951476E+01  0.34049571830E+02  0.47000000000E+01 0.  1.
<mgrwt>
<rscale>  0 0.27932683E+03</rscale>
<asrwt>0</asrwt>
<pdfrwt beam="1">  1        1 0.42568881E-01 0.27932683E+03</pdfrwt>
<pdfrwt beam="2">  1       -1 0.10845420E-01 0.27932683E+03</pdfrwt>
<totfact> 0.51834230E+03</totfact>
</mgrwt>
</event>
<event>
 9    1  0.7984035E-001  0.2733978E+03  0.7818608E-02  0.1099351E+00
         -2   -1    0    0    0  501 -0.00000000000E+00  0.00000000000E+00  0.10485752151E+03  0.10485752151E+03  0.00000000000E+00 0. -1.
          2   -1    0    0  501    0  0.00000000000E+00 -0.00000000000E+00 -0.17820927372E+03  0.17820927372E+03  0.00000000000E+00 0. -1.
         35    2    1    2    0    0 -0.35527136788E-14  0.00000000000E+00 -0.73351752215E+02  0.28306679523E+03  0.27339775238E+03 0.  0.
         25    2    3    3    0    0 -0.69010614276E+01 -0.48215192919E+01  0.20530899977E+02  0.12666302845E+03  0.12470418287E+03 0.  0.
         25    2    3    3    0    0  0.69010614276E+01  0.48215192919E+01 -0.93882652192E+02  0.15640376677E+03  0.12480911097E+03 0.  0.
          5    1    4    4  502    0  0.54779265087E+01  0.59112448919E+02  0.67398718724E+01  0.59931670834E+02  0.47000000000E+01 0.  1.
         -5    1    4    4    0  502 -0.12378987936E+02 -0.63933968211E+02  0.13791028104E+02  0.66731357619E+02  0.47000000000E+01 0.  1.
          5    1    5    5  503    0  0.42442526743E+02 -0.46085868379E+02 -0.47326591413E+02  0.78658576109E+02  0.47000000000E+01 0. -1.
         -5    1    5    5    0  503 -0.35541465316E+02  0.50907387671E+02 -0.46556060779E+02  0.77745190665E+02  0.47000000000E+01 0. -1.
<mgrwt>
<rscale>  0 0.27339775E+03</rscale>
<asrwt>0</asrwt>
<pdfrwt beam="1">  1        2 0.27416811E-01 0.27339775E+03</pdfrwt>
<pdfrwt beam="2">  1       -2 0.16131927E-01 0.27339775E+03</pdfrwt>
<totfact> 0.58310507E+03</totfact>
</mgrwt>
</event>
<event>
 9    1  0.7984035E-001  0.2816169E+03  0.7818608E-02  0.1094809E+00
         -2   -1    0    0    0  501 -0.00000000000E+00  0.00000000000E+00  0.19015151473E+02  0.19015151473E+02  0.00000000000E+00 0. -1.
          2   -1    0    0  501    0  0.00000000000E+00 -0.00000000000E+00 -0.10426960280E+04  0.10426960280E+04  0.00000000000E+00 0. -1.
         35    2    1    2    0    0  0.00000000000E+00 -0.35527136788E-14 -0.10236808765E+04  0.10617111795E+04  0.28161692359E+03 0.  0.
         25    2    3    3    0    0 -0.58767848652E+02  0.25625916155E+02 -0.62130256280E+03  0.63685293609E+03  0.12431588816E+03 0.  0.
         25    2    3    3    0    0  0.58767848652E+02 -0.25625916155E+02 -0.40237831373E+03  0.42485824339E+03  0.12035726816E+03 0.  0.
          5    1    4    4  502    0 -0.79917157934E+02  0.21397183214E+02 -0.22233574958E+03  0.23727593035E+03  0.47000000000E+01 0. -1.
         -5    1    4    4    0  502  0.21149309282E+02  0.42287329414E+01 -0.39896681323E+03  0.39957700575E+03  0.47000000000E+01 0. -1.
          5    1    5    5  503    0  0.33670494817E+02  0.24036362123E+02 -0.38460883707E+02  0.56681377020E+02  0.47000000000E+01 0. -1.
         -5    1    5    5    0  503  0.25097353835E+02 -0.49662278278E+02 -0.36391743003E+03  0.36817686637E+03  0.47000000000E+01 0. -1.
<mgrwt>
<rscale>  0 0.28161692E+03</rscale>
<asrwt>0</asrwt>
<pdfrwt beam="1">  1        2 0.16041478E+00 0.28161692E+03</pdfrwt>
<pdfrwt beam="2">  1       -2 0.29254077E-02 0.28161692E+03</pdfrwt>
<totfact> 0.10859715E+04</totfact>
</mgrwt>
</event>
<event>
 9    1  0.7984035E-001  0.2755288E+03  0.7818608E-02  0.1098156E+00
         -1   -1    0    0    0  501 -0.00000000000E+00  0.00000000000E+00  0.65400299792E+02  0.65400299792E+02  0.00000000000E+00 0.  1.
          1   -1    0    0  501    0  0.00000000000E+00 -0.00000000000E+00 -0.29019800002E+03  0.29019800002E+03  0.00000000000E+00 0.  1.
         35    2    1    2    0    0  0.00000000000E+00 -0.35527136788E-14 -0.22479770023E+03  0.35559829981E+03  0.27552884568E+03 0.  0.
         25    2    3    3    0    0 -0.48455956320E+02 -0.26838572968E+02 -0.10143872644E+03  0.17152951740E+03  0.12674490686E+03 0.  0.
         25    2    3    3    0    0  0.48455956320E+02  0.26838572968E+02 -0.12335897379E+03  0.18406878242E+03  0.12488231078E+03 0.  0.
          5    1    4    4  502    0 -0.28559320438E+02  0.12453483423E+02  0.23282005109E+02  0.39177363300E+02  0.47000000000E+01 0.  1.
         -5    1    4    4    0  502 -0.19896635883E+02 -0.39292056391E+02 -0.12472073155E+03  0.13235215410E+03  0.47000000000E+01 0.  1.
          5    1    5    5  503    0  0.79414584757E+02  0.86952706020E+01 -0.32694402570E+02  0.86448238630E+02  0.47000000000E+01 0. -1.
         -5    1    5    5    0  503 -0.30958628436E+02  0.18143302366E+02 -0.90664571216E+02  0.97620543786E+02  0.47000000000E+01 0. -1.
<mgrwt>
<rscale>  0 0.27552885E+03</rscale>
<asrwt>0</asrwt>
<pdfrwt beam="1">  1        1 0.44645846E-01 0.27552885E+03</pdfrwt>
<pdfrwt beam="2">  1       -1 0.10061585E-01 0.27552885E+03</pdfrwt>
<totfact> 0.54818415E+03</totfact>
</mgrwt>
</event>
<event>
 9    1  0.7984035E-001  0.2760536E+03  0.7818608E-02  0.1097864E+00
          2   -1    0    0  501    0  0.00000000000E+00  0.00000000000E+00  0.12464806943E+03  0.12464806943E+03  0.00000000000E+00 0.  1.
         -2   -1    0    0    0  501 -0.00000000000E+00 -0.00000000000E+00 -0.15284148710E+03  0.15284148710E+03  0.00000000000E+00 0.  1.
         35    2    1    2    0    0  0.00000000000E+00  0.00000000000E+00 -0.28193417672E+02  0.27748955653E+03  0.27605359114E+03 0.  0.
         25    2    3    3    0    0  0.12465728057E+02 -0.28743962700E+02  0.38767172853E+02  0.13209720249E+03  0.12233220119E+03 0.  0.
         25    2    3    3    0    0 -0.12465728057E+02  0.28743962700E+02 -0.66960590524E+02  0.14539235404E+03  0.12519427368E+03 0.  0.
          5    1    4    4  502    0 -0.46982710435E+02 -0.18831369995E+02  0.49208424681E+02  0.70749944419E+02  0.47000000000E+01 0.  1.
         -5    1    4    4    0  502  0.59448438493E+02 -0.99125927053E+01 -0.10441251828E+02  0.61347258073E+02  0.47000000000E+01 0.  1.
          5    1    5    5  503    0 -0.45215281561E+02 -0.85613664182E+01 -0.81273623026E+02  0.93515830111E+02  0.47000000000E+01 0.  1.
         -5    1    5    5    0  503  0.32749553504E+02  0.37305329118E+02  0.14313032501E+02  0.51876523927E+02  0.47000000000E+01 0.  1.
<mgrwt>
<rscale>  0 0.27605359E+03</rscale>
<asrwt>0</asrwt>
<pdfrwt beam="1">  1        2 0.19176626E-01 0.27605359E+03</pdfrwt>
<pdfrwt beam="2">  1       -2 0.23514075E-01 0.27605359E+03</pdfrwt>
<totfact> 0.45916131E+03</totfact>
</mgrwt>
</event>
<event>
 9    1  0.7984035E-001  0.2762990E+03  0.7818608E-02  0.1097728E+00
          1   -1    0    0  501    0  0.00000000000E+00  0.00000000000E+00  0.10129323046E+04  0.10129323046E+04  0.00000000000E+00 0. -1.
         -1   -1    0    0    0  501 -0.00000000000E+00 -0.00000000000E+00 -0.18841620865E+02  0.18841620865E+02  0.00000000000E+00 0. -1.
         35    2    1    2    0    0  0.00000000000E+00  0.00000000000E+00  0.99409068377E+03  0.10317739255E+04  0.27629901517E+03 0.  0.
         25    2    3    3    0    0 -0.17999429233E+02  0.21069116325E+01  0.28965740824E+03  0.31627830822E+03  0.12570654546E+03 0.  0.
         25    2    3    3    0    0  0.17999429233E+02 -0.21069116325E+01  0.70443327553E+03  0.71549561728E+03  0.12401338697E+03 0.  0.
          5    1    4    4  502    0  0.10015008925E+02  0.54711945070E+02  0.20616972565E+03  0.21359246970E+03  0.47000000000E+01 0.  1.
         -5    1    4    4    0  502 -0.28014438158E+02 -0.52605033438E+02  0.83487682590E+02  0.10268583852E+03  0.47000000000E+01 0.  1.
          5    1    5    5  503    0  0.62270099932E+02 -0.31421302836E+02  0.46302734101E+03  0.46827478273E+03  0.47000000000E+01 0. -1.
         -5    1    5    5    0  503 -0.44270670699E+02  0.29314391204E+02  0.24140593452E+03  0.24722083456E+03  0.47000000000E+01 0. -1.
<mgrwt>
<rscale>  0 0.27629902E+03</rscale>
<asrwt>0</asrwt>
<pdfrwt beam="1">  1        1 0.15583570E+00 0.27629902E+03</pdfrwt>
<pdfrwt beam="2">  1       -1 0.28987117E-02 0.27629902E+03</pdfrwt>
<totfact> 0.62031428E+03</totfact>
</mgrwt>
</event>
<event>
 9    1  0.7984035E-001  0.2558293E+03  0.7818608E-02  0.1109675E+00
          1   -1    0    0  501    0  0.00000000000E+00  0.00000000000E+00  0.70810073456E+03  0.70810073456E+03  0.00000000000E+00 0. -1.
         -1   -1    0    0    0  501 -0.00000000000E+00 -0.00000000000E+00 -0.23107104366E+02  0.23107104366E+02  0.00000000000E+00 0. -1.
         35    2    1    2    0    0  0.00000000000E+00  0.17763568394E-14  0.68499363019E+03  0.73120783892E+03  0.25582929914E+03 0.  0.
         25    2    3    3    0    0  0.28249773690E+02 -0.43422828642E+01  0.30471235169E+03  0.32986177155E+03  0.12305391470E+03 0.  0.
         25    2    3    3    0    0 -0.28249773690E+02  0.43422828642E+01  0.38028127850E+03  0.40134606737E+03  0.12509160597E+03 0.  0.
          5    1    4    4  502    0  0.71123937513E+00 -0.47097091935E+02  0.45472957899E+02  0.65639331428E+02  0.47000000000E+01 0. -1.
         -5    1    4    4    0  502  0.27538534315E+02  0.42754809071E+02  0.25923939379E+03  0.26422244012E+03  0.47000000000E+01 0. -1.
          5    1    5    5  503    0  0.41956744142E+02 -0.58699786545E+01  0.62126624120E+02  0.75343430058E+02  0.47000000000E+01 0. -1.
         -5    1    5    5    0  503 -0.70206517832E+02  0.10212261519E+02  0.31815465438E+03  0.32600263731E+03  0.47000000000E+01 0. -1.
<mgrwt>
<rscale>  0 0.25582930E+03</rscale>
<asrwt>0</asrwt>
<pdfrwt beam="1">  1        1 0.10893856E+00 0.25582930E+03</pdfrwt>
<pdfrwt beam="2">  1       -1 0.35549397E-02 0.25582930E+03</pdfrwt>
<totfact> 0.80783176E+03</totfact>
</mgrwt>
</event>
<event>
 9    1  0.7984035E-001  0.2748185E+03  0.7818608E-02  0.1098553E+00
         -3   -1    0    0    0  501 -0.00000000000E+00  0.00000000000E+00  0.78983288808E+02  0.78983288808E+02  0.00000000000E+00 0.  1.
          3   -1    0    0  501    0  0.00000000000E+00 -0.00000000000E+00 -0.23905430440E+03  0.23905430440E+03  0.00000000000E+00 0.  1.
         35    2    1    2    0    0  0.35527136788E-14  0.35527136788E-14 -0.16007101559E+03  0.31803759321E+03  0.27481845037E+03 0.  0.
         25    2    3    3    0    0 -0.26394590115E+02 -0.11396720068E+02 -0.12162505173E+03  0.17676391138E+03  0.12500507007E+03 0.  0.
         25    2    3    3    0    0  0.26394590115E+02  0.11396720068E+02 -0.38445963865E+02  0.14127368183E+03  0.13286685601E+03 0.  0.
          5    1    4    4  502    0 -0.55297341811E+02 -0.15482571644E+01 -0.13277847691E+03  0.14391805669E+03  0.47000000000E+01 0.  1.
         -5    1    4    4    0  502  0.28902751696E+02 -0.98484629037E+01  0.11153425177E+02  0.32845854690E+02  0.47000000000E+01 0.  1.
          5    1    5    5  503    0  0.65348219918E+02  0.48632215849E+02 -0.18863798369E+02  0.83746135157E+02  0.47000000000E+01 0.  1.
         -5    1    5    5    0  503 -0.38953629803E+02 -0.37235495780E+02 -0.19582165496E+02  0.57527546674E+02  0.47000000000E+01 0.  1.
<mgrwt>
<rscale>  0 0.27481845E+03</rscale>
<asrwt>0</asrwt>
<pdfrwt beam="1">  1        3 0.36777585E-01 0.27481845E+03</pdfrwt>
<pdfrwt beam="2">  1       -3 0.12151275E-01 0.27481845E+03</pdfrwt>
<totfact> 0.98807680E+02</totfact>
</mgrwt>
</event>
<event>
 9    1  0.7984035E-001  0.2753951E+03  0.7818608E-02  0.1098231E+00
          2   -1    0    0  501    0  0.00000000000E+00  0.00000000000E+00  0.21527697292E+04  0.21527697292E+04  0.00000000000E+00 0.  1.
         -2   -1    0    0    0  501 -0.00000000000E+00 -0.00000000000E+00 -0.88075417029E+01  0.88075417029E+01  0.00000000000E+00 0.  1.
         35    2    1    2    0    0  0.00000000000E+00 -0.17763568394E-14  0.21439621875E+04  0.21615772709E+04  0.27539505563E+03 0.  0.
         25    2    3    3    0    0  0.26898291585E+02  0.13497915891E+02  0.68763269689E+03  0.69971043228E+03  0.12589778153E+03 0.  0.
         25    2    3    3    0    0 -0.26898291585E+02 -0.13497915891E+02  0.14563294906E+04  0.14618668386E+04  0.12350448094E+03 0.  0.
          5    1    4    4  502    0  0.12022644494E+01  0.37083587083E+02  0.63671908687E+03  0.63781652805E+03  0.47000000000E+01 0.  1.
         -5    1    4    4    0  502  0.25696027135E+02 -0.23585671192E+02  0.50913610017E+02  0.61893904232E+02  0.47000000000E+01 0.  1.
          5    1    5    5  503    0 -0.47739810816E+02 -0.17270219342E+02  0.14076334833E+04  0.14085565176E+04  0.47000000000E+01 0.  1.
         -5    1    5    5    0  503  0.20841519232E+02  0.37723034515E+01  0.48696007278E+02  0.53310320971E+02  0.47000000000E+01 0.  1.
<mgrwt>
<rscale>  0 0.27539506E+03</rscale>
<asrwt>0</asrwt>
<pdfrwt beam="1">  1        2 0.33119492E+00 0.27539506E+03</pdfrwt>
<pdfrwt beam="2">  1       -2 0.13550081E-02 0.27539506E+03</pdfrwt>
<totfact> 0.84461426E+03</totfact>
</mgrwt>
</event>
<event>
 9    1  0.7984035E-001  0.2753537E+03  0.7818608E-02  0.1098254E+00
          2   -1    0    0  501    0  0.00000000000E+00  0.00000000000E+00  0.40716822604E+03  0.40716822604E+03  0.00000000000E+00 0. -1.
         -2   -1    0    0    0  501 -0.00000000000E+00 -0.00000000000E+00 -0.46553034519E+02  0.46553034519E+02  0.00000000000E+00 0. -1.
         35    2    1    2    0    0 -0.71054273576E-14 -0.35527136788E-14  0.36061519153E+03  0.45372126056E+03  0.27535371058E+03 0.  0.
         25    2    3    3    0    0 -0.40194211994E+02 -0.23862520935E+02  0.12719411652E+03  0.18458608025E+03  0.12533428566E+03 0.  0.
         25    2    3    3    0    0  0.40194211994E+02  0.23862520935E+02  0.23342107501E+03  0.26913518032E+03  0.12555219012E+03 0.  0.
          5    1    4    4  502    0  0.40963215609E+02  0.14423928535E+02  0.46726190669E+02  0.63964534250E+02  0.47000000000E+01 0.  1.
         -5    1    4    4    0  502 -0.81157427603E+02 -0.38286449470E+02  0.80467925848E+02  0.12062154600E+03  0.47000000000E+01 0.  1.
          5    1    5    5  503    0  0.69181165005E+02 -0.25042832367E+02  0.10187331350E+03  0.12575149720E+03  0.47000000000E+01 0.  1.
         -5    1    5    5    0  503 -0.28986953011E+02  0.48905353302E+02  0.13154776151E+03  0.14338368312E+03  0.47000000000E+01 0.  1.
<mgrwt>
<rscale>  0 0.27535371E+03</rscale>
<asrwt>0</asrwt>
<pdfrwt beam="1">  1        2 0.62641263E-01 0.27535371E+03</pdfrwt>
<pdfrwt beam="2">  1       -2 0.71620056E-02 0.27535371E+03</pdfrwt>
<totfact> 0.87456518E+03</totfact>
</mgrwt>
</event>
<event>
 9    1  0.7984035E-001  0.2761921E+03  0.7818608E-02  0.1097787E+00
          2   -1    0    0  501    0  0.00000000000E+00  0.00000000000E+00  0.12593185192E+03  0.12593185192E+03  0.00000000000E+00 0.  1.
         -2   -1    0    0    0  501 -0.00000000000E+00 -0.00000000000E+00 -0.15143523709E+03  0.15143523709E+03  0.00000000000E+00 0.  1.
         35    2    1    2    0    0  0.00000000000E+00  0.00000000000E+00 -0.25503385170E+02  0.27736708900E+03  0.27619210598E+03 0.  0.
         25    2    3    3    0    0 -0.40944709884E+02 -0.15396704374E+02 -0.52900467596E+02  0.14268525214E+03  0.12508834452E+03 0.  0.
         25    2    3    3    0    0  0.40944709884E+02  0.15396704374E+02  0.27397082426E+02  0.13468183686E+03  0.12439883151E+03 0.  0.
          5    1    4    4  502    0 -0.58623815740E+02 -0.45694004662E+02  0.51957766138E+01  0.74657751966E+02  0.47000000000E+01 0.  1.
         -5    1    4    4    0  502  0.17679105857E+02  0.30297300289E+02 -0.58096244210E+02  0.68027500175E+02  0.47000000000E+01 0.  1.
          5    1    5    5  503    0  0.26630429985E+02  0.42839565112E+02  0.67127772108E+02  0.84098965085E+02  0.47000000000E+01 0.  1.
         -5    1    5    5    0  503  0.14314279899E+02 -0.27442860739E+02 -0.39730689682E+02  0.50582871777E+02  0.47000000000E+01 0.  1.
<mgrwt>
<rscale>  0 0.27619211E+03</rscale>
<asrwt>0</asrwt>
<pdfrwt beam="1">  1        2 0.19374131E-01 0.27619211E+03</pdfrwt>
<pdfrwt beam="2">  1       -2 0.23297729E-01 0.27619211E+03</pdfrwt>
<totfact> 0.46118052E+03</totfact>
</mgrwt>
</event>
<event>
 9    1  0.7984035E-001  0.2717989E+03  0.7818608E-02  0.1100254E+00
          2   -1    0    0  501    0  0.00000000000E+00  0.00000000000E+00  0.32428282446E+02  0.32428282446E+02  0.00000000000E+00 0. -1.
         -2   -1    0    0    0  501 -0.00000000000E+00 -0.00000000000E+00 -0.56952339063E+03  0.56952339063E+03  0.00000000000E+00 0. -1.
         35    2    1    2    0    0  0.00000000000E+00  0.00000000000E+00 -0.53709510819E+03  0.60195167308E+03  0.27179893577E+03 0.  0.
         25    2    3    3    0    0 -0.22511561260E+02 -0.36229404345E+02 -0.33879510888E+03  0.36355501651E+03  0.12478294794E+03 0.  0.
         25    2    3    3    0    0  0.22511561260E+02  0.36229404345E+02 -0.19829999931E+03  0.23839665657E+03  0.12526266806E+03 0.  0.
          5    1    4    4  502    0 -0.28365396147E+02 -0.32272543767E+02 -0.34820869890E+03  0.35088103507E+03  0.47000000000E+01 0. -1.
         -5    1    4    4    0  502  0.58538348871E+01 -0.39568605781E+01  0.94135900196E+01  0.12673981441E+02  0.47000000000E+01 0. -1.
          5    1    5    5  503    0  0.68806255381E+02  0.41487612022E+02 -0.91981555920E+02  0.12222200849E+03  0.47000000000E+01 0.  1.
         -5    1    5    5    0  503 -0.46294694121E+02 -0.52582076770E+01 -0.10631844339E+03  0.11617464808E+03  0.47000000000E+01 0.  1.
<mgrwt>
<rscale>  0 0.27179894E+03</rscale>
<asrwt>0</asrwt>
<pdfrwt beam="1">  1        2 0.49889665E-02 0.27179894E+03</pdfrwt>
<pdfrwt beam="2">  1       -2 0.87618984E-01 0.27179894E+03</pdfrwt>
<totfact> 0.18282427E+03</totfact>
</mgrwt>
</event>
<event>
 9    1  0.7984035E-001  0.2764224E+03  0.7818608E-02  0.1097659E+00
          1   -1    0    0  501    0  0.00000000000E+00  0.00000000000E+00  0.13221225849E+04  0.13221225849E+04  0.00000000000E+00 0.  1.
         -1   -1    0    0    0  501 -0.00000000000E+00 -0.00000000000E+00 -0.14448229348E+02  0.14448229348E+02  0.00000000000E+00 0.  1.
         35    2    1    2    0    0  0.00000000000E+00  0.00000000000E+00  0.13076743555E+04  0.13365708142E+04  0.27642236040E+03 0.  0.
         25    2    3    3    0    0 -0.32243754595E+02 -0.37810224641E+02  0.50962419209E+03  0.52727072941E+03  0.12581069961E+03 0.  0.
         25    2    3    3    0    0  0.32243754595E+02  0.37810224641E+02  0.79805016346E+03  0.80930008483E+03  0.12495315567E+03 0.  0.
          5    1    4    4  502    0 -0.27513462948E+02  0.34285602530E+02  0.78364671486E+02  0.89975579584E+02  0.47000000000E+01 0. -1.
         -5    1    4    4    0  502 -0.47302916465E+01 -0.72095827172E+02  0.43125952060E+03  0.43729514983E+03  0.47000000000E+01 0. -1.
          5    1    5    5  503    0  0.47481233466E+02 -0.13325434958E+02  0.13021090746E+03  0.13931620570E+03  0.47000000000E+01 0.  1.
         -5    1    5    5    0  503 -0.15237478871E+02  0.51135659599E+02  0.66783925600E+03  0.66998387913E+03  0.47000000000E+01 0.  1.
<mgrwt>
<rscale>  0 0.27642236E+03</rscale>
<asrwt>0</asrwt>
<pdfrwt beam="1">  1        1 0.20340338E+00 0.27642236E+03</pdfrwt>
<pdfrwt beam="2">  1       -1 0.22228056E-02 0.27642236E+03</pdfrwt>
<totfact> 0.55346985E+03</totfact>
</mgrwt>
</event>
<event>
 8    1  0.7984035E-001  0.4130915E+03  0.7818608E-02  0.1039339E+00
         -1   -1    0    0    0  501 -0.00000000000E+00  0.00000000000E+00  0.65331674553E+02  0.65331674553E+02  0.00000000000E+00 0.  1.
          1   -1    0    0  501    0  0.00000000000E+00 -0.00000000000E+00 -0.65299346624E+03  0.65299346624E+03  0.00000000000E+00 0.  1.
         25    2    1    2    0    0 -0.13402548506E+03 -0.66411042391E+02 -0.41211028479E+03  0.45592340736E+03  0.12513196777E+03 0.  0.
         25    2    1    2    0    0  0.13402548506E+03  0.66411042391E+02 -0.17555150690E+03  0.26240173342E+03  0.12515223103E+03 0.  0.
          5    1    3    3  502    0 -0.22666307216E+02 -0.62574712168E+02 -0.25280169648E+03  0.26145772857E+03  0.47000000000E+01 0. -1.
         -5    1    3    3    0  502 -0.11135917785E+03 -0.38363302233E+01 -0.15930858830E+03  0.19446567879E+03  0.47000000000E+01 0. -1.
          5    1    4    4  503    0  0.61499108221E+02  0.56446879169E+02 -0.13730107798E+02  0.84728958096E+02  0.47000000000E+01 0.  1.
         -5    1    4    4    0  503  0.72526376842E+02  0.99641632224E+01 -0.16182139910E+03  0.17767277533E+03  0.47000000000E+01 0.  1.
<mgrwt>
<rscale>  0 0.41309155E+03</rscale>
<asrwt>0</asrwt>
<pdfrwt beam="1">  1        1 0.10046054E+00 0.41309155E+03</pdfrwt>
<pdfrwt beam="2">  1       -1 0.10051026E-01 0.41309155E+03</pdfrwt>
<totfact> 0.18921345E+03</totfact>
</mgrwt>
</event>
<event>
 9    1  0.7984035E-001  0.2768126E+03  0.7818608E-02  0.1097443E+00
         -1   -1    0    0    0  501 -0.00000000000E+00  0.00000000000E+00  0.75896204851E+01  0.75896204851E+01  0.00000000000E+00 0.  1.
          1   -1    0    0  501    0  0.00000000000E+00 -0.00000000000E+00 -0.25240138836E+04  0.25240138836E+04  0.00000000000E+00 0.  1.
         35    2    1    2    0    0 -0.71054273576E-14  0.00000000000E+00 -0.25164242631E+04  0.25316035041E+04  0.27681262598E+03 0.  0.
         25    2    3    3    0    0  0.19253632230E+02  0.25665858338E+02 -0.79541341199E+03  0.80579656536E+03  0.12488462727E+03 0.  0.
         25    2    3    3    0    0 -0.19253632230E+02 -0.25665858338E+02 -0.17210108511E+04  0.17258069387E+04  0.12450623052E+03 0.  0.
          5    1    4    4  502    0  0.67459173372E+02  0.33547221496E+02 -0.37447510248E+03  0.38200765505E+03  0.47000000000E+01 0. -1.
         -5    1    4    4    0  502 -0.48205541142E+02 -0.78813631575E+01 -0.42093830951E+03  0.42378891030E+03  0.47000000000E+01 0. -1.
          5    1    5    5  503    0  0.24394127029E+02 -0.20192516774E+02 -0.15035933158E+04  0.15039340945E+04  0.47000000000E+01 0. -1.
         -5    1    5    5    0  503 -0.43647759259E+02 -0.54733415639E+01 -0.21741753529E+03  0.22187284423E+03  0.47000000000E+01 0. -1.
<mgrwt>
<rscale>  0 0.27681263E+03</rscale>
<asrwt>0</asrwt>
<pdfrwt beam="1">  1        1 0.38831009E+00 0.27681263E+03</pdfrwt>
<pdfrwt beam="2">  1       -1 0.11676331E-02 0.27681263E+03</pdfrwt>
<totfact> 0.22961098E+03</totfact>
</mgrwt>
</event>
<event>
 9    1  0.7984035E-001  0.2698801E+03  0.7818608E-02  0.1101348E+00
         -1   -1    0    0    0  501 -0.00000000000E+00  0.00000000000E+00  0.21046577757E+03  0.21046577757E+03  0.00000000000E+00 0. -1.
          1   -1    0    0  501    0  0.00000000000E+00 -0.00000000000E+00 -0.86516785522E+02  0.86516785522E+02  0.00000000000E+00 0. -1.
         35    2    1    2    0    0 -0.17763568394E-14 -0.71054273576E-14  0.12394899205E+03  0.29698256309E+03  0.26988014034E+03 0.  0.
         25    2    3    3    0    0  0.68137001577E+01 -0.50423539404E+02  0.67423696491E+02  0.15048765580E+03  0.12454565373E+03 0.  0.
         25    2    3    3    0    0 -0.68137001577E+01  0.50423539404E+02  0.56525295558E+02  0.14649490729E+03  0.12520658525E+03 0.  0.
          5    1    4    4  502    0 -0.29880782708E+01 -0.47601950231E+02  0.10277223779E+03  0.11339795914E+03  0.47000000000E+01 0.  1.
         -5    1    4    4    0  502  0.98017784284E+01 -0.28215891723E+01 -0.35348541300E+02  0.37089696653E+02  0.47000000000E+01 0.  1.
          5    1    5    5  503    0  0.11597041254E+02  0.51683440360E+02 -0.27828599137E+02  0.60018249751E+02  0.47000000000E+01 0.  1.
         -5    1    5    5    0  503 -0.18410741412E+02 -0.12599009564E+01  0.84353894694E+02  0.86476657543E+02  0.47000000000E+01 0.  1.
<mgrwt>
<rscale>  0 0.26988014E+03</rscale>
<asrwt>0</asrwt>
<pdfrwt beam="1">  1        1 0.13310275E-01 0.26988014E+03</pdfrwt>
<pdfrwt beam="2">  1       -1 0.32379350E-01 0.26988014E+03</pdfrwt>
<totfact> 0.38880307E+03</totfact>
</mgrwt>
</event>
<event>
 9    1  0.7984035E-001  0.2902634E+03  0.7818608E-02  0.1090212E+00
          1   -1    0    0  501    0  0.00000000000E+00  0.00000000000E+00  0.47990828767E+03  0.47990828767E+03  0.00000000000E+00 0.  1.
         -1   -1    0    0    0  501 -0.00000000000E+00 -0.00000000000E+00 -0.43890063794E+02  0.43890063794E+02  0.00000000000E+00 0.  1.
         35    2    1    2    0    0  0.14210854715E-13 -0.35527136788E-14  0.43601822387E+03  0.52379835146E+03  0.29026336566E+03 0.  0.
         25    2    3    3    0    0  0.42487362565E+02  0.78147019538E+01  0.10898540572E+03  0.17129995049E+03  0.12489839403E+03 0.  0.
         25    2    3    3    0    0 -0.42487362565E+02 -0.78147019538E+01  0.32703281815E+03  0.35249840098E+03  0.12425141044E+03 0.  0.
          5    1    4    4  502    0 -0.35342605576E+02  0.25646701318E+02  0.11887232937E+02  0.45499993014E+02  0.47000000000E+01 0.  1.
         -5    1    4    4    0  502  0.77829968141E+02 -0.17831999365E+02  0.97098172782E+02  0.12579995747E+03  0.47000000000E+01 0.  1.
          5    1    5    5  503    0 -0.82910137907E+02  0.15068697941E+02  0.19611822715E+03  0.21350785851E+03  0.47000000000E+01 0.  1.
         -5    1    5    5    0  503  0.40422775342E+02 -0.22883399895E+02  0.13091459101E+03  0.13899054247E+03  0.47000000000E+01 0.  1.
<mgrwt>
<rscale>  0 0.29026337E+03</rscale>
<asrwt>0</asrwt>
<pdfrwt beam="1">  1        1 0.73832041E-01 0.29026337E+03</pdfrwt>
<pdfrwt beam="2">  1       -1 0.67523178E-02 0.29026337E+03</pdfrwt>
<totfact> 0.53114430E+03</totfact>
</mgrwt>
</event>
<event>
 9    1  0.7984035E-001  0.2887192E+03  0.7818608E-02  0.1091020E+00
          2   -1    0    0  501    0  0.00000000000E+00  0.00000000000E+00  0.38329649749E+03  0.38329649749E+03  0.00000000000E+00 0. -1.
         -2   -1    0    0    0  501 -0.00000000000E+00 -0.00000000000E+00 -0.54369660190E+02  0.54369660190E+02  0.00000000000E+00 0. -1.
         35    2    1    2    0    0  0.71054273576E-14  0.00000000000E+00  0.32892683730E+03  0.43766615768E+03  0.28871924301E+03 0.  0.
         25    2    3    3    0    0  0.41924677816E+02 -0.56791017759E+02  0.16824678280E+03  0.22125830851E+03  0.12516133930E+03 0.  0.
         25    2    3    3    0    0 -0.41924677816E+02  0.56791017759E+02  0.16068005450E+03  0.21640784917E+03  0.12661508188E+03 0.  0.
          5    1    4    4  502    0  0.37468997946E+02 -0.94398987144E+02  0.14315644058E+03  0.17558744562E+03  0.47000000000E+01 0. -1.
         -5    1    4    4    0  502  0.44556798695E+01  0.37607969384E+02  0.25090342218E+02  0.45670862888E+02  0.47000000000E+01 0. -1.
          5    1    5    5  503    0 -0.34707407520E+02  0.95236967897E+02  0.90704843436E+02  0.13610342690E+03  0.47000000000E+01 0. -1.
         -5    1    5    5    0  503 -0.72172702957E+01 -0.38445950137E+02  0.69975211068E+02  0.80304422272E+02  0.47000000000E+01 0. -1.
<mgrwt>
<rscale>  0 0.28871924E+03</rscale>
<asrwt>0</asrwt>
<pdfrwt beam="1">  1        2 0.58968690E-01 0.28871924E+03</pdfrwt>
<pdfrwt beam="2">  1       -2 0.83645633E-02 0.28871924E+03</pdfrwt>
<totfact> 0.73434076E+03</totfact>
</mgrwt>
</event>
<event>
 9    1  0.7984035E-001  0.2745278E+03  0.7818608E-02  0.1098716E+00
         -3   -1    0    0    0  501 -0.00000000000E+00  0.00000000000E+00  0.27010847209E+02  0.27010847209E+02  0.00000000000E+00 0. -1.
          3   -1    0    0  501    0  0.00000000000E+00 -0.00000000000E+00 -0.69754839539E+03  0.69754839539E+03  0.00000000000E+00 0. -1.
         35    2    1    2    0    0 -0.71054273576E-14  0.00000000000E+00 -0.67053754818E+03  0.72455924260E+03  0.27452776274E+03 0.  0.
         25    2    3    3    0    0 -0.11870662398E+02 -0.46043343981E+02 -0.25541308264E+03  0.28836872012E+03  0.12513901794E+03 0.  0.
         25    2    3    3    0    0  0.11870662398E+02  0.46043343981E+02 -0.41512446555E+03  0.43619052248E+03  0.12519164451E+03 0.  0.
          5    1    4    4  502    0  0.32221342934E+02 -0.55536776221E+01 -0.21128344123E+03  0.21385004282E+03  0.47000000000E+01 0. -1.
         -5    1    4    4    0  502 -0.44092005332E+02 -0.40489666359E+02 -0.44129641404E+02  0.74518677300E+02  0.47000000000E+01 0. -1.
          5    1    5    5  503    0 -0.43099083200E+02  0.10289953636E+02 -0.30264270498E+03  0.30590539550E+03  0.47000000000E+01 0.  1.
         -5    1    5    5    0  503  0.54969745598E+02  0.35753390345E+02 -0.11248176057E+03  0.13028512698E+03  0.47000000000E+01 0.  1.
<mgrwt>
<rscale>  0 0.27452776E+03</rscale>
<asrwt>0</asrwt>
<pdfrwt beam="1">  1        3 0.10731515E+00 0.27452776E+03</pdfrwt>
<pdfrwt beam="2">  1       -3 0.41555144E-02 0.27452776E+03</pdfrwt>
<totfact> 0.59752339E+02</totfact>
</mgrwt>
</event>
<event>
 9    1  0.7984035E-001  0.2765946E+03  0.7818608E-02  0.1097564E+00
          2   -1    0    0  501    0  0.00000000000E+00  0.00000000000E+00  0.53519221060E+03  0.53519221060E+03  0.00000000000E+00 0. -1.
         -2   -1    0    0    0  501 -0.00000000000E+00 -0.00000000000E+00 -0.35736971267E+02  0.35736971267E+02  0.00000000000E+00 0. -1.
         35    2    1    2    0    0  0.71054273576E-14  0.14210854715E-13  0.49945523933E+03  0.57092918187E+03  0.27659463952E+03 0.  0.
         25    2    3    3    0    0  0.28976546881E+02  0.50029256833E+02  0.28391468851E+03  0.31546513233E+03  0.12477232287E+03 0.  0.
         25    2    3    3    0    0 -0.28976546881E+02 -0.50029256833E+02  0.21554055082E+03  0.25546404954E+03  0.12434462091E+03 0.  0.
          5    1    4    4  502    0  0.59167585158E+02 -0.18348847923E+02  0.11549112010E+03  0.13114027671E+03  0.47000000000E+01 0.  1.
         -5    1    4    4    0  502 -0.30191038278E+02  0.68378104756E+02  0.16842356841E+03  0.18432485562E+03  0.47000000000E+01 0.  1.
          5    1    5    5  503    0 -0.30491192660E+01  0.41267349375E+02  0.56340202207E+02  0.70061399054E+02  0.47000000000E+01 0. -1.
         -5    1    5    5    0  503 -0.25927427615E+02 -0.91296606208E+02  0.15920034861E+03  0.18540265048E+03  0.47000000000E+01 0. -1.
<mgrwt>
<rscale>  0 0.27659464E+03</rscale>
<asrwt>0</asrwt>
<pdfrwt beam="1">  1        2 0.82337257E-01 0.27659464E+03</pdfrwt>
<pdfrwt beam="2">  1       -2 0.54979960E-02 0.27659464E+03</pdfrwt>
<totfact> 0.97041876E+03</totfact>
</mgrwt>
</event>
<event>
 9    1  0.7984035E-001  0.2750004E+03  0.7818608E-02  0.1098451E+00
         -2   -1    0    0    0  501 -0.00000000000E+00  0.00000000000E+00  0.10020527767E+02  0.10020527767E+02  0.00000000000E+00 0.  1.
          2   -1    0    0  501    0  0.00000000000E+00 -0.00000000000E+00 -0.18867576089E+04  0.18867576089E+04  0.00000000000E+00 0.  1.
         35    2    1    2    0    0  0.00000000000E+00 -0.71054273576E-14 -0.18767370811E+04  0.18967781366E+04  0.27500041462E+03 0.  0.
         25    2    3    3    0    0  0.21873327775E+02 -0.34318718777E+02 -0.64489160453E+03  0.65797976757E+03  0.12408052227E+03 0.  0.
         25    2    3    3    0    0 -0.21873327775E+02  0.34318718777E+02 -0.12318454766E+04  0.12387983691E+04  0.12458693405E+03 0.  0.
          5    1    4    4  502    0  0.31807530385E+01 -0.31588720481E+02 -0.63559897934E+03  0.63640876564E+03  0.47000000000E+01 0.  1.
         -5    1    4    4    0  502  0.18692574737E+02 -0.27299982967E+01 -0.92926251922E+01  0.21571001923E+02  0.47000000000E+01 0.  1.
          5    1    5    5  503    0  0.11430415812E+00 -0.32731605283E+02 -0.83811936100E+03  0.83877143749E+03  0.47000000000E+01 0.  1.
         -5    1    5    5    0  503 -0.21987631933E+02  0.67050324061E+02 -0.39372611557E+03  0.40002693159E+03  0.47000000000E+01 0.  1.
<mgrwt>
<rscale>  0 0.27500041E+03</rscale>
<asrwt>0</asrwt>
<pdfrwt beam="1">  1        2 0.29026996E+00 0.27500041E+03</pdfrwt>
<pdfrwt beam="2">  1       -2 0.15416220E-02 0.27500041E+03</pdfrwt>
<totfact> 0.96580512E+03</totfact>
</mgrwt>
</event>
<event>
 9    1  0.7984035E-001  0.2724662E+03  0.7818608E-02  0.1099876E+00
         -1   -1    0    0    0  501 -0.00000000000E+00  0.00000000000E+00  0.82851780968E+01  0.82851780968E+01  0.00000000000E+00 0. -1.
          1   -1    0    0  501    0  0.00000000000E+00 -0.00000000000E+00 -0.22400795188E+04  0.22400795188E+04  0.00000000000E+00 0. -1.
         35    2    1    2    0    0  0.14210854715E-13  0.00000000000E+00 -0.22317943407E+04  0.22483646969E+04  0.27246620168E+03 0.  0.
         25    2    3    3    0    0  0.35976805474E+02 -0.39439066921E+02 -0.11219603000E+04  0.11301591172E+04  0.12495977286E+03 0.  0.
         25    2    3    3    0    0 -0.35976805474E+02  0.39439066921E+02 -0.11098340407E+04  0.11182055797E+04  0.12570739866E+03 0.  0.
          5    1    4    4  502    0  0.82175116026E+02 -0.30591640043E+02 -0.78587202578E+03  0.79076262496E+03  0.47000000000E+01 0.  1.
         -5    1    4    4    0  502 -0.46198310552E+02 -0.88474268778E+01 -0.33608827421E+03  0.33939649221E+03  0.47000000000E+01 0.  1.
          5    1    5    5  503    0 -0.75046256300E+02 -0.34366712331E+01 -0.74032029840E+03  0.74413707441E+03  0.47000000000E+01 0. -1.
         -5    1    5    5    0  503  0.39069450826E+02  0.42875738154E+02 -0.36951374233E+03  0.37406850534E+03  0.47000000000E+01 0. -1.
<mgrwt>
<rscale>  0 0.27246620E+03</rscale>
<asrwt>0</asrwt>
<pdfrwt beam="1">  1        1 0.34462761E+00 0.27246620E+03</pdfrwt>
<pdfrwt beam="2">  1       -1 0.12746428E-02 0.27246620E+03</pdfrwt>
<totfact> 0.31129177E+03</totfact>
</mgrwt>
</event>
<event>
 9    1  0.7984035E-001  0.2767667E+03  0.7818608E-02  0.1097468E+00
          2   -1    0    0  501    0  0.00000000000E+00  0.00000000000E+00  0.28596664357E+03  0.28596664357E+03  0.00000000000E+00 0. -1.
         -2   -1    0    0    0  501 -0.00000000000E+00 -0.00000000000E+00 -0.66965673795E+02  0.66965673795E+02  0.00000000000E+00 0. -1.
         35    2    1    2    0    0 -0.71054273576E-14 -0.17763568394E-14  0.21900096977E+03  0.35293231736E+03  0.27676668130E+03 0.  0.
         25    2    3    3    0    0  0.34555081234E+02  0.44512635633E+01  0.17328242836E+03  0.21666667741E+03  0.12531473072E+03 0.  0.
         25    2    3    3    0    0 -0.34555081234E+02 -0.44512635633E+01  0.45718541414E+02  0.13626563995E+03  0.12354866335E+03 0.  0.
          5    1    4    4  502    0 -0.43973940998E+02  0.78737972493E+01  0.97638693271E+02  0.10747608382E+03  0.47000000000E+01 0. -1.
         -5    1    4    4    0  502  0.78529022232E+02 -0.34225336861E+01  0.75643735086E+02  0.10919059358E+03  0.47000000000E+01 0. -1.
          5    1    5    5  503    0 -0.32208527143E+02 -0.59255200883E+02  0.44985503655E+02  0.81205625369E+02  0.47000000000E+01 0. -1.
         -5    1    5    5    0  503 -0.23465540909E+01  0.54803937319E+02  0.73303775883E+00  0.55060014586E+02  0.47000000000E+01 0. -1.
<mgrwt>
<rscale>  0 0.27676668E+03</rscale>
<asrwt>0</asrwt>
<pdfrwt beam="1">  1        2 0.43994868E-01 0.27676668E+03</pdfrwt>
<pdfrwt beam="2">  1       -2 0.10302411E-01 0.27676668E+03</pdfrwt>
<totfact> 0.72351588E+03</totfact>
</mgrwt>
</event>
<event>
 9    1  0.7984035E-001  0.2618061E+03  0.7818608E-02  0.1106063E+00
          1   -1    0    0  501    0  0.00000000000E+00  0.00000000000E+00  0.21405710541E+03  0.21405710541E+03  0.00000000000E+00 0. -1.
         -1   -1    0    0    0  501 -0.00000000000E+00 -0.00000000000E+00 -0.80051577698E+02  0.80051577698E+02  0.00000000000E+00 0. -1.
         35    2    1    2    0    0 -0.71054273576E-14 -0.14210854715E-13  0.13400552771E+03  0.29410868310E+03  0.26180610387E+03 0.  0.
         25    2    3    3    0    0  0.25161621580E+02  0.34676941946E+02  0.45722505328E+02  0.13369395672E+03  0.11810135083E+03 0.  0.
         25    2    3    3    0    0 -0.25161621580E+02 -0.34676941946E+02  0.88283022379E+02  0.16041472638E+03  0.12689915246E+03 0.  0.
          5    1    4    4  502    0 -0.10353843318E+02  0.48559068941E+02 -0.23030975529E+02  0.54933606123E+02  0.47000000000E+01 0.  1.
         -5    1    4    4    0  502  0.35515464898E+02 -0.13882126995E+02  0.68753480857E+02  0.78760350601E+02  0.47000000000E+01 0.  1.
          5    1    5    5  503    0 -0.48608171190E+02 -0.72995964498E+02  0.67107468182E+02  0.11052903431E+03  0.47000000000E+01 0. -1.
         -5    1    5    5    0  503  0.23446549610E+02  0.38319022552E+02  0.21175554198E+02  0.49885692072E+02  0.47000000000E+01 0. -1.
<mgrwt>
<rscale>  0 0.26180610E+03</rscale>
<asrwt>0</asrwt>
<pdfrwt beam="1">  1        1 0.32931862E-01 0.26180610E+03</pdfrwt>
<pdfrwt beam="2">  1       -1 0.12315627E-01 0.26180610E+03</pdfrwt>
<totfact> 0.58558202E+03</totfact>
</mgrwt>
</event>
<event>
 9    1  0.7984035E-001  0.2771769E+03  0.7818608E-02  0.1097241E+00
         -2   -1    0    0    0  501 -0.00000000000E+00  0.00000000000E+00  0.16742660955E+02  0.16742660955E+02  0.00000000000E+00 0. -1.
          2   -1    0    0  501    0  0.00000000000E+00 -0.00000000000E+00 -0.11471751615E+04  0.11471751615E+04  0.00000000000E+00 0. -1.
         35    2    1    2    0    0  0.17763568394E-14  0.71054273576E-14 -0.11304325005E+04  0.11639178225E+04  0.27717694554E+03 0.  0.
         25    2    3    3    0    0  0.17432598907E+01  0.40132860803E+02 -0.38509777643E+03  0.40688886286E+03  0.12507823085E+03 0.  0.
         25    2    3    3    0    0 -0.17432598907E+01 -0.40132860803E+02 -0.74533472411E+03  0.75702895959E+03  0.12631432709E+03 0.  0.
          5    1    4    4  502    0 -0.41674101519E+02 -0.25412772917E+02 -0.19606363942E+03  0.20210289574E+03  0.47000000000E+01 0. -1.
         -5    1    4    4    0  502  0.43417361410E+02  0.65545633719E+02 -0.18903413702E+03  0.20478596712E+03  0.47000000000E+01 0. -1.
          5    1    5    5  503    0  0.14433527892E+02  0.43083001308E+02 -0.32605123318E+03  0.32923543003E+03  0.47000000000E+01 0.  1.
         -5    1    5    5    0  503 -0.16176787782E+02 -0.83215862111E+02 -0.41928349093E+03  0.42779352956E+03  0.47000000000E+01 0.  1.
<mgrwt>
<rscale>  0 0.27717695E+03</rscale>
<asrwt>0</asrwt>
<pdfrwt beam="1">  1        2 0.17648849E+00 0.27717695E+03</pdfrwt>
<pdfrwt beam="2">  1       -2 0.25757940E-02 0.27717695E+03</pdfrwt>
<totfact> 0.11379658E+04</totfact>
</mgrwt>
</event>
<event>
 9    1  0.7984035E-001  0.2728730E+03  0.7818608E-02  0.1099646E+00
          1   -1    0    0  501    0  0.00000000000E+00  0.00000000000E+00  0.23625553966E+04  0.23625553966E+04  0.00000000000E+00 0. -1.
         -1   -1    0    0    0  501 -0.00000000000E+00 -0.00000000000E+00 -0.78791453773E+01  0.78791453773E+01  0.00000000000E+00 0. -1.
         35    2    1    2    0    0  0.71054273576E-14 -0.71054273576E-14  0.23546762513E+04  0.23704345420E+04  0.27287299194E+03 0.  0.
         25    2    3    3    0    0 -0.34349627839E+02  0.36857475160E+02  0.14056182276E+04  0.14120034305E+04  0.12430895186E+03 0.  0.
         25    2    3    3    0    0  0.34349627839E+02 -0.36857475160E+02  0.94905802362E+03  0.95843111149E+03  0.12385755075E+03 0.  0.
          5    1    4    4  502    0 -0.30808959738E+02  0.24606913751E+01  0.79496804663E+02  0.85422941613E+02  0.47000000000E+01 0.  1.
         -5    1    4    4    0  502 -0.35406681006E+01  0.34396783785E+02  0.13261214230E+04  0.13265804889E+04  0.47000000000E+01 0.  1.
          5    1    5    5  503    0 -0.43803168437E+02 -0.28644651325E+02  0.47271299198E+03  0.47562474326E+03  0.47000000000E+01 0.  1.
         -5    1    5    5    0  503  0.78152796276E+02 -0.82128238353E+01  0.47634503164E+03  0.48280636824E+03  0.47000000000E+01 0.  1.
<mgrwt>
<rscale>  0 0.27287299E+03</rscale>
<asrwt>0</asrwt>
<pdfrwt beam="1">  1        1 0.36346950E+00 0.27287299E+03</pdfrwt>
<pdfrwt beam="2">  1       -1 0.12121781E-02 0.27287299E+03</pdfrwt>
<totfact> 0.27826427E+03</totfact>
</mgrwt>
</event>
<event>
 9    1  0.7984035E-001  0.2765480E+03  0.7818608E-02  0.1097589E+00
          2   -1    0    0  501    0  0.00000000000E+00  0.00000000000E+00  0.14474071470E+04  0.14474071470E+04  0.00000000000E+00 0. -1.
         -2   -1    0    0    0  501 -0.00000000000E+00 -0.00000000000E+00 -0.13209622769E+02  0.13209622769E+02  0.00000000000E+00 0. -1.
         35    2    1    2    0    0  0.71054273576E-14  0.00000000000E+00  0.14341975243E+04  0.14606167698E+04  0.27654802408E+03 0.  0.
         25    2    3    3    0    0 -0.45322340180E+02 -0.35456930666E+02  0.68110799466E+03  0.69495306937E+03  0.12546059057E+03 0.  0.
         25    2    3    3    0    0  0.45322340180E+02  0.35456930666E+02  0.75308952960E+03  0.76566370043E+03  0.12564137100E+03 0.  0.
          5    1    4    4  502    0 -0.22344274278E+02  0.20709047860E+02  0.37816073333E+02  0.48788079063E+02  0.47000000000E+01 0.  1.
         -5    1    4    4    0  502 -0.22978065902E+02 -0.56165978526E+02  0.64329192133E+03  0.64616499031E+03  0.47000000000E+01 0.  1.
          5    1    5    5  503    0 -0.28738687748E+02  0.41328891931E+02  0.15689542878E+03  0.16484008934E+03  0.47000000000E+01 0. -1.
         -5    1    5    5    0  503  0.74061027928E+02 -0.58719612650E+01  0.59619410082E+03  0.60082361109E+03  0.47000000000E+01 0. -1.
<mgrwt>
<rscale>  0 0.27654802E+03</rscale>
<asrwt>0</asrwt>
<pdfrwt beam="1">  1        2 0.22267790E+00 0.27654802E+03</pdfrwt>
<pdfrwt beam="2">  1       -2 0.20322508E-02 0.27654802E+03</pdfrwt>
<totfact> 0.10996728E+04</totfact>
</mgrwt>
</event>
<event>
 9    1  0.7984035E-001  0.2779298E+03  0.7818608E-02  0.1096825E+00
         -1   -1    0    0    0  501 -0.00000000000E+00  0.00000000000E+00  0.14425081244E+02  0.14425081244E+02  0.00000000000E+00 0.  1.
          1   -1    0    0  501    0  0.00000000000E+00 -0.00000000000E+00 -0.13387263601E+04  0.13387263601E+04  0.00000000000E+00 0.  1.
         35    2    1    2    0    0  0.00000000000E+00 -0.71054273576E-14 -0.13243012788E+04  0.13531514413E+04  0.27792975017E+03 0.  0.
         25    2    3    3    0    0 -0.34193685756E+02  0.29486425892E+02 -0.85596741855E+03  0.86623337673E+03  0.12506551843E+03 0.  0.
         25    2    3    3    0    0  0.34193685756E+02 -0.29486425892E+02 -0.46833386026E+03  0.48691806456E+03  0.12535525306E+03 0.  0.
          5    1    4    4  502    0  0.22444685481E+02 -0.38055226108E+02 -0.31292523980E+03  0.31606369587E+03  0.47000000000E+01 0.  1.
         -5    1    4    4    0  502 -0.56638371236E+02  0.67541652000E+02 -0.54304217874E+03  0.55016968087E+03  0.47000000000E+01 0.  1.
          5    1    5    5  503    0 -0.32148587922E+02 -0.46375414208E+02 -0.13162114149E+03  0.14328442217E+03  0.47000000000E+01 0.  1.
         -5    1    5    5    0  503  0.66342273677E+02  0.16888988316E+02 -0.33671271877E+03  0.34363364239E+03  0.47000000000E+01 0.  1.
<mgrwt>
<rscale>  0 0.27792975E+03</rscale>
<asrwt>0</asrwt>
<pdfrwt beam="1">  1        1 0.20595799E+00 0.27792975E+03</pdfrwt>
<pdfrwt beam="2">  1       -1 0.22192423E-02 0.27792975E+03</pdfrwt>
<totfact> 0.54057193E+03</totfact>
</mgrwt>
</event>
<event>
 9    1  0.7984035E-001  0.2634432E+03  0.7818608E-02  0.1105092E+00
         -2   -1    0    0    0  501 -0.00000000000E+00  0.00000000000E+00  0.11077862026E+03  0.11077862026E+03  0.00000000000E+00 0.  1.
          2   -1    0    0  501    0  0.00000000000E+00 -0.00000000000E+00 -0.15662387594E+03  0.15662387594E+03  0.00000000000E+00 0.  1.
         35    2    1    2    0    0  0.71054273576E-14  0.35527136788E-14 -0.45845255683E+02  0.26740249621E+03  0.26344317700E+03 0.  0.
         25    2    3    3    0    0  0.97138961766E+01  0.14525740277E+01  0.16209153988E+02  0.12646743117E+03  0.12503921275E+03 0.  0.
         25    2    3    3    0    0 -0.97138961766E+01 -0.14525740277E+01 -0.62054409671E+02  0.14093506503E+03  0.12615654183E+03 0.  0.
          5    1    4    4  502    0  0.14813772430E+02 -0.13848936489E+02 -0.52109480022E+02  0.56113534942E+02  0.47000000000E+01 0. -1.
         -5    1    4    4    0  502 -0.50998762534E+01  0.15301510517E+02  0.68318634010E+02  0.70353896231E+02  0.47000000000E+01 0. -1.
          5    1    5    5  503    0  0.33571615929E+02 -0.38811886253E+02 -0.65640878518E+02  0.83451967282E+02  0.47000000000E+01 0.  1.
         -5    1    5    5    0  503 -0.43285512106E+02  0.37359312226E+02  0.35864688467E+01  0.57483097751E+02  0.47000000000E+01 0.  1.
<mgrwt>
<rscale>  0 0.26344318E+03</rscale>
<asrwt>0</asrwt>
<pdfrwt beam="1">  1        2 0.24095981E-01 0.26344318E+03</pdfrwt>
<pdfrwt beam="2">  1       -2 0.17042865E-01 0.26344318E+03</pdfrwt>
<totfact> 0.61341223E+03</totfact>
</mgrwt>
</event>
<event>
 9    1  0.7984035E-001  0.2769488E+03  0.7818608E-02  0.1097367E+00
         -2   -1    0    0    0  501 -0.00000000000E+00  0.00000000000E+00  0.27270315499E+02  0.27270315499E+02  0.00000000000E+00 0. -1.
          2   -1    0    0  501    0  0.00000000000E+00 -0.00000000000E+00 -0.70315154021E+03  0.70315154021E+03  0.00000000000E+00 0. -1.
         35    2    1    2    0    0  0.00000000000E+00  0.00000000000E+00 -0.67588122471E+03  0.73042185570E+03  0.27694883531E+03 0.  0.
         25    2    3    3    0    0 -0.14886729173E+01  0.55014438946E+02 -0.27643141836E+03  0.30795657020E+03  0.12407302459E+03 0.  0.
         25    2    3    3    0    0  0.14886729173E+01 -0.55014438946E+02 -0.39944980634E+03  0.42246528551E+03  0.12604747134E+03 0.  0.
          5    1    4    4  502    0  0.20984904290E+02 -0.19319690461E+02 -0.10303402152E+02  0.30689847563E+02  0.47000000000E+01 0.  1.
         -5    1    4    4    0  502 -0.22473577207E+02  0.74334129408E+02 -0.26612801621E+03  0.27726672263E+03  0.47000000000E+01 0.  1.
          5    1    5    5  503    0 -0.38933565585E+02 -0.79999821346E+02 -0.27962427175E+03  0.29347507100E+03  0.47000000000E+01 0. -1.
         -5    1    5    5    0  503  0.40422238503E+02  0.24985382400E+02 -0.11982553459E+03  0.12899021451E+03  0.47000000000E+01 0. -1.
<mgrwt>
<rscale>  0 0.27694884E+03</rscale>
<asrwt>0</asrwt>
<pdfrwt beam="1">  1        2 0.10817715E+00 0.27694884E+03</pdfrwt>
<pdfrwt beam="2">  1       -2 0.41954335E-02 0.27694884E+03</pdfrwt>
<totfact> 0.10626889E+04</totfact>
</mgrwt>
</event>
<event>
 9    1  0.7984035E-001  0.2764543E+03  0.7818608E-02  0.1097641E+00
          2   -1    0    0  501    0  0.00000000000E+00  0.00000000000E+00  0.23889394043E+03  0.23889394043E+03  0.00000000000E+00 0.  1.
         -2   -1    0    0    0  501 -0.00000000000E+00 -0.00000000000E+00 -0.79980013626E+02  0.79980013626E+02  0.00000000000E+00 0.  1.
         35    2    1    2    0    0  0.00000000000E+00  0.71054273576E-14  0.15891392680E+03  0.31887395405E+03  0.27645426827E+03 0.  0.
         25    2    3    3    0    0  0.75927461900E+01 -0.59381040975E+02  0.82718936407E+02  0.16128870823E+03  0.12485138021E+03 0.  0.
         25    2    3    3    0    0 -0.75927461900E+01  0.59381040975E+02  0.76194990395E+02  0.15758524582E+03  0.12427258474E+03 0.  0.
          5    1    4    4  502    0  0.42524043895E+02 -0.26692345579E+02  0.98529789933E+02  0.11068416836E+03  0.47000000000E+01 0. -1.
         -5    1    4    4    0  502 -0.34931297705E+02 -0.32688695396E+02 -0.15810853527E+02  0.50604539868E+02  0.47000000000E+01 0. -1.
          5    1    5    5  503    0  0.10085365413E+02  0.67223602928E+02  0.10342756656E+03  0.12385507220E+03  0.47000000000E+01 0.  1.
         -5    1    5    5    0  503 -0.17678111603E+02 -0.78425619537E+01 -0.27232576164E+02  0.33730173619E+02  0.47000000000E+01 0.  1.
<mgrwt>
<rscale>  0 0.27645427E+03</rscale>
<asrwt>0</asrwt>
<pdfrwt beam="1">  1        2 0.36752914E-01 0.27645427E+03</pdfrwt>
<pdfrwt beam="2">  1       -2 0.12304618E-01 0.27645427E+03</pdfrwt>
<totfact> 0.66042782E+03</totfact>
</mgrwt>
</event>
<event>
 9    1  0.7984035E-001  0.3034986E+03  0.7818608E-02  0.1083505E+00
          3   -1    0    0  501    0  0.00000000000E+00  0.00000000000E+00  0.31113021133E+02  0.31113021133E+02  0.00000000000E+00 0. -1.
         -3   -1    0    0    0  501 -0.00000000000E+00 -0.00000000000E+00 -0.74013525290E+03  0.74013525290E+03  0.00000000000E+00 0. -1.
         35    2    1    2    0    0  0.00000000000E+00  0.00000000000E+00 -0.70902223177E+03  0.77124827403E+03  0.30349855858E+03 0.  0.
         25    2    3    3    0    0  0.39874115526E+02  0.57854821535E+02 -0.51502803481E+03  0.53452737597E+03  0.12461345655E+03 0.  0.
         25    2    3    3    0    0 -0.39874115526E+02 -0.57854821535E+02 -0.19399419696E+03  0.23672089807E+03  0.11604270621E+03 0.  0.
          5    1    4    4  502    0 -0.38167327801E+02  0.47747976238E+02 -0.27989772032E+03  0.28653348493E+03  0.47000000000E+01 0. -1.
         -5    1    4    4    0  502  0.78041443327E+02  0.10106845297E+02 -0.23513031450E+03  0.24799389104E+03  0.47000000000E+01 0. -1.
          5    1    5    5  503    0 -0.42886654802E+02 -0.91656423708E+02 -0.14876027458E+03  0.17997742764E+03  0.47000000000E+01 0.  1.
         -5    1    5    5    0  503  0.30125392759E+01  0.33801602173E+02 -0.45233922377E+02  0.56743470425E+02  0.47000000000E+01 0.  1.
<mgrwt>
<rscale>  0 0.30349856E+03</rscale>
<asrwt>0</asrwt>
<pdfrwt beam="1">  1        3 0.47866188E-02 0.30349856E+03</pdfrwt>
<pdfrwt beam="2">  1       -3 0.11386696E+00 0.30349856E+03</pdfrwt>
<totfact> 0.41800391E+02</totfact>
</mgrwt>
</event>
<event>
 9    1  0.7984035E-001  0.2751647E+03  0.7818608E-02  0.1098360E+00
         -2   -1    0    0    0  501 -0.00000000000E+00  0.00000000000E+00  0.12516764490E+02  0.12516764490E+02  0.00000000000E+00 0.  1.
          2   -1    0    0  501    0  0.00000000000E+00 -0.00000000000E+00 -0.15122843429E+04  0.15122843429E+04  0.00000000000E+00 0.  1.
         35    2    1    2    0    0  0.00000000000E+00  0.71054273576E-14 -0.14997675784E+04  0.15248011074E+04  0.27516472857E+03 0.  0.
         25    2    3    3    0    0  0.30242215546E+02 -0.50072190468E+02 -0.74448546565E+03  0.75701559137E+03  0.12406522945E+03 0.  0.
         25    2    3    3    0    0 -0.30242215546E+02  0.50072190468E+02 -0.75528211277E+03  0.76778551603E+03  0.12498685088E+03 0.  0.
          5    1    4    4  502    0 -0.26871113288E+02 -0.20904875911E+01 -0.51372284169E+03  0.51445084794E+03  0.47000000000E+01 0. -1.
         -5    1    4    4    0  502  0.57113328834E+02 -0.47981702877E+02 -0.23076262395E+03  0.24256474343E+03  0.47000000000E+01 0. -1.
          5    1    5    5  503    0 -0.27347472349E+02  0.60067265079E+02 -0.75329564199E+03  0.75619598969E+03  0.47000000000E+01 0. -1.
         -5    1    5    5    0  503 -0.28947431963E+01 -0.99950746111E+01 -0.19864707812E+01  0.11589526341E+02  0.47000000000E+01 0. -1.
<mgrwt>
<rscale>  0 0.27516473E+03</rscale>
<asrwt>0</asrwt>
<pdfrwt beam="1">  1        2 0.23265918E+00 0.27516473E+03</pdfrwt>
<pdfrwt beam="2">  1       -2 0.19256556E-02 0.27516473E+03</pdfrwt>
<totfact> 0.10985314E+04</totfact>
</mgrwt>
</event>
<event>
 9    1  0.7984035E-001  0.2766306E+03  0.7818608E-02  0.1097544E+00
          2   -1    0    0  501    0  0.00000000000E+00  0.00000000000E+00  0.11984038167E+03  0.11984038167E+03  0.00000000000E+00 0.  1.
         -2   -1    0    0    0  501 -0.00000000000E+00 -0.00000000000E+00 -0.15963834115E+03  0.15963834115E+03  0.00000000000E+00 0.  1.
         35    2    1    2    0    0  0.00000000000E+00  0.71054273576E-14 -0.39797959478E+02  0.27947872283E+03  0.27663058206E+03 0.  0.
         25    2    3    3    0    0 -0.25131331942E+02 -0.35407638850E+02  0.19487300809E+02  0.13445424198E+03  0.12574936803E+03 0.  0.
         25    2    3    3    0    0  0.25131331942E+02  0.35407638850E+02 -0.59285260287E+02  0.14502448084E+03  0.12502828969E+03 0.  0.
          5    1    4    4  502    0 -0.21553222340E+02 -0.82578776612E+02  0.11390183561E+02  0.86230052890E+02  0.47000000000E+01 0.  1.
         -5    1    4    4    0  502 -0.35781096022E+01  0.47171137761E+02  0.80971172487E+01  0.48224189094E+02  0.47000000000E+01 0.  1.
          5    1    5    5  503    0 -0.27612125277E+02 -0.24394764216E+02  0.10882971223E+02  0.38704819417E+02  0.47000000000E+01 0.  1.
         -5    1    5    5    0  503  0.52743457220E+02  0.59802403067E+02 -0.70168231510E+02  0.10631966142E+03  0.47000000000E+01 0.  1.
<mgrwt>
<rscale>  0 0.27663058E+03</rscale>
<asrwt>0</asrwt>
<pdfrwt beam="1">  1        2 0.18436982E-01 0.27663058E+03</pdfrwt>
<pdfrwt beam="2">  1       -2 0.24559745E-01 0.27663058E+03</pdfrwt>
<totfact> 0.44519753E+03</totfact>
</mgrwt>
</event>
<event>
 9    1  0.7984035E-001  0.2771127E+03  0.7818608E-02  0.1097276E+00
          2   -1    0    0  501    0  0.00000000000E+00  0.00000000000E+00  0.32227061156E+04  0.32227061156E+04  0.00000000000E+00 0.  1.
         -2   -1    0    0    0  501 -0.00000000000E+00 -0.00000000000E+00 -0.59570614245E+01  0.59570614245E+01  0.00000000000E+00 0.  1.
         35    2    1    2    0    0  0.00000000000E+00  0.00000000000E+00  0.32167490542E+04  0.32286631770E+04  0.27711267227E+03 0.  0.
         25    2    3    3    0    0 -0.25979151981E+02 -0.36106499167E+02  0.12334770689E+04  0.12406132377E+04  0.12520754898E+03 0.  0.
         25    2    3    3    0    0  0.25979151981E+02  0.36106499167E+02  0.19832719852E+04  0.19880499393E+04  0.13036946817E+03 0.  0.
          5    1    4    4  502    0 -0.36097131711E+02  0.38859988089E+02  0.66093194760E+03  0.66307332245E+03  0.47000000000E+01 0.  1.
         -5    1    4    4    0  502  0.10117979731E+02 -0.74966487256E+02  0.57254512132E+03  0.57753991522E+03  0.47000000000E+01 0.  1.
          5    1    5    5  503    0  0.87962835542E+01  0.99971965412E+01  0.18799144509E+04  0.18799674868E+04  0.47000000000E+01 0. -1.
         -5    1    5    5    0  503  0.17182868427E+02  0.26109302626E+02  0.10335753430E+03  0.10808245254E+03  0.47000000000E+01 0. -1.
<mgrwt>
<rscale>  0 0.27711267E+03</rscale>
<asrwt>0</asrwt>
<pdfrwt beam="1">  1        2 0.49579955E+00 0.27711267E+03</pdfrwt>
<pdfrwt beam="2">  1       -2 0.91647356E-03 0.27711267E+03</pdfrwt>
<totfact> 0.36942349E+03</totfact>
</mgrwt>
</event>
<event>
 9    1  0.7984035E-001  0.2762515E+03  0.7818608E-02  0.1097754E+00
         -1   -1    0    0    0  501 -0.00000000000E+00  0.00000000000E+00  0.42688856575E+02  0.42688856575E+02  0.00000000000E+00 0.  1.
          1   -1    0    0  501    0  0.00000000000E+00 -0.00000000000E+00 -0.44692505855E+03  0.44692505855E+03  0.00000000000E+00 0.  1.
         35    2    1    2    0    0  0.71054273576E-14  0.00000000000E+00 -0.40423620198E+03  0.48961391513E+03  0.27625147764E+03 0.  0.
         25    2    3    3    0    0 -0.35015749553E+02 -0.46380891464E+02 -0.20848811363E+03  0.24999300895E+03  0.12510763842E+03 0.  0.
         25    2    3    3    0    0  0.35015749553E+02  0.46380891464E+02 -0.19574808834E+03  0.23962090617E+03  0.12539367917E+03 0.  0.
          5    1    4    4  502    0  0.35335208901E+02 -0.38570326507E+02 -0.36523761184E+02  0.63971260781E+02  0.47000000000E+01 0.  1.
         -5    1    4    4    0  502 -0.70350958454E+02 -0.78105649571E+01 -0.17196435245E+03  0.18602174817E+03  0.47000000000E+01 0.  1.
          5    1    5    5  503    0 -0.12445478185E+02  0.35773899129E+02 -0.18590253373E+03  0.18978014604E+03  0.47000000000E+01 0.  1.
         -5    1    5    5    0  503  0.47461227738E+02  0.10606992335E+02 -0.98455546197E+01  0.49840760133E+02  0.47000000000E+01 0.  1.
<mgrwt>
<rscale>  0 0.27625148E+03</rscale>
<asrwt>0</asrwt>
<pdfrwt beam="1">  1        1 0.68757699E-01 0.27625148E+03</pdfrwt>
<pdfrwt beam="2">  1       -1 0.65675166E-02 0.27625148E+03</pdfrwt>
<totfact> 0.60734956E+03</totfact>
</mgrwt>
</event>
<event>
 9    1  0.7984035E-001  0.2917561E+03  0.7818608E-02  0.1089436E+00
         -1   -1    0    0    0  501 -0.00000000000E+00  0.00000000000E+00  0.11405204335E+03  0.11405204335E+03  0.00000000000E+00 0.  1.
          1   -1    0    0  501    0  0.00000000000E+00 -0.00000000000E+00 -0.18658508134E+03  0.18658508134E+03  0.00000000000E+00 0.  1.
         35    2    1    2    0    0  0.00000000000E+00  0.00000000000E+00 -0.72533037988E+02  0.30063712468E+03  0.29175612956E+03 0.  0.
         25    2    3    3    0    0 -0.62331718090E+02 -0.28683983875E+02 -0.68478423397E+02  0.15797626720E+03  0.12473649233E+03 0.  0.
         25    2    3    3    0    0  0.62331718090E+02  0.28683983875E+02 -0.40546145915E+01  0.14266085748E+03  0.12501066493E+03 0.  0.
          5    1    4    4  502    0  0.31719352029E+02  0.14624085422E+02 -0.29866502189E+01  0.35369354632E+02  0.47000000000E+01 0. -1.
         -5    1    4    4    0  502 -0.94051070119E+02 -0.43308069297E+02 -0.65491773178E+02  0.12260691257E+03  0.47000000000E+01 0. -1.
          5    1    5    5  503    0  0.48220814546E+02  0.10979274870E+02  0.58042111163E+02  0.76398744102E+02  0.47000000000E+01 0.  1.
         -5    1    5    5    0  503  0.14110903545E+02  0.17704709006E+02 -0.62096725754E+02  0.66262113377E+02  0.47000000000E+01 0.  1.
<mgrwt>
<rscale>  0 0.29175613E+03</rscale>
<asrwt>0</asrwt>
<pdfrwt beam="1">  1        1 0.28705397E-01 0.29175613E+03</pdfrwt>
<pdfrwt beam="2">  1       -1 0.17546468E-01 0.29175613E+03</pdfrwt>
<totfact> 0.39865387E+03</totfact>
</mgrwt>
</event>
<event>
 9    1  0.7984035E-001  0.2755326E+03  0.7818608E-02  0.1098154E+00
          2   -1    0    0  501    0  0.00000000000E+00  0.00000000000E+00  0.11163721198E+04  0.11163721198E+04  0.00000000000E+00 0.  1.
         -2   -1    0    0    0  501 -0.00000000000E+00 -0.00000000000E+00 -0.17001096389E+02  0.17001096389E+02  0.00000000000E+00 0.  1.
         35    2    1    2    0    0  0.00000000000E+00  0.17763568394E-14  0.10993710234E+04  0.11333732161E+04  0.27553257531E+03 0.  0.
         25    2    3    3    0    0  0.55934865582E+02 -0.13579033315E+01  0.60696044982E+03  0.62221055479E+03  0.12495772786E+03 0.  0.
         25    2    3    3    0    0 -0.55934865582E+02  0.13579033315E+01  0.49241057354E+03  0.51116266136E+03  0.12525390349E+03 0.  0.
          5    1    4    4  502    0 -0.82639653786E+00 -0.12771579287E+02  0.50250623002E+03  0.50269115506E+03  0.47000000000E+01 0.  1.
         -5    1    4    4    0  502  0.56761262120E+02  0.11413675956E+02  0.10445421980E+03  0.11951939972E+03  0.47000000000E+01 0.  1.
          5    1    5    5  503    0 -0.97647205532E+01  0.58687338271E+02  0.16263634562E+03  0.17324036584E+03  0.47000000000E+01 0.  1.
         -5    1    5    5    0  503 -0.46170145029E+02 -0.57329434939E+02  0.32977422793E+03  0.33792229552E+03  0.47000000000E+01 0.  1.
<mgrwt>
<rscale>  0 0.27553258E+03</rscale>
<asrwt>0</asrwt>
<pdfrwt beam="1">  1        2 0.17174950E+00 0.27553258E+03</pdfrwt>
<pdfrwt beam="2">  1       -2 0.26155542E-02 0.27553258E+03</pdfrwt>
<totfact> 0.11590189E+04</totfact>
</mgrwt>
</event>
<event>
 9    1  0.7984035E-001  0.2700247E+03  0.7818608E-02  0.1101265E+00
          1   -1    0    0  501    0  0.00000000000E+00  0.00000000000E+00  0.83233973303E+02  0.83233973303E+02  0.00000000000E+00 0.  1.
         -1   -1    0    0    0  501 -0.00000000000E+00 -0.00000000000E+00 -0.21900113670E+03  0.21900113670E+03  0.00000000000E+00 0.  1.
         35    2    1    2    0    0  0.17763568394E-14  0.00000000000E+00 -0.13576716340E+03  0.30223511000E+03  0.27002470084E+03 0.  0.
         25    2    3    3    0    0  0.15592061062E+02 -0.35640807093E+02 -0.10914466098E+03  0.17096625145E+03  0.12571206234E+03 0.  0.
         25    2    3    3    0    0 -0.15592061062E+02  0.35640807093E+02 -0.26622502415E+02  0.13126885855E+03  0.12251275889E+03 0.  0.
          5    1    4    4  502    0 -0.32280993759E+02 -0.54721459043E+02 -0.18076803871E+02  0.66222061853E+02  0.47000000000E+01 0. -1.
         -5    1    4    4    0  502  0.47873054821E+02  0.19080651950E+02 -0.91067857110E+02  0.10474418960E+03  0.47000000000E+01 0. -1.
          5    1    5    5  503    0  0.13172779084E+01  0.50648273242E+02  0.37439059540E+02  0.63172430559E+02  0.47000000000E+01 0.  1.
         -5    1    5    5    0  503 -0.16909338970E+02 -0.15007466149E+02 -0.64061561955E+02  0.68096427988E+02  0.47000000000E+01 0.  1.
<mgrwt>
<rscale>  0 0.27002470E+03</rscale>
<asrwt>0</asrwt>
<pdfrwt beam="1">  1        1 0.12805227E-01 0.27002470E+03</pdfrwt>
<pdfrwt beam="2">  1       -1 0.33692482E-01 0.27002470E+03</pdfrwt>
<totfact> 0.38213463E+03</totfact>
</mgrwt>
</event>
<event>
 9    1  0.7984035E-001  0.2723288E+03  0.7818608E-02  0.1099954E+00
          1   -1    0    0  501    0  0.00000000000E+00  0.00000000000E+00  0.61571349785E+02  0.61571349785E+02  0.00000000000E+00 0. -1.
         -1   -1    0    0    0  501 -0.00000000000E+00 -0.00000000000E+00 -0.30112617651E+03  0.30112617651E+03  0.00000000000E+00 0. -1.
         35    2    1    2    0    0  0.00000000000E+00  0.35527136788E-14 -0.23955482672E+03  0.36269752630E+03  0.27232880967E+03 0.  0.
         25    2    3    3    0    0  0.50558108627E+02  0.29698329551E+01 -0.10754095480E+03  0.17314764439E+03  0.12589721023E+03 0.  0.
         25    2    3    3    0    0 -0.50558108627E+02 -0.29698329551E+01 -0.13201387193E+03  0.18954988191E+03  0.12624006137E+03 0.  0.
          5    1    4    4  502    0  0.18966029491E+02 -0.34565874770E+02  0.13913952244E+02  0.42073721494E+02  0.47000000000E+01 0.  1.
         -5    1    4    4    0  502  0.31592079136E+02  0.37535707725E+02 -0.12145490704E+03  0.13107392290E+03  0.47000000000E+01 0.  1.
          5    1    5    5  503    0 -0.90613656914E+02 -0.10809472269E+02 -0.10978275661E+03  0.14283565087E+03  0.47000000000E+01 0. -1.
         -5    1    5    5    0  503  0.40055548287E+02  0.78396393138E+01 -0.22231115313E+02  0.46714231035E+02  0.47000000000E+01 0. -1.
<mgrwt>
<rscale>  0 0.27232881E+03</rscale>
<asrwt>0</asrwt>
<pdfrwt beam="1">  1        1 0.94725153E-02 0.27232881E+03</pdfrwt>
<pdfrwt beam="2">  1       -1 0.46327104E-01 0.27232881E+03</pdfrwt>
<totfact> 0.32521923E+03</totfact>
</mgrwt>
</event>
<event>
 9    1  0.7984035E-001  0.2748331E+03  0.7818608E-02  0.1098545E+00
          2   -1    0    0  501    0  0.00000000000E+00  0.00000000000E+00  0.14523603504E+03  0.14523603504E+03  0.00000000000E+00 0. -1.
         -2   -1    0    0    0  501 -0.00000000000E+00 -0.00000000000E+00 -0.13001803462E+03  0.13001803462E+03  0.00000000000E+00 0. -1.
         35    2    1    2    0    0 -0.71054273576E-14  0.35527136788E-14  0.15218000416E+02  0.27525406966E+03  0.27483306812E+03 0.  0.
         25    2    3    3    0    0  0.28274870191E+02 -0.77674266212E+01  0.56194468329E+02  0.14038546861E+03  0.12526156763E+03 0.  0.
         25    2    3    3    0    0 -0.28274870191E+02  0.77674266212E+01 -0.40976467912E+02  0.13486860106E+03  0.12510262758E+03 0.  0.
          5    1    4    4  502    0  0.35639551623E+02 -0.40055525090E+02 -0.19806069507E+02  0.57349743848E+02  0.47000000000E+01 0.  1.
         -5    1    4    4    0  502 -0.73646814316E+01  0.32288098468E+02  0.76000537836E+02  0.83035724761E+02  0.47000000000E+01 0.  1.
          5    1    5    5  503    0  0.33226029062E+02  0.69482905538E+01 -0.61040425608E+02  0.70001937882E+02  0.47000000000E+01 0.  1.
         -5    1    5    5    0  503 -0.61500899253E+02  0.81913606747E+00  0.20063957696E+02  0.64866663173E+02  0.47000000000E+01 0.  1.
<mgrwt>
<rscale>  0 0.27483307E+03</rscale>
<asrwt>0</asrwt>
<pdfrwt beam="1">  1        2 0.22344005E-01 0.27483307E+03</pdfrwt>
<pdfrwt beam="2">  1       -2 0.20002775E-01 0.27483307E+03</pdfrwt>
<totfact> 0.51008606E+03</totfact>
</mgrwt>
</event>
<event>
 9    1  0.7984035E-001  0.2710235E+03  0.7818608E-02  0.1100695E+00
          2   -1    0    0  501    0  0.00000000000E+00  0.00000000000E+00  0.22706359356E+04  0.22706359356E+04  0.00000000000E+00 0.  1.
         -2   -1    0    0    0  501 -0.00000000000E+00 -0.00000000000E+00 -0.80873556156E+01  0.80873556156E+01  0.00000000000E+00 0.  1.
         35    2    1    2    0    0  0.00000000000E+00 -0.35527136788E-14  0.22625485799E+04  0.22787232912E+04  0.27102354351E+03 0.  0.
         25    2    3    3    0    0  0.30708499758E+02 -0.49759787948E+01  0.15126584571E+04  0.15178041949E+04  0.12093880120E+03 0.  0.
         25    2    3    3    0    0 -0.30708499758E+02  0.49759787948E+01  0.74989012280E+03  0.76091909631E+03  0.12527929815E+03 0.  0.
          5    1    4    4  502    0  0.71420249002E+02 -0.86723057732E+01  0.12361480990E+04  0.12382488738E+04  0.47000000000E+01 0.  1.
         -5    1    4    4    0  502 -0.40711749244E+02  0.36963269783E+01  0.27651035814E+03  0.27955532104E+03  0.47000000000E+01 0.  1.
          5    1    5    5  503    0 -0.17277154929E+02 -0.43071772930E+02  0.61915052018E+03  0.62090509286E+03  0.47000000000E+01 0.  1.
         -5    1    5    5    0  503 -0.13431344829E+02  0.48047751725E+02  0.13073960262E+03  0.14001400345E+03  0.47000000000E+01 0.  1.
<mgrwt>
<rscale>  0 0.27102354E+03</rscale>
<asrwt>0</asrwt>
<pdfrwt beam="1">  1        2 0.34932810E+00 0.27102354E+03</pdfrwt>
<pdfrwt beam="2">  1       -2 0.12442104E-02 0.27102354E+03</pdfrwt>
<totfact> 0.82780104E+03</totfact>
</mgrwt>
</event>
<event>
 9    1  0.7984035E-001  0.2741371E+03  0.7818608E-02  0.1098935E+00
          2   -1    0    0  501    0  0.00000000000E+00  0.00000000000E+00  0.19128773219E+04  0.19128773219E+04  0.00000000000E+00 0.  1.
         -2   -1    0    0    0  501 -0.00000000000E+00 -0.00000000000E+00 -0.98217445740E+01  0.98217445740E+01  0.00000000000E+00 0.  1.
         35    2    1    2    0    0  0.00000000000E+00 -0.71054273576E-14  0.19030555774E+04  0.19226990665E+04  0.27413713690E+03 0.  0.
         25    2    3    3    0    0  0.16250951860E+02 -0.47763897757E+02  0.77564951563E+03  0.78730455995E+03  0.12518312846E+03 0.  0.
         25    2    3    3    0    0 -0.16250951860E+02  0.47763897757E+02  0.11274060617E+04  0.11353945066E+04  0.12462252661E+03 0.  0.
          5    1    4    4  502    0  0.42914991384E+02  0.19356593539E+02  0.14518852444E+03  0.15270288743E+03  0.47000000000E+01 0.  1.
         -5    1    4    4    0  502 -0.26664039524E+02 -0.67120491296E+02  0.63046099119E+03  0.63460167252E+03  0.47000000000E+01 0.  1.
          5    1    5    5  503    0  0.36089322469E+01  0.14504131031E+02  0.13148953053E+02  0.20454319234E+02  0.47000000000E+01 0.  1.
         -5    1    5    5    0  503 -0.19859884107E+02  0.33259766726E+02  0.11142571087E+04  0.11149401873E+04  0.47000000000E+01 0.  1.
<mgrwt>
<rscale>  0 0.27413714E+03</rscale>
<asrwt>0</asrwt>
<pdfrwt beam="1">  1        2 0.29428852E+00 0.27413714E+03</pdfrwt>
<pdfrwt beam="2">  1       -2 0.15110391E-02 0.27413714E+03</pdfrwt>
<totfact> 0.96359718E+03</totfact>
</mgrwt>
</event>
<event>
 9    1  0.7984035E-001  0.2756659E+03  0.7818608E-02  0.1098080E+00
          2   -1    0    0  501    0  0.00000000000E+00  0.00000000000E+00  0.39954319514E+03  0.39954319514E+03  0.00000000000E+00 0. -1.
         -2   -1    0    0    0  501 -0.00000000000E+00 -0.00000000000E+00 -0.47549104292E+02  0.47549104292E+02  0.00000000000E+00 0. -1.
         35    2    1    2    0    0  0.71054273576E-14  0.00000000000E+00  0.35199409085E+03  0.44709229943E+03  0.27566589238E+03 0.  0.
         25    2    3    3    0    0  0.54683159913E+02 -0.11328963325E+02  0.19514113598E+03  0.23839615623E+03  0.12503627859E+03 0.  0.
         25    2    3    3    0    0 -0.54683159913E+02  0.11328963325E+02  0.15685295487E+03  0.20869614321E+03  0.12582780833E+03 0.  0.
          5    1    4    4  502    0  0.74741199485E+02 -0.10545845234E+02  0.47466797458E+02  0.89289689288E+02  0.47000000000E+01 0.  1.
         -5    1    4    4    0  502 -0.20058039573E+02 -0.78311809061E+00  0.14767433852E+03  0.14910646694E+03  0.47000000000E+01 0.  1.
          5    1    5    5  503    0 -0.38851438241E+02 -0.46528511145E+02  0.28931534306E+02  0.67330975635E+02  0.47000000000E+01 0. -1.
         -5    1    5    5    0  503 -0.15831721672E+02  0.57857474470E+02  0.12792142057E+03  0.14136516757E+03  0.47000000000E+01 0. -1.
<mgrwt>
<rscale>  0 0.27566589E+03</rscale>
<asrwt>0</asrwt>
<pdfrwt beam="1">  1        2 0.61468182E-01 0.27566589E+03</pdfrwt>
<pdfrwt beam="2">  1       -2 0.73152471E-02 0.27566589E+03</pdfrwt>
<totfact> 0.86391996E+03</totfact>
</mgrwt>
</event>
<event>
 9    1  0.7984035E-001  0.2719384E+03  0.7818608E-02  0.1100175E+00
         -2   -1    0    0    0  501 -0.00000000000E+00  0.00000000000E+00  0.14393985661E+03  0.14393985661E+03  0.00000000000E+00 0. -1.
          2   -1    0    0  501    0  0.00000000000E+00 -0.00000000000E+00 -0.12843990256E+03  0.12843990256E+03  0.00000000000E+00 0. -1.
         35    2    1    2    0    0  0.71054273576E-14  0.44408920985E-15  0.15499954052E+02  0.27237975917E+03  0.27193838389E+03 0.  0.
         25    2    3    3    0    0  0.40982998899E+02  0.27711126469E+00 -0.27834417895E+02  0.13478288002E+03  0.12534746482E+03 0.  0.
         25    2    3    3    0    0 -0.40982998899E+02 -0.27711126469E+00  0.43334371947E+02  0.13759687915E+03  0.12399738050E+03 0.  0.
          5    1    4    4  502    0 -0.27248238782E+02 -0.10570711548E+02 -0.53326473280E+02  0.60991878244E+02  0.47000000000E+01 0.  1.
         -5    1    4    4    0  502  0.68231237681E+02  0.10847822812E+02  0.25492055385E+02  0.73791001775E+02  0.47000000000E+01 0.  1.
          5    1    5    5  503    0  0.42262245853E+02  0.30888212098E+01 -0.19042279015E+01  0.42677327997E+02  0.47000000000E+01 0.  1.
         -5    1    5    5    0  503 -0.83245244752E+02 -0.33659324745E+01  0.45238599849E+02  0.94919551156E+02  0.47000000000E+01 0.  1.
<mgrwt>
<rscale>  0 0.27193838E+03</rscale>
<asrwt>0</asrwt>
<pdfrwt beam="1">  1        2 0.19759985E-01 0.27193838E+03</pdfrwt>
<pdfrwt beam="2">  1       -2 0.22144593E-01 0.27193838E+03</pdfrwt>
<totfact> 0.49223406E+03</totfact>
</mgrwt>
</event>
<event>
 9    1  0.7984035E-001  0.2742829E+03  0.7818608E-02  0.1098853E+00
          1   -1    0    0  501    0  0.00000000000E+00  0.00000000000E+00  0.43145764387E+03  0.43145764387E+03  0.00000000000E+00 0.  1.
         -1   -1    0    0    0  501 -0.00000000000E+00 -0.00000000000E+00 -0.43591250142E+02  0.43591250142E+02  0.00000000000E+00 0.  1.
         35    2    1    2    0    0  0.00000000000E+00  0.00000000000E+00  0.38786639373E+03  0.47504889401E+03  0.27428290563E+03 0.  0.
         25    2    3    3    0    0 -0.50052497939E+02 -0.53898448293E+01  0.15621341024E+03  0.20770816008E+03  0.12730179592E+03 0.  0.
         25    2    3    3    0    0  0.50052497939E+02  0.53898448293E+01  0.23165298349E+03  0.26734073394E+03  0.12358665092E+03 0.  0.
          5    1    4    4  502    0 -0.87185705131E+02 -0.17634566895E+02  0.71264433310E+02  0.11407468862E+03  0.47000000000E+01 0.  1.
         -5    1    4    4    0  502  0.37133207193E+02  0.12244722066E+02  0.84948976934E+02  0.93633471456E+02  0.47000000000E+01 0.  1.
          5    1    5    5  503    0  0.13184508075E+02 -0.16565370563E+02  0.22206561599E+03  0.22312209788E+03  0.47000000000E+01 0.  1.
         -5    1    5    5    0  503  0.36867989863E+02  0.21955215392E+02  0.95873674926E+01  0.44218636059E+02  0.47000000000E+01 0.  1.
<mgrwt>
<rscale>  0 0.27428291E+03</rscale>
<asrwt>0</asrwt>
<pdfrwt beam="1">  1        1 0.66378096E-01 0.27428291E+03</pdfrwt>
<pdfrwt beam="2">  1       -1 0.67063465E-02 0.27428291E+03</pdfrwt>
<totfact> 0.61581137E+03</totfact>
</mgrwt>
</event>
<event>
 9    1  0.7984035E-001  0.2773756E+03  0.7818608E-02  0.1097131E+00
         -3   -1    0    0    0  501 -0.00000000000E+00  0.00000000000E+00  0.46061321812E+02  0.46061321812E+02  0.00000000000E+00 0.  1.
          3   -1    0    0  501    0  0.00000000000E+00 -0.00000000000E+00 -0.41758043390E+03  0.41758043390E+03  0.00000000000E+00 0.  1.
         35    2    1    2    0    0  0.71054273576E-14 -0.71054273576E-14 -0.37151911209E+03  0.46364175571E+03  0.27737560634E+03 0.  0.
         25    2    3    3    0    0  0.31999988710E+02 -0.14415414291E+02 -0.10956437834E+03  0.17094588623E+03  0.12643709728E+03 0.  0.
         25    2    3    3    0    0 -0.31999988710E+02  0.14415414291E+02 -0.26195473374E+03  0.29269586949E+03  0.12577275554E+03 0.  0.
          5    1    4    4  502    0  0.87072880583E+01 -0.40937333253E+02  0.12388478948E+02  0.43900416056E+02  0.47000000000E+01 0. -1.
         -5    1    4    4    0  502  0.23292700652E+02  0.26521918963E+02 -0.12195285729E+03  0.12704547017E+03  0.47000000000E+01 0. -1.
          5    1    5    5  503    0  0.42900269599E+02  0.24292370140E+02 -0.65149985760E+02  0.81836196290E+02  0.47000000000E+01 0.  1.
         -5    1    5    5    0  503 -0.74900258310E+02 -0.98769558492E+01 -0.19680474798E+03  0.21085967320E+03  0.47000000000E+01 0.  1.
<mgrwt>
<rscale>  0 0.27737561E+03</rscale>
<asrwt>0</asrwt>
<pdfrwt beam="1">  1        3 0.64243142E-01 0.27737561E+03</pdfrwt>
<pdfrwt beam="2">  1       -3 0.70863574E-02 0.27737561E+03</pdfrwt>
<totfact> 0.78993622E+02</totfact>
</mgrwt>
</event>
<event>
 9    1  0.7984035E-001  0.2766019E+03  0.7818608E-02  0.1097560E+00
          2   -1    0    0  501    0  0.00000000000E+00  0.00000000000E+00  0.16173815040E+04  0.16173815040E+04  0.00000000000E+00 0. -1.
         -2   -1    0    0    0  501 -0.00000000000E+00 -0.00000000000E+00 -0.11825995631E+02  0.11825995631E+02  0.00000000000E+00 0. -1.
         35    2    1    2    0    0 -0.71054273576E-14  0.00000000000E+00  0.16055555084E+04  0.16292074997E+04  0.27660185538E+03 0.  0.
         25    2    3    3    0    0 -0.32653886467E+02 -0.13603867708E+02  0.10854840969E+04  0.10931516304E+04  0.12431178867E+03 0.  0.
         25    2    3    3    0    0  0.32653886467E+02  0.13603867708E+02  0.52007141147E+03  0.53605586928E+03  0.12502111999E+03 0.  0.
          5    1    4    4  502    0  0.18723789311E+02 -0.45916563526E+02  0.22176699619E+03  0.22729188655E+03  0.47000000000E+01 0. -1.
         -5    1    4    4    0  502 -0.51377675779E+02  0.32312695818E+02  0.86371710073E+03  0.86585974382E+03  0.47000000000E+01 0. -1.
          5    1    5    5  503    0  0.76865017109E+02  0.20173537361E+01  0.23496125594E+03  0.24726743086E+03  0.47000000000E+01 0.  1.
         -5    1    5    5    0  503 -0.44211130642E+02  0.11586513972E+02  0.28511015553E+03  0.28878843842E+03  0.47000000000E+01 0.  1.
<mgrwt>
<rscale>  0 0.27660186E+03</rscale>
<asrwt>0</asrwt>
<pdfrwt beam="1">  1        2 0.24882775E+00 0.27660186E+03</pdfrwt>
<pdfrwt beam="2">  1       -2 0.18193852E-02 0.27660186E+03</pdfrwt>
<totfact> 0.10500057E+04</totfact>
</mgrwt>
</event>
<event>
 9    1  0.7984035E-001  0.2744043E+03  0.7818608E-02  0.1098785E+00
         -1   -1    0    0    0  501 -0.00000000000E+00  0.00000000000E+00  0.54808894720E+02  0.54808894720E+02  0.00000000000E+00 0.  1.
          1   -1    0    0  501    0  0.00000000000E+00 -0.00000000000E+00 -0.34345586395E+03  0.34345586395E+03  0.00000000000E+00 0.  1.
         35    2    1    2    0    0  0.00000000000E+00 -0.71054273576E-14 -0.28864696923E+03  0.39826475867E+03  0.27440434609E+03 0.  0.
         25    2    3    3    0    0 -0.17529128015E+02 -0.43498427954E+02 -0.19270637794E+03  0.23454685114E+03  0.12520820148E+03 0.  0.
         25    2    3    3    0    0  0.17529128015E+02  0.43498427954E+02 -0.95940591291E+02  0.16371790753E+03  0.12409501451E+03 0.  0.
          5    1    4    4  502    0 -0.26653696559E+02 -0.58120485331E+02 -0.29863814760E+02  0.70727277534E+02  0.47000000000E+01 0.  1.
         -5    1    4    4    0  502  0.91245685442E+01  0.14622057377E+02 -0.16284256318E+03  0.16381957361E+03  0.47000000000E+01 0.  1.
          5    1    5    5  503    0  0.52743516972E+02  0.34612994525E+02 -0.10799867625E+03  0.12516286208E+03  0.47000000000E+01 0.  1.
         -5    1    5    5    0  503 -0.35214388956E+02  0.88854334290E+01  0.12058084960E+02  0.38555045451E+02  0.47000000000E+01 0.  1.
<mgrwt>
<rscale>  0 0.27440435E+03</rscale>
<asrwt>0</asrwt>
<pdfrwt beam="1">  1        1 0.52839363E-01 0.27440435E+03</pdfrwt>
<pdfrwt beam="2">  1       -1 0.84321378E-02 0.27440435E+03</pdfrwt>
<totfact> 0.58166026E+03</totfact>
</mgrwt>
</event>
<event>
 9    1  0.7984035E-001  0.2721155E+03  0.7818608E-02  0.1100075E+00
          3   -1    0    0  501    0  0.00000000000E+00  0.00000000000E+00  0.60802967145E+03  0.60802967145E+03  0.00000000000E+00 0. -1.
         -3   -1    0    0    0  501 -0.00000000000E+00 -0.00000000000E+00 -0.30445412461E+02  0.30445412461E+02  0.00000000000E+00 0. -1.
         35    2    1    2    0    0  0.00000000000E+00  0.71054273576E-14  0.57758425898E+03  0.63847508391E+03  0.27211552058E+03 0.  0.
         25    2    3    3    0    0 -0.29383220168E+02 -0.38907865276E+02  0.32988634829E+03  0.35608841161E+03  0.12488698283E+03 0.  0.
         25    2    3    3    0    0  0.29383220168E+02  0.38907865276E+02  0.24769791069E+03  0.28238667230E+03  0.12653371932E+03 0.  0.
          5    1    4    4  502    0  0.16048219997E+02  0.22219419657E+02  0.14034171368E+02  0.31149573688E+02  0.47000000000E+01 0. -1.
         -5    1    4    4    0  502 -0.45431440165E+02 -0.61127284933E+02  0.31585217693E+03  0.32493883792E+03  0.47000000000E+01 0. -1.
          5    1    5    5  503    0  0.77155684449E+02  0.19615244184E+02  0.18244691794E+03  0.19911485458E+03  0.47000000000E+01 0. -1.
         -5    1    5    5    0  503 -0.47772464281E+02  0.19292621092E+02  0.65250992749E+02  0.83271817723E+02  0.47000000000E+01 0. -1.
<mgrwt>
<rscale>  0 0.27211552E+03</rscale>
<asrwt>0</asrwt>
<pdfrwt beam="1">  1        3 0.93543017E-01 0.27211552E+03</pdfrwt>
<pdfrwt beam="2">  1       -3 0.46839101E-02 0.27211552E+03</pdfrwt>
<totfact> 0.67679907E+02</totfact>
</mgrwt>
</event>
<event>
 9    1  0.7984035E-001  0.2750782E+03  0.7818608E-02  0.1098408E+00
         -4   -1    0    0    0  501 -0.00000000000E+00  0.00000000000E+00  0.12205255337E+03  0.12205255337E+03  0.00000000000E+00 0.  1.
          4   -1    0    0  501    0  0.00000000000E+00 -0.00000000000E+00 -0.15499062420E+03  0.15499062420E+03  0.00000000000E+00 0.  1.
         35    2    1    2    0    0  0.00000000000E+00  0.00000000000E+00 -0.32938070836E+02  0.27704317757E+03  0.27507818111E+03 0.  0.
         25    2    3    3    0    0 -0.12047647288E+02  0.54781369055E+02 -0.36170765876E+02  0.14030165126E+03  0.12341022989E+03 0.  0.
         25    2    3    3    0    0  0.12047647288E+02 -0.54781369055E+02  0.32326950401E+01  0.13674152631E+03  0.12466615619E+03 0.  0.
          5    1    4    4  502    0  0.45645161992E+02  0.59577085617E+02 -0.33031762466E+02  0.82134628966E+02  0.47000000000E+01 0.  1.
         -5    1    4    4    0  502 -0.57692809280E+02 -0.47957165615E+01 -0.31390034097E+01  0.58167022292E+02  0.47000000000E+01 0.  1.
          5    1    5    5  503    0  0.22087826641E+02 -0.28602856168E+02  0.61739877627E+02  0.71693081647E+02  0.47000000000E+01 0. -1.
         -5    1    5    5    0  503 -0.10040179353E+02 -0.26178512887E+02 -0.58507182587E+02  0.65048444660E+02  0.47000000000E+01 0. -1.
<mgrwt>
<rscale>  0 0.27507818E+03</rscale>
<asrwt>0</asrwt>
<pdfrwt beam="1">  1        4 0.23844711E-01 0.27507818E+03</pdfrwt>
<pdfrwt beam="2">  1       -4 0.18777316E-01 0.27507818E+03</pdfrwt>
<totfact> 0.77556071E+02</totfact>
</mgrwt>
</event>
<event>
 9    1  0.7984035E-001  0.2728906E+03  0.7818608E-02  0.1099637E+00
         -1   -1    0    0    0  501 -0.00000000000E+00  0.00000000000E+00  0.11532037635E+02  0.11532037635E+02  0.00000000000E+00 0. -1.
          1   -1    0    0  501    0  0.00000000000E+00 -0.00000000000E+00 -0.16143994899E+04  0.16143994899E+04  0.00000000000E+00 0. -1.
         35    2    1    2    0    0 -0.14210854715E-13  0.00000000000E+00 -0.16028674522E+04  0.16259315275E+04  0.27289056909E+03 0.  0.
         25    2    3    3    0    0 -0.56641842154E+02 -0.48804311797E+01 -0.84146575226E+03  0.85230825358E+03  0.12301475521E+03 0.  0.
         25    2    3    3    0    0  0.56641842154E+02  0.48804311797E+01 -0.76140169998E+03  0.77362327393E+03  0.12461261712E+03 0.  0.
          5    1    4    4  502    0 -0.32960365173E+02 -0.46577183525E+02 -0.70976771435E+03  0.71207311284E+03  0.47000000000E+01 0. -1.
         -5    1    4    4    0  502 -0.23681476981E+02  0.41696752346E+02 -0.13169803792E+03  0.14023514074E+03  0.47000000000E+01 0. -1.
          5    1    5    5  503    0 -0.14481596678E+02  0.18647639216E+02 -0.29256641990E+02  0.37887889770E+02  0.47000000000E+01 0.  1.
         -5    1    5    5    0  503  0.71123438832E+02 -0.13767208036E+02 -0.73214505799E+03  0.73573538416E+03  0.47000000000E+01 0.  1.
<mgrwt>
<rscale>  0 0.27289057E+03</rscale>
<asrwt>0</asrwt>
<pdfrwt beam="1">  1        1 0.24836926E+00 0.27289057E+03</pdfrwt>
<pdfrwt beam="2">  1       -1 0.17741589E-02 0.27289057E+03</pdfrwt>
<totfact> 0.49139017E+03</totfact>
</mgrwt>
</event>
<event>
 9    1  0.7984035E-001  0.2712017E+03  0.7818608E-02  0.1100594E+00
          2   -1    0    0  501    0  0.00000000000E+00  0.00000000000E+00  0.89704554211E+03  0.89704554211E+03  0.00000000000E+00 0.  1.
         -2   -1    0    0    0  501 -0.00000000000E+00 -0.00000000000E+00 -0.20497952488E+02  0.20497952488E+02  0.00000000000E+00 0.  1.
         35    2    1    2    0    0  0.00000000000E+00 -0.35527136788E-14  0.87654758962E+03  0.91754349459E+03  0.27120174706E+03 0.  0.
         25    2    3    3    0    0 -0.15147919424E+01 -0.22166228355E+02  0.59846321412E+03  0.61216070860E+03  0.12684194192E+03 0.  0.
         25    2    3    3    0    0  0.15147919424E+01  0.22166228355E+02  0.27808437550E+03  0.30538278599E+03  0.12423401229E+03 0.  0.
          5    1    4    4  502    0  0.38460983068E+02  0.25394423736E+02  0.10482487267E+03  0.11460570625E+03  0.47000000000E+01 0.  1.
         -5    1    4    4    0  502 -0.39975775010E+02 -0.47560652091E+02  0.49363834145E+03  0.49755500235E+03  0.47000000000E+01 0.  1.
          5    1    5    5  503    0  0.44696431281E+02 -0.27737368984E+02  0.17584148448E+03  0.18360133516E+03  0.47000000000E+01 0.  1.
         -5    1    5    5    0  503 -0.43181639338E+02  0.49903597339E+02  0.10224289102E+03  0.12178145083E+03  0.47000000000E+01 0.  1.
<mgrwt>
<rscale>  0 0.27120175E+03</rscale>
<asrwt>0</asrwt>
<pdfrwt beam="1">  1        2 0.13800698E+00 0.27120175E+03</pdfrwt>
<pdfrwt beam="2">  1       -2 0.31535318E-02 0.27120175E+03</pdfrwt>
<totfact> 0.11951324E+04</totfact>
</mgrwt>
</event>
<event>
 9    1  0.7984035E-001  0.2753594E+03  0.7818608E-02  0.1098251E+00
         -1   -1    0    0    0  501 -0.00000000000E+00  0.00000000000E+00  0.88629985363E+02  0.88629985363E+02  0.00000000000E+00 0.  1.
          1   -1    0    0  501    0  0.00000000000E+00 -0.00000000000E+00 -0.21387460563E+03  0.21387460563E+03  0.00000000000E+00 0.  1.
         35    2    1    2    0    0 -0.71054273576E-14 -0.71054273576E-14 -0.12524462026E+03  0.30250459099E+03  0.27535942451E+03 0.  0.
         25    2    3    3    0    0 -0.42115858264E+02 -0.35858753078E+02 -0.49272503214E+02  0.14578119074E+03  0.12555787633E+03 0.  0.
         25    2    3    3    0    0  0.42115858264E+02  0.35858753078E+02 -0.75972117051E+02  0.15672340025E+03  0.12542274885E+03 0.  0.
          5    1    4    4  502    0 -0.80700407146E+02 -0.48024841571E+02 -0.46661832152E+02  0.10496836524E+03  0.47000000000E+01 0. -1.
         -5    1    4    4    0  502  0.38584548881E+02  0.12166088493E+02 -0.26106710617E+01  0.40812825496E+02  0.47000000000E+01 0. -1.
          5    1    5    5  503    0 -0.64451553296E+01  0.27436458741E+02 -0.98331801125E+02  0.10239888870E+03  0.47000000000E+01 0.  1.
         -5    1    5    5    0  503  0.48561013594E+02  0.84222943370E+01  0.22359684074E+02  0.54324511549E+02  0.47000000000E+01 0.  1.
<mgrwt>
<rscale>  0 0.27535942E+03</rscale>
<asrwt>0</asrwt>
<pdfrwt beam="1">  1        1 0.32903785E-01 0.27535942E+03</pdfrwt>
<pdfrwt beam="2">  1       -1 0.13635382E-01 0.27535942E+03</pdfrwt>
<totfact> 0.50051493E+03</totfact>
</mgrwt>
</event>
<event>
 9    1  0.7984035E-001  0.2702061E+03  0.7818608E-02  0.1101162E+00
         -2   -1    0    0    0  501 -0.00000000000E+00  0.00000000000E+00  0.37645328812E+02  0.37645328812E+02  0.00000000000E+00 0. -1.
          2   -1    0    0  501    0  0.00000000000E+00 -0.00000000000E+00 -0.48486320905E+03  0.48486320905E+03  0.00000000000E+00 0. -1.
         35    2    1    2    0    0 -0.71054273576E-14  0.00000000000E+00 -0.44721788024E+03  0.52250853786E+03  0.27020610603E+03 0.  0.
         25    2    3    3    0    0  0.22681137496E+02 -0.36562184018E+02 -0.26647390583E+03  0.29833306702E+03  0.12705529934E+03 0.  0.
         25    2    3    3    0    0 -0.22681137496E+02  0.36562184018E+02 -0.18074397441E+03  0.22417547084E+03  0.12543934847E+03 0.  0.
          5    1    4    4  502    0 -0.33299070630E+02 -0.27256768501E+02 -0.22172523274E+03  0.22591132855E+03  0.47000000000E+01 0. -1.
         -5    1    4    4    0  502  0.55980208126E+02 -0.93054155169E+01 -0.44748673091E+02  0.72421738471E+02  0.47000000000E+01 0. -1.
          5    1    5    5  503    0  0.32385639046E+01  0.80490592589E+02 -0.12155693262E+03  0.14590202760E+03  0.47000000000E+01 0.  1.
         -5    1    5    5    0  503 -0.25919701401E+02 -0.43928408572E+02 -0.59187041792E+02  0.78273443238E+02  0.47000000000E+01 0.  1.
<mgrwt>
<rscale>  0 0.27020611E+03</rscale>
<asrwt>0</asrwt>
<pdfrwt beam="1">  1        2 0.74594336E-01 0.27020611E+03</pdfrwt>
<pdfrwt beam="2">  1       -2 0.57915894E-02 0.27020611E+03</pdfrwt>
<totfact> 0.10003786E+04</totfact>
</mgrwt>
</event>
<event>
 9    1  0.7984035E-001  0.2768777E+03  0.7818608E-02  0.1097407E+00
         -2   -1    0    0    0  501 -0.00000000000E+00  0.00000000000E+00  0.12774841561E+04  0.12774841561E+04  0.00000000000E+00 0. -1.
          2   -1    0    0  501    0  0.00000000000E+00 -0.00000000000E+00 -0.15002388495E+02  0.15002388495E+02  0.00000000000E+00 0. -1.
         35    2    1    2    0    0  0.00000000000E+00  0.00000000000E+00  0.12624817676E+04  0.12924865446E+04  0.27687768856E+03 0.  0.
         25    2    3    3    0    0  0.21821198966E+02  0.41423631575E+02  0.55420684668E+03  0.57021193176E+03  0.12571529833E+03 0.  0.
         25    2    3    3    0    0 -0.21821198966E+02 -0.41423631575E+02  0.70827492096E+03  0.72227461287E+03  0.13354838359E+03 0.  0.
          5    1    4    4  502    0  0.50272758088E+02  0.74218412463E+02  0.39942304620E+03  0.40938561625E+03  0.47000000000E+01 0.  1.
         -5    1    4    4    0  502 -0.28451559122E+02 -0.32794780887E+02  0.15478380048E+03  0.16082631551E+03  0.47000000000E+01 0.  1.
          5    1    5    5  503    0 -0.98512590089E+01 -0.72214157305E+02  0.65732816440E+03  0.66137306986E+03  0.47000000000E+01 0. -1.
         -5    1    5    5    0  503 -0.11969939957E+02  0.30790525730E+02  0.50946756552E+02  0.60901543006E+02  0.47000000000E+01 0. -1.
<mgrwt>
<rscale>  0 0.27687769E+03</rscale>
<asrwt>0</asrwt>
<pdfrwt beam="1">  1        2 0.23080608E-02 0.27687769E+03</pdfrwt>
<pdfrwt beam="2">  1       -2 0.19653594E+00 0.27687769E+03</pdfrwt>
<totfact> 0.68169692E+02</totfact>
</mgrwt>
</event>
<event>
 9    1  0.7984035E-001  0.2783436E+03  0.7818608E-02  0.1096597E+00
         -1   -1    0    0    0  501 -0.00000000000E+00  0.00000000000E+00  0.33895191129E+02  0.33895191129E+02  0.00000000000E+00 0.  1.
          1   -1    0    0  501    0  0.00000000000E+00 -0.00000000000E+00 -0.57143173733E+03  0.57143173733E+03  0.00000000000E+00 0.  1.
         35    2    1    2    0    0  0.71054273576E-14  0.00000000000E+00 -0.53753654620E+03  0.60532692846E+03  0.27834358591E+03 0.  0.
         25    2    3    3    0    0  0.21300392713E+02 -0.39674094076E+02 -0.17834756871E+03  0.22246695094E+03  0.12512373286E+03 0.  0.
         25    2    3    3    0    0 -0.21300392713E+02  0.39674094076E+02 -0.35918897749E+03  0.38285997751E+03  0.12464870783E+03 0.  0.
          5    1    4    4  502    0 -0.33721921939E+02 -0.42650490633E+02 -0.26115251660E+02  0.60500650738E+02  0.47000000000E+01 0. -1.
         -5    1    4    4    0  502  0.55022314653E+02  0.29763965572E+01 -0.15223231705E+03  0.16196630020E+03  0.47000000000E+01 0. -1.
          5    1    5    5  503    0  0.11772695957E+02  0.23830977548E+02 -0.58849089519E+01  0.27626690253E+02  0.47000000000E+01 0. -1.
         -5    1    5    5    0  503 -0.33073088670E+02  0.15843116528E+02 -0.35330406853E+03  0.35523328726E+03  0.47000000000E+01 0. -1.
<mgrwt>
<rscale>  0 0.27834359E+03</rscale>
<asrwt>0</asrwt>
<pdfrwt beam="1">  1        1 0.87912572E-01 0.27834359E+03</pdfrwt>
<pdfrwt beam="2">  1       -1 0.52146450E-02 0.27834359E+03</pdfrwt>
<totfact> 0.61972318E+03</totfact>
</mgrwt>
</event>
<event>
 9    1  0.7984035E-001  0.2748973E+03  0.7818608E-02  0.1098509E+00
         -1   -1    0    0    0  501 -0.00000000000E+00  0.00000000000E+00  0.63036086498E+01  0.63036086498E+01  0.00000000000E+00 0. -1.
          1   -1    0    0  501    0  0.00000000000E+00 -0.00000000000E+00 -0.29970338138E+04  0.29970338138E+04  0.00000000000E+00 0. -1.
         35    2    1    2    0    0  0.00000000000E+00  0.00000000000E+00 -0.29907302051E+04  0.30033374224E+04  0.27489727734E+03 0.  0.
         25    2    3    3    0    0  0.57077775080E+02  0.42717443775E+01 -0.13814867293E+04  0.13882411769E+04  0.12422504456E+03 0.  0.
         25    2    3    3    0    0 -0.57077775080E+02 -0.42717443775E+01 -0.16092434758E+04  0.16150962455E+04  0.12488073405E+03 0.  0.
          5    1    4    4  502    0  0.35974734291E+02 -0.21400714756E+02 -0.13762550708E+03  0.14392721181E+03  0.47000000000E+01 0.  1.
         -5    1    4    4    0  502  0.21103040789E+02  0.25672459133E+02 -0.12438612223E+04  0.12443139651E+04  0.47000000000E+01 0.  1.
          5    1    5    5  503    0  0.12972331523E+02  0.23008823204E+01 -0.20668447509E+02  0.24956966302E+02  0.47000000000E+01 0. -1.
         -5    1    5    5    0  503 -0.70050106603E+02 -0.65726266979E+01 -0.15885750283E+04  0.15901392792E+04  0.47000000000E+01 0. -1.
<mgrwt>
<rscale>  0 0.27489728E+03</rscale>
<asrwt>0</asrwt>
<pdfrwt beam="1">  1        1 0.46108368E+00 0.27489728E+03</pdfrwt>
<pdfrwt beam="2">  1       -1 0.96978268E-03 0.27489728E+03</pdfrwt>
<totfact> 0.14300766E+03</totfact>
</mgrwt>
</event>
<event>
 9    1  0.7984035E-001  0.2739783E+03  0.7818608E-02  0.1099024E+00
         -2   -1    0    0    0  501 -0.00000000000E+00  0.00000000000E+00  0.10889039927E+02  0.10889039927E+02  0.00000000000E+00 0.  1.
          2   -1    0    0  501    0  0.00000000000E+00 -0.00000000000E+00 -0.17233871199E+04  0.17233871199E+04  0.00000000000E+00 0.  1.
         35    2    1    2    0    0 -0.71054273576E-14  0.00000000000E+00 -0.17124980800E+04  0.17342761598E+04  0.27397832877E+03 0.  0.
         25    2    3    3    0    0 -0.41668641653E+02 -0.28003616805E+02 -0.80997792149E+03  0.82180448519E+03  0.12952953461E+03 0.  0.
         25    2    3    3    0    0  0.41668641653E+02  0.28003616805E+02 -0.90252015850E+03  0.91247167464E+03  0.12466532110E+03 0.  0.
          5    1    4    4  502    0  0.18163834931E+02  0.27514101402E+02 -0.50378172127E+03  0.50488123689E+03  0.47000000000E+01 0.  1.
         -5    1    4    4    0  502 -0.59832476584E+02 -0.55517718207E+02 -0.30619620022E+03  0.31692324831E+03  0.47000000000E+01 0.  1.
          5    1    5    5  503    0  0.14346919433E+02 -0.23249199037E+01 -0.82136607418E+03  0.82150809927E+03  0.47000000000E+01 0. -1.
         -5    1    5    5    0  503  0.27321722220E+02  0.30328536708E+02 -0.81154084313E+02  0.90963575373E+02  0.47000000000E+01 0. -1.
<mgrwt>
<rscale>  0 0.27397833E+03</rscale>
<asrwt>0</asrwt>
<pdfrwt beam="1">  1        2 0.26513655E+00 0.27397833E+03</pdfrwt>
<pdfrwt beam="2">  1       -2 0.16752365E-02 0.27397833E+03</pdfrwt>
<totfact> 0.10418068E+04</totfact>
</mgrwt>
</event>
<event>
 9    1  0.7984035E-001  0.2768262E+03  0.7818608E-02  0.1097435E+00
          1   -1    0    0  501    0  0.00000000000E+00  0.00000000000E+00  0.18056713714E+03  0.18056713714E+03  0.00000000000E+00 0.  1.
         -1   -1    0    0    0  501 -0.00000000000E+00 -0.00000000000E+00 -0.10610009019E+03  0.10610009019E+03  0.00000000000E+00 0.  1.
         35    2    1    2    0    0  0.00000000000E+00  0.71054273576E-14  0.74467046950E+02  0.28666722732E+03  0.27682622372E+03 0.  0.
         25    2    3    3    0    0  0.13034784690E+02 -0.51326913752E+02  0.66814659148E+02  0.15044050067E+03  0.12395074779E+03 0.  0.
         25    2    3    3    0    0 -0.13034784690E+02  0.51326913752E+02  0.76523878024E+01  0.13622672665E+03  0.12527890616E+03 0.  0.
          5    1    4    4  502    0 -0.96751048297E+01 -0.81425900190E+02  0.75389989281E+02  0.11148778121E+03  0.47000000000E+01 0.  1.
         -5    1    4    4    0  502  0.22709889520E+02  0.30098986438E+02 -0.85753301332E+01  0.38952719462E+02  0.47000000000E+01 0.  1.
          5    1    5    5  503    0 -0.20261576577E+01  0.48892308366E+01 -0.56047868600E+02  0.56493039107E+02  0.47000000000E+01 0. -1.
         -5    1    5    5    0  503 -0.11008627032E+02  0.46437682916E+02  0.63700256402E+02  0.79733687544E+02  0.47000000000E+01 0. -1.
<mgrwt>
<rscale>  0 0.27682622E+03</rscale>
<asrwt>0</asrwt>
<pdfrwt beam="1">  1        1 0.27779560E-01 0.27682622E+03</pdfrwt>
<pdfrwt beam="2">  1       -1 0.16323091E-01 0.27682622E+03</pdfrwt>
<totfact> 0.46591525E+03</totfact>
</mgrwt>
</event>
<event>
 9    1  0.7984035E-001  0.2791995E+03  0.7818608E-02  0.1096127E+00
          2   -1    0    0  501    0  0.00000000000E+00  0.00000000000E+00  0.49833508524E+03  0.49833508524E+03  0.00000000000E+00 0.  1.
         -2   -1    0    0    0  501 -0.00000000000E+00 -0.00000000000E+00 -0.39106391607E+02  0.39106391607E+02  0.00000000000E+00 0.  1.
         35    2    1    2    0    0  0.00000000000E+00  0.00000000000E+00  0.45922869363E+03  0.53744147685E+03  0.27919947704E+03 0.  0.
         25    2    3    3    0    0  0.24224569198E+02  0.31336558096E+02  0.13898100483E+03  0.19115487271E+03  0.12512256404E+03 0.  0.
         25    2    3    3    0    0 -0.24224569198E+02 -0.31336558096E+02  0.32024768881E+03  0.34628660414E+03  0.12564641020E+03 0.  0.
          5    1    4    4  502    0 -0.11362489405E+02  0.71935766234E+02  0.10250489676E+03  0.12583006195E+03  0.47000000000E+01 0. -1.
         -5    1    4    4    0  502  0.35587058603E+02 -0.40599208138E+02  0.36476108064E+02  0.65324810760E+02  0.47000000000E+01 0. -1.
          5    1    5    5  503    0 -0.39894161763E+01 -0.20362781686E+02 -0.36084681869E+01  0.21579373533E+02  0.47000000000E+01 0. -1.
         -5    1    5    5    0  503 -0.20235153021E+02 -0.10973776410E+02  0.32385615699E+03  0.32470723061E+03  0.47000000000E+01 0. -1.
<mgrwt>
<rscale>  0 0.27919948E+03</rscale>
<asrwt>0</asrwt>
<pdfrwt beam="1">  1        2 0.76666932E-01 0.27919948E+03</pdfrwt>
<pdfrwt beam="2">  1       -2 0.60163683E-02 0.27919948E+03</pdfrwt>
<totfact> 0.91641190E+03</totfact>
</mgrwt>
</event>
<event>
 9    1  0.7984035E-001  0.2756542E+03  0.7818608E-02  0.1098086E+00
          2   -1    0    0  501    0  0.00000000000E+00  0.00000000000E+00  0.14126766167E+03  0.14126766167E+03  0.00000000000E+00 0. -1.
         -2   -1    0    0    0  501 -0.00000000000E+00 -0.00000000000E+00 -0.13447029789E+03  0.13447029789E+03  0.00000000000E+00 0. -1.
         35    2    1    2    0    0  0.00000000000E+00 -0.17763568394E-14  0.67973637800E+01  0.27573795957E+03  0.27565416411E+03 0.  0.
         25    2    3    3    0    0  0.56294395790E+02  0.26539036446E+01 -0.61036278838E+00  0.13793566402E+03  0.12589588025E+03 0.  0.
         25    2    3    3    0    0 -0.56294395790E+02 -0.26539036446E+01  0.74077265684E+01  0.13780229555E+03  0.12553284847E+03 0.  0.
          5    1    4    4  502    0 -0.10713352119E+02 -0.23179761974E+02  0.45553433588E+02  0.52433601731E+02  0.47000000000E+01 0. -1.
         -5    1    4    4    0  502  0.67007747909E+02  0.25833665619E+02 -0.46163796376E+02  0.85502062285E+02  0.47000000000E+01 0. -1.
          5    1    5    5  503    0  0.10775212862E+02 -0.13943484069E+02  0.52824557432E+02  0.55884253848E+02  0.47000000000E+01 0.  1.
         -5    1    5    5    0  503 -0.67069608653E+02  0.11289580424E+02 -0.45416830864E+02  0.81918041704E+02  0.47000000000E+01 0.  1.
<mgrwt>
<rscale>  0 0.27565416E+03</rscale>
<asrwt>0</asrwt>
<pdfrwt beam="1">  1        2 0.21733486E-01 0.27565416E+03</pdfrwt>
<pdfrwt beam="2">  1       -2 0.20687738E-01 0.27565416E+03</pdfrwt>
<totfact> 0.49687299E+03</totfact>
</mgrwt>
</event>
<event>
 9    1  0.7984035E-001  0.2772258E+03  0.7818608E-02  0.1097214E+00
         -1   -1    0    0    0  501 -0.00000000000E+00  0.00000000000E+00  0.55282712823E+02  0.55282712823E+02  0.00000000000E+00 0.  1.
          1   -1    0    0  501    0  0.00000000000E+00 -0.00000000000E+00 -0.34755052428E+03  0.34755052428E+03  0.00000000000E+00 0.  1.
         35    2    1    2    0    0  0.00000000000E+00  0.44408920985E-15 -0.29226781146E+03  0.40283323710E+03  0.27722579841E+03 0.  0.
         25    2    3    3    0    0  0.38514810708E+02  0.16857294314E+01 -0.71643147723E+02  0.14839407698E+03  0.12410410605E+03 0.  0.
         25    2    3    3    0    0 -0.38514810708E+02 -0.16857294314E+01 -0.22062466373E+03  0.25443916013E+03  0.12073860870E+03 0.  0.
          5    1    4    4  502    0 -0.42063497613E+02 -0.94260476032E+01 -0.45434917777E+02  0.62806129942E+02  0.47000000000E+01 0.  1.
         -5    1    4    4    0  502  0.80578308321E+02  0.11111777035E+02 -0.26208229946E+02  0.85587947035E+02  0.47000000000E+01 0.  1.
          5    1    5    5  503    0 -0.23709577484E+02 -0.31305993977E+01 -0.23315757327E+03  0.23442800321E+03  0.47000000000E+01 0.  1.
         -5    1    5    5    0  503 -0.14805233223E+02  0.14448699663E+01  0.12532909530E+02  0.20011156921E+02  0.47000000000E+01 0.  1.
<mgrwt>
<rscale>  0 0.27722580E+03</rscale>
<asrwt>0</asrwt>
<pdfrwt beam="1">  1        1 0.53469312E-01 0.27722580E+03</pdfrwt>
<pdfrwt beam="2">  1       -1 0.85050327E-02 0.27722580E+03</pdfrwt>
<totfact> 0.56567172E+03</totfact>
</mgrwt>
</event>
<event>
 9    1  0.7984035E-001  0.2732691E+03  0.7818608E-02  0.1099423E+00
          1   -1    0    0  501    0  0.00000000000E+00  0.00000000000E+00  0.98677006690E+02  0.98677006690E+02  0.00000000000E+00 0.  1.
         -1   -1    0    0    0  501 -0.00000000000E+00 -0.00000000000E+00 -0.18919303978E+03  0.18919303978E+03  0.00000000000E+00 0.  1.
         35    2    1    2    0    0  0.00000000000E+00  0.00000000000E+00 -0.90516033091E+02  0.28787004647E+03  0.27326911902E+03 0.  0.
         25    2    3    3    0    0  0.91255386382E+01  0.51563175555E+02 -0.43379313412E+02  0.14194582304E+03  0.12459861684E+03 0.  0.
         25    2    3    3    0    0 -0.91255386382E+01 -0.51563175555E+02 -0.47136719679E+02  0.14592422343E+03  0.12778877929E+03 0.  0.
          5    1    4    4  502    0 -0.78485715694E+01  0.36692132956E+02 -0.85745888022E+02  0.93714246565E+02  0.47000000000E+01 0. -1.
         -5    1    4    4    0  502  0.16974110208E+02  0.14871042599E+02  0.42366574610E+02  0.48231576477E+02  0.47000000000E+01 0. -1.
          5    1    5    5  503    0  0.24159891232E+02  0.36133252518E+02 -0.94664978022E+01  0.44732726974E+02  0.47000000000E+01 0. -1.
         -5    1    5    5    0  503 -0.33285429870E+02 -0.87696428073E+02 -0.37670221877E+02  0.10119149645E+03  0.47000000000E+01 0. -1.
<mgrwt>
<rscale>  0 0.27326912E+03</rscale>
<asrwt>0</asrwt>
<pdfrwt beam="1">  1        1 0.15181078E-01 0.27326912E+03</pdfrwt>
<pdfrwt beam="2">  1       -1 0.29106622E-01 0.27326912E+03</pdfrwt>
<totfact> 0.39234540E+03</totfact>
</mgrwt>
</event>
<event>
 9    1  0.7984035E-001  0.2734554E+03  0.7818608E-02  0.1099318E+00
         -1   -1    0    0    0  501 -0.00000000000E+00  0.00000000000E+00  0.53299996283E+02  0.53299996283E+02  0.00000000000E+00 0. -1.
          1   -1    0    0  501    0  0.00000000000E+00 -0.00000000000E+00 -0.35074034335E+03  0.35074034335E+03  0.00000000000E+00 0. -1.
         35    2    1    2    0    0  0.71054273576E-14 -0.71054273576E-14 -0.29744034707E+03  0.40404033964E+03  0.27345536379E+03 0.  0.
         25    2    3    3    0    0  0.43343612534E+02 -0.32398299242E+02 -0.16934184827E+03  0.21709630940E+03  0.12460267829E+03 0.  0.
         25    2    3    3    0    0 -0.43343612534E+02  0.32398299242E+02 -0.12809849880E+03  0.18694403024E+03  0.12494209261E+03 0.  0.
          5    1    4    4  502    0  0.86260040316E+01  0.12967377312E+02  0.16166321448E+02  0.22934706649E+02  0.47000000000E+01 0. -1.
         -5    1    4    4    0  502  0.34717608503E+02 -0.45365676554E+02 -0.18550816972E+03  0.19416160275E+03  0.47000000000E+01 0. -1.
          5    1    5    5  503    0  0.17186724660E+02  0.28518233519E+02  0.10790318084E+02  0.35315635516E+02  0.47000000000E+01 0. -1.
         -5    1    5    5    0  503 -0.60530337194E+02  0.38800657236E+01 -0.13888881688E+03  0.15162839472E+03  0.47000000000E+01 0. -1.
<mgrwt>
<rscale>  0 0.27345536E+03</rscale>
<asrwt>0</asrwt>
<pdfrwt beam="1">  1        1 0.53960054E-01 0.27345536E+03</pdfrwt>
<pdfrwt beam="2">  1       -1 0.81999993E-02 0.27345536E+03</pdfrwt>
<totfact> 0.59104556E+03</totfact>
</mgrwt>
</event>
<event>
 9    1  0.7984035E-001  0.2731765E+03  0.7818608E-02  0.1099475E+00
          2   -1    0    0  501    0  0.00000000000E+00  0.00000000000E+00  0.31828092509E+04  0.31828092509E+04  0.00000000000E+00 0. -1.
         -2   -1    0    0    0  501 -0.00000000000E+00 -0.00000000000E+00 -0.58615995785E+01  0.58615995785E+01  0.00000000000E+00 0. -1.
         35    2    1    2    0    0  0.71054273576E-14 -0.35527136788E-14  0.31769476513E+04  0.31886708505E+04  0.27317652435E+03 0.  0.
         25    2    3    3    0    0 -0.14857848751E+02  0.24660019583E+02  0.10104672025E+04  0.10184180968E+04  0.12370359825E+03 0.  0.
         25    2    3    3    0    0  0.14857848751E+02 -0.24660019583E+02  0.21664804488E+04  0.21702527537E+04  0.12462185890E+03 0.  0.
          5    1    4    4  502    0  0.50543421694E+02  0.33531487530E+02  0.48886134338E+03  0.49263221696E+03  0.47000000000E+01 0. -1.
         -5    1    4    4    0  502 -0.65401270445E+02 -0.88714679466E+01  0.52160585914E+03  0.52578587981E+03  0.47000000000E+01 0. -1.
          5    1    5    5  503    0 -0.32863167308E+02  0.12843655234E+02  0.22332557036E+03  0.22614452817E+03  0.47000000000E+01 0. -1.
         -5    1    5    5    0  503  0.47721016059E+02 -0.37503674817E+02  0.19431548785E+04  0.19441082256E+04  0.47000000000E+01 0. -1.
<mgrwt>
<rscale>  0 0.27317652E+03</rscale>
<asrwt>0</asrwt>
<pdfrwt beam="1">  1        2 0.48966158E+00 0.27317652E+03</pdfrwt>
<pdfrwt beam="2">  1       -2 0.90178709E-03 0.27317652E+03</pdfrwt>
<totfact> 0.40042864E+03</totfact>
</mgrwt>
</event>
<event>
 9    1  0.7984035E-001  0.2720574E+03  0.7818608E-02  0.1100108E+00
         -1   -1    0    0    0  501 -0.00000000000E+00  0.00000000000E+00  0.13007672941E+02  0.13007672941E+02  0.00000000000E+00 0. -1.
          1   -1    0    0  501    0  0.00000000000E+00 -0.00000000000E+00 -0.14225301172E+04  0.14225301172E+04  0.00000000000E+00 0. -1.
         35    2    1    2    0    0  0.44408920985E-14 -0.14210854715E-13 -0.14095224443E+04  0.14355377902E+04  0.27205739478E+03 0.  0.
         25    2    3    3    0    0  0.50662146038E+01 -0.53189973574E+02 -0.72599124728E+03  0.73863679322E+03  0.12516461703E+03 0.  0.
         25    2    3    3    0    0 -0.50662146038E+01  0.53189973574E+02 -0.68353119703E+03  0.69690099697E+03  0.12490501369E+03 0.  0.
          5    1    4    4  502    0  0.58289176540E+02  0.20405777350E+01 -0.27643892980E+03  0.28256391129E+03  0.47000000000E+01 0.  1.
         -5    1    4    4    0  502 -0.53222961936E+02 -0.55230551309E+02 -0.44955231749E+03  0.45607288193E+03  0.47000000000E+01 0.  1.
          5    1    5    5  503    0 -0.59209530612E+01  0.94190547447E+02 -0.46442925930E+03  0.47394466324E+03  0.47000000000E+01 0. -1.
         -5    1    5    5    0  503  0.85473845738E+00 -0.41000573873E+02 -0.21910193772E+03  0.22295633373E+03  0.47000000000E+01 0. -1.
<mgrwt>
<rscale>  0 0.27205739E+03</rscale>
<asrwt>0</asrwt>
<pdfrwt beam="1">  1        1 0.21885067E+00 0.27205739E+03</pdfrwt>
<pdfrwt beam="2">  1       -1 0.20011815E-02 0.27205739E+03</pdfrwt>
<totfact> 0.55211482E+03</totfact>
</mgrwt>
</event>
<event>
 9    1  0.7984035E-001  0.2741310E+03  0.7818608E-02  0.1098938E+00
          2   -1    0    0  501    0  0.00000000000E+00  0.00000000000E+00  0.10348408021E+04  0.10348408021E+04  0.00000000000E+00 0. -1.
         -2   -1    0    0    0  501 -0.00000000000E+00 -0.00000000000E+00 -0.18154441135E+02  0.18154441135E+02  0.00000000000E+00 0. -1.
         35    2    1    2    0    0  0.71054273576E-14  0.35527136788E-14  0.10166863609E+04  0.10529952432E+04  0.27413103746E+03 0.  0.
         25    2    3    3    0    0 -0.34982524630E+02 -0.24136957207E+02  0.64618023775E+03  0.65991873769E+03  0.12703334585E+03 0.  0.
         25    2    3    3    0    0  0.34982524630E+02  0.24136957207E+02  0.37050612320E+03  0.39307650553E+03  0.12420942855E+03 0.  0.
          5    1    4    4  502    0 -0.65706799579E+02 -0.57754725703E+02  0.45223807784E+03  0.46064559142E+03  0.47000000000E+01 0. -1.
         -5    1    4    4    0  502  0.30724274949E+02  0.33617768496E+02  0.19394215992E+03  0.19927314627E+03  0.47000000000E+01 0. -1.
          5    1    5    5  503    0 -0.32963282906E+02 -0.18074378724E+02  0.50152990577E+02  0.62854384493E+02  0.47000000000E+01 0. -1.
         -5    1    5    5    0  503  0.67945807536E+02  0.42211335931E+02  0.32035313262E+03  0.33022212104E+03  0.47000000000E+01 0. -1.
<mgrwt>
<rscale>  0 0.27413104E+03</rscale>
<asrwt>0</asrwt>
<pdfrwt beam="1">  1        2 0.15920623E+00 0.27413104E+03</pdfrwt>
<pdfrwt beam="2">  1       -2 0.27929917E-02 0.27413104E+03</pdfrwt>
<totfact> 0.11751572E+04</totfact>
</mgrwt>
</event>
<event>
 9    1  0.7984035E-001  0.2737068E+03  0.7818608E-02  0.1099177E+00
         -2   -1    0    0    0  501 -0.00000000000E+00  0.00000000000E+00  0.15548314715E+02  0.15548314715E+02  0.00000000000E+00 0.  1.
          2   -1    0    0  501    0  0.00000000000E+00 -0.00000000000E+00 -0.12045579688E+04  0.12045579688E+04  0.00000000000E+00 0.  1.
         35    2    1    2    0    0  0.00000000000E+00 -0.71054273576E-14 -0.11890096541E+04  0.12201062835E+04  0.27370675104E+03 0.  0.
         25    2    3    3    0    0 -0.50660801862E+02  0.18554181133E+02 -0.53430605971E+03  0.55139708430E+03  0.12507999301E+03 0.  0.
         25    2    3    3    0    0  0.50660801862E+02 -0.18554181133E+02 -0.65470359436E+03  0.66870919920E+03  0.12499768854E+03 0.  0.
          5    1    4    4  502    0 -0.59713081442E+01  0.67526948315E+02 -0.31472140904E+03  0.32197391289E+03  0.47000000000E+01 0. -1.
         -5    1    4    4    0  502 -0.44689493717E+02 -0.48972767182E+02 -0.21958465066E+03  0.22942317141E+03  0.47000000000E+01 0. -1.
          5    1    5    5  503    0 -0.21761258163E+02  0.34588547576E+02 -0.13004152651E+03  0.13639211340E+03  0.47000000000E+01 0. -1.
         -5    1    5    5    0  503  0.72422060025E+02 -0.53142728709E+02 -0.52466206784E+03  0.53231708579E+03  0.47000000000E+01 0. -1.
<mgrwt>
<rscale>  0 0.27370675E+03</rscale>
<asrwt>0</asrwt>
<pdfrwt beam="1">  1        2 0.18531667E+00 0.27370675E+03</pdfrwt>
<pdfrwt beam="2">  1       -2 0.23920477E-02 0.27370675E+03</pdfrwt>
<totfact> 0.11767458E+04</totfact>
</mgrwt>
</event>
<event>
 9    1  0.7984035E-001  0.2741285E+03  0.7818608E-02  0.1098940E+00
          1   -1    0    0  501    0  0.00000000000E+00  0.00000000000E+00  0.44259127972E+02  0.44259127972E+02  0.00000000000E+00 0. -1.
         -1   -1    0    0    0  501 -0.00000000000E+00 -0.00000000000E+00 -0.42446869170E+03  0.42446869170E+03  0.00000000000E+00 0. -1.
         35    2    1    2    0    0  0.35527136788E-14 -0.71054273576E-14 -0.38020956373E+03  0.46872781967E+03  0.27412854026E+03 0.  0.
         25    2    3    3    0    0 -0.31290657871E+02  0.43305153882E+02 -0.19290832092E+03  0.23735805940E+03  0.12755699298E+03 0.  0.
         25    2    3    3    0    0  0.31290657871E+02 -0.43305153882E+02 -0.18730124281E+03  0.23136976028E+03  0.12488302042E+03 0.  0.
          5    1    4    4  502    0 -0.27947668796E+02 -0.36145900782E+02 -0.12327494713E+03  0.13155379480E+03  0.47000000000E+01 0.  1.
         -5    1    4    4    0  502 -0.33429890749E+01  0.79451054663E+02 -0.69633373786E+02  0.10580426460E+03  0.47000000000E+01 0.  1.
          5    1    5    5  503    0  0.43917836236E+02  0.26412112752E+00 -0.61853041046E+01  0.44600382134E+02  0.47000000000E+01 0. -1.
         -5    1    5    5    0  503 -0.12627178365E+02 -0.43569275009E+02 -0.18111593871E+03  0.18676937814E+03  0.47000000000E+01 0. -1.
<mgrwt>
<rscale>  0 0.27412854E+03</rscale>
<asrwt>0</asrwt>
<pdfrwt beam="1">  1        1 0.68090969E-02 0.27412854E+03</pdfrwt>
<pdfrwt beam="2">  1       -1 0.65302873E-01 0.27412854E+03</pdfrwt>
<totfact> 0.26641936E+03</totfact>
</mgrwt>
</event>
<event>
 9    1  0.7984035E-001  0.2888841E+03  0.7818608E-02  0.1090933E+00
         -4   -1    0    0    0  501 -0.00000000000E+00  0.00000000000E+00  0.24961004534E+03  0.24961004534E+03  0.00000000000E+00 0.  1.
          4   -1    0    0  501    0  0.00000000000E+00 -0.00000000000E+00 -0.83584392466E+02  0.83584392466E+02  0.00000000000E+00 0.  1.
         35    2    1    2    0    0 -0.71054273576E-14  0.00000000000E+00  0.16602565287E+03  0.33319443780E+03  0.28888408743E+03 0.  0.
         25    2    3    3    0    0 -0.29440238065E+02 -0.61089592886E+02  0.11560613671E+03  0.18320277390E+03  0.12489920553E+03 0.  0.
         25    2    3    3    0    0  0.29440238065E+02  0.61089592886E+02  0.50419516163E+02  0.14999166390E+03  0.12392217580E+03 0.  0.
          5    1    4    4  502    0 -0.67629081451E+02 -0.43183995237E+02  0.26716786142E+02  0.84701987960E+02  0.47000000000E+01 0. -1.
         -5    1    4    4    0  502  0.38188843386E+02 -0.17905597648E+02  0.88889350566E+02  0.98500785937E+02  0.47000000000E+01 0. -1.
          5    1    5    5  503    0 -0.33938907640E+01 -0.35761245255E+02  0.82350165040E+00  0.36237457301E+02  0.47000000000E+01 0. -1.
         -5    1    5    5    0  503  0.32834128829E+02  0.96850838140E+02  0.49596014513E+02  0.11375420660E+03  0.47000000000E+01 0. -1.
<mgrwt>
<rscale>  0 0.28888409E+03</rscale>
<asrwt>0</asrwt>
<pdfrwt beam="1">  1        4 0.12859137E-01 0.28888409E+03</pdfrwt>
<pdfrwt beam="2">  1       -4 0.38401545E-01 0.28888409E+03</pdfrwt>
<totfact> 0.61333163E+02</totfact>
</mgrwt>
</event>
<event>
 9    1  0.7984035E-001  0.2748138E+03  0.7818608E-02  0.1098556E+00
          1   -1    0    0  501    0  0.00000000000E+00  0.00000000000E+00  0.85814819364E+03  0.85814819364E+03  0.00000000000E+00 0. -1.
         -1   -1    0    0    0  501 -0.00000000000E+00 -0.00000000000E+00 -0.22001622855E+02  0.22001622855E+02  0.00000000000E+00 0. -1.
         35    2    1    2    0    0  0.00000000000E+00  0.00000000000E+00  0.83614657079E+03  0.88014981650E+03  0.27481377629E+03 0.  0.
         25    2    3    3    0    0  0.39261999655E+02  0.38132732418E+02  0.37153102568E+03  0.39585679133E+03  0.12518660591E+03 0.  0.
         25    2    3    3    0    0 -0.39261999655E+02 -0.38132732418E+02  0.46461554510E+03  0.48429302517E+03  0.12520590871E+03 0.  0.
          5    1    4    4  502    0 -0.33445610056E+02  0.42082911893E+02  0.89216315921E+02  0.10426514917E+03  0.47000000000E+01 0.  1.
         -5    1    4    4    0  502  0.72707609712E+02 -0.39501794749E+01  0.28231470976E+03  0.29159164216E+03  0.47000000000E+01 0.  1.
          5    1    5    5  503    0 -0.82943823620E+02 -0.86982704302E+01  0.29807761294E+03  0.30956048055E+03  0.47000000000E+01 0. -1.
         -5    1    5    5    0  503  0.43681823965E+02 -0.29434461988E+02  0.16653793216E+03  0.17473254461E+03  0.47000000000E+01 0. -1.
<mgrwt>
<rscale>  0 0.27481378E+03</rscale>
<asrwt>0</asrwt>
<pdfrwt beam="1">  1        1 0.13202277E+00 0.27481378E+03</pdfrwt>
<pdfrwt beam="2">  1       -1 0.33848657E-02 0.27481378E+03</pdfrwt>
<totfact> 0.64959537E+03</totfact>
</mgrwt>
</event>
<event>
 9    1  0.7984035E-001  0.2928472E+03  0.7818608E-02  0.1088872E+00
         -2   -1    0    0    0  501 -0.00000000000E+00  0.00000000000E+00  0.18251445606E+02  0.18251445606E+02  0.00000000000E+00 0.  1.
          2   -1    0    0  501    0  0.00000000000E+00 -0.00000000000E+00 -0.11746947353E+04  0.11746947353E+04  0.00000000000E+00 0.  1.
         35    2    1    2    0    0  0.00000000000E+00  0.00000000000E+00 -0.11564432897E+04  0.11929461809E+04  0.29284724390E+03 0.  0.
         25    2    3    3    0    0  0.50357687253E+02  0.26171644014E+01 -0.78279854563E+03  0.79634354286E+03  0.13728338943E+03 0.  0.
         25    2    3    3    0    0 -0.50357687253E+02 -0.26171644014E+01 -0.37364474406E+03  0.39660263804E+03  0.12304678589E+03 0.  0.
          5    1    4    4  502    0 -0.27447161491E+01 -0.62122837527E+02 -0.34132896222E+03  0.34697886226E+03  0.47000000000E+01 0. -1.
         -5    1    4    4    0  502  0.53102403403E+02  0.64740001928E+02 -0.44146958341E+03  0.44936468060E+03  0.47000000000E+01 0. -1.
          5    1    5    5  503    0 -0.58079968349E+02 -0.29001948685E+02 -0.35947308210E+03  0.36531819350E+03  0.47000000000E+01 0. -1.
         -5    1    5    5    0  503  0.77222810959E+01  0.26384784284E+02 -0.14171661966E+02  0.31284444536E+02  0.47000000000E+01 0. -1.
<mgrwt>
<rscale>  0 0.29284724E+03</rscale>
<asrwt>0</asrwt>
<pdfrwt beam="1">  1        2 0.18072226E+00 0.29284724E+03</pdfrwt>
<pdfrwt beam="2">  1       -2 0.28079148E-02 0.29284724E+03</pdfrwt>
<totfact> 0.96660686E+03</totfact>
</mgrwt>
</event>
<event>
 9    1  0.7984035E-001  0.2875165E+03  0.7818608E-02  0.1091653E+00
          1   -1    0    0  501    0  0.00000000000E+00  0.00000000000E+00  0.21855407068E+04  0.21855407068E+04  0.00000000000E+00 0.  1.
         -1   -1    0    0    0  501 -0.00000000000E+00 -0.00000000000E+00 -0.94559823830E+01  0.94559823830E+01  0.00000000000E+00 0.  1.
         35    2    1    2    0    0  0.00000000000E+00 -0.35527136788E-14  0.21760847245E+04  0.21949966892E+04  0.28751649985E+03 0.  0.
         25    2    3    3    0    0 -0.52833240435E+02 -0.30146728534E+02  0.78981908872E+03  0.80185756832E+03  0.12434303528E+03 0.  0.
         25    2    3    3    0    0  0.52833240435E+02  0.30146728534E+02  0.13862656357E+04  0.13931391209E+04  0.12411293583E+03 0.  0.
          5    1    4    4  502    0  0.12414001453E+02 -0.36096397380E+02  0.77519225624E+02  0.86535412851E+02  0.47000000000E+01 0. -1.
         -5    1    4    4    0  502 -0.65247241888E+02  0.59496688461E+01  0.71229986310E+03  0.71532215546E+03  0.47000000000E+01 0. -1.
          5    1    5    5  503    0 -0.18577728997E+02 -0.10961182165E+02  0.87310591686E+03  0.87338497330E+03  0.47000000000E+01 0. -1.
         -5    1    5    5    0  503  0.71410969432E+02  0.41107910698E+02  0.51315971887E+03  0.51975414760E+03  0.47000000000E+01 0. -1.
<mgrwt>
<rscale>  0 0.28751650E+03</rscale>
<asrwt>0</asrwt>
<pdfrwt beam="1">  1        1 0.33623663E+00 0.28751650E+03</pdfrwt>
<pdfrwt beam="2">  1       -1 0.14547683E-02 0.28751650E+03</pdfrwt>
<totfact> 0.27868601E+03</totfact>
</mgrwt>
</event>
<event>
 9    1  0.7984035E-001  0.2748714E+03  0.7818608E-02  0.1098523E+00
         -2   -1    0    0    0  501 -0.00000000000E+00  0.00000000000E+00  0.10070139663E+02  0.10070139663E+02  0.00000000000E+00 0. -1.
          2   -1    0    0  501    0  0.00000000000E+00 -0.00000000000E+00 -0.18757016200E+04  0.18757016200E+04  0.00000000000E+00 0. -1.
         35    2    1    2    0    0  0.00000000000E+00  0.35527136788E-14 -0.18656314804E+04  0.18857717597E+04  0.27487144108E+03 0.  0.
         25    2    3    3    0    0 -0.39484373447E+02 -0.19077599506E+02 -0.70174125799E+03  0.71437322943E+03  0.12635405497E+03 0.  0.
         25    2    3    3    0    0  0.39484373447E+02  0.19077599506E+02 -0.11638902224E+04  0.11713985303E+04  0.12494437328E+03 0.  0.
          5    1    4    4  502    0  0.28299083871E+02  0.31201580474E+02 -0.35295974687E+03  0.35549549882E+03  0.47000000000E+01 0.  1.
         -5    1    4    4    0  502 -0.67783457318E+02 -0.50279179980E+02 -0.34878151112E+03  0.35887773061E+03  0.47000000000E+01 0.  1.
          5    1    5    5  503    0 -0.43391322280E+02  0.62568439047E+01 -0.27064285459E+03  0.27421086720E+03  0.47000000000E+01 0. -1.
         -5    1    5    5    0  503  0.82875695727E+02  0.12820755601E+02 -0.89324736779E+03  0.89718766308E+03  0.47000000000E+01 0. -1.
<mgrwt>
<rscale>  0 0.27487144E+03</rscale>
<asrwt>0</asrwt>
<pdfrwt beam="1">  1        2 0.28856922E+00 0.27487144E+03</pdfrwt>
<pdfrwt beam="2">  1       -2 0.15492537E-02 0.27487144E+03</pdfrwt>
<totfact> 0.97174012E+03</totfact>
</mgrwt>
</event>
<event>
 9    1  0.7984035E-001  0.2726673E+03  0.7818608E-02  0.1099763E+00
         -4   -1    0    0    0  501 -0.00000000000E+00  0.00000000000E+00  0.40931677463E+02  0.40931677463E+02  0.00000000000E+00 0. -1.
          4   -1    0    0  501    0  0.00000000000E+00 -0.00000000000E+00 -0.45409501396E+03  0.45409501396E+03  0.00000000000E+00 0. -1.
         35    2    1    2    0    0  0.00000000000E+00  0.71054273576E-14 -0.41316333650E+03  0.49502669143E+03  0.27266734787E+03 0.  0.
         25    2    3    3    0    0  0.93296460639E+01  0.43548258238E+02 -0.26733161128E+03  0.29829970250E+03  0.12463157317E+03 0.  0.
         25    2    3    3    0    0 -0.93296460639E+01 -0.43548258238E+02 -0.14583172522E+03  0.19672698893E+03  0.12430254623E+03 0.  0.
          5    1    4    4  502    0  0.43649378837E+01 -0.16639012871E+02 -0.22181400534E+03  0.22252966633E+03  0.47000000000E+01 0. -1.
         -5    1    4    4    0  502  0.49647081802E+01  0.60187271108E+02 -0.45517605940E+02  0.75770036171E+02  0.47000000000E+01 0. -1.
          5    1    5    5  503    0  0.57312934188E+02 -0.23909982790E+02 -0.73172952359E+02  0.96087619697E+02  0.47000000000E+01 0. -1.
         -5    1    5    5    0  503 -0.66642580252E+02 -0.19638275448E+02 -0.72658772864E+02  0.10063936923E+03  0.47000000000E+01 0. -1.
<mgrwt>
<rscale>  0 0.27266735E+03</rscale>
<asrwt>0</asrwt>
<pdfrwt beam="1">  1        4 0.69860776E-01 0.27266735E+03</pdfrwt>
<pdfrwt beam="2">  1       -4 0.62971807E-02 0.27266735E+03</pdfrwt>
<totfact> 0.58765960E+02</totfact>
</mgrwt>
</event>
<event>
 9    1  0.7984035E-001  0.2770478E+03  0.7818608E-02  0.1097312E+00
         -1   -1    0    0    0  501 -0.00000000000E+00  0.00000000000E+00  0.19418949599E+02  0.19418949599E+02  0.00000000000E+00 0.  1.
          1   -1    0    0  501    0  0.00000000000E+00 -0.00000000000E+00 -0.98815184266E+03  0.98815184266E+03  0.00000000000E+00 0.  1.
         35    2    1    2    0    0  0.00000000000E+00  0.00000000000E+00 -0.96873289306E+03  0.10075707923E+04  0.27704779970E+03 0.  0.
         25    2    3    3    0    0 -0.12938890174E+02 -0.36988485160E+02 -0.65051174892E+03  0.66355539805E+03  0.12491864507E+03 0.  0.
         25    2    3    3    0    0  0.12938890174E+02  0.36988485160E+02 -0.31822114414E+03  0.34401539421E+03  0.12468493077E+03 0.  0.
          5    1    4    4  502    0 -0.72589016767E+01  0.39366690837E+02 -0.38734775221E+03  0.38943908271E+03  0.47000000000E+01 0.  1.
         -5    1    4    4    0  502 -0.56799884968E+01 -0.76355175997E+02 -0.26316399671E+03  0.27411631534E+03  0.47000000000E+01 0.  1.
          5    1    5    5  503    0  0.36450281690E+02  0.15212723696E+02 -0.30725678467E+03  0.30982070899E+03  0.47000000000E+01 0.  1.
         -5    1    5    5    0  503 -0.23511391516E+02  0.21775761464E+02 -0.10964359475E+02  0.34194685217E+02  0.47000000000E+01 0.  1.
<mgrwt>
<rscale>  0 0.27704780E+03</rscale>
<asrwt>0</asrwt>
<pdfrwt beam="1">  1        1 0.15202336E+00 0.27704780E+03</pdfrwt>
<pdfrwt beam="2">  1       -1 0.29875307E-02 0.27704780E+03</pdfrwt>
<totfact> 0.61922859E+03</totfact>
</mgrwt>
</event>
<event>
 9    1  0.7984035E-001  0.2742804E+03  0.7818608E-02  0.1098855E+00
         -1   -1    0    0    0  501 -0.00000000000E+00  0.00000000000E+00  0.24914417427E+02  0.24914417427E+02  0.00000000000E+00 0. -1.
          1   -1    0    0  501    0  0.00000000000E+00 -0.00000000000E+00 -0.75488159273E+03  0.75488159273E+03  0.00000000000E+00 0. -1.
         35    2    1    2    0    0  0.00000000000E+00  0.00000000000E+00 -0.72996717530E+03  0.77979601016E+03  0.27428040476E+03 0.  0.
         25    2    3    3    0    0  0.13163578650E+02 -0.19386934345E+02 -0.51072848826E+03  0.52624638064E+03  0.12466968912E+03 0.  0.
         25    2    3    3    0    0 -0.13163578650E+02  0.19386934345E+02 -0.21923868704E+03  0.25354962952E+03  0.12519057356E+03 0.  0.
          5    1    4    4  502    0  0.28587636298E+02  0.28686277177E+02 -0.59207423587E+02  0.71887164746E+02  0.47000000000E+01 0.  1.
         -5    1    4    4    0  502 -0.15424057648E+02 -0.48073211522E+02 -0.45152106468E+03  0.45435921589E+03  0.47000000000E+01 0.  1.
          5    1    5    5  503    0 -0.25922596796E+02 -0.48838604275E+02 -0.73854529358E+02  0.92378416304E+02  0.47000000000E+01 0.  1.
         -5    1    5    5    0  503  0.12759018146E+02  0.68225538620E+02 -0.14538415768E+03  0.16117121321E+03  0.47000000000E+01 0.  1.
<mgrwt>
<rscale>  0 0.27428040E+03</rscale>
<asrwt>0</asrwt>
<pdfrwt beam="1">  1        1 0.11613562E+00 0.27428040E+03</pdfrwt>
<pdfrwt beam="2">  1       -1 0.38329877E-02 0.27428040E+03</pdfrwt>
<totfact> 0.65853157E+03</totfact>
</mgrwt>
</event>
<event>
 9    1  0.7984035E-001  0.2771499E+03  0.7818608E-02  0.1097256E+00
          1   -1    0    0  501    0  0.00000000000E+00  0.00000000000E+00  0.52571007988E+02  0.52571007988E+02  0.00000000000E+00 0. -1.
         -1   -1    0    0    0  501 -0.00000000000E+00 -0.00000000000E+00 -0.36527756666E+03  0.36527756666E+03  0.00000000000E+00 0. -1.
         35    2    1    2    0    0  0.71054273576E-14  0.00000000000E+00 -0.31270655867E+03  0.41784857465E+03  0.27714985026E+03 0.  0.
         25    2    3    3    0    0  0.13081470619E+02 -0.56726339084E+02 -0.12931137984E+03  0.18942329313E+03  0.12558164118E+03 0.  0.
         25    2    3    3    0    0 -0.13081470619E+02  0.56726339084E+02 -0.18339517883E+03  0.22842528152E+03  0.12310692589E+03 0.  0.
          5    1    4    4  502    0 -0.55947847232E+02 -0.31984560925E+02 -0.54075960318E+02  0.84258371880E+02  0.47000000000E+01 0.  1.
         -5    1    4    4    0  502  0.69029317852E+02 -0.24741778160E+02 -0.75235419526E+02  0.10516492125E+03  0.47000000000E+01 0.  1.
          5    1    5    5  503    0 -0.17636989602E+02  0.54106759151E+02 -0.20126830309E+03  0.20921191318E+03  0.47000000000E+01 0.  1.
         -5    1    5    5    0  503  0.45555189831E+01  0.26195799338E+01  0.17873124261E+02  0.19213368343E+02  0.47000000000E+01 0.  1.
<mgrwt>
<rscale>  0 0.27714985E+03</rscale>
<asrwt>0</asrwt>
<pdfrwt beam="1">  1        1 0.80878476E-02 0.27714985E+03</pdfrwt>
<pdfrwt beam="2">  1       -1 0.56196547E-01 0.27714985E+03</pdfrwt>
<totfact> 0.28152387E+03</totfact>
</mgrwt>
</event>
<event>
 9    1  0.7984035E-001  0.2788431E+03  0.7818608E-02  0.1096322E+00
         -2   -1    0    0    0  501 -0.00000000000E+00  0.00000000000E+00  0.11969242531E+02  0.11969242531E+02  0.00000000000E+00 0. -1.
          2   -1    0    0  501    0  0.00000000000E+00 -0.00000000000E+00 -0.16240266847E+04  0.16240266847E+04  0.00000000000E+00 0. -1.
         35    2    1    2    0    0  0.00000000000E+00 -0.35527136788E-14 -0.16120574421E+04  0.16359959272E+04  0.27884310474E+03 0.  0.
         25    2    3    3    0    0  0.39389283229E+02  0.16790441384E+02 -0.59014404317E+03  0.60550793747E+03  0.12859407489E+03 0.  0.
         25    2    3    3    0    0 -0.39389283229E+02 -0.16790441384E+02 -0.10219133990E+04  0.10304879897E+04  0.12555901970E+03 0.  0.
          5    1    4    4  502    0 -0.32562061538E+02  0.19514496012E+02 -0.40496321389E+03  0.40676577783E+03  0.47000000000E+01 0.  1.
         -5    1    4    4    0  502  0.71951344767E+02 -0.27240546272E+01 -0.18518082928E+03  0.19874215964E+03  0.47000000000E+01 0.  1.
          5    1    5    5  503    0 -0.67901417515E+02  0.28830850616E+02 -0.71984853145E+03  0.72363376005E+03  0.47000000000E+01 0. -1.
         -5    1    5    5    0  503  0.28512134286E+02 -0.45621292000E+02 -0.30206486752E+03  0.30685422968E+03  0.47000000000E+01 0. -1.
<mgrwt>
<rscale>  0 0.27884310E+03</rscale>
<asrwt>0</asrwt>
<pdfrwt beam="1">  1        2 0.24985024E+00 0.27884310E+03</pdfrwt>
<pdfrwt beam="2">  1       -2 0.18414221E-02 0.27884310E+03</pdfrwt>
<totfact> 0.10234231E+04</totfact>
</mgrwt>
</event>
<event>
 9    1  0.7984035E-001  0.2728074E+03  0.7818608E-02  0.1099684E+00
         -2   -1    0    0    0  501 -0.00000000000E+00  0.00000000000E+00  0.95113936008E+02  0.95113936008E+02  0.00000000000E+00 0. -1.
          2   -1    0    0  501    0  0.00000000000E+00 -0.00000000000E+00 -0.19561768668E+03  0.19561768668E+03  0.00000000000E+00 0. -1.
         35    2    1    2    0    0  0.00000000000E+00  0.00000000000E+00 -0.10050375067E+03  0.29073162268E+03  0.27280739090E+03 0.  0.
         25    2    3    3    0    0  0.33861136211E+02  0.28965614213E+02 -0.73742235365E+02  0.15113053386E+03  0.12416496139E+03 0.  0.
         25    2    3    3    0    0 -0.33861136211E+02 -0.28965614213E+02 -0.26761515304E+02  0.13960108882E+03  0.12956350546E+03 0.  0.
          5    1    4    4  502    0  0.37184579330E+02 -0.43682080091E+02 -0.43869314628E+02  0.72370047858E+02  0.47000000000E+01 0.  1.
         -5    1    4    4    0  502 -0.33234431190E+01  0.72647694304E+02 -0.29872920737E+02  0.78760486002E+02  0.47000000000E+01 0.  1.
          5    1    5    5  503    0 -0.67320282495E+02 -0.57144116234E+02 -0.34518365823E+02  0.94926698217E+02  0.47000000000E+01 0. -1.
         -5    1    5    5    0  503  0.33459146284E+02  0.28178502020E+02  0.77568505189E+01  0.44674390607E+02  0.47000000000E+01 0. -1.
<mgrwt>
<rscale>  0 0.27280739E+03</rscale>
<asrwt>0</asrwt>
<pdfrwt beam="1">  1        2 0.30095029E-01 0.27280739E+03</pdfrwt>
<pdfrwt beam="2">  1       -2 0.14632913E-01 0.27280739E+03</pdfrwt>
<totfact> 0.61841675E+03</totfact>
</mgrwt>
</event>
<event>
 9    1  0.7984035E-001  0.2756689E+03  0.7818608E-02  0.1098078E+00
          2   -1    0    0  501    0  0.00000000000E+00  0.00000000000E+00  0.34490833326E+03  0.34490833326E+03  0.00000000000E+00 0. -1.
         -2   -1    0    0    0  501 -0.00000000000E+00 -0.00000000000E+00 -0.55082255530E+02  0.55082255530E+02  0.00000000000E+00 0. -1.
         35    2    1    2    0    0 -0.71054273576E-14  0.00000000000E+00  0.28982607773E+03  0.39999058879E+03  0.27566885168E+03 0.  0.
         25    2    3    3    0    0 -0.40681010701E+02 -0.12264783726E+02  0.89285163100E+02  0.15992025274E+03  0.12568722026E+03 0.  0.
         25    2    3    3    0    0  0.40681010701E+02  0.12264783726E+02  0.20054091463E+03  0.24007033605E+03  0.12494694177E+03 0.  0.
          5    1    4    4  502    0  0.28882855759E+02 -0.31696778292E+02  0.74435730271E+02  0.86032976537E+02  0.47000000000E+01 0. -1.
         -5    1    4    4    0  502 -0.69563866460E+02  0.19431994566E+02  0.14849432830E+02  0.73887276205E+02  0.47000000000E+01 0. -1.
          5    1    5    5  503    0  0.20759375255E+02  0.68538515389E+02  0.11767379494E+03  0.13783211443E+03  0.47000000000E+01 0.  1.
         -5    1    5    5    0  503  0.19921635446E+02 -0.56273731663E+02  0.82867119691E+02  0.10223822162E+03  0.47000000000E+01 0.  1.
<mgrwt>
<rscale>  0 0.27566885E+03</rscale>
<asrwt>0</asrwt>
<pdfrwt beam="1">  1        2 0.53062819E-01 0.27566885E+03</pdfrwt>
<pdfrwt beam="2">  1       -2 0.84741934E-02 0.27566885E+03</pdfrwt>
<totfact> 0.80520371E+03</totfact>
</mgrwt>
</event>
<event>
 9    1  0.7984035E-001  0.2768741E+03  0.7818608E-02  0.1097409E+00
         -2   -1    0    0    0  501 -0.00000000000E+00  0.00000000000E+00  0.51375393530E+02  0.51375393530E+02  0.00000000000E+00 0. -1.
          2   -1    0    0  501    0  0.00000000000E+00 -0.00000000000E+00 -0.37303501792E+03  0.37303501792E+03  0.00000000000E+00 0. -1.
         35    2    1    2    0    0  0.00000000000E+00  0.00000000000E+00 -0.32165962439E+03  0.42441041145E+03  0.27687412913E+03 0.  0.
         25    2    3    3    0    0 -0.25176920712E+01  0.57489366956E+02 -0.18877579589E+03  0.23411462050E+03  0.12594438587E+03 0.  0.
         25    2    3    3    0    0  0.25176920712E+01 -0.57489366956E+02 -0.13288382850E+03  0.19029579095E+03  0.12346258579E+03 0.  0.
          5    1    4    4  502    0 -0.46084376429E+02  0.68241973015E+02 -0.16163097075E+03  0.18145907896E+03  0.47000000000E+01 0.  1.
         -5    1    4    4    0  502  0.43566684358E+02 -0.10752606060E+02 -0.27144825136E+02  0.52655541538E+02  0.47000000000E+01 0.  1.
          5    1    5    5  503    0  0.43520445788E+02 -0.38692607204E+02 -0.99503439060E+01  0.59264208403E+02  0.47000000000E+01 0.  1.
         -5    1    5    5    0  503 -0.41002753716E+02 -0.18796759751E+02 -0.12293348459E+03  0.13103158254E+03  0.47000000000E+01 0.  1.
<mgrwt>
<rscale>  0 0.27687413E+03</rscale>
<asrwt>0</asrwt>
<pdfrwt beam="1">  1        2 0.57390002E-01 0.27687413E+03</pdfrwt>
<pdfrwt beam="2">  1       -2 0.79039068E-02 0.27687413E+03</pdfrwt>
<totfact> 0.82514273E+03</totfact>
</mgrwt>
</event>
<event>
 9    1  0.7984035E-001  0.2710901E+03  0.7818608E-02  0.1100657E+00
          2   -1    0    0  501    0  0.00000000000E+00  0.00000000000E+00  0.12132677251E+04  0.12132677251E+04  0.00000000000E+00 0. -1.
         -2   -1    0    0    0  501 -0.00000000000E+00 -0.00000000000E+00 -0.15142953664E+02  0.15142953664E+02  0.00000000000E+00 0. -1.
         35    2    1    2    0    0  0.00000000000E+00  0.35527136788E-14  0.11981247715E+04  0.12284106788E+04  0.27109007318E+03 0.  0.
         25    2    3    3    0    0 -0.21256823186E+02  0.22128968962E+02  0.74335835886E+03  0.75583794122E+03  0.13329591108E+03 0.  0.
         25    2    3    3    0    0  0.21256823186E+02 -0.22128968962E+02  0.45476641260E+03  0.47257273756E+03  0.12478364660E+03 0.  0.
          5    1    4    4  502    0 -0.80060712462E+01  0.38606880027E+02  0.58885307156E+02  0.71022234272E+02  0.47000000000E+01 0. -1.
         -5    1    4    4    0  502 -0.13250751940E+02 -0.16477911065E+02  0.68447305170E+03  0.68481570695E+03  0.47000000000E+01 0. -1.
          5    1    5    5  503    0  0.59625981748E+02  0.26610252152E+02  0.25990989946E+03  0.26802725431E+03  0.47000000000E+01 0.  1.
         -5    1    5    5    0  503 -0.38369158562E+02 -0.48739221114E+02  0.19485651314E+03  0.20454548325E+03  0.47000000000E+01 0.  1.
<mgrwt>
<rscale>  0 0.27109007E+03</rscale>
<asrwt>0</asrwt>
<pdfrwt beam="1">  1        2 0.18665650E+00 0.27109007E+03</pdfrwt>
<pdfrwt beam="2">  1       -2 0.23296861E-02 0.27109007E+03</pdfrwt>
<totfact> 0.12094219E+04</totfact>
</mgrwt>
</event>
<event>
 9    1  0.7984035E-001  0.2726960E+03  0.7818608E-02  0.1099746E+00
         -2   -1    0    0    0  501 -0.00000000000E+00  0.00000000000E+00  0.23379975410E+02  0.23379975410E+02  0.00000000000E+00 0.  1.
          2   -1    0    0  501    0  0.00000000000E+00 -0.00000000000E+00 -0.79515786682E+03  0.79515786682E+03  0.00000000000E+00 0.  1.
         35    2    1    2    0    0  0.35527136788E-14  0.14210854715E-13 -0.77177789142E+03  0.81853784223E+03  0.27269595797E+03 0.  0.
         25    2    3    3    0    0 -0.31930773456E+02 -0.45767441512E+02 -0.40298528899E+03  0.42549593721E+03  0.12464115067E+03 0.  0.
         25    2    3    3    0    0  0.31930773456E+02  0.45767441512E+02 -0.36879260242E+03  0.39304190503E+03  0.12393434758E+03 0.  0.
          5    1    4    4  502    0 -0.39721630004E+02 -0.47943904608E+02 -0.75921948868E+02  0.98298820945E+02  0.47000000000E+01 0.  1.
         -5    1    4    4    0  502  0.77908565486E+01  0.21764630965E+01 -0.32706334012E+03  0.32719711626E+03  0.47000000000E+01 0.  1.
          5    1    5    5  503    0 -0.14747551168E+02 -0.24064667129E+02 -0.21730711202E+02  0.35929267719E+02  0.47000000000E+01 0. -1.
         -5    1    5    5    0  503  0.46678324624E+02  0.69832108641E+02 -0.34706189122E+03  0.35711263731E+03  0.47000000000E+01 0. -1.
<mgrwt>
<rscale>  0 0.27269596E+03</rscale>
<asrwt>0</asrwt>
<pdfrwt beam="1">  1        2 0.12233197E+00 0.27269596E+03</pdfrwt>
<pdfrwt beam="2">  1       -2 0.35969196E-02 0.27269596E+03</pdfrwt>
<totfact> 0.11489403E+04</totfact>
</mgrwt>
</event>
<event>
 9    1  0.7984035E-001  0.2762331E+03  0.7818608E-02  0.1097764E+00
         -2   -1    0    0    0  501 -0.00000000000E+00  0.00000000000E+00  0.95205745829E+01  0.95205745829E+01  0.00000000000E+00 0. -1.
          2   -1    0    0  501    0  0.00000000000E+00 -0.00000000000E+00 -0.20036796244E+04  0.20036796244E+04  0.00000000000E+00 0. -1.
         35    2    1    2    0    0 -0.35527136788E-14  0.44408920985E-15 -0.19941590499E+04  0.20132001990E+04  0.27623309943E+03 0.  0.
         25    2    3    3    0    0  0.78843495426E+01 -0.25358872757E+00 -0.57374747667E+03  0.58726381504E+03  0.12502157488E+03 0.  0.
         25    2    3    3    0    0 -0.78843495426E+01  0.25358872757E+00 -0.14204115732E+04  0.14259363840E+04  0.12515313288E+03 0.  0.
          5    1    4    4  502    0 -0.24781385455E+02 -0.35481466929E+01 -0.53761248991E+03  0.53821555693E+03  0.47000000000E+01 0. -1.
         -5    1    4    4    0  502  0.32665734997E+02  0.32945579653E+01 -0.36134986759E+02  0.49048258105E+02  0.47000000000E+01 0. -1.
          5    1    5    5  503    0  0.14381047430E+02  0.53503590470E+02 -0.10013691079E+04  0.10029115759E+04  0.47000000000E+01 0. -1.
         -5    1    5    5    0  503 -0.22265396973E+02 -0.53250001742E+02 -0.41904246527E+03  0.42302480812E+03  0.47000000000E+01 0. -1.
<mgrwt>
<rscale>  0 0.27623310E+03</rscale>
<asrwt>0</asrwt>
<pdfrwt beam="1">  1        2 0.30825836E+00 0.27623310E+03</pdfrwt>
<pdfrwt beam="2">  1       -2 0.14647040E-02 0.27623310E+03</pdfrwt>
<totfact> 0.90363178E+03</totfact>
</mgrwt>
</event>
<event>
 9    1  0.7984035E-001  0.2736217E+03  0.7818608E-02  0.1099225E+00
          2   -1    0    0  501    0  0.00000000000E+00  0.00000000000E+00  0.18334810660E+03  0.18334810660E+03  0.00000000000E+00 0. -1.
         -2   -1    0    0    0  501 -0.00000000000E+00 -0.00000000000E+00 -0.10208567084E+03  0.10208567084E+03  0.00000000000E+00 0. -1.
         35    2    1    2    0    0  0.71054273576E-14 -0.71054273576E-14  0.81262435766E+02  0.28543377744E+03  0.27362174226E+03 0.  0.
         25    2    3    3    0    0 -0.37110107204E+02  0.38589710026E+02  0.23011782561E+02  0.13789961570E+03  0.12498174306E+03 0.  0.
         25    2    3    3    0    0  0.37110107204E+02 -0.38589710026E+02  0.58250653206E+02  0.14753416174E+03  0.12452656144E+03 0.  0.
          5    1    4    4  502    0 -0.28518683071E+02  0.71511756856E+01 -0.49780722040E+02  0.58005731481E+02  0.47000000000E+01 0.  1.
         -5    1    4    4    0  502 -0.85914241327E+01  0.31438534341E+02  0.72792504601E+02  0.79893884222E+02  0.47000000000E+01 0.  1.
          5    1    5    5  503    0  0.46222383771E+02 -0.34669643799E+01 -0.27642201939E+02  0.54172963104E+02  0.47000000000E+01 0. -1.
         -5    1    5    5    0  503 -0.91122765666E+01 -0.35122745646E+02  0.85892855144E+02  0.93361198636E+02  0.47000000000E+01 0. -1.
<mgrwt>
<rscale>  0 0.27362174E+03</rscale>
<asrwt>0</asrwt>
<pdfrwt beam="1">  1        2 0.28207401E-01 0.27362174E+03</pdfrwt>
<pdfrwt beam="2">  1       -2 0.15705488E-01 0.27362174E+03</pdfrwt>
<totfact> 0.59083776E+03</totfact>
</mgrwt>
</event>
<event>
 9    1  0.7984035E-001  0.2745331E+03  0.7818608E-02  0.1098713E+00
          2   -1    0    0  501    0  0.00000000000E+00  0.00000000000E+00  0.12214023854E+04  0.12214023854E+04  0.00000000000E+00 0.  1.
         -2   -1    0    0    0  501 -0.00000000000E+00 -0.00000000000E+00 -0.15426614465E+02  0.15426614465E+02  0.00000000000E+00 0.  1.
         35    2    1    2    0    0  0.00000000000E+00  0.00000000000E+00  0.12059757710E+04  0.12368289999E+04  0.27453308512E+03 0.  0.
         25    2    3    3    0    0 -0.40489296771E+02 -0.35060274178E+02  0.68208064643E+03  0.69559361687E+03  0.12549050010E+03 0.  0.
         25    2    3    3    0    0  0.40489296771E+02  0.35060274178E+02  0.52389512453E+03  0.54123538302E+03  0.12490409260E+03 0.  0.
          5    1    4    4  502    0 -0.40061647590E+01  0.46495968244E+02  0.24527740600E+03  0.24972188593E+03  0.47000000000E+01 0.  1.
         -5    1    4    4    0  502 -0.36483132012E+02 -0.81556242422E+02  0.43680324043E+03  0.44587173094E+03  0.47000000000E+01 0.  1.
          5    1    5    5  503    0 -0.38173788606E+02 -0.12817034095E+02  0.21828795858E+03  0.22202080389E+03  0.47000000000E+01 0. -1.
         -5    1    5    5    0  503  0.78663085377E+02  0.47877308273E+02  0.30560716596E+03  0.31921457914E+03  0.47000000000E+01 0. -1.
<mgrwt>
<rscale>  0 0.27453309E+03</rscale>
<asrwt>0</asrwt>
<pdfrwt beam="1">  1        2 0.18790798E+00 0.27453309E+03</pdfrwt>
<pdfrwt beam="2">  1       -2 0.23733263E-02 0.27453309E+03</pdfrwt>
<totfact> 0.11647335E+04</totfact>
</mgrwt>
</event>
<event>
 9    1  0.7984035E-001  0.2714381E+03  0.7818608E-02  0.1100459E+00
          2   -1    0    0  501    0  0.00000000000E+00  0.00000000000E+00  0.76613811883E+03  0.76613811883E+03  0.00000000000E+00 0.  1.
         -2   -1    0    0    0  501 -0.00000000000E+00 -0.00000000000E+00 -0.24042220788E+02  0.24042220788E+02  0.00000000000E+00 0.  1.
         35    2    1    2    0    0  0.00000000000E+00  0.71054273576E-14  0.74209589804E+03  0.79018033962E+03  0.27143810939E+03 0.  0.
         25    2    3    3    0    0 -0.34436349846E+02  0.32476408431E+02  0.31030950973E+03  0.33803810238E+03  0.12544794753E+03 0.  0.
         25    2    3    3    0    0  0.34436349846E+02 -0.32476408431E+02  0.43178638831E+03  0.45214223724E+03  0.12550911626E+03 0.  0.
          5    1    4    4  502    0  0.34797965298E+02  0.11274148205E+02  0.21558177481E+03  0.21871350310E+03  0.47000000000E+01 0. -1.
         -5    1    4    4    0  502 -0.69234315144E+02  0.21202260226E+02  0.94727734917E+02  0.11932459929E+03  0.47000000000E+01 0. -1.
          5    1    5    5  503    0  0.52952442586E+02  0.34878576276E+02  0.22593175301E+03  0.23470774013E+03  0.47000000000E+01 0.  1.
         -5    1    5    5    0  503 -0.18516092740E+02 -0.67354984707E+02  0.20585463530E+03  0.21743449710E+03  0.47000000000E+01 0.  1.
<mgrwt>
<rscale>  0 0.27143811E+03</rscale>
<asrwt>0</asrwt>
<pdfrwt beam="1">  1        2 0.11786738E+00 0.27143811E+03</pdfrwt>
<pdfrwt beam="2">  1       -2 0.36988038E-02 0.27143811E+03</pdfrwt>
<totfact> 0.11545158E+04</totfact>
</mgrwt>
</event>
<event>
 9    1  0.7984035E-001  0.2736057E+03  0.7818608E-02  0.1099234E+00
          4   -1    0    0  501    0  0.00000000000E+00  0.00000000000E+00  0.22856988714E+02  0.22856988714E+02  0.00000000000E+00 0. -1.
         -4   -1    0    0    0  501 -0.00000000000E+00 -0.00000000000E+00 -0.81878750706E+03  0.81878750706E+03  0.00000000000E+00 0. -1.
         35    2    1    2    0    0  0.00000000000E+00 -0.71054273576E-14 -0.79593051835E+03  0.84164449578E+03  0.27360567836E+03 0.  0.
         25    2    3    3    0    0  0.33003677138E+02 -0.30280741391E+02 -0.32794792804E+03  0.35364401808E+03  0.12453144990E+03 0.  0.
         25    2    3    3    0    0 -0.33003677138E+02  0.30280741391E+02 -0.46798259031E+03  0.48800047770E+03  0.13088390044E+03 0.  0.
          5    1    4    4  502    0  0.30620644248E+02 -0.23943200213E+02 -0.33821735171E+03  0.34047608975E+03  0.47000000000E+01 0. -1.
         -5    1    4    4    0  502  0.23830328898E+01 -0.63375411771E+01  0.10269423674E+02  0.13167928331E+02  0.47000000000E+01 0. -1.
          5    1    5    5  503    0 -0.67943648992E+02  0.37844822735E+02 -0.42413191602E+03  0.43122910643E+03  0.47000000000E+01 0.  1.
         -5    1    5    5    0  503  0.34939971855E+02 -0.75640813448E+01 -0.43850674295E+02  0.56771371271E+02  0.47000000000E+01 0.  1.
<mgrwt>
<rscale>  0 0.27360568E+03</rscale>
<asrwt>0</asrwt>
<pdfrwt beam="1">  1        4 0.35164603E-02 0.27360568E+03</pdfrwt>
<pdfrwt beam="2">  1       -4 0.12596729E+00 0.27360568E+03</pdfrwt>
<totfact> 0.38562146E+02</totfact>
</mgrwt>
</event>
<event>
 9    1  0.7984035E-001  0.2680736E+03  0.7818608E-02  0.1102387E+00
         -1   -1    0    0    0  501 -0.00000000000E+00  0.00000000000E+00  0.10852813507E+02  0.10852813507E+02  0.00000000000E+00 0.  1.
          1   -1    0    0  501    0  0.00000000000E+00 -0.00000000000E+00 -0.16554102063E+04  0.16554102063E+04  0.00000000000E+00 0.  1.
         35    2    1    2    0    0 -0.71054273576E-14 -0.71054273576E-14 -0.16445573928E+04  0.16662630198E+04  0.26807355891E+03 0.  0.
         25    2    3    3    0    0 -0.22763611169E+02  0.34587542308E+02 -0.64245771316E+03  0.65552412767E+03  0.12347262324E+03 0.  0.
         25    2    3    3    0    0  0.22763611169E+02 -0.34587542308E+02 -0.10020996796E+04  0.10107388921E+04  0.12519928143E+03 0.  0.
          5    1    4    4  502    0 -0.56540801936E+02 -0.96764409898E+01 -0.48583572562E+03  0.48923301001E+03  0.47000000000E+01 0.  1.
         -5    1    4    4    0  502  0.33777190766E+02  0.44263983298E+02 -0.15662198753E+03  0.16629111766E+03  0.47000000000E+01 0.  1.
          5    1    5    5  503    0  0.27184803271E+02 -0.28235976921E+02 -0.86364394946E+02  0.94958847065E+02  0.47000000000E+01 0. -1.
         -5    1    5    5    0  503 -0.44211921020E+01 -0.63515653870E+01 -0.91573528466E+03  0.91578004504E+03  0.47000000000E+01 0. -1.
<mgrwt>
<rscale>  0 0.26807356E+03</rscale>
<asrwt>0</asrwt>
<pdfrwt beam="1">  1        1 0.25467823E+00 0.26807356E+03</pdfrwt>
<pdfrwt beam="2">  1       -1 0.16696653E-02 0.26807356E+03</pdfrwt>
<totfact> 0.50461765E+03</totfact>
</mgrwt>
</event>
<event>
 9    1  0.7984035E-001  0.2766342E+03  0.7818608E-02  0.1097542E+00
          2   -1    0    0  501    0  0.00000000000E+00  0.00000000000E+00  0.21191103930E+04  0.21191103930E+04  0.00000000000E+00 0. -1.
         -2   -1    0    0    0  501 -0.00000000000E+00 -0.00000000000E+00 -0.90281406660E+01  0.90281406660E+01  0.00000000000E+00 0. -1.
         35    2    1    2    0    0  0.00000000000E+00  0.00000000000E+00  0.21100822523E+04  0.21281385336E+04  0.27663424744E+03 0.  0.
         25    2    3    3    0    0  0.54518576553E+02 -0.84003355821E+00  0.90504593326E+03  0.91571353101E+03  0.12825813316E+03 0.  0.
         25    2    3    3    0    0 -0.54518576553E+02  0.84003355821E+00  0.12050363190E+04  0.12124250026E+04  0.12201998168E+03 0.  0.
          5    1    4    4  502    0  0.63327015454E+02 -0.53282695049E+02  0.63989438877E+03  0.64524125353E+03  0.47000000000E+01 0.  1.
         -5    1    4    4    0  502 -0.88084389017E+01  0.52442661491E+02  0.26515154448E+03  0.27047227747E+03  0.47000000000E+01 0.  1.
          5    1    5    5  503    0 -0.77144672080E+02  0.14944182199E+02  0.44515845631E+03  0.45206500665E+03  0.47000000000E+01 0.  1.
         -5    1    5    5    0  503  0.22626095527E+02 -0.14104148641E+02  0.75987786274E+03  0.76035999598E+03  0.47000000000E+01 0.  1.
<mgrwt>
<rscale>  0 0.27663425E+03</rscale>
<asrwt>0</asrwt>
<pdfrwt beam="1">  1        2 0.32601659E+00 0.27663425E+03</pdfrwt>
<pdfrwt beam="2">  1       -2 0.13889464E-02 0.27663425E+03</pdfrwt>
<totfact> 0.84880336E+03</totfact>
</mgrwt>
</event>
<event>
 9    1  0.7984035E-001  0.2829453E+03  0.7818608E-02  0.1094091E+00
          1   -1    0    0  501    0  0.00000000000E+00  0.00000000000E+00  0.21993685104E+02  0.21993685104E+02  0.00000000000E+00 0.  1.
         -1   -1    0    0    0  501 -0.00000000000E+00 -0.00000000000E+00 -0.91001139332E+03  0.91001139332E+03  0.00000000000E+00 0.  1.
         35    2    1    2    0    0  0.35527136788E-14  0.35527136788E-14 -0.88801770822E+03  0.93200507843E+03  0.28294525284E+03 0.  0.
         25    2    3    3    0    0  0.11078746776E+02 -0.14873166938E+02 -0.25131385795E+03  0.28170600115E+03  0.12591928432E+03 0.  0.
         25    2    3    3    0    0 -0.11078746776E+02  0.14873166938E+02 -0.63670385027E+03  0.65029907727E+03  0.13097002416E+03 0.  0.
          5    1    4    4  502    0  0.28820612780E+02  0.30770743204E+02 -0.21847854940E+03  0.22255883022E+03  0.47000000000E+01 0.  1.
         -5    1    4    4    0  502 -0.17741866003E+02 -0.45643910143E+02 -0.32835308546E+02  0.59147170936E+02  0.47000000000E+01 0.  1.
          5    1    5    5  503    0  0.21641369671E+02 -0.38690712954E+02 -0.46997919058E+03  0.47208881551E+03  0.47000000000E+01 0.  1.
         -5    1    5    5    0  503 -0.32720116448E+02  0.53563879892E+02 -0.16672465969E+03  0.17821026176E+03  0.47000000000E+01 0.  1.
<mgrwt>
<rscale>  0 0.28294525E+03</rscale>
<asrwt>0</asrwt>
<pdfrwt beam="1">  1        1 0.33836445E-02 0.28294525E+03</pdfrwt>
<pdfrwt beam="2">  1       -1 0.14000173E+00 0.28294525E+03</pdfrwt>
<totfact> 0.13008430E+03</totfact>
</mgrwt>
</event>
<event>
 9    1  0.7984035E-001  0.2761999E+03  0.7818608E-02  0.1097783E+00
          2   -1    0    0  501    0  0.00000000000E+00  0.00000000000E+00  0.10179696772E+03  0.10179696772E+03  0.00000000000E+00 0.  1.
         -2   -1    0    0    0  501 -0.00000000000E+00 -0.00000000000E+00 -0.18734930218E+03  0.18734930218E+03  0.00000000000E+00 0.  1.
         35    2    1    2    0    0  0.00000000000E+00  0.00000000000E+00 -0.85552334466E+02  0.28914626990E+03  0.27619986145E+03 0.  0.
         25    2    3    3    0    0 -0.22132679595E+02 -0.39560849537E+02 -0.81075549717E+02  0.15577420235E+03  0.12504975424E+03 0.  0.
         25    2    3    3    0    0  0.22132679595E+02  0.39560849537E+02 -0.44767847487E+01  0.13337206755E+03  0.12535210600E+03 0.  0.
          5    1    4    4  502    0 -0.55385213377E+01 -0.73593619308E+02 -0.90105570627E+02  0.11656671858E+03  0.47000000000E+01 0.  1.
         -5    1    4    4    0  502 -0.16594158257E+02  0.34032769771E+02  0.90300209097E+01  0.39207483778E+02  0.47000000000E+01 0.  1.
          5    1    5    5  503    0  0.15684636268E+02  0.80707143888E+02 -0.25864666678E+02  0.86317564097E+02  0.47000000000E+01 0.  1.
         -5    1    5    5    0  503  0.64480433269E+01 -0.41146294351E+02  0.21387881929E+02  0.47054503450E+02  0.47000000000E+01 0.  1.
<mgrwt>
<rscale>  0 0.27619986E+03</rscale>
<asrwt>0</asrwt>
<pdfrwt beam="1">  1        2 0.15661072E-01 0.27619986E+03</pdfrwt>
<pdfrwt beam="2">  1       -2 0.28822969E-01 0.27619986E+03</pdfrwt>
<totfact> 0.40500176E+03</totfact>
</mgrwt>
</event>
<event>
 9    1  0.7984035E-001  0.2680338E+03  0.7818608E-02  0.1102410E+00
          3   -1    0    0  501    0  0.00000000000E+00  0.00000000000E+00  0.13712890972E+03  0.13712890972E+03  0.00000000000E+00 0.  1.
         -3   -1    0    0    0  501 -0.00000000000E+00 -0.00000000000E+00 -0.13097552661E+03  0.13097552661E+03  0.00000000000E+00 0.  1.
         35    2    1    2    0    0  0.71054273576E-14  0.17763568394E-14  0.61533831102E+01  0.26810443633E+03  0.26803381253E+03 0.  0.
         25    2    3    3    0    0 -0.23967250973E+02  0.12723998502E+02  0.39610565954E+02  0.13474085971E+03  0.12589588192E+03 0.  0.
         25    2    3    3    0    0  0.23967250973E+02 -0.12723998502E+02 -0.33457182844E+02  0.13336357662E+03  0.12621462367E+03 0.  0.
          5    1    4    4  502    0  0.34982746934E+02  0.43441908822E+02  0.38782127803E+02  0.68096515785E+02  0.47000000000E+01 0. -1.
         -5    1    4    4    0  502 -0.58949997906E+02 -0.30717910320E+02  0.82843815155E+00  0.66644343926E+02  0.47000000000E+01 0. -1.
          5    1    5    5  503    0  0.50239652209E+02 -0.28275443259E+01 -0.70440159904E+02  0.86694427666E+02  0.47000000000E+01 0.  1.
         -5    1    5    5    0  503 -0.26272401237E+02 -0.98964541765E+01  0.36982977060E+02  0.46669148956E+02  0.47000000000E+01 0.  1.
<mgrwt>
<rscale>  0 0.26803381E+03</rscale>
<asrwt>0</asrwt>
<pdfrwt beam="1">  1        3 0.21096755E-01 0.26803381E+03</pdfrwt>
<pdfrwt beam="2">  1       -3 0.20150081E-01 0.26803381E+03</pdfrwt>
<totfact> 0.11463002E+03</totfact>
</mgrwt>
</event>
<event>
 9    1  0.7984035E-001  0.2743665E+03  0.7818608E-02  0.1098806E+00
         -2   -1    0    0    0  501 -0.00000000000E+00  0.00000000000E+00  0.42591626396E+02  0.42591626396E+02  0.00000000000E+00 0.  1.
          2   -1    0    0  501    0  0.00000000000E+00 -0.00000000000E+00 -0.44185321313E+03  0.44185321313E+03  0.00000000000E+00 0.  1.
         35    2    1    2    0    0  0.00000000000E+00 -0.71054273576E-14 -0.39926158673E+03  0.48444483953E+03  0.27436652110E+03 0.  0.
         25    2    3    3    0    0  0.25419303588E+02 -0.48757393810E+02 -0.19903461489E+03  0.24185018431E+03  0.12590992527E+03 0.  0.
         25    2    3    3    0    0 -0.25419303588E+02  0.48757393810E+02 -0.20022697185E+03  0.24259465521E+03  0.12545079528E+03 0.  0.
          5    1    4    4  502    0 -0.13538279037E+02 -0.73040610055E+02 -0.17422236716E+03  0.18945643018E+03  0.47000000000E+01 0.  1.
         -5    1    4    4    0  502  0.38957582625E+02  0.24283216245E+02 -0.24812247727E+02  0.52393754136E+02  0.47000000000E+01 0.  1.
          5    1    5    5  503    0 -0.40613008342E+02  0.46653843634E+02 -0.25397595696E+02  0.67030779792E+02  0.47000000000E+01 0.  1.
         -5    1    5    5    0  503  0.15193704754E+02  0.21035501760E+01 -0.17482937615E+03  0.17556387542E+03  0.47000000000E+01 0.  1.
<mgrwt>
<rscale>  0 0.27436652E+03</rscale>
<asrwt>0</asrwt>
<pdfrwt beam="1">  1        2 0.67977424E-01 0.27436652E+03</pdfrwt>
<pdfrwt beam="2">  1       -2 0.65525573E-02 0.27436652E+03</pdfrwt>
<totfact> 0.91757997E+03</totfact>
</mgrwt>
</event>
<event>
 9    1  0.7984035E-001  0.2721457E+03  0.7818608E-02  0.1100058E+00
          1   -1    0    0  501    0  0.00000000000E+00  0.00000000000E+00  0.75686915998E+03  0.75686915998E+03  0.00000000000E+00 0. -1.
         -1   -1    0    0    0  501 -0.00000000000E+00 -0.00000000000E+00 -0.24463695594E+02  0.24463695594E+02  0.00000000000E+00 0. -1.
         35    2    1    2    0    0 -0.71054273576E-14  0.35527136788E-14  0.73240546438E+03  0.78133285557E+03  0.27214567227E+03 0.  0.
         25    2    3    3    0    0  0.39664078094E+02  0.26813390617E+02  0.42895031263E+03  0.44951304520E+03  0.12558427485E+03 0.  0.
         25    2    3    3    0    0 -0.39664078094E+02 -0.26813390617E+02  0.30345515175E+03  0.33181981037E+03  0.12540797592E+03 0.  0.
          5    1    4    4  502    0  0.59909916014E+02 -0.65328984939E+01  0.90758348310E+02  0.10904606635E+03  0.47000000000E+01 0. -1.
         -5    1    4    4    0  502 -0.20245837920E+02  0.33346289111E+02  0.33819196432E+03  0.34046697885E+03  0.47000000000E+01 0. -1.
          5    1    5    5  503    0  0.33797035382E+02  0.19220949790E+02  0.15471581719E+03  0.15959560959E+03  0.47000000000E+01 0. -1.
         -5    1    5    5    0  503 -0.73461113476E+02 -0.46034340407E+02  0.14873933455E+03  0.17222420078E+03  0.47000000000E+01 0. -1.
<mgrwt>
<rscale>  0 0.27214567E+03</rscale>
<asrwt>0</asrwt>
<pdfrwt beam="1">  1        1 0.11644139E+00 0.27214567E+03</pdfrwt>
<pdfrwt beam="2">  1       -1 0.37636461E-02 0.27214567E+03</pdfrwt>
<totfact> 0.67381712E+03</totfact>
</mgrwt>
</event>
<event>
 9    1  0.7984035E-001  0.2748297E+03  0.7818608E-02  0.1098547E+00
         -3   -1    0    0    0  501 -0.00000000000E+00  0.00000000000E+00  0.12605813905E+03  0.12605813905E+03  0.00000000000E+00 0.  1.
          3   -1    0    0  501    0  0.00000000000E+00 -0.00000000000E+00 -0.14979470206E+03  0.14979470206E+03  0.00000000000E+00 0.  1.
         35    2    1    2    0    0  0.00000000000E+00  0.00000000000E+00 -0.23736563009E+02  0.27585284111E+03  0.27482970277E+03 0.  0.
         25    2    3    3    0    0  0.33736142006E+02  0.21406149028E+02 -0.57726568269E+02  0.14079856392E+03  0.12204723849E+03 0.  0.
         25    2    3    3    0    0 -0.33736142006E+02 -0.21406149028E+02  0.33990005259E+02  0.13505427720E+03  0.12445074061E+03 0.  0.
          5    1    4    4  502    0  0.73725361554E+02  0.33993023590E+02 -0.18951615981E+02  0.83499750523E+02  0.47000000000E+01 0.  1.
         -5    1    4    4    0  502 -0.39989219548E+02 -0.12586874562E+02 -0.38774952288E+02  0.57298813393E+02  0.47000000000E+01 0.  1.
          5    1    5    5  503    0 -0.68162348344E+02  0.22037053476E+02  0.41079445324E+01  0.71907598110E+02  0.47000000000E+01 0. -1.
         -5    1    5    5    0  503  0.34426206338E+02 -0.43443202504E+02  0.29882060727E+02  0.63146679088E+02  0.47000000000E+01 0. -1.
<mgrwt>
<rscale>  0 0.27482970E+03</rscale>
<asrwt>0</asrwt>
<pdfrwt beam="1">  1        3 0.23045339E-01 0.27482970E+03</pdfrwt>
<pdfrwt beam="2">  1       -3 0.19393560E-01 0.27482970E+03</pdfrwt>
<totfact> 0.10496141E+03</totfact>
</mgrwt>
</event>
<event>
 9    1  0.7984035E-001  0.2752210E+03  0.7818608E-02  0.1098328E+00
          4   -1    0    0  501    0  0.00000000000E+00  0.00000000000E+00  0.17603449737E+03  0.17603449737E+03  0.00000000000E+00 0. -1.
         -4   -1    0    0    0  501 -0.00000000000E+00 -0.00000000000E+00 -0.10757347858E+03  0.10757347858E+03  0.00000000000E+00 0. -1.
         35    2    1    2    0    0  0.71054273576E-14  0.00000000000E+00  0.68461018781E+02  0.28360797595E+03  0.27522095293E+03 0.  0.
         25    2    3    3    0    0  0.17347222680E+02 -0.27381040398E+02 -0.11668797684E+02  0.13193928361E+03  0.12736234221E+03 0.  0.
         25    2    3    3    0    0 -0.17347222680E+02  0.27381040398E+02  0.80129816464E+02  0.15166869234E+03  0.12462727326E+03 0.  0.
          5    1    4    4  502    0  0.44892921309E+02 -0.61852398141E+02 -0.32173394657E+02  0.83056070598E+02  0.47000000000E+01 0.  1.
         -5    1    4    4    0  502 -0.27545698629E+02  0.34471357743E+02  0.20504596974E+02  0.48883213015E+02  0.47000000000E+01 0.  1.
          5    1    5    5  503    0 -0.23520088986E+01 -0.43122059254E+02  0.64498267964E+02  0.77763490859E+02  0.47000000000E+01 0. -1.
         -5    1    5    5    0  503 -0.14995213781E+02  0.70503099652E+02  0.15631548500E+02  0.73905201477E+02  0.47000000000E+01 0. -1.
<mgrwt>
<rscale>  0 0.27522095E+03</rscale>
<asrwt>0</asrwt>
<pdfrwt beam="1">  1        4 0.27082230E-01 0.27522095E+03</pdfrwt>
<pdfrwt beam="2">  1       -4 0.16549766E-01 0.27522095E+03</pdfrwt>
<totfact> 0.76667558E+02</totfact>
</mgrwt>
</event>
<event>
 9    1  0.7984035E-001  0.2718141E+03  0.7818608E-02  0.1100246E+00
         -2   -1    0    0    0  501 -0.00000000000E+00  0.00000000000E+00  0.77843462216E+01  0.77843462216E+01  0.00000000000E+00 0.  1.
          2   -1    0    0  501    0  0.00000000000E+00 -0.00000000000E+00 -0.23728037467E+04  0.23728037467E+04  0.00000000000E+00 0.  1.
         35    2    1    2    0    0  0.00000000000E+00  0.71054273576E-14 -0.23650194005E+04  0.23805880929E+04  0.27181409736E+03 0.  0.
         25    2    3    3    0    0 -0.26001730875E+02 -0.15813030230E+02 -0.15618587901E+04  0.15671453905E+04  0.12496260545E+03 0.  0.
         25    2    3    3    0    0  0.26001730875E+02  0.15813030230E+02 -0.80316061043E+03  0.81344270249E+03  0.12528336744E+03 0.  0.
          5    1    4    4  502    0 -0.22307418708E+02 -0.51275184732E+02 -0.14088534403E+04  0.14099705216E+04  0.47000000000E+01 0. -1.
         -5    1    4    4    0  502 -0.36943121670E+01  0.35462154502E+02 -0.15300534975E+03  0.15717486885E+03  0.47000000000E+01 0. -1.
          5    1    5    5  503    0 -0.16431606355E+02  0.33561281307E+02 -0.69234536928E+03  0.69336899098E+03  0.47000000000E+01 0.  1.
         -5    1    5    5    0  503  0.42433337230E+02 -0.17748251077E+02 -0.11081524115E+03  0.12007371151E+03  0.47000000000E+01 0.  1.
<mgrwt>
<rscale>  0 0.27181410E+03</rscale>
<asrwt>0</asrwt>
<pdfrwt beam="1">  1        2 0.36504644E+00 0.27181410E+03</pdfrwt>
<pdfrwt beam="2">  1       -2 0.11975927E-02 0.27181410E+03</pdfrwt>
<totfact> 0.77125567E+03</totfact>
</mgrwt>
</event>
<event>
 9    1  0.7984035E-001  0.2762271E+03  0.7818608E-02  0.1097768E+00
          1   -1    0    0  501    0  0.00000000000E+00  0.00000000000E+00  0.11725626193E+03  0.11725626193E+03  0.00000000000E+00 0. -1.
         -1   -1    0    0    0  501 -0.00000000000E+00 -0.00000000000E+00 -0.16268082813E+03  0.16268082813E+03  0.00000000000E+00 0. -1.
         35    2    1    2    0    0  0.00000000000E+00 -0.14210854715E-13 -0.45424566198E+02  0.27993709006E+03  0.27622705004E+03 0.  0.
         25    2    3    3    0    0  0.19950803079E+02  0.53176589707E+02 -0.21255363062E+02  0.13892670499E+03  0.12499221841E+03 0.  0.
         25    2    3    3    0    0 -0.19950803079E+02 -0.53176589707E+02 -0.24169203136E+02  0.14101038507E+03  0.12678325631E+03 0.  0.
          5    1    4    4  502    0 -0.16168327264E+02  0.82485116101E+01  0.46325005262E+02  0.49975482617E+02  0.47000000000E+01 0. -1.
         -5    1    4    4    0  502  0.36119130343E+02  0.44928078097E+02 -0.67580368323E+02  0.88951222369E+02  0.47000000000E+01 0. -1.
          5    1    5    5  503    0  0.53122002403E+01 -0.64623790328E+02 -0.64669506159E+02  0.91698902799E+02  0.47000000000E+01 0.  1.
         -5    1    5    5    0  503 -0.25263003319E+02  0.11447200620E+02  0.40500303023E+02  0.49311482270E+02  0.47000000000E+01 0.  1.
<mgrwt>
<rscale>  0 0.27622705E+03</rscale>
<asrwt>0</asrwt>
<pdfrwt beam="1">  1        1 0.18039425E-01 0.27622705E+03</pdfrwt>
<pdfrwt beam="2">  1       -1 0.25027820E-01 0.27622705E+03</pdfrwt>
<totfact> 0.40380000E+03</totfact>
</mgrwt>
</event>
<event>
 9    1  0.7984035E-001  0.2760149E+03  0.7818608E-02  0.1097886E+00
          1   -1    0    0  501    0  0.00000000000E+00  0.00000000000E+00  0.64238096259E+02  0.64238096259E+02  0.00000000000E+00 0.  1.
         -1   -1    0    0    0  501 -0.00000000000E+00 -0.00000000000E+00 -0.29649164893E+03  0.29649164893E+03  0.00000000000E+00 0.  1.
         35    2    1    2    0    0  0.35527136788E-14  0.17763568394E-14 -0.23225355267E+03  0.36072974519E+03  0.27601492049E+03 0.  0.
         25    2    3    3    0    0 -0.62011187392E+01  0.36011397309E+01 -0.19238863636E+03  0.22953752935E+03  0.12499067126E+03 0.  0.
         25    2    3    3    0    0  0.62011187392E+01 -0.36011397309E+01 -0.39864916316E+02  0.13119221584E+03  0.12478286686E+03 0.  0.
          5    1    4    4  502    0  0.18802835981E+02  0.19220871438E+02  0.67948787067E+01  0.28129147097E+02  0.47000000000E+01 0. -1.
         -5    1    4    4    0  502 -0.25003954721E+02 -0.15619731707E+02 -0.19918351506E+03  0.20140838226E+03  0.47000000000E+01 0. -1.
          5    1    5    5  503    0 -0.38864397892E+02 -0.34255980132E+02  0.14566662612E+02  0.54020285616E+02  0.47000000000E+01 0.  1.
         -5    1    5    5    0  503  0.45065516632E+02  0.30654840401E+02 -0.54431578928E+02  0.77171930220E+02  0.47000000000E+01 0.  1.
<mgrwt>
<rscale>  0 0.27601492E+03</rscale>
<asrwt>0</asrwt>
<pdfrwt beam="1">  1        1 0.98827838E-02 0.27601492E+03</pdfrwt>
<pdfrwt beam="2">  1       -1 0.45614101E-01 0.27601492E+03</pdfrwt>
<totfact> 0.31608051E+03</totfact>
</mgrwt>
</event>
<event>
 9    1  0.7984035E-001  0.2900076E+03  0.7818608E-02  0.1090345E+00
         -2   -1    0    0    0  501 -0.00000000000E+00  0.00000000000E+00  0.49203117085E+01  0.49203117085E+01  0.00000000000E+00 0. -1.
          2   -1    0    0  501    0  0.00000000000E+00 -0.00000000000E+00 -0.42733277719E+04  0.42733277719E+04  0.00000000000E+00 0. -1.
         35    2    1    2    0    0 -0.71054273576E-14  0.00000000000E+00 -0.42684074602E+04  0.42782480836E+04  0.29000761832E+03 0.  0.
         25    2    3    3    0    0  0.54788542582E+02  0.33416663880E+02 -0.26295694521E+04  0.26333800283E+04  0.12623950225E+03 0.  0.
         25    2    3    3    0    0 -0.54788542582E+02 -0.33416663880E+02 -0.16388380080E+04  0.16448680553E+04  0.12522956903E+03 0.  0.
          5    1    4    4  502    0 -0.19459557034E+02  0.55230194298E+02 -0.15019844328E+04  0.15031328534E+04  0.47000000000E+01 0. -1.
         -5    1    4    4    0  502  0.74248099616E+02 -0.21813530418E+02 -0.11275850194E+04  0.11302471749E+04  0.47000000000E+01 0. -1.
          5    1    5    5  503    0 -0.70600981336E+02 -0.42888253449E+02 -0.58130039493E+03  0.58715938210E+03  0.47000000000E+01 0.  1.
         -5    1    5    5    0  503  0.15812438754E+02  0.94715895693E+01 -0.10575376131E+04  0.10577086732E+04  0.47000000000E+01 0.  1.
<mgrwt>
<rscale>  0 0.29000762E+03</rscale>
<asrwt>0</asrwt>
<pdfrwt beam="1">  1        2 0.65743783E+00 0.29000762E+03</pdfrwt>
<pdfrwt beam="2">  1       -2 0.75696782E-03 0.29000762E+03</pdfrwt>
<totfact> 0.85728502E+02</totfact>
</mgrwt>
</event>
<event>
 9    1  0.7984035E-001  0.2732703E+03  0.7818608E-02  0.1099422E+00
          2   -1    0    0  501    0  0.00000000000E+00  0.00000000000E+00  0.27214302927E+03  0.27214302927E+03  0.00000000000E+00 0.  1.
         -2   -1    0    0    0  501 -0.00000000000E+00 -0.00000000000E+00 -0.68600585088E+02  0.68600585088E+02  0.00000000000E+00 0.  1.
         35    2    1    2    0    0 -0.71054273576E-14  0.71054273576E-14  0.20354244419E+03  0.34074361436E+03  0.27327034992E+03 0.  0.
         25    2    3    3    0    0 -0.12936036386E+02  0.45625107040E+02  0.13528006683E+03  0.19040188806E+03  0.12531237394E+03 0.  0.
         25    2    3    3    0    0  0.12936036386E+02 -0.45625107040E+02  0.68262377350E+02  0.15034172630E+03  0.12527526123E+03 0.  0.
          5    1    4    4  502    0  0.20761090216E+02  0.80021834505E+02  0.65943542405E+02  0.10585441724E+03  0.47000000000E+01 0.  1.
         -5    1    4    4    0  502 -0.33697126602E+02 -0.34396727465E+02  0.69336524430E+02  0.84547470817E+02  0.47000000000E+01 0.  1.
          5    1    5    5  503    0  0.63972693206E+02 -0.33052567884E+02  0.11907818304E+02  0.73135927262E+02  0.47000000000E+01 0.  1.
         -5    1    5    5    0  503 -0.51036656820E+02 -0.12572539156E+02  0.56354559046E+02  0.77205799040E+02  0.47000000000E+01 0.  1.
<mgrwt>
<rscale>  0 0.27327035E+03</rscale>
<asrwt>0</asrwt>
<pdfrwt beam="1">  1        2 0.41868158E-01 0.27327035E+03</pdfrwt>
<pdfrwt beam="2">  1       -2 0.10553936E-01 0.27327035E+03</pdfrwt>
<totfact> 0.73397325E+03</totfact>
</mgrwt>
</event>
<event>
 9    1  0.7984035E-001  0.2740975E+03  0.7818608E-02  0.1098957E+00
         -1   -1    0    0    0  501 -0.00000000000E+00  0.00000000000E+00  0.94943191281E+01  0.94943191281E+01  0.00000000000E+00 0. -1.
          1   -1    0    0  501    0  0.00000000000E+00 -0.00000000000E+00 -0.19782738124E+04  0.19782738124E+04  0.00000000000E+00 0. -1.
         35    2    1    2    0    0  0.00000000000E+00 -0.71054273576E-14 -0.19687794933E+04  0.19877681315E+04  0.27409752205E+03 0.  0.
         25    2    3    3    0    0  0.52163555959E+01 -0.50303726808E+02 -0.80536442606E+03  0.81647612696E+03  0.12435325423E+03 0.  0.
         25    2    3    3    0    0 -0.52163555959E+01  0.50303726808E+02 -0.11634150672E+04  0.11712920046E+04  0.12582792238E+03 0.  0.
          5    1    4    4  502    0 -0.57016429161E+02 -0.42587316732E+02 -0.43765899661E+03  0.44343211437E+03  0.47000000000E+01 0. -1.
         -5    1    4    4    0  502  0.62232784757E+02 -0.77164100756E+01 -0.36770542945E+03  0.37304401260E+03  0.47000000000E+01 0. -1.
          5    1    5    5  503    0 -0.34244963038E+02  0.75632254365E+02 -0.51085843525E+03  0.51758225072E+03  0.47000000000E+01 0. -1.
         -5    1    5    5    0  503  0.29028607442E+02 -0.25328527557E+02 -0.65255663198E+03  0.65370975387E+03  0.47000000000E+01 0. -1.
<mgrwt>
<rscale>  0 0.27409752E+03</rscale>
<asrwt>0</asrwt>
<pdfrwt beam="1">  1        1 0.30434981E+00 0.27409752E+03</pdfrwt>
<pdfrwt beam="2">  1       -1 0.14606645E-02 0.27409752E+03</pdfrwt>
<totfact> 0.37811497E+03</totfact>
</mgrwt>
</event>
<event>
 9    1  0.7984035E-001  0.2953721E+03  0.7818608E-02  0.1087577E+00
          2   -1    0    0  501    0  0.00000000000E+00  0.00000000000E+00  0.15102128986E+04  0.15102128986E+04  0.00000000000E+00 0.  1.
         -2   -1    0    0    0  501 -0.00000000000E+00 -0.00000000000E+00 -0.14442447561E+02  0.14442447561E+02  0.00000000000E+00 0.  1.
         35    2    1    2    0    0 -0.10658141036E-13  0.00000000000E+00  0.14957704511E+04  0.15246553462E+04  0.29537210833E+03 0.  0.
         25    2    3    3    0    0 -0.17592474504E+02 -0.62117417630E+02  0.51041340777E+03  0.52932671062E+03  0.12448634871E+03 0.  0.
         25    2    3    3    0    0  0.17592474504E+02  0.62117417630E+02  0.98535704332E+03  0.99532863558E+03  0.12482996944E+03 0.  0.
          5    1    4    4  502    0  0.51474488724E+02 -0.33208678813E+02  0.17044980521E+03  0.18118406507E+03  0.47000000000E+01 0.  1.
         -5    1    4    4    0  502 -0.69066963228E+02 -0.28908738817E+02  0.33996360256E+03  0.34814264555E+03  0.47000000000E+01 0.  1.
          5    1    5    5  503    0 -0.25859836399E+02 -0.27960636912E+02  0.35527038997E+03  0.35733691153E+03  0.47000000000E+01 0. -1.
         -5    1    5    5    0  503  0.43452310903E+02  0.90078054542E+02  0.63008665335E+03  0.63799172405E+03  0.47000000000E+01 0. -1.
<mgrwt>
<rscale>  0 0.29537211E+03</rscale>
<asrwt>0</asrwt>
<pdfrwt beam="1">  1        2 0.23234032E+00 0.29537211E+03</pdfrwt>
<pdfrwt beam="2">  1       -2 0.22219162E-02 0.29537211E+03</pdfrwt>
<totfact> 0.89300808E+03</totfact>
</mgrwt>
</event>
<event>
 9    1  0.7984035E-001  0.2779184E+03  0.7818608E-02  0.1096831E+00
         -1   -1    0    0    0  501 -0.00000000000E+00  0.00000000000E+00  0.43751140915E+03  0.43751140915E+03  0.00000000000E+00 0. -1.
          1   -1    0    0  501    0  0.00000000000E+00 -0.00000000000E+00 -0.44135215987E+02  0.44135215987E+02  0.00000000000E+00 0. -1.
         35    2    1    2    0    0  0.00000000000E+00  0.00000000000E+00  0.39337619316E+03  0.48164662513E+03  0.27791840917E+03 0.  0.
         25    2    3    3    0    0 -0.37459971328E+00  0.51243310124E+02  0.13193248688E+03  0.18757808359E+03  0.12309890005E+03 0.  0.
         25    2    3    3    0    0  0.37459971328E+00 -0.51243310124E+02  0.26144370628E+03  0.29406854154E+03  0.12448886863E+03 0.  0.
          5    1    4    4  502    0  0.34394534640E+02 -0.14051362430E+02  0.10015836298E+03  0.10693087709E+03  0.47000000000E+01 0.  1.
         -5    1    4    4    0  502 -0.34769134353E+02  0.65294672554E+02  0.31774123893E+02  0.80647206504E+02  0.47000000000E+01 0.  1.
          5    1    5    5  503    0 -0.24662773728E+02 -0.24654383101E+02  0.25409445073E+03  0.25651933827E+03  0.47000000000E+01 0.  1.
         -5    1    5    5    0  503  0.25037373441E+02 -0.26588927023E+02  0.73492555500E+01  0.37549203270E+02  0.47000000000E+01 0.  1.
<mgrwt>
<rscale>  0 0.27791841E+03</rscale>
<asrwt>0</asrwt>
<pdfrwt beam="1">  1        1 0.67900335E-02 0.27791841E+03</pdfrwt>
<pdfrwt beam="2">  1       -1 0.67309445E-01 0.27791841E+03</pdfrwt>
<totfact> 0.25203809E+03</totfact>
</mgrwt>
</event>
<event>
 9    1  0.7984035E-001  0.2747140E+03  0.7818608E-02  0.1098612E+00
          1   -1    0    0  501    0  0.00000000000E+00  0.00000000000E+00  0.19284557147E+03  0.19284557147E+03  0.00000000000E+00 0. -1.
         -1   -1    0    0    0  501 -0.00000000000E+00 -0.00000000000E+00 -0.97834457586E+02  0.97834457586E+02  0.00000000000E+00 0. -1.
         35    2    1    2    0    0 -0.35527136788E-14 -0.35527136788E-14  0.95011113881E+02  0.29068002905E+03  0.27471397403E+03 0.  0.
         25    2    3    3    0    0  0.10461351153E+02  0.22892710430E+02 -0.49698987328E+01  0.12872901757E+03  0.12614651804E+03 0.  0.
         25    2    3    3    0    0 -0.10461351153E+02 -0.22892710430E+02  0.99981012614E+02  0.16195101148E+03  0.12489359943E+03 0.  0.
          5    1    4    4  502    0 -0.97343354676E+01  0.59978630294E+02 -0.40639953067E+02  0.73252229756E+02  0.47000000000E+01 0. -1.
         -5    1    4    4    0  502  0.20195686620E+02 -0.37085919864E+02  0.35670054334E+02  0.55476787816E+02  0.47000000000E+01 0. -1.
          5    1    5    5  503    0 -0.50414315071E+02 -0.47334531737E+02  0.90400381855E+02  0.11391435422E+03  0.47000000000E+01 0.  1.
         -5    1    5    5    0  503  0.39952963918E+02  0.24441821307E+02  0.95806307587E+01  0.48036657256E+02  0.47000000000E+01 0.  1.
<mgrwt>
<rscale>  0 0.27471397E+03</rscale>
<asrwt>0</asrwt>
<pdfrwt beam="1">  1        1 0.29668549E-01 0.27471397E+03</pdfrwt>
<pdfrwt beam="2">  1       -1 0.15051455E-01 0.27471397E+03</pdfrwt>
<totfact> 0.48771795E+03</totfact>
</mgrwt>
</event>
<event>
 9    1  0.7984035E-001  0.2730829E+03  0.7818608E-02  0.1099528E+00
         -2   -1    0    0    0  501 -0.00000000000E+00  0.00000000000E+00  0.59507336399E+02  0.59507336399E+02  0.00000000000E+00 0. -1.
          2   -1    0    0  501    0  0.00000000000E+00 -0.00000000000E+00 -0.31329864058E+03  0.31329864058E+03  0.00000000000E+00 0. -1.
         35    2    1    2    0    0 -0.71054273576E-14  0.00000000000E+00 -0.25379130418E+03  0.37280597698E+03  0.27308290022E+03 0.  0.
         25    2    3    3    0    0  0.43770044540E+02 -0.29476527036E+02 -0.10751406512E+03  0.17297475585E+03  0.12480508611E+03 0.  0.
         25    2    3    3    0    0 -0.43770044540E+02  0.29476527036E+02 -0.14627723906E+03  0.19983122113E+03  0.12550220645E+03 0.  0.
          5    1    4    4  502    0 -0.39247055153E+02 -0.32454266744E+02 -0.30196197736E+02  0.59392854165E+02  0.47000000000E+01 0. -1.
         -5    1    4    4    0  502  0.83017099693E+02  0.29777397078E+01 -0.77317867380E+02  0.11358190169E+03  0.47000000000E+01 0. -1.
          5    1    5    5  503    0  0.36883619708E+02 -0.11407813772E+02 -0.18100048756E+02  0.42898034720E+02  0.47000000000E+01 0.  1.
         -5    1    5    5    0  503 -0.80653664248E+02  0.40884340809E+02 -0.12817719031E+03  0.15693318641E+03  0.47000000000E+01 0.  1.
<mgrwt>
<rscale>  0 0.27308290E+03</rscale>
<asrwt>0</asrwt>
<pdfrwt beam="1">  1        2 0.48199791E-01 0.27308290E+03</pdfrwt>
<pdfrwt beam="2">  1       -2 0.91549749E-02 0.27308290E+03</pdfrwt>
<totfact> 0.79051154E+03</totfact>
</mgrwt>
</event>
<event>
 9    1  0.7984035E-001  0.2716011E+03  0.7818608E-02  0.1100367E+00
          1   -1    0    0  501    0  0.00000000000E+00  0.00000000000E+00  0.83251151283E+03  0.83251151283E+03  0.00000000000E+00 0.  1.
         -1   -1    0    0    0  501 -0.00000000000E+00 -0.00000000000E+00 -0.22151986386E+02  0.22151986386E+02  0.00000000000E+00 0.  1.
         35    2    1    2    0    0  0.00000000000E+00 -0.35527136788E-14  0.81035952645E+03  0.85466349922E+03  0.27160105816E+03 0.  0.
         25    2    3    3    0    0 -0.18678607778E+02  0.14672421277E+02  0.26967302186E+03  0.29928619084E+03  0.12761079490E+03 0.  0.
         25    2    3    3    0    0  0.18678607778E+02 -0.14672421277E+02  0.54068650458E+03  0.55537730838E+03  0.12465106532E+03 0.  0.
          5    1    4    4  502    0 -0.18521363209E+02 -0.44740719776E+02  0.43068078959E+02  0.64974782235E+02  0.47000000000E+01 0.  1.
         -5    1    4    4    0  502 -0.15724456859E+00  0.59413141052E+02  0.22660494290E+03  0.23431140861E+03  0.47000000000E+01 0.  1.
          5    1    5    5  503    0 -0.85418887450E+01  0.28519131962E+02  0.45149825915E+03  0.45250311906E+03  0.47000000000E+01 0.  1.
         -5    1    5    5    0  503  0.27220496523E+02 -0.43191553239E+02  0.89188245439E+02  0.10287418931E+03  0.47000000000E+01 0.  1.
<mgrwt>
<rscale>  0 0.27160106E+03</rscale>
<asrwt>0</asrwt>
<pdfrwt beam="1">  1        1 0.12807867E+00 0.27160106E+03</pdfrwt>
<pdfrwt beam="2">  1       -1 0.34079986E-02 0.27160106E+03</pdfrwt>
<totfact> 0.67441809E+03</totfact>
</mgrwt>
</event>
<event>
 9    1  0.7984035E-001  0.2752592E+03  0.7818608E-02  0.1098307E+00
          1   -1    0    0  501    0  0.00000000000E+00  0.00000000000E+00  0.49132134349E+03  0.49132134349E+03  0.00000000000E+00 0. -1.
         -1   -1    0    0    0  501 -0.00000000000E+00 -0.00000000000E+00 -0.38552991541E+02  0.38552991541E+02  0.00000000000E+00 0. -1.
         35    2    1    2    0    0  0.00000000000E+00 -0.35527136788E-14  0.45276835195E+03  0.52987433503E+03  0.27525920584E+03 0.  0.
         25    2    3    3    0    0 -0.40523550016E+02  0.23530060760E+02  0.29238640759E+03  0.32157157990E+03  0.12538998281E+03 0.  0.
         25    2    3    3    0    0  0.40523550016E+02 -0.23530060760E+02  0.16038194436E+03  0.20830275513E+03  0.12438588286E+03 0.  0.
          5    1    4    4  502    0  0.33585540408E+02  0.46987687774E+01  0.22368149519E+02  0.40896100858E+02  0.47000000000E+01 0.  1.
         -5    1    4    4    0  502 -0.74109090424E+02  0.18831291983E+02  0.27001825807E+03  0.28067547904E+03  0.47000000000E+01 0.  1.
          5    1    5    5  503    0  0.14876013544E+02  0.44579687310E+02  0.22489039283E+02  0.52311482368E+02  0.47000000000E+01 0.  1.
         -5    1    5    5    0  503  0.25647536472E+02 -0.68109748071E+02  0.13789290507E+03  0.15599127277E+03  0.47000000000E+01 0.  1.
<mgrwt>
<rscale>  0 0.27525921E+03</rscale>
<asrwt>0</asrwt>
<pdfrwt beam="1">  1        1 0.75587895E-01 0.27525921E+03</pdfrwt>
<pdfrwt beam="2">  1       -1 0.59312298E-02 0.27525921E+03</pdfrwt>
<totfact> 0.62554711E+03</totfact>
</mgrwt>
</event>
<event>
 9    1  0.7984035E-001  0.2770589E+03  0.7818608E-02  0.1097306E+00
         -1   -1    0    0    0  501 -0.00000000000E+00  0.00000000000E+00  0.17078934722E+03  0.17078934722E+03  0.00000000000E+00 0. -1.
          1   -1    0    0  501    0  0.00000000000E+00 -0.00000000000E+00 -0.11236301729E+03  0.11236301729E+03  0.00000000000E+00 0. -1.
         35    2    1    2    0    0  0.71054273576E-14 -0.71054273576E-14  0.58426329930E+02  0.28315236452E+03  0.27705888454E+03 0.  0.
         25    2    3    3    0    0 -0.13523112251E+02  0.56839062834E+02  0.39381826480E+02  0.14417725400E+03  0.12578791153E+03 0.  0.
         25    2    3    3    0    0  0.13523112251E+02 -0.56839062834E+02  0.19044503450E+02  0.13897511051E+03  0.12465085078E+03 0.  0.
          5    1    4    4  502    0  0.39158725366E+02  0.25638216267E+02  0.62792213666E+02  0.78458116232E+02  0.47000000000E+01 0. -1.
         -5    1    4    4    0  502 -0.52681837617E+02  0.31200846567E+02 -0.23410387185E+02  0.65719137771E+02  0.47000000000E+01 0. -1.
          5    1    5    5  503    0  0.53209943885E+02 -0.53476115998E+02 -0.24804958468E+02  0.79551046976E+02  0.47000000000E+01 0. -1.
         -5    1    5    5    0  503 -0.39686831634E+02 -0.33629468366E+01  0.43849461918E+02  0.59424063536E+02  0.47000000000E+01 0. -1.
<mgrwt>
<rscale>  0 0.27705888E+03</rscale>
<asrwt>0</asrwt>
<pdfrwt beam="1">  1        1 0.17286618E-01 0.27705888E+03</pdfrwt>
<pdfrwt beam="2">  1       -1 0.26275284E-01 0.27705888E+03</pdfrwt>
<totfact> 0.39356074E+03</totfact>
</mgrwt>
</event>
<event>
 9    1  0.7984035E-001  0.2992486E+03  0.7818608E-02  0.1085617E+00
          2   -1    0    0  501    0  0.00000000000E+00  0.00000000000E+00  0.63077582187E+03  0.63077582187E+03  0.00000000000E+00 0. -1.
         -2   -1    0    0    0  501 -0.00000000000E+00 -0.00000000000E+00 -0.35491904343E+02  0.35491904343E+02  0.00000000000E+00 0. -1.
         35    2    1    2    0    0  0.00000000000E+00 -0.71054273576E-14  0.59528391753E+03  0.66626772622E+03  0.29924862661E+03 0.  0.
         25    2    3    3    0    0 -0.31907320790E+01  0.22357395371E+02  0.12761459110E+03  0.18148690503E+03  0.12705108790E+03 0.  0.
         25    2    3    3    0    0  0.31907320790E+01 -0.22357395371E+02  0.46766932644E+03  0.48478082119E+03  0.12564955951E+03 0.  0.
          5    1    4    4  502    0 -0.27597059506E+02 -0.24650413801E+02  0.12251658736E+03  0.12806890634E+03  0.47000000000E+01 0. -1.
         -5    1    4    4    0  502  0.24406327427E+02  0.47007809172E+02  0.50980037396E+01  0.53417998688E+02  0.47000000000E+01 0. -1.
          5    1    5    5  503    0 -0.24624634236E+02  0.45102480536E+02  0.24631611143E+03  0.25166311432E+03  0.47000000000E+01 0. -1.
         -5    1    5    5    0  503  0.27815366315E+02 -0.67459875907E+02  0.22135321501E+03  0.23311770687E+03  0.47000000000E+01 0. -1.
<mgrwt>
<rscale>  0 0.29924863E+03</rscale>
<asrwt>0</asrwt>
<pdfrwt beam="1">  1        2 0.97042426E-01 0.29924863E+03</pdfrwt>
<pdfrwt beam="2">  1       -2 0.54602935E-02 0.29924863E+03</pdfrwt>
<totfact> 0.81323443E+03</totfact>
</mgrwt>
</event>
<event>
 9    1  0.7984035E-001  0.2762237E+03  0.7818608E-02  0.1097770E+00
          2   -1    0    0  501    0  0.00000000000E+00  0.00000000000E+00  0.72058193500E+03  0.72058193500E+03  0.00000000000E+00 0. -1.
         -2   -1    0    0    0  501 -0.00000000000E+00 -0.00000000000E+00 -0.26471496652E+02  0.26471496652E+02  0.00000000000E+00 0. -1.
         35    2    1    2    0    0  0.00000000000E+00  0.00000000000E+00  0.69411043835E+03  0.74705343165E+03  0.27622369399E+03 0.  0.
         25    2    3    3    0    0 -0.30607150638E+02  0.21661648676E+02  0.47231851375E+03  0.48978350637E+03  0.12408497085E+03 0.  0.
         25    2    3    3    0    0  0.30607150638E+02 -0.21661648676E+02  0.22179192460E+03  0.25726992528E+03  0.12486044988E+03 0.  0.
          5    1    4    4  502    0  0.48344757247E+02  0.99240799349E+01  0.18985333261E+03  0.19621947105E+03  0.47000000000E+01 0.  1.
         -5    1    4    4    0  502 -0.78951907885E+02  0.11737568741E+02  0.28246518113E+03  0.29356403532E+03  0.47000000000E+01 0.  1.
          5    1    5    5  503    0  0.18671069972E+02  0.15468987440E+02  0.21618081887E+03  0.21758707423E+03  0.47000000000E+01 0.  1.
         -5    1    5    5    0  503  0.11936080666E+02 -0.37130636117E+02  0.56111057356E+01  0.39682851053E+02  0.47000000000E+01 0.  1.
<mgrwt>
<rscale>  0 0.27622369E+03</rscale>
<asrwt>0</asrwt>
<pdfrwt beam="1">  1        2 0.11085874E+00 0.27622369E+03</pdfrwt>
<pdfrwt beam="2">  1       -2 0.40725385E-02 0.27622369E+03</pdfrwt>
<totfact> 0.10785428E+04</totfact>
</mgrwt>
</event>
<event>
 9    1  0.7984035E-001  0.2717120E+03  0.7818608E-02  0.1100304E+00
          2   -1    0    0  501    0  0.00000000000E+00  0.00000000000E+00  0.70171913369E+02  0.70171913369E+02  0.00000000000E+00 0. -1.
         -2   -1    0    0    0  501 -0.00000000000E+00 -0.00000000000E+00 -0.26302337984E+03  0.26302337984E+03  0.00000000000E+00 0. -1.
         35    2    1    2    0    0  0.00000000000E+00 -0.71054273576E-14 -0.19285146647E+03  0.33319529321E+03  0.27171200801E+03 0.  0.
         25    2    3    3    0    0  0.27899067928E+02 -0.43980917229E+02 -0.87970521933E+02  0.16156450180E+03  0.12510634053E+03 0.  0.
         25    2    3    3    0    0 -0.27899067928E+02  0.43980917229E+02 -0.10488094454E+03  0.17163079141E+03  0.12547683835E+03 0.  0.
          5    1    4    4  502    0 -0.54262277977E+00 -0.98564426776E+01  0.31857173643E+02  0.33681054233E+02  0.47000000000E+01 0. -1.
         -5    1    4    4    0  502  0.28441690708E+02 -0.34124474551E+02 -0.11982769558E+03  0.12788344756E+03  0.47000000000E+01 0. -1.
          5    1    5    5  503    0  0.18403691869E+02  0.71504243556E+02 -0.88040292710E+02  0.11499885156E+03  0.47000000000E+01 0. -1.
         -5    1    5    5    0  503 -0.46302759797E+02 -0.27523326327E+02 -0.16840651829E+02  0.56631939848E+02  0.47000000000E+01 0. -1.
<mgrwt>
<rscale>  0 0.27171201E+03</rscale>
<asrwt>0</asrwt>
<pdfrwt beam="1">  1        2 0.10795679E-01 0.27171201E+03</pdfrwt>
<pdfrwt beam="2">  1       -2 0.40465135E-01 0.27171201E+03</pdfrwt>
<totfact> 0.33759643E+03</totfact>
</mgrwt>
</event>
<event>
 9    1  0.7984035E-001  0.2695427E+03  0.7818608E-02  0.1101542E+00
          2   -1    0    0  501    0  0.00000000000E+00  0.00000000000E+00  0.85171941906E+03  0.85171941906E+03  0.00000000000E+00 0. -1.
         -2   -1    0    0    0  501 -0.00000000000E+00 -0.00000000000E+00 -0.21325474516E+02  0.21325474516E+02  0.00000000000E+00 0. -1.
         35    2    1    2    0    0  0.00000000000E+00  0.00000000000E+00  0.83039394455E+03  0.87304489358E+03  0.26954272957E+03 0.  0.
         25    2    3    3    0    0 -0.34681667284E+02 -0.24351073015E+02  0.49256431570E+03  0.50996158294E+03  0.12508164605E+03 0.  0.
         25    2    3    3    0    0  0.34681667284E+02  0.24351073015E+02  0.33782962885E+03  0.36308331064E+03  0.12611439066E+03 0.  0.
          5    1    4    4  502    0 -0.23580143619E+02  0.39999975603E+01  0.47264948576E+03  0.47327756078E+03  0.47000000000E+01 0.  1.
         -5    1    4    4    0  502 -0.11101523666E+02 -0.28351070575E+02  0.19914829940E+02  0.36684022162E+02  0.47000000000E+01 0.  1.
          5    1    5    5  503    0  0.49827600451E+02  0.52129085639E+02  0.10149268363E+03  0.12459167776E+03  0.47000000000E+01 0.  1.
         -5    1    5    5    0  503 -0.15145933167E+02 -0.27778012624E+02  0.23633694522E+03  0.23849163287E+03  0.47000000000E+01 0.  1.
<mgrwt>
<rscale>  0 0.26954273E+03</rscale>
<asrwt>0</asrwt>
<pdfrwt beam="1">  1        2 0.13103373E+00 0.26954273E+03</pdfrwt>
<pdfrwt beam="2">  1       -2 0.32808429E-02 0.26954273E+03</pdfrwt>
<totfact> 0.12062066E+04</totfact>
</mgrwt>
</event>
<event>
 9    1  0.7984035E-001  0.2735886E+03  0.7818608E-02  0.1099243E+00
         -2   -1    0    0    0  501 -0.00000000000E+00  0.00000000000E+00  0.52326931404E+03  0.52326931404E+03  0.00000000000E+00 0.  1.
          2   -1    0    0  501    0  0.00000000000E+00 -0.00000000000E+00 -0.35761079341E+02  0.35761079341E+02  0.00000000000E+00 0.  1.
         35    2    1    2    0    0 -0.88817841970E-15  0.00000000000E+00  0.48750823470E+03  0.55903039338E+03  0.27358856304E+03 0.  0.
         25    2    3    3    0    0 -0.18436902381E+01 -0.45961081931E+02  0.17973546763E+03  0.22365433359E+03  0.12490237133E+03 0.  0.
         25    2    3    3    0    0  0.18436902381E+01  0.45961081931E+02  0.30777276708E+03  0.33537605980E+03  0.12504881082E+03 0.  0.
          5    1    4    4  502    0  0.59730068083E+02 -0.33464608943E+02  0.11018960763E+03  0.12981294510E+03  0.47000000000E+01 0. -1.
         -5    1    4    4    0  502 -0.61573758321E+02 -0.12496472988E+02  0.69545859992E+02  0.93841388486E+02  0.47000000000E+01 0. -1.
          5    1    5    5  503    0 -0.14488915158E+01  0.89169215775E+02  0.19517012943E+03  0.21463158609E+03  0.47000000000E+01 0. -1.
         -5    1    5    5    0  503  0.32925817539E+01 -0.43208133845E+02  0.11260263765E+03  0.12074447371E+03  0.47000000000E+01 0. -1.
<mgrwt>
<rscale>  0 0.27358856E+03</rscale>
<asrwt>0</asrwt>
<pdfrwt beam="1">  1        2 0.55017049E-02 0.27358856E+03</pdfrwt>
<pdfrwt beam="2">  1       -2 0.80502966E-01 0.27358856E+03</pdfrwt>
<totfact> 0.19414203E+03</totfact>
</mgrwt>
</event>
<event>
 9    1  0.7984035E-001  0.2747739E+03  0.7818608E-02  0.1098578E+00
         -1   -1    0    0    0  501 -0.00000000000E+00  0.00000000000E+00  0.32360299487E+02  0.32360299487E+02  0.00000000000E+00 0. -1.
          1   -1    0    0  501    0  0.00000000000E+00 -0.00000000000E+00 -0.58328199114E+03  0.58328199114E+03  0.00000000000E+00 0. -1.
         35    2    1    2    0    0  0.00000000000E+00 -0.71054273576E-14 -0.55092169165E+03  0.61564229062E+03  0.27477394286E+03 0.  0.
         25    2    3    3    0    0  0.24786847756E+02  0.35173843167E+02 -0.36122003067E+03  0.38462253996E+03  0.12491197150E+03 0.  0.
         25    2    3    3    0    0 -0.24786847756E+02 -0.35173843167E+02 -0.18970166098E+03  0.23101975066E+03  0.12462671444E+03 0.  0.
          5    1    4    4  502    0  0.53839500990E+02  0.34117711292E+02 -0.82544939187E+02  0.10439572346E+03  0.47000000000E+01 0. -1.
         -5    1    4    4    0  502 -0.29052653234E+02  0.10561318748E+01 -0.27867509149E+03  0.28022681651E+03  0.47000000000E+01 0. -1.
          5    1    5    5  503    0 -0.94590667301E+01 -0.51145437981E+02 -0.19960031467E+03  0.20631942562E+03  0.47000000000E+01 0.  1.
         -5    1    5    5    0  503 -0.15327781026E+02  0.15971594814E+02  0.98986536972E+01  0.24700325041E+02  0.47000000000E+01 0.  1.
<mgrwt>
<rscale>  0 0.27477394E+03</rscale>
<asrwt>0</asrwt>
<pdfrwt beam="1">  1        1 0.89735681E-01 0.27477394E+03</pdfrwt>
<pdfrwt beam="2">  1       -1 0.49785082E-02 0.27477394E+03</pdfrwt>
<totfact> 0.64559072E+03</totfact>
</mgrwt>
</event>
<event>
 9    1  0.7984035E-001  0.2768604E+03  0.7818608E-02  0.1097416E+00
         -2   -1    0    0    0  501 -0.00000000000E+00  0.00000000000E+00  0.99550788648E+01  0.99550788648E+01  0.00000000000E+00 0. -1.
          2   -1    0    0  501    0  0.00000000000E+00 -0.00000000000E+00 -0.19249386824E+04  0.19249386824E+04  0.00000000000E+00 0. -1.
         35    2    1    2    0    0  0.14210854715E-13  0.35527136788E-14 -0.19149836035E+04  0.19348937613E+04  0.27686037198E+03 0.  0.
         25    2    3    3    0    0  0.56479152716E+02  0.15615482193E+02 -0.88193240392E+03  0.89277272654E+03  0.12571649923E+03 0.  0.
         25    2    3    3    0    0 -0.56479152716E+02 -0.15615482193E+02 -0.10330511996E+04  0.10421210347E+04  0.12404729755E+03 0.  0.
          5    1    4    4  502    0  0.87226131034E+02  0.42813418513E+02 -0.63455261526E+03  0.64196611926E+03  0.47000000000E+01 0. -1.
         -5    1    4    4    0  502 -0.30746978317E+02 -0.27197936320E+02 -0.24737978866E+03  0.25080660728E+03  0.47000000000E+01 0. -1.
          5    1    5    5  503    0  0.33479180156E+02 -0.30886269089E+02 -0.33417961187E+03  0.33730241640E+03  0.47000000000E+01 0. -1.
         -5    1    5    5    0  503 -0.89958332872E+02  0.15270786896E+02 -0.69887158773E+03  0.70481861831E+03  0.47000000000E+01 0. -1.
<mgrwt>
<rscale>  0 0.27686037E+03</rscale>
<asrwt>0</asrwt>
<pdfrwt beam="1">  1        2 0.29614452E+00 0.27686037E+03</pdfrwt>
<pdfrwt beam="2">  1       -2 0.15315500E-02 0.27686037E+03</pdfrwt>
<totfact> 0.93119399E+03</totfact>
</mgrwt>
</event>
<event>
 9    1  0.7984035E-001  0.2765547E+03  0.7818608E-02  0.1097586E+00
          2   -1    0    0  501    0  0.00000000000E+00  0.00000000000E+00  0.97320919630E+03  0.97320919630E+03  0.00000000000E+00 0. -1.
         -2   -1    0    0    0  501 -0.00000000000E+00 -0.00000000000E+00 -0.19646981152E+02  0.19646981152E+02  0.00000000000E+00 0. -1.
         35    2    1    2    0    0 -0.10658141036E-13 -0.71054273576E-14  0.95356221515E+03  0.99285617745E+03  0.27655467985E+03 0.  0.
         25    2    3    3    0    0 -0.31969931169E+02 -0.18318942889E+02  0.31926223111E+03  0.34534476063E+03  0.12640004474E+03 0.  0.
         25    2    3    3    0    0  0.31969931169E+02  0.18318942889E+02  0.63429998404E+03  0.64751141683E+03  0.12480747174E+03 0.  0.
          5    1    4    4  502    0 -0.52939860170E+02  0.37460945298E+02  0.22063190302E+03  0.23001408185E+03  0.47000000000E+01 0. -1.
         -5    1    4    4    0  502  0.20969929001E+02 -0.55779888187E+02  0.98630328086E+02  0.11533067878E+03  0.47000000000E+01 0. -1.
          5    1    5    5  503    0 -0.47250186170E+02  0.13745354263E+02  0.28741243458E+03  0.29163249546E+03  0.47000000000E+01 0. -1.
         -5    1    5    5    0  503  0.79220117339E+02  0.45735886256E+01  0.34688754946E+03  0.35587892137E+03  0.47000000000E+01 0. -1.
<mgrwt>
<rscale>  0 0.27655468E+03</rscale>
<asrwt>0</asrwt>
<pdfrwt beam="1">  1        2 0.14972445E+00 0.27655468E+03</pdfrwt>
<pdfrwt beam="2">  1       -2 0.30226132E-02 0.27655468E+03</pdfrwt>
<totfact> 0.11399708E+04</totfact>
</mgrwt>
</event>
<event>
 9    1  0.7984035E-001  0.2673050E+03  0.7818608E-02  0.1102832E+00
         -2   -1    0    0    0  501 -0.00000000000E+00  0.00000000000E+00  0.37368976457E+01  0.37368976457E+01  0.00000000000E+00 0. -1.
          2   -1    0    0  501    0  0.00000000000E+00 -0.00000000000E+00 -0.47801649332E+04  0.47801649332E+04  0.00000000000E+00 0. -1.
         35    2    1    2    0    0  0.00000000000E+00  0.00000000000E+00 -0.47764280356E+04  0.47839018309E+04  0.26730497253E+03 0.  0.
         25    2    3    3    0    0 -0.42156297905E+02  0.16844269582E+02 -0.26702248303E+04  0.26735334441E+04  0.12497819776E+03 0.  0.
         25    2    3    3    0    0  0.42156297905E+02 -0.16844269582E+02 -0.21062032053E+04  0.21103683867E+04  0.12450663739E+03 0.  0.
          5    1    4    4  502    0  0.25007071135E+02 -0.32412848402E+02 -0.13796403322E+04  0.13802555859E+04  0.47000000000E+01 0.  1.
         -5    1    4    4    0  502 -0.67163369040E+02  0.49257117984E+02 -0.12905844981E+04  0.12932778582E+04  0.47000000000E+01 0.  1.
          5    1    5    5  503    0  0.13855167514E+02 -0.65438864849E+02 -0.15135480998E+04  0.15150327228E+04  0.47000000000E+01 0. -1.
         -5    1    5    5    0  503  0.28301130391E+02  0.48594595267E+02 -0.59265510546E+03  0.59533566389E+03  0.47000000000E+01 0. -1.
<mgrwt>
<rscale>  0 0.26730497E+03</rscale>
<asrwt>0</asrwt>
<pdfrwt beam="1">  1        2 0.73540284E+00 0.26730497E+03</pdfrwt>
<pdfrwt beam="2">  1       -2 0.57491292E-03 0.26730497E+03</pdfrwt>
<totfact> 0.42672206E+02</totfact>
</mgrwt>
</event>
<event>
 9    1  0.7984035E-001  0.2562973E+03  0.7818608E-02  0.1109388E+00
          2   -1    0    0  501    0  0.00000000000E+00  0.00000000000E+00  0.14855589233E+03  0.14855589233E+03  0.00000000000E+00 0.  1.
         -2   -1    0    0    0  501 -0.00000000000E+00 -0.00000000000E+00 -0.11054480293E+03  0.11054480293E+03  0.00000000000E+00 0.  1.
         35    2    1    2    0    0  0.00000000000E+00  0.00000000000E+00  0.38011089400E+02  0.25910069526E+03  0.25629734171E+03 0.  0.
         25    2    3    3    0    0  0.12661892447E+02  0.99514871430E+01  0.43010537923E+02  0.13319436895E+03  0.12502590904E+03 0.  0.
         25    2    3    3    0    0 -0.12661892447E+02 -0.99514871430E+01 -0.49994485236E+01  0.12590632632E+03  0.12477200369E+03 0.  0.
          5    1    4    4  502    0 -0.32529905150E+01 -0.34822141442E+01  0.85436942376E+02  0.85698709938E+02  0.47000000000E+01 0. -1.
         -5    1    4    4    0  502  0.15914882962E+02  0.13433701287E+02 -0.42426404452E+02  0.47495659009E+02  0.47000000000E+01 0. -1.
          5    1    5    5  503    0 -0.15020884211E+02  0.53672156382E+02  0.16874502822E+02  0.58422308912E+02  0.47000000000E+01 0. -1.
         -5    1    5    5    0  503  0.23589917640E+01 -0.63623643525E+02 -0.21873951345E+02  0.67484017404E+02  0.47000000000E+01 0. -1.
<mgrwt>
<rscale>  0 0.25629734E+03</rscale>
<asrwt>0</asrwt>
<pdfrwt beam="1">  1        2 0.22854753E-01 0.25629734E+03</pdfrwt>
<pdfrwt beam="2">  1       -2 0.17006893E-01 0.25629734E+03</pdfrwt>
<totfact> 0.65255629E+03</totfact>
</mgrwt>
</event>
<event>
 9    1  0.7984035E-001  0.2765005E+03  0.7818608E-02  0.1097616E+00
         -2   -1    0    0    0  501 -0.00000000000E+00  0.00000000000E+00  0.18125944283E+02  0.18125944283E+02  0.00000000000E+00 0. -1.
          2   -1    0    0  501    0  0.00000000000E+00 -0.00000000000E+00 -0.10544627512E+04  0.10544627512E+04  0.00000000000E+00 0. -1.
         35    2    1    2    0    0  0.00000000000E+00  0.00000000000E+00 -0.10363368069E+04  0.10725886955E+04  0.27650051051E+03 0.  0.
         25    2    3    3    0    0 -0.39961695274E+01 -0.16273125911E+02 -0.30278788813E+03  0.32833149842E+03  0.12585818869E+03 0.  0.
         25    2    3    3    0    0  0.39961695274E+01  0.16273125911E+02 -0.73354891882E+03  0.74425719709E+03  0.12467547926E+03 0.  0.
          5    1    4    4  502    0 -0.37911039697E+02 -0.14044877769E+02 -0.28817974409E+03  0.29103979183E+03  0.47000000000E+01 0. -1.
         -5    1    4    4    0  502  0.33914870170E+02 -0.22282481417E+01 -0.14608144039E+02  0.37291706594E+02  0.47000000000E+01 0. -1.
          5    1    5    5  503    0  0.45978751521E+02 -0.31462444355E+02 -0.45968183786E+03  0.46306955531E+03  0.47000000000E+01 0.  1.
         -5    1    5    5    0  503 -0.41982581993E+02  0.47735570266E+02 -0.27386708095E+03  0.28118764178E+03  0.47000000000E+01 0.  1.
<mgrwt>
<rscale>  0 0.27650051E+03</rscale>
<asrwt>0</asrwt>
<pdfrwt beam="1">  1        2 0.16222509E+00 0.27650051E+03</pdfrwt>
<pdfrwt beam="2">  1       -2 0.27886059E-02 0.27650051E+03</pdfrwt>
<totfact> 0.11466762E+04</totfact>
</mgrwt>
</event>
<event>
 9    1  0.7984035E-001  0.2741753E+03  0.7818608E-02  0.1098913E+00
          2   -1    0    0  501    0  0.00000000000E+00  0.00000000000E+00  0.15819066486E+03  0.15819066486E+03  0.00000000000E+00 0.  1.
         -2   -1    0    0    0  501 -0.00000000000E+00 -0.00000000000E+00 -0.11879984060E+03  0.11879984060E+03  0.00000000000E+00 0.  1.
         35    2    1    2    0    0  0.71054273576E-14  0.00000000000E+00  0.39390824257E+02  0.27699050545E+03  0.27417531449E+03 0.  0.
         25    2    3    3    0    0  0.40272673723E+02  0.38658281545E+02  0.69716672540E+01  0.13691466316E+03  0.12482255350E+03 0.  0.
         25    2    3    3    0    0 -0.40272673723E+02 -0.38658281545E+02  0.32419157003E+02  0.14007584230E+03  0.12431367130E+03 0.  0.
          5    1    4    4  502    0  0.36327929015E+02 -0.41268800095E+02  0.12441456745E+02  0.56565998035E+02  0.47000000000E+01 0.  1.
         -5    1    4    4    0  502  0.39447447087E+01  0.79927081640E+02 -0.54697894907E+01  0.80348665125E+02  0.47000000000E+01 0.  1.
          5    1    5    5  503    0  0.35096573376E+02  0.13779260760E+02 -0.92976393446E+01  0.39117433290E+02  0.47000000000E+01 0.  1.
         -5    1    5    5    0  503 -0.75369247100E+02 -0.52437542304E+02  0.41716796348E+02  0.10095840900E+03  0.47000000000E+01 0.  1.
<mgrwt>
<rscale>  0 0.27417531E+03</rscale>
<asrwt>0</asrwt>
<pdfrwt beam="1">  1        2 0.24337025E-01 0.27417531E+03</pdfrwt>
<pdfrwt beam="2">  1       -2 0.18276898E-01 0.27417531E+03</pdfrwt>
<totfact> 0.54010276E+03</totfact>
</mgrwt>
</event>
<event>
 9    1  0.7984035E-001  0.2763270E+03  0.7818608E-02  0.1097712E+00
          2   -1    0    0  501    0  0.00000000000E+00  0.00000000000E+00  0.74004163708E+03  0.74004163708E+03  0.00000000000E+00 0.  1.
         -2   -1    0    0    0  501 -0.00000000000E+00 -0.00000000000E+00 -0.25794707162E+02  0.25794707162E+02  0.00000000000E+00 0.  1.
         35    2    1    2    0    0  0.00000000000E+00  0.35527136788E-14  0.71424692991E+03  0.76583634424E+03  0.27632703318E+03 0.  0.
         25    2    3    3    0    0 -0.14872777434E+02  0.25218160892E+02  0.22059066470E+03  0.25622572540E+03  0.12702057257E+03 0.  0.
         25    2    3    3    0    0  0.14872777434E+02 -0.25218160892E+02  0.49365626522E+03  0.50961061884E+03  0.12308257188E+03 0.  0.
          5    1    4    4  502    0 -0.15175823457E+02 -0.28459667405E+02  0.19291658675E+03  0.19565060115E+03  0.47000000000E+01 0. -1.
         -5    1    4    4    0  502  0.30304602229E+00  0.53677828297E+02  0.27674077948E+02  0.60575124250E+02  0.47000000000E+01 0. -1.
          5    1    5    5  503    0  0.16719529560E+02  0.14898537830E+02  0.44816036906E+03  0.44874415372E+03  0.47000000000E+01 0. -1.
         -5    1    5    5    0  503 -0.18467521258E+01 -0.40116698723E+02  0.45495896159E+02  0.60866465127E+02  0.47000000000E+01 0. -1.
<mgrwt>
<rscale>  0 0.27632703E+03</rscale>
<asrwt>0</asrwt>
<pdfrwt beam="1">  1        2 0.11385254E+00 0.27632703E+03</pdfrwt>
<pdfrwt beam="2">  1       -2 0.39684170E-02 0.27632703E+03</pdfrwt>
<totfact> 0.10852320E+04</totfact>
</mgrwt>
</event>
<event>
 9    1  0.7984035E-001  0.2814953E+03  0.7818608E-02  0.1094875E+00
          2   -1    0    0  501    0  0.00000000000E+00  0.00000000000E+00  0.18549360287E+04  0.18549360287E+04  0.00000000000E+00 0. -1.
         -2   -1    0    0    0  501 -0.00000000000E+00 -0.00000000000E+00 -0.10679556621E+02  0.10679556621E+02  0.00000000000E+00 0. -1.
         35    2    1    2    0    0  0.00000000000E+00  0.00000000000E+00  0.18442564721E+04  0.18656155853E+04  0.28149525287E+03 0.  0.
         25    2    3    3    0    0 -0.16022940925E+02 -0.27907407567E+02  0.59657137907E+03  0.61028765257E+03  0.12457146750E+03 0.  0.
         25    2    3    3    0    0  0.16022940925E+02  0.27907407567E+02  0.12476850930E+04  0.12553279327E+04  0.13451605633E+03 0.  0.
          5    1    4    4  502    0 -0.48300557924E+01 -0.68365381500E+02  0.19992165446E+03  0.21139515782E+03  0.47000000000E+01 0.  1.
         -5    1    4    4    0  502 -0.11192885133E+02  0.40457973933E+02  0.39664972461E+03  0.39889249475E+03  0.47000000000E+01 0.  1.
          5    1    5    5  503    0  0.15973931566E+02  0.78326057780E+02  0.54886110783E+03  0.55467174393E+03  0.47000000000E+01 0.  1.
         -5    1    5    5    0  503  0.49009359197E-01 -0.50418650213E+02  0.69882398516E+03  0.70065618881E+03  0.47000000000E+01 0.  1.
<mgrwt>
<rscale>  0 0.28149525E+03</rscale>
<asrwt>0</asrwt>
<pdfrwt beam="1">  1        2 0.28537452E+00 0.28149525E+03</pdfrwt>
<pdfrwt beam="2">  1       -2 0.16430102E-02 0.28149525E+03</pdfrwt>
<totfact> 0.91451548E+03</totfact>
</mgrwt>
</event>
<event>
 9    1  0.7984035E-001  0.2752389E+03  0.7818608E-02  0.1098318E+00
          2   -1    0    0  501    0  0.00000000000E+00  0.00000000000E+00  0.83124322959E+03  0.83124322959E+03  0.00000000000E+00 0. -1.
         -2   -1    0    0    0  501 -0.00000000000E+00 -0.00000000000E+00 -0.22784088208E+02  0.22784088208E+02  0.00000000000E+00 0. -1.
         35    2    1    2    0    0  0.71054273576E-14  0.00000000000E+00  0.80845914138E+03  0.85402731780E+03  0.27523894394E+03 0.  0.
         25    2    3    3    0    0 -0.49083505329E+02 -0.42048915311E+02  0.36999175484E+03  0.39570758903E+03  0.12455238093E+03 0.  0.
         25    2    3    3    0    0  0.49083505329E+02  0.42048915311E+02  0.43846738654E+03  0.45831972877E+03  0.11673055701E+03 0.  0.
          5    1    4    4  502    0  0.73696851123E+01 -0.31444359718E+02  0.14739184726E+02  0.35810523357E+02  0.47000000000E+01 0.  1.
         -5    1    4    4    0  502 -0.56453190441E+02 -0.10604555593E+02  0.35525257011E+03  0.35989706568E+03  0.47000000000E+01 0.  1.
          5    1    5    5  503    0 -0.23157707965E+02  0.63677963569E+01  0.18529581264E+02  0.30696313304E+02  0.47000000000E+01 0. -1.
         -5    1    5    5    0  503  0.72241213294E+02  0.35681118955E+02  0.41993780528E+03  0.42762341546E+03  0.47000000000E+01 0. -1.
<mgrwt>
<rscale>  0 0.27523894E+03</rscale>
<asrwt>0</asrwt>
<pdfrwt beam="1">  1        2 0.12788355E+00 0.27523894E+03</pdfrwt>
<pdfrwt beam="2">  1       -2 0.35052450E-02 0.27523894E+03</pdfrwt>
<totfact> 0.11285810E+04</totfact>
</mgrwt>
</event>
<event>
 9    1  0.7984035E-001  0.2719764E+03  0.7818608E-02  0.1100154E+00
         -1   -1    0    0    0  501 -0.00000000000E+00  0.00000000000E+00  0.16472979154E+03  0.16472979154E+03  0.00000000000E+00 0. -1.
          1   -1    0    0  501    0  0.00000000000E+00 -0.00000000000E+00 -0.11226135733E+03  0.11226135733E+03  0.00000000000E+00 0. -1.
         35    2    1    2    0    0  0.00000000000E+00  0.14210854715E-13  0.52468434212E+02  0.27699114888E+03  0.27197639597E+03 0.  0.
         25    2    3    3    0    0 -0.28535063639E+01  0.35812655136E+02 -0.13040141992E+02  0.13117171170E+03  0.12548021310E+03 0.  0.
         25    2    3    3    0    0  0.28535063639E+01 -0.35812655136E+02  0.65508576205E+02  0.14581943718E+03  0.12522478163E+03 0.  0.
          5    1    4    4  502    0 -0.48426933585E+02 -0.23501929424E+02  0.44288019478E+01  0.54214507927E+02  0.47000000000E+01 0.  1.
         -5    1    4    4    0  502  0.45573427221E+02  0.59314584561E+02 -0.17468943940E+02  0.76957203774E+02  0.47000000000E+01 0.  1.
          5    1    5    5  503    0 -0.24104738120E+02 -0.67238092899E+02  0.42203121382E+01  0.71707046872E+02  0.47000000000E+01 0. -1.
         -5    1    5    5    0  503  0.26958244484E+02  0.31425437763E+02  0.61288264067E+02  0.74112390304E+02  0.47000000000E+01 0. -1.
<mgrwt>
<rscale>  0 0.27197640E+03</rscale>
<asrwt>0</asrwt>
<pdfrwt beam="1">  1        1 0.17270978E-01 0.27197640E+03</pdfrwt>
<pdfrwt beam="2">  1       -1 0.25343045E-01 0.27197640E+03</pdfrwt>
<totfact> 0.41828264E+03</totfact>
</mgrwt>
</event>
<event>
 9    1  0.7984035E-001  0.2714716E+03  0.7818608E-02  0.1100440E+00
          1   -1    0    0  501    0  0.00000000000E+00  0.00000000000E+00  0.34846405723E+04  0.34846405723E+04  0.00000000000E+00 0. -1.
         -1   -1    0    0    0  501 -0.00000000000E+00 -0.00000000000E+00 -0.52872600158E+01  0.52872600158E+01  0.00000000000E+00 0. -1.
         35    2    1    2    0    0  0.00000000000E+00 -0.71054273576E-14  0.34793533123E+04  0.34899278323E+04  0.27147155112E+03 0.  0.
         25    2    3    3    0    0 -0.24510001364E+02 -0.30758236169E+02  0.22023317646E+04  0.22062179730E+04  0.12484283710E+03 0.  0.
         25    2    3    3    0    0  0.24510001364E+02  0.30758236169E+02  0.12770215477E+04  0.12837098593E+04  0.12482051223E+03 0.  0.
          5    1    4    4  502    0 -0.17819304153E+02 -0.14267070756E+02  0.21591620858E+04  0.21592878641E+04  0.47000000000E+01 0.  1.
         -5    1    4    4    0  502 -0.66906972109E+01 -0.16491165413E+02  0.43169678707E+02  0.46930108945E+02  0.47000000000E+01 0.  1.
          5    1    5    5  503    0 -0.51301068124E+01  0.38581127700E+02  0.11936626109E+03  0.12563922834E+03  0.47000000000E+01 0.  1.
         -5    1    5    5    0  503  0.29640108177E+02 -0.78228915315E+01  0.11576552866E+04  0.11580706310E+04  0.47000000000E+01 0.  1.
<mgrwt>
<rscale>  0 0.27147155E+03</rscale>
<asrwt>0</asrwt>
<pdfrwt beam="1">  1        1 0.53609671E+00 0.27147155E+03</pdfrwt>
<pdfrwt beam="2">  1       -1 0.81342741E-03 0.27147155E+03</pdfrwt>
<totfact> 0.81744950E+02</totfact>
</mgrwt>
</event>
<event>
 9    1  0.7984035E-001  0.2766662E+03  0.7818608E-02  0.1097524E+00
          1   -1    0    0  501    0  0.00000000000E+00  0.00000000000E+00  0.61932046876E+03  0.61932046876E+03  0.00000000000E+00 0. -1.
         -1   -1    0    0    0  501 -0.00000000000E+00 -0.00000000000E+00 -0.30898459183E+02  0.30898459183E+02  0.00000000000E+00 0. -1.
         35    2    1    2    0    0  0.00000000000E+00  0.00000000000E+00  0.58842200958E+03  0.65021892795E+03  0.27666621207E+03 0.  0.
         25    2    3    3    0    0  0.81255612077E+01 -0.67027405391E+00  0.15223085872E+03  0.19633362115E+03  0.12371815727E+03 0.  0.
         25    2    3    3    0    0 -0.81255612077E+01  0.67027405391E+00  0.43619115087E+03  0.45388530679E+03  0.12523049795E+03 0.  0.
          5    1    4    4  502    0  0.26770673301E+02  0.56553447593E+02  0.89189529220E+02  0.10904963781E+03  0.47000000000E+01 0.  1.
         -5    1    4    4    0  502 -0.18645112093E+02 -0.57223721647E+02  0.63041329497E+02  0.87283983346E+02  0.47000000000E+01 0.  1.
          5    1    5    5  503    0 -0.39537084234E+02  0.37889317392E+02  0.35393297074E+03  0.35817512362E+03  0.47000000000E+01 0.  1.
         -5    1    5    5    0  503  0.31411523026E+02 -0.37219043338E+02  0.82258180126E+02  0.95710183175E+02  0.47000000000E+01 0.  1.
<mgrwt>
<rscale>  0 0.27666621E+03</rscale>
<asrwt>0</asrwt>
<pdfrwt beam="1">  1        1 0.95280063E-01 0.27666621E+03</pdfrwt>
<pdfrwt beam="2">  1       -1 0.47536096E-02 0.27666621E+03</pdfrwt>
<totfact> 0.63666286E+03</totfact>
</mgrwt>
</event>
<event>
 9    1  0.7984035E-001  0.2746929E+03  0.7818608E-02  0.1098623E+00
          1   -1    0    0  501    0  0.00000000000E+00  0.00000000000E+00  0.15166337920E+03  0.15166337920E+03  0.00000000000E+00 0.  1.
         -1   -1    0    0    0  501 -0.00000000000E+00 -0.00000000000E+00 -0.12438103074E+03  0.12438103074E+03  0.00000000000E+00 0.  1.
         35    2    1    2    0    0 -0.53290705182E-14  0.00000000000E+00  0.27282348454E+02  0.27604440994E+03  0.27469290075E+03 0.  0.
         25    2    3    3    0    0  0.64997583167E+01  0.23342240065E+02  0.65908289124E+02  0.14267408287E+03  0.12419695776E+03 0.  0.
         25    2    3    3    0    0 -0.64997583167E+01 -0.23342240065E+02 -0.38625940670E+02  0.13337032707E+03  0.12533384946E+03 0.  0.
          5    1    4    4  502    0 -0.28113917566E+01  0.44363887467E+02 -0.23315478167E+02  0.50415870090E+02  0.47000000000E+01 0. -1.
         -5    1    4    4    0  502  0.93111500733E+01 -0.21021647402E+02  0.89223767291E+02  0.92258212777E+02  0.47000000000E+01 0. -1.
          5    1    5    5  503    0  0.39443189755E+02  0.26424006521E+02  0.11382449205E+02  0.49047359649E+02  0.47000000000E+01 0. -1.
         -5    1    5    5    0  503 -0.45942948071E+02 -0.49766246587E+02 -0.50008389875E+02  0.84322967421E+02  0.47000000000E+01 0. -1.
<mgrwt>
<rscale>  0 0.27469290E+03</rscale>
<asrwt>0</asrwt>
<pdfrwt beam="1">  1        1 0.23332828E-01 0.27469290E+03</pdfrwt>
<pdfrwt beam="2">  1       -1 0.19135543E-01 0.27469290E+03</pdfrwt>
<totfact> 0.45034643E+03</totfact>
</mgrwt>
</event>
<event>
 9    1  0.7984035E-001  0.2738749E+03  0.7818608E-02  0.1099082E+00
         -1   -1    0    0    0  501 -0.00000000000E+00  0.00000000000E+00  0.14372687983E+03  0.14372687983E+03  0.00000000000E+00 0. -1.
          1   -1    0    0  501    0  0.00000000000E+00 -0.00000000000E+00 -0.13046877074E+03  0.13046877074E+03  0.00000000000E+00 0. -1.
         35    2    1    2    0    0  0.71054273576E-14  0.00000000000E+00  0.13258109088E+02  0.27419565056E+03  0.27387493009E+03 0.  0.
         25    2    3    3    0    0 -0.30858465888E+02 -0.14279328038E+02  0.51708810159E+02  0.13954906461E+03  0.12507596195E+03 0.  0.
         25    2    3    3    0    0  0.30858465888E+02  0.14279328038E+02 -0.38450701072E+02  0.13464658596E+03  0.12447932588E+03 0.  0.
          5    1    4    4  502    0  0.32679613013E+02  0.24946531967E+02 -0.99924541376E+01  0.42570244345E+02  0.47000000000E+01 0. -1.
         -5    1    4    4    0  502 -0.63538078901E+02 -0.39225860005E+02  0.61701264297E+02  0.96978820262E+02  0.47000000000E+01 0. -1.
          5    1    5    5  503    0  0.71733973583E+02  0.13060455724E+02 -0.53778610049E+02  0.90722474440E+02  0.47000000000E+01 0. -1.
         -5    1    5    5    0  503 -0.40875507695E+02  0.12188723134E+01  0.15327908977E+02  0.43924111518E+02  0.47000000000E+01 0. -1.
<mgrwt>
<rscale>  0 0.27387493E+03</rscale>
<asrwt>0</asrwt>
<pdfrwt beam="1">  1        1 0.20072118E-01 0.27387493E+03</pdfrwt>
<pdfrwt beam="2">  1       -1 0.22111828E-01 0.27387493E+03</pdfrwt>
<totfact> 0.43153016E+03</totfact>
</mgrwt>
</event>
<event>
 9    1  0.7984035E-001  0.2733784E+03  0.7818608E-02  0.1099362E+00
          1   -1    0    0  501    0  0.00000000000E+00  0.00000000000E+00  0.79891383773E+02  0.79891383773E+02  0.00000000000E+00 0.  1.
         -1   -1    0    0    0  501 -0.00000000000E+00 -0.00000000000E+00 -0.23386665905E+03  0.23386665905E+03  0.00000000000E+00 0.  1.
         35    2    1    2    0    0  0.00000000000E+00 -0.71054273576E-14 -0.15397527528E+03  0.31375804283E+03  0.27337835328E+03 0.  0.
         25    2    3    3    0    0 -0.17508363235E+02  0.33429972918E+02 -0.12435682398E+03  0.17982575262E+03  0.12429229969E+03 0.  0.
         25    2    3    3    0    0  0.17508363235E+02 -0.33429972918E+02 -0.29618451301E+02  0.13393229020E+03  0.12504599086E+03 0.  0.
          5    1    4    4  502    0  0.14094650480E+02  0.46434314064E+02  0.20501129491E+01  0.48796492270E+02  0.47000000000E+01 0. -1.
         -5    1    4    4    0  502 -0.31603013715E+02 -0.13004341147E+02 -0.12640693693E+03  0.13102926035E+03  0.47000000000E+01 0. -1.
          5    1    5    5  503    0 -0.39633779999E+01  0.17639940342E+02 -0.65265991461E+02  0.67886784442E+02  0.47000000000E+01 0.  1.
         -5    1    5    5    0  503  0.21471741235E+02 -0.51069913259E+02  0.35647540160E+02  0.66045505763E+02  0.47000000000E+01 0.  1.
<mgrwt>
<rscale>  0 0.27337835E+03</rscale>
<asrwt>0</asrwt>
<pdfrwt beam="1">  1        1 0.12290982E-01 0.27337835E+03</pdfrwt>
<pdfrwt beam="2">  1       -1 0.35979486E-01 0.27337835E+03</pdfrwt>
<totfact> 0.36013593E+03</totfact>
</mgrwt>
</event>
<event>
 9    1  0.7984035E-001  0.2745841E+03  0.7818608E-02  0.1098684E+00
          1   -1    0    0  501    0  0.00000000000E+00  0.00000000000E+00  0.84102402342E+03  0.84102402342E+03  0.00000000000E+00 0. -1.
         -1   -1    0    0    0  501 -0.00000000000E+00 -0.00000000000E+00 -0.22412097917E+02  0.22412097917E+02  0.00000000000E+00 0. -1.
         35    2    1    2    0    0 -0.88817841970E-15  0.00000000000E+00  0.81861192550E+03  0.86343612133E+03  0.27458414203E+03 0.  0.
         25    2    3    3    0    0  0.26669198159E+01 -0.42737006866E+02  0.51080631988E+03  0.52762621496E+03  0.12503104441E+03 0.  0.
         25    2    3    3    0    0 -0.26669198159E+01  0.42737006866E+02  0.30780560562E+03  0.33580990637E+03  0.12724165258E+03 0.  0.
          5    1    4    4  502    0  0.96744035434E+01 -0.38514974200E+02  0.39441201692E+02  0.56166677954E+02  0.47000000000E+01 0.  1.
         -5    1    4    4    0  502 -0.70074837274E+01 -0.42220326665E+01  0.47136511819E+03  0.47145953701E+03  0.47000000000E+01 0.  1.
          5    1    5    5  503    0  0.72325356853E-01 -0.18659148446E+01 -0.11916774625E+02  0.12945516082E+02  0.47000000000E+01 0.  1.
         -5    1    5    5    0  503 -0.27392451728E+01  0.44602921711E+02  0.31972238024E+03  0.32286439029E+03  0.47000000000E+01 0.  1.
<mgrwt>
<rscale>  0 0.27458414E+03</rscale>
<asrwt>0</asrwt>
<pdfrwt beam="1">  1        1 0.12938829E+00 0.27458414E+03</pdfrwt>
<pdfrwt beam="2">  1       -1 0.34480157E-02 0.27458414E+03</pdfrwt>
<totfact> 0.65253167E+03</totfact>
</mgrwt>
</event>
<event>
 9    1  0.7984035E-001  0.2789356E+03  0.7818608E-02  0.1096272E+00
         -2   -1    0    0    0  501 -0.00000000000E+00  0.00000000000E+00  0.85036847341E+01  0.85036847341E+01  0.00000000000E+00 0. -1.
          2   -1    0    0  501    0  0.00000000000E+00 -0.00000000000E+00 -0.22873935371E+04  0.22873935371E+04  0.00000000000E+00 0. -1.
         35    2    1    2    0    0  0.71054273576E-14  0.71054273576E-14 -0.22788898523E+04  0.22958972218E+04  0.27893564492E+03 0.  0.
         25    2    3    3    0    0 -0.39955615444E+02 -0.44790785100E+02 -0.10391380560E+04  0.10483445713E+04  0.12496309449E+03 0.  0.
         25    2    3    3    0    0  0.39955615444E+02  0.44790785100E+02 -0.12397517963E+04  0.12475526505E+04  0.12569977636E+03 0.  0.
          5    1    4    4  502    0  0.18533694565E+02 -0.69532605500E+02 -0.44523715012E+03  0.45103934519E+03  0.47000000000E+01 0. -1.
         -5    1    4    4    0  502 -0.58489310009E+02  0.24741820399E+02 -0.59390090591E+03  0.59730522608E+03  0.47000000000E+01 0. -1.
          5    1    5    5  503    0  0.54999849625E+02 -0.11680890499E+02 -0.96335608561E+03  0.96500697632E+03  0.47000000000E+01 0. -1.
         -5    1    5    5    0  503 -0.15044234181E+02  0.56471675599E+02 -0.27639571069E+03  0.28254567421E+03  0.47000000000E+01 0. -1.
<mgrwt>
<rscale>  0 0.27893564E+03</rscale>
<asrwt>0</asrwt>
<pdfrwt beam="1">  1        2 0.35190687E+00 0.27893564E+03</pdfrwt>
<pdfrwt beam="2">  1       -2 0.13082586E-02 0.27893564E+03</pdfrwt>
<totfact> 0.75366139E+03</totfact>
</mgrwt>
</event>
<event>
 9    1  0.7984035E-001  0.2610316E+03  0.7818608E-02  0.1106525E+00
         -2   -1    0    0    0  501 -0.00000000000E+00  0.00000000000E+00  0.23024043316E+02  0.23024043316E+02  0.00000000000E+00 0. -1.
          2   -1    0    0  501    0  0.00000000000E+00 -0.00000000000E+00 -0.73985172188E+03  0.73985172188E+03  0.00000000000E+00 0. -1.
         35    2    1    2    0    0  0.71054273576E-14  0.00000000000E+00 -0.71682767856E+03  0.76287576520E+03  0.26103163097E+03 0.  0.
         25    2    3    3    0    0  0.35038320291E+02  0.12162137007E+02 -0.35537503897E+03  0.37865242071E+03  0.12534207564E+03 0.  0.
         25    2    3    3    0    0 -0.35038320291E+02 -0.12162137007E+02 -0.36145263960E+03  0.38422334449E+03  0.12491583690E+03 0.  0.
          5    1    4    4  502    0 -0.16968415975E+02  0.54702316638E+02 -0.10879975534E+03  0.12304368065E+03  0.47000000000E+01 0.  1.
         -5    1    4    4    0  502  0.52006736265E+02 -0.42540179631E+02 -0.24657528363E+03  0.25560874006E+03  0.47000000000E+01 0.  1.
          5    1    5    5  503    0 -0.19745738062E+01  0.44742692427E+02 -0.25526156022E+03  0.25920332095E+03  0.47000000000E+01 0. -1.
         -5    1    5    5    0  503 -0.33063746484E+02 -0.56904829434E+02 -0.10619107938E+03  0.12502002354E+03  0.47000000000E+01 0. -1.
<mgrwt>
<rscale>  0 0.26103163E+03</rscale>
<asrwt>0</asrwt>
<pdfrwt beam="1">  1        2 0.11382333E+00 0.26103163E+03</pdfrwt>
<pdfrwt beam="2">  1       -2 0.35421609E-02 0.26103163E+03</pdfrwt>
<totfact> 0.12844674E+04</totfact>
</mgrwt>
</event>
<event>
 9    1  0.7984035E-001  0.2752995E+03  0.7818608E-02  0.1098284E+00
         -3   -1    0    0    0  501 -0.00000000000E+00  0.00000000000E+00  0.74460170122E+03  0.74460170122E+03  0.00000000000E+00 0.  1.
          3   -1    0    0  501    0  0.00000000000E+00 -0.00000000000E+00 -0.25446427857E+02  0.25446427857E+02  0.00000000000E+00 0.  1.
         35    2    1    2    0    0  0.71054273576E-14  0.00000000000E+00  0.71915527336E+03  0.77004812908E+03  0.27529949853E+03 0.  0.
         25    2    3    3    0    0  0.17353554284E+02  0.38067537513E+02  0.46510021614E+03  0.48378564253E+03  0.12641223677E+03 0.  0.
         25    2    3    3    0    0 -0.17353554284E+02 -0.38067537513E+02  0.25405505722E+03  0.28626248655E+03  0.12510777692E+03 0.  0.
          5    1    4    4  502    0  0.22975399140E+02 -0.26474931370E+02  0.38543655210E+02  0.52311512248E+02  0.47000000000E+01 0.  1.
         -5    1    4    4    0  502 -0.56218448555E+01  0.64542468883E+02  0.42655656093E+03  0.43147413028E+03  0.47000000000E+01 0.  1.
          5    1    5    5  503    0  0.21310975186E+02  0.39495634801E+02  0.87265184325E+02  0.98241362099E+02  0.47000000000E+01 0.  1.
         -5    1    5    5    0  503 -0.38664529470E+02 -0.77563172314E+02  0.16678987289E+03  0.18802112445E+03  0.47000000000E+01 0.  1.
<mgrwt>
<rscale>  0 0.27529950E+03</rscale>
<asrwt>0</asrwt>
<pdfrwt beam="1">  1        3 0.39148356E-02 0.27529950E+03</pdfrwt>
<pdfrwt beam="2">  1       -3 0.11455409E+00 0.27529950E+03</pdfrwt>
<totfact> 0.56220900E+02</totfact>
</mgrwt>
</event>
<event>
 9    1  0.7984035E-001  0.2739549E+03  0.7818608E-02  0.1099037E+00
         -2   -1    0    0    0  501 -0.00000000000E+00  0.00000000000E+00  0.60583472200E+02  0.60583472200E+02  0.00000000000E+00 0. -1.
          2   -1    0    0  501    0  0.00000000000E+00 -0.00000000000E+00 -0.30970195275E+03  0.30970195275E+03  0.00000000000E+00 0. -1.
         35    2    1    2    0    0  0.00000000000E+00  0.00000000000E+00 -0.24911848055E+03  0.37028542495E+03  0.27395488420E+03 0.  0.
         25    2    3    3    0    0 -0.13499376638E+02  0.53875032655E+02 -0.12610988121E+03  0.18611387623E+03  0.12509964218E+03 0.  0.
         25    2    3    3    0    0  0.13499376638E+02 -0.53875032655E+02 -0.12300859935E+03  0.18417154872E+03  0.12531277482E+03 0.  0.
          5    1    4    4  502    0  0.14514461800E+02  0.24501743603E+02  0.19530343887E+02  0.34850098612E+02  0.47000000000E+01 0. -1.
         -5    1    4    4    0  502 -0.28013838438E+02  0.29373289052E+02 -0.14564022509E+03  0.15126377762E+03  0.47000000000E+01 0. -1.
          5    1    5    5  503    0  0.68738563397E+02 -0.39240367975E+02 -0.78614208607E+02  0.11165608076E+03  0.47000000000E+01 0. -1.
         -5    1    5    5    0  503 -0.55239186759E+02 -0.14634664680E+02 -0.44394390740E+02  0.72515467959E+02  0.47000000000E+01 0. -1.
<mgrwt>
<rscale>  0 0.27395488E+03</rscale>
<asrwt>0</asrwt>
<pdfrwt beam="1">  1        2 0.47646455E-01 0.27395488E+03</pdfrwt>
<pdfrwt beam="2">  1       -2 0.93205341E-02 0.27395488E+03</pdfrwt>
<totfact> 0.77814984E+03</totfact>
</mgrwt>
</event>
<event>
 9    1  0.7984035E-001  0.2724548E+03  0.7818608E-02  0.1099883E+00
          1   -1    0    0  501    0  0.00000000000E+00  0.00000000000E+00  0.15887477532E+03  0.15887477532E+03  0.00000000000E+00 0.  1.
         -1   -1    0    0    0  501 -0.00000000000E+00 -0.00000000000E+00 -0.11680837366E+03  0.11680837366E+03  0.00000000000E+00 0.  1.
         35    2    1    2    0    0  0.71054273576E-14 -0.71054273576E-14  0.42066401657E+02  0.27568314898E+03  0.27245479714E+03 0.  0.
         25    2    3    3    0    0  0.26790244987E+02  0.40181016530E+02  0.47673808576E+02  0.14149231673E+03  0.12415736931E+03 0.  0.
         25    2    3    3    0    0 -0.26790244987E+02 -0.40181016530E+02 -0.56074069194E+01  0.13419083226E+03  0.12507399863E+03 0.  0.
          5    1    4    4  502    0  0.61968180820E+02  0.59332887939E+01  0.64130487226E+02  0.89498987379E+02  0.47000000000E+01 0.  1.
         -5    1    4    4    0  502 -0.35177935833E+02  0.34247727736E+02 -0.16456678650E+02  0.51993329348E+02  0.47000000000E+01 0.  1.
          5    1    5    5  503    0  0.33204976568E+02  0.14716616981E+02 -0.31928494052E+02  0.48586706172E+02  0.47000000000E+01 0.  1.
         -5    1    5    5    0  503 -0.59995221555E+02 -0.54897633511E+02  0.26321087133E+02  0.85604126083E+02  0.47000000000E+01 0.  1.
<mgrwt>
<rscale>  0 0.27245480E+03</rscale>
<asrwt>0</asrwt>
<pdfrwt beam="1">  1        1 0.24442273E-01 0.27245480E+03</pdfrwt>
<pdfrwt beam="2">  1       -1 0.17970519E-01 0.27245480E+03</pdfrwt>
<totfact> 0.46960693E+03</totfact>
</mgrwt>
</event>
<event>
 9    1  0.7984035E-001  0.2791536E+03  0.7818608E-02  0.1096152E+00
          2   -1    0    0  501    0  0.00000000000E+00  0.00000000000E+00  0.18724811856E+03  0.18724811856E+03  0.00000000000E+00 0.  1.
         -2   -1    0    0    0  501 -0.00000000000E+00 -0.00000000000E+00 -0.10404203952E+03  0.10404203952E+03  0.00000000000E+00 0.  1.
         35    2    1    2    0    0  0.00000000000E+00  0.71054273576E-14  0.83206079038E+02  0.29129015808E+03  0.27915355023E+03 0.  0.
         25    2    3    3    0    0  0.55874400888E+02 -0.26205424708E+02  0.44440766965E+02  0.14653732881E+03  0.12525787004E+03 0.  0.
         25    2    3    3    0    0 -0.55874400888E+02  0.26205424708E+02  0.38765312074E+02  0.14475282927E+03  0.12506781841E+03 0.  0.
          5    1    4    4  502    0  0.53669701506E+02 -0.25223047202E+01 -0.34454924693E+02  0.64000239972E+02  0.47000000000E+01 0. -1.
         -5    1    4    4    0  502  0.22046993817E+01 -0.23683119987E+02  0.78895691657E+02  0.82537088838E+02  0.47000000000E+01 0. -1.
          5    1    5    5  503    0 -0.29255950790E+02 -0.41277293494E+02 -0.16513478530E+02  0.53427620086E+02  0.47000000000E+01 0.  1.
         -5    1    5    5    0  503 -0.26618450097E+02  0.67482718202E+02  0.55278790604E+02  0.91325209182E+02  0.47000000000E+01 0.  1.
<mgrwt>
<rscale>  0 0.27915355E+03</rscale>
<asrwt>0</asrwt>
<pdfrwt beam="1">  1        2 0.28807403E-01 0.27915355E+03</pdfrwt>
<pdfrwt beam="2">  1       -2 0.16006468E-01 0.27915355E+03</pdfrwt>
<totfact> 0.55975404E+03</totfact>
</mgrwt>
</event>
<event>
 9    1  0.7984035E-001  0.2660503E+03  0.7818608E-02  0.1103562E+00
          2   -1    0    0  501    0  0.00000000000E+00  0.00000000000E+00  0.17397980539E+03  0.17397980539E+03  0.00000000000E+00 0.  1.
         -2   -1    0    0    0  501 -0.00000000000E+00 -0.00000000000E+00 -0.10171118496E+03  0.10171118496E+03  0.00000000000E+00 0.  1.
         35    2    1    2    0    0  0.00000000000E+00  0.00000000000E+00  0.72268620437E+02  0.27569099035E+03  0.26605031227E+03 0.  0.
         25    2    3    3    0    0 -0.35772996626E+02 -0.42586834069E+01  0.10700752679E+02  0.12976037770E+03  0.12419905732E+03 0.  0.
         25    2    3    3    0    0  0.35772996626E+02  0.42586834069E+01  0.61567867757E+02  0.14593061265E+03  0.12730788545E+03 0.  0.
          5    1    4    4  502    0 -0.46644598093E+01 -0.55861609103E+02 -0.22755092431E+02  0.60680810709E+02  0.47000000000E+01 0.  1.
         -5    1    4    4    0  502 -0.31108536816E+02  0.51602925696E+02  0.33455845110E+02  0.69079566988E+02  0.47000000000E+01 0.  1.
          5    1    5    5  503    0  0.42952631960E+02  0.57313832029E+02  0.57616258681E+02  0.92040899597E+02  0.47000000000E+01 0.  1.
         -5    1    5    5    0  503 -0.71796353349E+01 -0.53055148622E+02  0.39516090762E+01  0.53889713055E+02  0.47000000000E+01 0.  1.
<mgrwt>
<rscale>  0 0.26605031E+03</rscale>
<asrwt>0</asrwt>
<pdfrwt beam="1">  1        2 0.26766124E-01 0.26605031E+03</pdfrwt>
<pdfrwt beam="2">  1       -2 0.15647875E-01 0.26605031E+03</pdfrwt>
<totfact> 0.62928788E+03</totfact>
</mgrwt>
</event>
<event>
 9    1  0.7984035E-001  0.2737771E+03  0.7818608E-02  0.1099137E+00
          1   -1    0    0  501    0  0.00000000000E+00  0.00000000000E+00  0.10198425579E+04  0.10198425579E+04  0.00000000000E+00 0. -1.
         -1   -1    0    0    0  501 -0.00000000000E+00 -0.00000000000E+00 -0.18373890649E+02  0.18373890649E+02  0.00000000000E+00 0. -1.
         35    2    1    2    0    0 -0.14210854715E-13  0.17763568394E-14  0.10014686673E+04  0.10382164486E+04  0.27377710378E+03 0.  0.
         25    2    3    3    0    0 -0.57958859071E+02  0.66025983947E+01  0.59737325064E+03  0.61086022698E+03  0.11354555329E+03 0.  0.
         25    2    3    3    0    0  0.57958859071E+02 -0.66025983947E+01  0.40409541662E+03  0.42735622158E+03  0.12624345821E+03 0.  0.
          5    1    4    4  502    0 -0.10296300253E+02 -0.89455746161E+01  0.34856335468E+01  0.14841723125E+02  0.47000000000E+01 0.  1.
         -5    1    4    4    0  502 -0.47662558818E+02  0.15548173011E+02  0.59388761709E+03  0.59601850385E+03  0.47000000000E+01 0.  1.
          5    1    5    5  503    0  0.94154968843E+02  0.40310544608E+01  0.22008586982E+03  0.23946040937E+03  0.47000000000E+01 0. -1.
         -5    1    5    5    0  503 -0.36196109772E+02 -0.10633652856E+02  0.18400954680E+03  0.18789581222E+03  0.47000000000E+01 0. -1.
<mgrwt>
<rscale>  0 0.27377710E+03</rscale>
<asrwt>0</asrwt>
<pdfrwt beam="1">  1        1 0.15689881E+00 0.27377710E+03</pdfrwt>
<pdfrwt beam="2">  1       -1 0.28267532E-02 0.27377710E+03</pdfrwt>
<totfact> 0.63603341E+03</totfact>
</mgrwt>
</event>
<event>
 9    1  0.7984035E-001  0.2575788E+03  0.7818608E-02  0.1108607E+00
         -1   -1    0    0    0  501 -0.00000000000E+00  0.00000000000E+00  0.15290120820E+02  0.15290120820E+02  0.00000000000E+00 0.  1.
          1   -1    0    0  501    0  0.00000000000E+00 -0.00000000000E+00 -0.10847994409E+04  0.10847994409E+04  0.00000000000E+00 0.  1.
         35    2    1    2    0    0  0.00000000000E+00  0.00000000000E+00 -0.10695093201E+04  0.11000895617E+04  0.25757883854E+03 0.  0.
         25    2    3    3    0    0 -0.18237479460E+01  0.17094822143E+02 -0.66114314452E+03  0.67297255166E+03  0.12444371719E+03 0.  0.
         25    2    3    3    0    0  0.18237479460E+01 -0.17094822143E+02 -0.40836617556E+03  0.42711701006E+03  0.12397761062E+03 0.  0.
          5    1    4    4  502    0  0.54055733758E+02  0.34391408852E+02 -0.27554688679E+03  0.28293633237E+03  0.47000000000E+01 0.  1.
         -5    1    4    4    0  502 -0.55879481704E+02 -0.17296586709E+02 -0.38559625773E+03  0.39003621930E+03  0.47000000000E+01 0.  1.
          5    1    5    5  503    0  0.53116553386E+02  0.22238578698E+02 -0.14987922305E+03  0.16062936883E+03  0.47000000000E+01 0.  1.
         -5    1    5    5    0  503 -0.51292805440E+02 -0.39333400841E+02 -0.25848695251E+03  0.26648764123E+03  0.47000000000E+01 0.  1.
<mgrwt>
<rscale>  0 0.25757884E+03</rscale>
<asrwt>0</asrwt>
<pdfrwt beam="1">  1        1 0.16689231E+00 0.25757884E+03</pdfrwt>
<pdfrwt beam="2">  1       -1 0.23523250E-02 0.25757884E+03</pdfrwt>
<totfact> 0.74561155E+03</totfact>
</mgrwt>
</event>
<event>
 9    1  0.7984035E-001  0.2727650E+03  0.7818608E-02  0.1099707E+00
         -2   -1    0    0    0  501 -0.00000000000E+00  0.00000000000E+00  0.34296537408E+02  0.34296537408E+02  0.00000000000E+00 0.  1.
          2   -1    0    0  501    0  0.00000000000E+00 -0.00000000000E+00 -0.54233422058E+03  0.54233422058E+03  0.00000000000E+00 0.  1.
         35    2    1    2    0    0  0.35527136788E-14  0.00000000000E+00 -0.50803768317E+03  0.57663075799E+03  0.27276499690E+03 0.  0.
         25    2    3    3    0    0  0.25875214903E+02 -0.45003818725E+02 -0.22056293999E+03  0.25879226685E+03  0.12502222378E+03 0.  0.
         25    2    3    3    0    0 -0.25875214903E+02  0.45003818725E+02 -0.28747474319E+03  0.31783849114E+03  0.12523860441E+03 0.  0.
          5    1    4    4  502    0  0.21255762607E+02 -0.24316967750E+02 -0.23197830422E+03  0.23426298469E+03  0.47000000000E+01 0. -1.
         -5    1    4    4    0  502  0.46194522961E+01 -0.20686850975E+02  0.11415364236E+02  0.24529282163E+02  0.47000000000E+01 0. -1.
          5    1    5    5  503    0 -0.84136981818E+01  0.16905218450E+02  0.75904279941E+01  0.20887348445E+02  0.47000000000E+01 0.  1.
         -5    1    5    5    0  503 -0.17461516722E+02  0.28098600275E+02 -0.29506517118E+03  0.29695114270E+03  0.47000000000E+01 0.  1.
<mgrwt>
<rscale>  0 0.27276500E+03</rscale>
<asrwt>0</asrwt>
<pdfrwt beam="1">  1        2 0.83436033E-01 0.27276500E+03</pdfrwt>
<pdfrwt beam="2">  1       -2 0.52763904E-02 0.27276500E+03</pdfrwt>
<totfact> 0.10173019E+04</totfact>
</mgrwt>
</event>
<event>
 9    1  0.7984035E-001  0.3089392E+03  0.7818608E-02  0.1080855E+00
          2   -1    0    0  501    0  0.00000000000E+00  0.00000000000E+00  0.99761606333E+03  0.99761606333E+03  0.00000000000E+00 0. -1.
         -2   -1    0    0    0  501 -0.00000000000E+00 -0.00000000000E+00 -0.23917870753E+02  0.23917870753E+02  0.00000000000E+00 0. -1.
         35    2    1    2    0    0 -0.28421709430E-13  0.00000000000E+00  0.97369819258E+03  0.10215339341E+04  0.30893916595E+03 0.  0.
         25    2    3    3    0    0  0.84206533166E+02 -0.22643447778E+01  0.62030462542E+03  0.63769119082E+03  0.12155804807E+03 0.  0.
         25    2    3    3    0    0 -0.84206533166E+02  0.22643447778E+01  0.35339356716E+03  0.38384274327E+03  0.12390468418E+03 0.  0.
          5    1    4    4  502    0  0.19708061763E+02 -0.18357431900E+02  0.20440390536E+02  0.34136528378E+02  0.47000000000E+01 0.  1.
         -5    1    4    4    0  502  0.64498471403E+02  0.16093087122E+02  0.59986423488E+03  0.60355466244E+03  0.47000000000E+01 0.  1.
          5    1    5    5  503    0 -0.78308949044E+02 -0.52229936754E+02  0.20668334736E+03  0.22715711274E+03  0.47000000000E+01 0. -1.
         -5    1    5    5    0  503 -0.58975841217E+01  0.54494281531E+02  0.14671021980E+03  0.15668563052E+03  0.47000000000E+01 0. -1.
<mgrwt>
<rscale>  0 0.30893917E+03</rscale>
<asrwt>0</asrwt>
<pdfrwt beam="1">  1        2 0.15347936E+00 0.30893917E+03</pdfrwt>
<pdfrwt beam="2">  1       -2 0.36796732E-02 0.30893917E+03</pdfrwt>
<totfact> 0.82270229E+03</totfact>
</mgrwt>
</event>
<event>
 9    1  0.7984035E-001  0.2765861E+03  0.7818608E-02  0.1097568E+00
         -3   -1    0    0    0  501 -0.00000000000E+00  0.00000000000E+00  0.21992866118E+02  0.21992866118E+02  0.00000000000E+00 0. -1.
          3   -1    0    0  501    0  0.00000000000E+00 -0.00000000000E+00 -0.86959857911E+03  0.86959857911E+03  0.00000000000E+00 0. -1.
         35    2    1    2    0    0  0.00000000000E+00 -0.71054273576E-14 -0.84760571299E+03  0.89159144523E+03  0.27658608155E+03 0.  0.
         25    2    3    3    0    0 -0.18268329558E+02  0.41088554719E+02 -0.33695335875E+03  0.36376872789E+03  0.12949177668E+03 0.  0.
         25    2    3    3    0    0  0.18268329558E+02 -0.41088554719E+02 -0.51065235424E+03  0.52782271733E+03  0.12573381743E+03 0.  0.
          5    1    4    4  502    0 -0.37072485753E+02 -0.47280282583E+01 -0.29856465840E+03  0.30093133552E+03  0.47000000000E+01 0.  1.
         -5    1    4    4    0  502  0.18804156194E+02  0.45816582977E+02 -0.38388700344E+02  0.62837392371E+02  0.47000000000E+01 0.  1.
          5    1    5    5  503    0 -0.38413330557E+02 -0.14053077296E+02 -0.59857475378E+02  0.72650397829E+02  0.47000000000E+01 0.  1.
         -5    1    5    5    0  503  0.56681660116E+02 -0.27035477424E+02 -0.45079487886E+03  0.45517231950E+03  0.47000000000E+01 0.  1.
<mgrwt>
<rscale>  0 0.27658608E+03</rscale>
<asrwt>0</asrwt>
<pdfrwt beam="1">  1        3 0.13378440E+00 0.27658608E+03</pdfrwt>
<pdfrwt beam="2">  1       -3 0.33835178E-02 0.27658608E+03</pdfrwt>
<totfact> 0.48854444E+02</totfact>
</mgrwt>
</event>
<event>
 9    1  0.7984035E-001  0.2734296E+03  0.7818608E-02  0.1099333E+00
          2   -1    0    0  501    0  0.00000000000E+00  0.00000000000E+00  0.75855852059E+03  0.75855852059E+03  0.00000000000E+00 0. -1.
         -2   -1    0    0    0  501 -0.00000000000E+00 -0.00000000000E+00 -0.24640069574E+02  0.24640069574E+02  0.00000000000E+00 0. -1.
         35    2    1    2    0    0  0.35527136788E-14  0.00000000000E+00  0.73391845102E+03  0.78319859017E+03  0.27342958672E+03 0.  0.
         25    2    3    3    0    0 -0.25453161019E+02  0.28894732136E+02  0.25559424374E+03  0.28724790643E+03  0.12530033265E+03 0.  0.
         25    2    3    3    0    0  0.25453161019E+02 -0.28894732136E+02  0.47832420728E+03  0.49595068374E+03  0.12526078589E+03 0.  0.
          5    1    4    4  502    0 -0.58179797952E+02  0.37447852335E+02  0.23979109947E+03  0.24961789183E+03  0.47000000000E+01 0.  1.
         -5    1    4    4    0  502  0.32726636933E+02 -0.85531201990E+01  0.15803144271E+02  0.37630014601E+02  0.47000000000E+01 0.  1.
          5    1    5    5  503    0 -0.87231561729E+01 -0.35012424820E+01  0.43464541576E+03  0.43477244576E+03  0.47000000000E+01 0.  1.
         -5    1    5    5    0  503  0.34176317192E+02 -0.25393489654E+02  0.43678791518E+02  0.61178237978E+02  0.47000000000E+01 0.  1.
<mgrwt>
<rscale>  0 0.27342959E+03</rscale>
<asrwt>0</asrwt>
<pdfrwt beam="1">  1        2 0.11670129E+00 0.27342959E+03</pdfrwt>
<pdfrwt beam="2">  1       -2 0.37907805E-02 0.27342959E+03</pdfrwt>
<totfact> 0.11269619E+04</totfact>
</mgrwt>
</event>
<event>
 9    1  0.7984035E-001  0.2770171E+03  0.7818608E-02  0.1097329E+00
          2   -1    0    0  501    0  0.00000000000E+00  0.00000000000E+00  0.26791766867E+02  0.26791766867E+02  0.00000000000E+00 0. -1.
         -2   -1    0    0    0  501 -0.00000000000E+00 -0.00000000000E+00 -0.71606371801E+03  0.71606371801E+03  0.00000000000E+00 0. -1.
         35    2    1    2    0    0  0.26645352591E-14 -0.35527136788E-14 -0.68927195114E+03  0.74285548488E+03  0.27701705503E+03 0.  0.
         25    2    3    3    0    0 -0.29093700425E+01 -0.15263104097E+02 -0.18837600993E+03  0.22671227774E+03  0.12518589769E+03 0.  0.
         25    2    3    3    0    0  0.29093700425E+01  0.15263104097E+02 -0.50089594121E+03  0.51614320714E+03  0.12355419689E+03 0.  0.
          5    1    4    4  502    0 -0.17418466798E+01 -0.57047667831E+01 -0.20597121415E+03  0.20611115800E+03  0.47000000000E+01 0. -1.
         -5    1    4    4    0  502 -0.11675233627E+01 -0.95583373136E+01  0.17595204219E+02  0.20601119740E+02  0.47000000000E+01 0. -1.
          5    1    5    5  503    0 -0.39639052986E+02 -0.26934975895E+02 -0.35647231916E+03  0.35971009407E+03  0.47000000000E+01 0.  1.
         -5    1    5    5    0  503  0.42548423029E+02  0.42198079991E+02 -0.14442362205E+03  0.15643311306E+03  0.47000000000E+01 0.  1.
<mgrwt>
<rscale>  0 0.27701706E+03</rscale>
<asrwt>0</asrwt>
<pdfrwt beam="1">  1        2 0.41218100E-02 0.27701706E+03</pdfrwt>
<pdfrwt beam="2">  1       -2 0.11016366E+00 0.27701706E+03</pdfrwt>
<totfact> 0.13886212E+03</totfact>
</mgrwt>
</event>
<event>
 9    1  0.7984035E-001  0.2760629E+03  0.7818608E-02  0.1097859E+00
          2   -1    0    0  501    0  0.00000000000E+00  0.00000000000E+00  0.15242785102E+04  0.15242785102E+04  0.00000000000E+00 0.  1.
         -2   -1    0    0    0  501 -0.00000000000E+00 -0.00000000000E+00 -0.12499477324E+02  0.12499477324E+02  0.00000000000E+00 0.  1.
         35    2    1    2    0    0  0.00000000000E+00  0.71054273576E-14  0.15117790329E+04  0.15367779875E+04  0.27606292525E+03 0.  0.
         25    2    3    3    0    0 -0.33660296078E+02  0.37842913696E+02  0.91028485714E+03  0.92018383231E+03  0.12471833251E+03 0.  0.
         25    2    3    3    0    0  0.33660296078E+02 -0.37842913696E+02  0.60149417575E+03  0.61659415522E+03  0.12580940802E+03 0.  0.
          5    1    4    4  502    0  0.22424879514E+02 -0.34514787283E+02  0.22335967614E+03  0.22716905751E+03  0.47000000000E+01 0. -1.
         -5    1    4    4    0  502 -0.56085175592E+02  0.72357700979E+02  0.68692518099E+03  0.69301477480E+03  0.47000000000E+01 0. -1.
          5    1    5    5  503    0  0.11869374912E+02 -0.83625792054E+02  0.36360968331E+03  0.37332056862E+03  0.47000000000E+01 0. -1.
         -5    1    5    5    0  503  0.21790921166E+02  0.45782878358E+02  0.23788449244E+03  0.24327358660E+03  0.47000000000E+01 0. -1.
<mgrwt>
<rscale>  0 0.27606293E+03</rscale>
<asrwt>0</asrwt>
<pdfrwt beam="1">  1        2 0.23450424E+00 0.27606293E+03</pdfrwt>
<pdfrwt beam="2">  1       -2 0.19229977E-02 0.27606293E+03</pdfrwt>
<totfact> 0.10847175E+04</totfact>
</mgrwt>
</event>
<event>
 9    1  0.7984035E-001  0.2736410E+03  0.7818608E-02  0.1099214E+00
         -1   -1    0    0    0  501 -0.00000000000E+00  0.00000000000E+00  0.12460883515E+02  0.12460883515E+02  0.00000000000E+00 0.  1.
          1   -1    0    0  501    0  0.00000000000E+00 -0.00000000000E+00 -0.15022889267E+04  0.15022889267E+04  0.00000000000E+00 0.  1.
         35    2    1    2    0    0 -0.35527136788E-14 -0.17763568394E-14 -0.14898280432E+04  0.15147498102E+04  0.27364098611E+03 0.  0.
         25    2    3    3    0    0  0.25332398856E+01  0.11344449423E+02 -0.10458661781E+04  0.10536809433E+04  0.12756313684E+03 0.  0.
         25    2    3    3    0    0 -0.25332398856E+01 -0.11344449423E+02 -0.44396186501E+03  0.46106886687E+03  0.12388401259E+03 0.  0.
          5    1    4    4  502    0 -0.24622292400E+02  0.56983205669E+02 -0.32920079717E+03  0.33503521885E+03  0.47000000000E+01 0.  1.
         -5    1    4    4    0  502  0.27155532286E+02 -0.45638756247E+02 -0.71666538097E+03  0.71864572447E+03  0.47000000000E+01 0.  1.
          5    1    5    5  503    0  0.33923760574E+02 -0.21693206753E+02 -0.46146423864E+02  0.61424744087E+02  0.47000000000E+01 0. -1.
         -5    1    5    5    0  503 -0.36457000459E+02  0.10348757330E+02 -0.39781544115E+03  0.39964412279E+03  0.47000000000E+01 0. -1.
<mgrwt>
<rscale>  0 0.27364099E+03</rscale>
<asrwt>0</asrwt>
<pdfrwt beam="1">  1        1 0.23112141E+00 0.27364099E+03</pdfrwt>
<pdfrwt beam="2">  1       -1 0.19170587E-02 0.27364099E+03</pdfrwt>
<totfact> 0.52023939E+03</totfact>
</mgrwt>
</event>
<event>
 9    1  0.7984035E-001  0.2767979E+03  0.7818608E-02  0.1097451E+00
          1   -1    0    0  501    0  0.00000000000E+00  0.00000000000E+00  0.69446943604E+03  0.69446943604E+03  0.00000000000E+00 0. -1.
         -1   -1    0    0    0  501 -0.00000000000E+00 -0.00000000000E+00 -0.27581147993E+02  0.27581147993E+02  0.00000000000E+00 0. -1.
         35    2    1    2    0    0  0.00000000000E+00  0.14210854715E-13  0.66688828804E+03  0.72205058403E+03  0.27679786337E+03 0.  0.
         25    2    3    3    0    0 -0.63974807074E+01  0.45227911325E+02  0.26371461605E+03  0.29771009424E+03  0.13038178466E+03 0.  0.
         25    2    3    3    0    0  0.63974807074E+01 -0.45227911325E+02  0.40317367200E+03  0.42434048979E+03  0.12421493374E+03 0.  0.
          5    1    4    4  502    0 -0.62362765540E+02  0.45443858273E+02  0.11338190507E+03  0.13722902455E+03  0.47000000000E+01 0. -1.
         -5    1    4    4    0  502  0.55965284833E+02 -0.21594694854E+00  0.15033271098E+03  0.16048106969E+03  0.47000000000E+01 0. -1.
          5    1    5    5  503    0  0.24126812399E+02 -0.84553298187E+02  0.29241894570E+03  0.30538875735E+03  0.47000000000E+01 0.  1.
         -5    1    5    5    0  503 -0.17729331691E+02  0.39325386863E+02  0.11075472629E+03  0.11895173244E+03  0.47000000000E+01 0.  1.
<mgrwt>
<rscale>  0 0.27679786E+03</rscale>
<asrwt>0</asrwt>
<pdfrwt beam="1">  1        1 0.10684144E+00 0.27679786E+03</pdfrwt>
<pdfrwt beam="2">  1       -1 0.42432541E-02 0.27679786E+03</pdfrwt>
<totfact> 0.64051725E+03</totfact>
</mgrwt>
</event>
<event>
 9    1  0.7984035E-001  0.2762833E+03  0.7818608E-02  0.1097736E+00
          2   -1    0    0  501    0  0.00000000000E+00  0.00000000000E+00  0.38001077771E+02  0.38001077771E+02  0.00000000000E+00 0.  1.
         -2   -1    0    0    0  501 -0.00000000000E+00 -0.00000000000E+00 -0.50217303772E+03  0.50217303772E+03  0.00000000000E+00 0.  1.
         35    2    1    2    0    0 -0.35527136788E-14  0.00000000000E+00 -0.46417195995E+03  0.54017411549E+03  0.27628330866E+03 0.  0.
         25    2    3    3    0    0  0.26016774496E+02 -0.42526340790E+02 -0.16878013690E+03  0.21553636265E+03  0.12443402588E+03 0.  0.
         25    2    3    3    0    0 -0.26016774496E+02  0.42526340790E+02 -0.29539182305E+03  0.32463775284E+03  0.12509188314E+03 0.  0.
          5    1    4    4  502    0  0.13391877140E+02  0.47881568907E+01  0.17404262061E+02  0.22962298614E+02  0.47000000000E+01 0. -1.
         -5    1    4    4    0  502  0.12624897356E+02 -0.47314497681E+02 -0.18618439896E+03  0.19257406404E+03  0.47000000000E+01 0. -1.
          5    1    5    5  503    0  0.37830502738E+02 -0.18568912539E+02 -0.13435769144E+03  0.14089013699E+03  0.47000000000E+01 0.  1.
         -5    1    5    5    0  503 -0.63847277234E+02  0.61095253329E+02 -0.16103413161E+03  0.18374761586E+03  0.47000000000E+01 0.  1.
<mgrwt>
<rscale>  0 0.27628331E+03</rscale>
<asrwt>0</asrwt>
<pdfrwt beam="1">  1        2 0.58463196E-02 0.27628331E+03</pdfrwt>
<pdfrwt beam="2">  1       -2 0.77257391E-01 0.27628331E+03</pdfrwt>
<totfact> 0.19632736E+03</totfact>
</mgrwt>
</event>
<event>
 9    1  0.7984035E-001  0.2754771E+03  0.7818608E-02  0.1098185E+00
         -1   -1    0    0    0  501 -0.00000000000E+00  0.00000000000E+00  0.29416373886E+02  0.29416373886E+02  0.00000000000E+00 0. -1.
          1   -1    0    0  501    0  0.00000000000E+00 -0.00000000000E+00 -0.64494394488E+03  0.64494394488E+03  0.00000000000E+00 0. -1.
         35    2    1    2    0    0  0.00000000000E+00 -0.71054273576E-14 -0.61552757100E+03  0.67436031877E+03  0.27547712949E+03 0.  0.
         25    2    3    3    0    0  0.99689331635E+01 -0.90573166351E+01 -0.17611934579E+03  0.21672533388E+03  0.12558037972E+03 0.  0.
         25    2    3    3    0    0 -0.99689331635E+01  0.90573166351E+01 -0.43940822521E+03  0.45763498489E+03  0.12715650357E+03 0.  0.
          5    1    4    4  502    0  0.29807735455E+02 -0.53956929055E+02 -0.44500893378E+02  0.76172638115E+02  0.47000000000E+01 0.  1.
         -5    1    4    4    0  502 -0.19838802291E+02  0.44899612420E+02 -0.13161845241E+03  0.14055269576E+03  0.47000000000E+01 0.  1.
          5    1    5    5  503    0 -0.19246982680E+02 -0.38900995737E+01 -0.24245830034E+01  0.20335875190E+02  0.47000000000E+01 0. -1.
         -5    1    5    5    0  503  0.92780495167E+01  0.12947416209E+02 -0.43698364221E+03  0.43729910970E+03  0.47000000000E+01 0. -1.
<mgrwt>
<rscale>  0 0.27547713E+03</rscale>
<asrwt>0</asrwt>
<pdfrwt beam="1">  1        1 0.99222130E-01 0.27547713E+03</pdfrwt>
<pdfrwt beam="2">  1       -1 0.45255967E-02 0.27547713E+03</pdfrwt>
<totfact> 0.64703438E+03</totfact>
</mgrwt>
</event>
<event>
 9    1  0.7984035E-001  0.2732900E+03  0.7818608E-02  0.1099411E+00
         -2   -1    0    0    0  501 -0.00000000000E+00  0.00000000000E+00  0.16207828982E+02  0.16207828982E+02  0.00000000000E+00 0.  1.
          2   -1    0    0  501    0  0.00000000000E+00 -0.00000000000E+00 -0.11520266520E+04  0.11520266520E+04  0.00000000000E+00 0.  1.
         35    2    1    2    0    0  0.71054273576E-14  0.00000000000E+00 -0.11358188230E+04  0.11682344809E+04  0.27328996292E+03 0.  0.
         25    2    3    3    0    0  0.36276325433E+02 -0.30795105378E+02 -0.59849705087E+03  0.61381882851E+03  0.12771266194E+03 0.  0.
         25    2    3    3    0    0 -0.36276325433E+02  0.30795105378E+02 -0.53732177211E+03  0.55441565244E+03  0.12805357702E+03 0.  0.
          5    1    4    4  502    0 -0.45340337834E+02  0.40160392990E+01 -0.25129381278E+03  0.25542620294E+03  0.47000000000E+01 0.  1.
         -5    1    4    4    0  502  0.81616663268E+02 -0.34811144677E+02 -0.34720323809E+03  0.35839262557E+03  0.47000000000E+01 0.  1.
          5    1    5    5  503    0 -0.16971274807E+02  0.78927528376E+02 -0.38614968360E+03  0.39452661133E+03  0.47000000000E+01 0. -1.
         -5    1    5    5    0  503 -0.19305050626E+02 -0.48132422997E+02 -0.15117208851E+03  0.15988904112E+03  0.47000000000E+01 0. -1.
<mgrwt>
<rscale>  0 0.27328996E+03</rscale>
<asrwt>0</asrwt>
<pdfrwt beam="1">  1        2 0.17723493E+00 0.27328996E+03</pdfrwt>
<pdfrwt beam="2">  1       -2 0.24935113E-02 0.27328996E+03</pdfrwt>
<totfact> 0.11858450E+04</totfact>
</mgrwt>
</event>
<event>
 9    1  0.7984035E-001  0.2786108E+03  0.7818608E-02  0.1096450E+00
         -2   -1    0    0    0  501 -0.00000000000E+00  0.00000000000E+00  0.67612332040E+01  0.67612332040E+01  0.00000000000E+00 0. -1.
          2   -1    0    0  501    0  0.00000000000E+00 -0.00000000000E+00 -0.28701851318E+04  0.28701851318E+04  0.00000000000E+00 0. -1.
         35    2    1    2    0    0  0.35527136788E-14  0.00000000000E+00 -0.28634238986E+04  0.28769463650E+04  0.27861077520E+03 0.  0.
         25    2    3    3    0    0 -0.16519926364E+02 -0.54702637424E+02 -0.11592492029E+04  0.11671783100E+04  0.12321203834E+03 0.  0.
         25    2    3    3    0    0  0.16519926364E+02  0.54702637424E+02 -0.17041746958E+04  0.17097680551E+04  0.12581781260E+03 0.  0.
          5    1    4    4  502    0 -0.43032559032E+02 -0.26416920820E+02 -0.10488535871E+04  0.10500788503E+04  0.47000000000E+01 0. -1.
         -5    1    4    4    0  502  0.26512632668E+02 -0.28285716604E+02 -0.11039561581E+03  0.11709945963E+03  0.47000000000E+01 0. -1.
          5    1    5    5  503    0 -0.23533641925E+02  0.75626454128E+02 -0.13970279263E+04  0.13992792108E+04  0.47000000000E+01 0.  1.
         -5    1    5    5    0  503  0.40053568289E+02 -0.20923816704E+02 -0.30714676943E+03  0.31048884426E+03  0.47000000000E+01 0.  1.
<mgrwt>
<rscale>  0 0.27861078E+03</rscale>
<asrwt>0</asrwt>
<pdfrwt beam="1">  1        2 0.44156805E+00 0.27861078E+03</pdfrwt>
<pdfrwt beam="2">  1       -2 0.10401871E-02 0.27861078E+03</pdfrwt>
<totfact> 0.49969598E+03</totfact>
</mgrwt>
</event>
<event>
 9    1  0.7984035E-001  0.2845213E+03  0.7818608E-02  0.1093245E+00
         -2   -1    0    0    0  501 -0.00000000000E+00  0.00000000000E+00  0.42511676524E+03  0.42511676524E+03  0.00000000000E+00 0.  1.
          2   -1    0    0  501    0  0.00000000000E+00 -0.00000000000E+00 -0.47605958243E+02  0.47605958243E+02  0.00000000000E+00 0.  1.
         35    2    1    2    0    0 -0.71054273576E-14  0.00000000000E+00  0.37751080700E+03  0.47272272349E+03  0.28452128901E+03 0.  0.
         25    2    3    3    0    0  0.48172587977E+02 -0.36011419308E+02  0.17578647234E+03  0.22777480436E+03  0.13176895343E+03 0.  0.
         25    2    3    3    0    0 -0.48172587977E+02  0.36011419308E+02  0.20172433466E+03  0.24494791913E+03  0.12525715684E+03 0.  0.
          5    1    4    4  502    0  0.40765688467E+02  0.15102675349E+01  0.18387256233E+03  0.18840204734E+03  0.47000000000E+01 0. -1.
         -5    1    4    4    0  502  0.74068995103E+01 -0.37521686843E+02 -0.80860899883E+01  0.39372757018E+02  0.47000000000E+01 0. -1.
          5    1    5    5  503    0 -0.44814428889E+02  0.11852823781E+02  0.52253303563E+01  0.46885142055E+02  0.47000000000E+01 0.  1.
         -5    1    5    5    0  503 -0.33581590882E+01  0.24158595527E+02  0.19649900430E+03  0.19806277707E+03  0.47000000000E+01 0.  1.
<mgrwt>
<rscale>  0 0.28452129E+03</rscale>
<asrwt>0</asrwt>
<pdfrwt beam="1">  1        2 0.73239939E-02 0.28452129E+03</pdfrwt>
<pdfrwt beam="2">  1       -2 0.65402577E-01 0.28452129E+03</pdfrwt>
<totfact> 0.20993186E+03</totfact>
</mgrwt>
</event>
<event>
 9    1  0.7984035E-001  0.2744480E+03  0.7818608E-02  0.1098761E+00
         -1   -1    0    0    0  501 -0.00000000000E+00  0.00000000000E+00  0.15078357998E+02  0.15078357998E+02  0.00000000000E+00 0. -1.
          1   -1    0    0  501    0  0.00000000000E+00 -0.00000000000E+00 -0.12488375523E+04  0.12488375523E+04  0.00000000000E+00 0. -1.
         35    2    1    2    0    0  0.71054273576E-14  0.00000000000E+00 -0.12337591943E+04  0.12639159103E+04  0.27444795277E+03 0.  0.
         25    2    3    3    0    0 -0.37506895225E+02  0.50214109869E+02 -0.57196912750E+03  0.58861640404E+03  0.12406596741E+03 0.  0.
         25    2    3    3    0    0  0.37506895225E+02 -0.50214109869E+02 -0.66179006683E+03  0.67529950629E+03  0.11889115451E+03 0.  0.
          5    1    4    4  502    0  0.11493539348E+02  0.34820970348E+02 -0.49245032620E+03  0.49383602056E+03  0.47000000000E+01 0. -1.
         -5    1    4    4    0  502 -0.49000434573E+02  0.15393139521E+02 -0.79518801298E+02  0.94780383479E+02  0.47000000000E+01 0. -1.
          5    1    5    5  503    0 -0.16062334330E+02  0.25841155093E+01 -0.11073144516E+02  0.20233160074E+02  0.47000000000E+01 0. -1.
         -5    1    5    5    0  503  0.53569229555E+02 -0.52798225378E+02 -0.65071692232E+03  0.65506634622E+03  0.47000000000E+01 0. -1.
<mgrwt>
<rscale>  0 0.27444795E+03</rscale>
<asrwt>0</asrwt>
<pdfrwt beam="1">  1        1 0.19212892E+00 0.27444795E+03</pdfrwt>
<pdfrwt beam="2">  1       -1 0.23197466E-02 0.27444795E+03</pdfrwt>
<totfact> 0.58362960E+03</totfact>
</mgrwt>
</event>
<event>
 9    1  0.7984035E-001  0.2723773E+03  0.7818608E-02  0.1099927E+00
         -2   -1    0    0    0  501 -0.00000000000E+00  0.00000000000E+00  0.40974753424E+02  0.40974753424E+02  0.00000000000E+00 0. -1.
          2   -1    0    0  501    0  0.00000000000E+00 -0.00000000000E+00 -0.45265313177E+03  0.45265313177E+03  0.00000000000E+00 0. -1.
         35    2    1    2    0    0  0.00000000000E+00  0.00000000000E+00 -0.41167837834E+03  0.49362788519E+03  0.27237731521E+03 0.  0.
         25    2    3    3    0    0 -0.27219270005E+02 -0.45571829179E+02 -0.18177789984E+03  0.22683538381E+03  0.12487356087E+03 0.  0.
         25    2    3    3    0    0  0.27219270005E+02  0.45571829179E+02 -0.22990047851E+03  0.26679250138E+03  0.12452440926E+03 0.  0.
          5    1    4    4  502    0 -0.20370142326E+02 -0.55136965025E+02 -0.19780429841E+03  0.20640653594E+03  0.47000000000E+01 0.  1.
         -5    1    4    4    0  502 -0.68491276791E+01  0.95651358464E+01  0.16026398576E+02  0.20428847863E+02  0.47000000000E+01 0.  1.
          5    1    5    5  503    0 -0.48611166731E+02  0.16915609537E+02 -0.65532803113E+02  0.83461498075E+02  0.47000000000E+01 0. -1.
         -5    1    5    5    0  503  0.75830436736E+02  0.28656219642E+02 -0.16436767540E+03  0.18333100331E+03  0.47000000000E+01 0. -1.
<mgrwt>
<rscale>  0 0.27237732E+03</rscale>
<asrwt>0</asrwt>
<pdfrwt beam="1">  1        2 0.69638949E-01 0.27237732E+03</pdfrwt>
<pdfrwt beam="2">  1       -2 0.63038077E-02 0.27237732E+03</pdfrwt>
<totfact> 0.94814341E+03</totfact>
</mgrwt>
</event>
<event>
 9    1  0.7984035E-001  0.2830009E+03  0.7818608E-02  0.1094061E+00
          2   -1    0    0  501    0  0.00000000000E+00  0.00000000000E+00  0.97512408526E+02  0.97512408526E+02  0.00000000000E+00 0.  1.
         -2   -1    0    0    0  501 -0.00000000000E+00 -0.00000000000E+00 -0.20533157183E+03  0.20533157183E+03  0.00000000000E+00 0.  1.
         35    2    1    2    0    0  0.35527136788E-14  0.00000000000E+00 -0.10781916330E+03  0.30284398035E+03  0.28300089127E+03 0.  0.
         25    2    3    3    0    0  0.15314256904E+02  0.19053765649E+02  0.17440706605E+02  0.12763021299E+03  0.12404725136E+03 0.  0.
         25    2    3    3    0    0 -0.15314256904E+02 -0.19053765649E+02 -0.12525986991E+03  0.17521376737E+03  0.12005105920E+03 0.  0.
          5    1    4    4  502    0  0.37637763778E+02  0.39297352371E+02 -0.36481402390E+02  0.65680026538E+02  0.47000000000E+01 0.  1.
         -5    1    4    4    0  502 -0.22323506874E+02 -0.20243586722E+02  0.53922108996E+02  0.61950186449E+02  0.47000000000E+01 0.  1.
          5    1    5    5  503    0  0.32196957294E+02 -0.27129535274E+02 -0.15809039939E+01  0.42393926459E+02  0.47000000000E+01 0.  1.
         -5    1    5    5    0  503 -0.47511214198E+02  0.80757696249E+01 -0.12367896591E+03  0.13281984091E+03  0.47000000000E+01 0.  1.
<mgrwt>
<rscale>  0 0.28300089E+03</rscale>
<asrwt>0</asrwt>
<pdfrwt beam="1">  1        2 0.15001909E-01 0.28300089E+03</pdfrwt>
<pdfrwt beam="2">  1       -2 0.31589472E-01 0.28300089E+03</pdfrwt>
<totfact> 0.36098141E+03</totfact>
</mgrwt>
</event>
<event>
 9    1  0.7984035E-001  0.3316297E+03  0.7818608E-02  0.1070418E+00
         -1   -1    0    0    0  501 -0.00000000000E+00  0.00000000000E+00  0.21154358497E+02  0.21154358497E+02  0.00000000000E+00 0.  1.
          1   -1    0    0  501    0  0.00000000000E+00 -0.00000000000E+00 -0.12997117379E+04  0.12997117379E+04  0.00000000000E+00 0.  1.
         35    2    1    2    0    0  0.00000000000E+00 -0.14210854715E-13 -0.12785573794E+04  0.13208660964E+04  0.33162972151E+03 0.  0.
         25    2    3    3    0    0  0.89726418344E+02 -0.61245167734E+02 -0.65540904792E+03  0.67600179959E+03  0.12496244329E+03 0.  0.
         25    2    3    3    0    0 -0.89726418344E+02  0.61245167734E+02 -0.62314833150E+03  0.64486429683E+03  0.12543650803E+03 0.  0.
          5    1    4    4  502    0  0.59480200746E+01  0.21209863788E+02 -0.31564131512E+03  0.31644393986E+03  0.47000000000E+01 0.  1.
         -5    1    4    4    0  502  0.83778398270E+02 -0.82455031522E+02 -0.33976773280E+03  0.35955785973E+03  0.47000000000E+01 0.  1.
          5    1    5    5  503    0 -0.11273674240E+03  0.14682134311E+02 -0.42531294684E+03  0.44027074727E+03  0.47000000000E+01 0. -1.
         -5    1    5    5    0  503  0.23010324052E+02  0.46563033423E+02 -0.19783538466E+03  0.20459354955E+03  0.47000000000E+01 0. -1.
<mgrwt>
<rscale>  0 0.33162972E+03</rscale>
<asrwt>0</asrwt>
<pdfrwt beam="1">  1        1 0.19995565E+00 0.33162972E+03</pdfrwt>
<pdfrwt beam="2">  1       -1 0.32545167E-02 0.33162972E+03</pdfrwt>
<totfact> 0.32702491E+03</totfact>
</mgrwt>
</event>
<event>
 9    1  0.7984035E-001  0.2746047E+03  0.7818608E-02  0.1098673E+00
          2   -1    0    0  501    0  0.00000000000E+00  0.00000000000E+00  0.15392351249E+03  0.15392351249E+03  0.00000000000E+00 0. -1.
         -2   -1    0    0    0  501 -0.00000000000E+00 -0.00000000000E+00 -0.12247597073E+03  0.12247597073E+03  0.00000000000E+00 0. -1.
         35    2    1    2    0    0  0.00000000000E+00  0.00000000000E+00  0.31447541765E+02  0.27639948322E+03  0.27460467302E+03 0.  0.
         25    2    3    3    0    0 -0.20160929964E+02  0.33038767334E+02  0.57625562936E+02  0.14295115129E+03  0.12496520678E+03 0.  0.
         25    2    3    3    0    0  0.20160929964E+02 -0.33038767334E+02 -0.26178021171E+02  0.13344833194E+03  0.12500058104E+03 0.  0.
          5    1    4    4  502    0  0.15074624958E+02  0.67357301410E+02  0.29344867576E+01  0.69245588909E+02  0.47000000000E+01 0.  1.
         -5    1    4    4    0  502 -0.35235554923E+02 -0.34318534076E+02  0.54691076179E+02  0.73705562378E+02  0.47000000000E+01 0.  1.
          5    1    5    5  503    0 -0.31701631404E+02  0.33498071632E+02 -0.97490166558E+01  0.47373490082E+02  0.47000000000E+01 0.  1.
         -5    1    5    5    0  503  0.51862561368E+02 -0.66536838966E+02 -0.16429004515E+02  0.86074841857E+02  0.47000000000E+01 0.  1.
<mgrwt>
<rscale>  0 0.27460467E+03</rscale>
<asrwt>0</asrwt>
<pdfrwt beam="1">  1        2 0.23680540E-01 0.27460467E+03</pdfrwt>
<pdfrwt beam="2">  1       -2 0.18842457E-01 0.27460467E+03</pdfrwt>
<totfact> 0.52894807E+03</totfact>
</mgrwt>
</event>
<event>
 9    1  0.7984035E-001  0.2774336E+03  0.7818608E-02  0.1097099E+00
         -1   -1    0    0    0  501 -0.00000000000E+00  0.00000000000E+00  0.40943318598E+02  0.40943318598E+02  0.00000000000E+00 0. -1.
          1   -1    0    0  501    0  0.00000000000E+00 -0.00000000000E+00 -0.46997549678E+03  0.46997549678E+03  0.00000000000E+00 0. -1.
         35    2    1    2    0    0  0.00000000000E+00  0.14210854715E-13 -0.42903217818E+03  0.51091881537E+03  0.27743364250E+03 0.  0.
         25    2    3    3    0    0 -0.15820112824E+02  0.53029330168E+02 -0.18207950663E+03  0.22893277216E+03  0.12725911207E+03 0.  0.
         25    2    3    3    0    0  0.15820112824E+02 -0.53029330168E+02 -0.24695267155E+03  0.28198604322E+03  0.12437089996E+03 0.  0.
          5    1    4    4  502    0  0.46818491242E+02 -0.11744805493E+02 -0.60935151196E+02  0.77878714868E+02  0.47000000000E+01 0. -1.
         -5    1    4    4    0  502 -0.62638604066E+02  0.64774135661E+02 -0.12114435544E+03  0.15105405729E+03  0.47000000000E+01 0. -1.
          5    1    5    5  503    0 -0.24055596769E+02  0.31194140190E+02 -0.10367237624E+03  0.11100359325E+03  0.47000000000E+01 0. -1.
         -5    1    5    5    0  503  0.39875709593E+02 -0.84223470358E+02 -0.14328029531E+03  0.17098244997E+03  0.47000000000E+01 0. -1.
<mgrwt>
<rscale>  0 0.27743364E+03</rscale>
<asrwt>0</asrwt>
<pdfrwt beam="1">  1        1 0.72303922E-01 0.27743364E+03</pdfrwt>
<pdfrwt beam="2">  1       -1 0.62989721E-02 0.27743364E+03</pdfrwt>
<totfact> 0.60584772E+03</totfact>
</mgrwt>
</event>
<event>
 9    1  0.7984035E-001  0.2750129E+03  0.7818608E-02  0.1098444E+00
         -3   -1    0    0    0  501 -0.00000000000E+00  0.00000000000E+00  0.64398500783E+02  0.64398500783E+02  0.00000000000E+00 0. -1.
          3   -1    0    0  501    0  0.00000000000E+00 -0.00000000000E+00 -0.29360966172E+03  0.29360966172E+03  0.00000000000E+00 0. -1.
         35    2    1    2    0    0  0.14210854715E-13  0.17763568394E-14 -0.22921116093E+03  0.35800816250E+03  0.27501288719E+03 0.  0.
         25    2    3    3    0    0 -0.55271100260E+02 -0.71707371852E+01 -0.10120472171E+03  0.17009388931E+03  0.12483277410E+03 0.  0.
         25    2    3    3    0    0  0.55271100260E+02  0.71707371852E+01 -0.12800643923E+03  0.18791427319E+03  0.12577683248E+03 0.  0.
          5    1    4    4  502    0 -0.10034305907E+02  0.53917012770E+02 -0.19492943500E+02  0.58393462026E+02  0.47000000000E+01 0.  1.
         -5    1    4    4    0  502 -0.45236794353E+02 -0.61087749956E+02 -0.81711778206E+02  0.11170042728E+03  0.47000000000E+01 0.  1.
          5    1    5    5  503    0  0.75370825541E+02  0.10360691803E+00 -0.20547536144E+02  0.78262783740E+02  0.47000000000E+01 0.  1.
         -5    1    5    5    0  503 -0.20099725281E+02  0.70671302672E+01 -0.10745890308E+03  0.10965148945E+03  0.47000000000E+01 0.  1.
<mgrwt>
<rscale>  0 0.27501289E+03</rscale>
<asrwt>0</asrwt>
<pdfrwt beam="1">  1        3 0.45170718E-01 0.27501289E+03</pdfrwt>
<pdfrwt beam="2">  1       -3 0.99074616E-02 0.27501289E+03</pdfrwt>
<totfact> 0.93254960E+02</totfact>
</mgrwt>
</event>
<event>
 9    1  0.7984035E-001  0.2708171E+03  0.7818608E-02  0.1100813E+00
          1   -1    0    0  501    0  0.00000000000E+00  0.00000000000E+00  0.34459044753E+04  0.34459044753E+04  0.00000000000E+00 0.  1.
         -1   -1    0    0    0  501 -0.00000000000E+00 -0.00000000000E+00 -0.53209458346E+01  0.53209458346E+01  0.00000000000E+00 0.  1.
         35    2    1    2    0    0 -0.71054273576E-14  0.00000000000E+00  0.34405835294E+04  0.34512254211E+04  0.27081706788E+03 0.  0.
         25    2    3    3    0    0 -0.40169367938E+02  0.37270004131E+01  0.21404912978E+04  0.21445328937E+04  0.12526319259E+03 0.  0.
         25    2    3    3    0    0  0.40169367938E+02 -0.37270004131E+01  0.13000922316E+04  0.13066925274E+04  0.12481218628E+03 0.  0.
          5    1    4    4  502    0 -0.26665347838E+02 -0.59681633265E+02  0.12105075695E+04  0.12122803323E+04  0.47000000000E+01 0. -1.
         -5    1    4    4    0  502 -0.13504020099E+02  0.63408633678E+02  0.92998372831E+03  0.93225256143E+03  0.47000000000E+01 0. -1.
          5    1    5    5  503    0  0.70555681182E+01  0.58670324889E+02  0.50955121473E+03  0.51298783465E+03  0.47000000000E+01 0.  1.
         -5    1    5    5    0  503  0.33113799819E+02 -0.62397325302E+02  0.79054101687E+03  0.79370469275E+03  0.47000000000E+01 0.  1.
<mgrwt>
<rscale>  0 0.27081707E+03</rscale>
<asrwt>0</asrwt>
<pdfrwt beam="1">  1        1 0.53013737E+00 0.27081707E+03</pdfrwt>
<pdfrwt beam="2">  1       -1 0.81860980E-03 0.27081707E+03</pdfrwt>
<totfact> 0.86620541E+02</totfact>
</mgrwt>
</event>
<event>
 9    1  0.7984035E-001  0.2647648E+03  0.7818608E-02  0.1104314E+00
         -2   -1    0    0    0  501 -0.00000000000E+00  0.00000000000E+00  0.17385550652E+02  0.17385550652E+02  0.00000000000E+00 0. -1.
          2   -1    0    0  501    0  0.00000000000E+00 -0.00000000000E+00 -0.10080267340E+04  0.10080267340E+04  0.00000000000E+00 0. -1.
         35    2    1    2    0    0  0.00000000000E+00 -0.35527136788E-14 -0.99064118334E+03  0.10254122846E+04  0.26476480009E+03 0.  0.
         25    2    3    3    0    0 -0.40090970756E+02  0.38981024592E+01 -0.42852230730E+03  0.44822546126E+03  0.12510881315E+03 0.  0.
         25    2    3    3    0    0  0.40090970756E+02 -0.38981024592E+01 -0.56211887604E+03  0.57718682339E+03  0.12467765297E+03 0.  0.
          5    1    4    4  502    0 -0.96644274117E+00  0.52300113997E+02 -0.30856006879E+03  0.31299783065E+03  0.47000000000E+01 0. -1.
         -5    1    4    4    0  502 -0.39124528015E+02 -0.48402011538E+02 -0.11996223850E+03  0.13522763061E+03  0.47000000000E+01 0. -1.
          5    1    5    5  503    0  0.55943994774E+02  0.21937183991E+02 -0.52750556779E+03  0.53093802335E+03  0.47000000000E+01 0. -1.
         -5    1    5    5    0  503 -0.15853024017E+02 -0.25835286450E+02 -0.34613308254E+02  0.46248800035E+02  0.47000000000E+01 0. -1.
<mgrwt>
<rscale>  0 0.26476480E+03</rscale>
<asrwt>0</asrwt>
<pdfrwt beam="1">  1        2 0.15508110E+00 0.26476480E+03</pdfrwt>
<pdfrwt beam="2">  1       -2 0.26746990E-02 0.26476480E+03</pdfrwt>
<totfact> 0.12993433E+04</totfact>
</mgrwt>
</event>
<event>
 9    1  0.7984035E-001  0.2740267E+03  0.7818608E-02  0.1098997E+00
          1   -1    0    0  501    0  0.00000000000E+00  0.00000000000E+00  0.49600148678E+03  0.49600148678E+03  0.00000000000E+00 0. -1.
         -1   -1    0    0    0  501 -0.00000000000E+00 -0.00000000000E+00 -0.37847994897E+02  0.37847994897E+02  0.00000000000E+00 0. -1.
         35    2    1    2    0    0 -0.14210854715E-13 -0.17763568394E-14  0.45815349188E+03  0.53384948168E+03  0.27402672673E+03 0.  0.
         25    2    3    3    0    0  0.46559996361E+02 -0.31477510000E+01  0.16940612631E+03  0.21580589252E+03  0.12528370212E+03 0.  0.
         25    2    3    3    0    0 -0.46559996361E+02  0.31477510000E+01  0.28874736557E+03  0.31804358916E+03  0.12489572403E+03 0.  0.
          5    1    4    4  502    0  0.88979098290E+02 -0.10111383018E+02  0.12482719244E+03  0.15369918013E+03  0.47000000000E+01 0. -1.
         -5    1    4    4    0  502 -0.42419101929E+02  0.69636320185E+01  0.44578933869E+02  0.62106712393E+02  0.47000000000E+01 0. -1.
          5    1    5    5  503    0  0.11572771028E+01 -0.47051126721E+02  0.19920830030E+03  0.20474663544E+03  0.47000000000E+01 0.  1.
         -5    1    5    5    0  503 -0.47717273464E+02  0.50198877721E+02  0.89539065272E+02  0.11329695371E+03  0.47000000000E+01 0.  1.
<mgrwt>
<rscale>  0 0.27402673E+03</rscale>
<asrwt>0</asrwt>
<pdfrwt beam="1">  1        1 0.76307916E-01 0.27402673E+03</pdfrwt>
<pdfrwt beam="2">  1       -1 0.58227688E-02 0.27402673E+03</pdfrwt>
<totfact> 0.63507112E+03</totfact>
</mgrwt>
</event>
<event>
 9    1  0.7984035E-001  0.2755518E+03  0.7818608E-02  0.1098144E+00
         -1   -1    0    0    0  501 -0.00000000000E+00  0.00000000000E+00  0.14706771187E+02  0.14706771187E+02  0.00000000000E+00 0. -1.
          1   -1    0    0  501    0  0.00000000000E+00 -0.00000000000E+00 -0.12907119238E+04  0.12907119238E+04  0.00000000000E+00 0. -1.
         35    2    1    2    0    0  0.00000000000E+00  0.00000000000E+00 -0.12760051526E+04  0.13054186950E+04  0.27555184581E+03 0.  0.
         25    2    3    3    0    0  0.43311160286E+02 -0.26529741112E+02 -0.77374487175E+03  0.78534334899E+03  0.12451251135E+03 0.  0.
         25    2    3    3    0    0 -0.43311160286E+02  0.26529741112E+02 -0.50226028090E+03  0.52007534603E+03  0.12503316364E+03 0.  0.
          5    1    4    4  502    0  0.33395692564E+02  0.33984777024E+02 -0.58224087103E+03  0.58420609313E+03  0.47000000000E+01 0.  1.
         -5    1    4    4    0  502  0.99154677217E+01 -0.60514518136E+02 -0.19150400072E+03  0.20113725586E+03  0.47000000000E+01 0.  1.
          5    1    5    5  503    0 -0.62094889191E+02 -0.26920669042E+02 -0.17089200364E+03  0.18386588752E+03  0.47000000000E+01 0. -1.
         -5    1    5    5    0  503  0.18783728905E+02  0.53450410154E+02 -0.33136827726E+03  0.33620945851E+03  0.47000000000E+01 0. -1.
<mgrwt>
<rscale>  0 0.27555185E+03</rscale>
<asrwt>0</asrwt>
<pdfrwt beam="1">  1        1 0.19857111E+00 0.27555185E+03</pdfrwt>
<pdfrwt beam="2">  1       -1 0.22625797E-02 0.27555185E+03</pdfrwt>
<totfact> 0.56654908E+03</totfact>
</mgrwt>
</event>
<event>
 9    1  0.7984035E-001  0.2777198E+03  0.7818608E-02  0.1096941E+00
         -4   -1    0    0    0  501 -0.00000000000E+00  0.00000000000E+00  0.24145945503E+02  0.24145945503E+02  0.00000000000E+00 0. -1.
          4   -1    0    0  501    0  0.00000000000E+00 -0.00000000000E+00 -0.79856367492E+03  0.79856367492E+03  0.00000000000E+00 0. -1.
         35    2    1    2    0    0  0.00000000000E+00  0.71054273576E-14 -0.77441772942E+03  0.82270962043E+03  0.27771982267E+03 0.  0.
         25    2    3    3    0    0 -0.55959043931E+02 -0.72773103744E+01 -0.31567689414E+03  0.34392843805E+03  0.12430002078E+03 0.  0.
         25    2    3    3    0    0  0.55959043931E+02  0.72773103744E+01 -0.45874083528E+03  0.47878118237E+03  0.12491554264E+03 0.  0.
          5    1    4    4  502    0 -0.14990186465E+02  0.38083765994E+02 -0.28046174605E+02  0.49837303624E+02  0.47000000000E+01 0. -1.
         -5    1    4    4    0  502 -0.40968857466E+02 -0.45361076369E+02 -0.28763071953E+03  0.29409113443E+03  0.47000000000E+01 0. -1.
          5    1    5    5  503    0  0.16999158392E+02 -0.17723853229E+02 -0.41224343767E+03  0.41300102695E+03  0.47000000000E+01 0.  1.
         -5    1    5    5    0  503  0.38959885539E+02  0.25001163604E+02 -0.46497397615E+02  0.65780155425E+02  0.47000000000E+01 0.  1.
<mgrwt>
<rscale>  0 0.27771982E+03</rscale>
<asrwt>0</asrwt>
<pdfrwt beam="1">  1        4 0.12285594E+00 0.27771982E+03</pdfrwt>
<pdfrwt beam="2">  1       -4 0.37147611E-02 0.27771982E+03</pdfrwt>
<totfact> 0.37648330E+02</totfact>
</mgrwt>
</event>
<event>
 9    1  0.7984035E-001  0.2794668E+03  0.7818608E-02  0.1095981E+00
          2   -1    0    0  501    0  0.00000000000E+00  0.00000000000E+00  0.45162280191E+03  0.45162280191E+03  0.00000000000E+00 0. -1.
         -2   -1    0    0    0  501 -0.00000000000E+00 -0.00000000000E+00 -0.43233927405E+02  0.43233927405E+02  0.00000000000E+00 0. -1.
         35    2    1    2    0    0  0.71054273576E-14  0.00000000000E+00  0.40838887451E+03  0.49485672931E+03  0.27946683118E+03 0.  0.
         25    2    3    3    0    0 -0.17529155500E+02 -0.79012931191E+01  0.97085639216E+02  0.15954268536E+03  0.12513410959E+03 0.  0.
         25    2    3    3    0    0  0.17529155500E+02  0.79012931191E+01  0.31130323529E+03  0.33531404396E+03  0.12311012164E+03 0.  0.
          5    1    4    4  502    0 -0.57173766500E+02  0.18102338740E+02  0.94254069841E+02  0.11181437262E+03  0.47000000000E+01 0.  1.
         -5    1    4    4    0  502  0.39644610999E+02 -0.26003631859E+02  0.28315693757E+01  0.47728312732E+02  0.47000000000E+01 0.  1.
          5    1    5    5  503    0  0.52803069975E+02  0.15625618506E+02  0.60747291769E+02  0.82125803557E+02  0.47000000000E+01 0. -1.
         -5    1    5    5    0  503 -0.35273914475E+02 -0.77243253865E+01  0.25055594352E+03  0.25318824040E+03  0.47000000000E+01 0. -1.
<mgrwt>
<rscale>  0 0.27946683E+03</rscale>
<asrwt>0</asrwt>
<pdfrwt beam="1">  1        2 0.69480428E-01 0.27946683E+03</pdfrwt>
<pdfrwt beam="2">  1       -2 0.66513738E-02 0.27946683E+03</pdfrwt>
<totfact> 0.87592366E+03</totfact>
</mgrwt>
</event>
<event>
 9    1  0.7984035E-001  0.2734768E+03  0.7818608E-02  0.1099306E+00
         -2   -1    0    0    0  501 -0.00000000000E+00  0.00000000000E+00  0.53309960503E+02  0.53309960503E+02  0.00000000000E+00 0. -1.
          2   -1    0    0  501    0  0.00000000000E+00 -0.00000000000E+00 -0.35072981847E+03  0.35072981847E+03  0.00000000000E+00 0. -1.
         35    2    1    2    0    0  0.00000000000E+00  0.00000000000E+00 -0.29741985796E+03  0.40403977897E+03  0.27347682000E+03 0.  0.
         25    2    3    3    0    0  0.10008205557E+02 -0.61596424626E+02 -0.14087431118E+03  0.19718649863E+03  0.12305551587E+03 0.  0.
         25    2    3    3    0    0 -0.10008205557E+02  0.61596424626E+02 -0.15654554678E+03  0.20685328034E+03  0.11994785394E+03 0.  0.
          5    1    4    4  502    0  0.44413308791E+02 -0.63595286780E+02 -0.34052010691E+02  0.84844162619E+02  0.47000000000E+01 0.  1.
         -5    1    4    4    0  502 -0.34405103234E+02  0.19988621540E+01 -0.10682230049E+03  0.11234233601E+03  0.47000000000E+01 0.  1.
          5    1    5    5  503    0 -0.45878731335E+02 -0.14179547450E+02 -0.78920286112E+02  0.92500914130E+02  0.47000000000E+01 0.  1.
         -5    1    5    5    0  503  0.35870525778E+02  0.75775972076E+02 -0.77625260668E+02  0.11435236621E+03  0.47000000000E+01 0.  1.
<mgrwt>
<rscale>  0 0.27347682E+03</rscale>
<asrwt>0</asrwt>
<pdfrwt beam="1">  1        2 0.53958435E-01 0.27347682E+03</pdfrwt>
<pdfrwt beam="2">  1       -2 0.82015322E-02 0.27347682E+03</pdfrwt>
<totfact> 0.83211114E+03</totfact>
</mgrwt>
</event>
<event>
 9    1  0.7984035E-001  0.2771853E+03  0.7818608E-02  0.1097236E+00
          2   -1    0    0  501    0  0.00000000000E+00  0.00000000000E+00  0.71615937449E+02  0.71615937449E+02  0.00000000000E+00 0. -1.
         -2   -1    0    0    0  501 -0.00000000000E+00 -0.00000000000E+00 -0.26820734378E+03  0.26820734378E+03  0.00000000000E+00 0. -1.
         35    2    1    2    0    0  0.00000000000E+00  0.00000000000E+00 -0.19659140633E+03  0.33982328123E+03  0.27718528356E+03 0.  0.
         25    2    3    3    0    0 -0.23068650712E+02  0.88628018378E+01 -0.16600506286E+03  0.20917406523E+03  0.12484148656E+03 0.  0.
         25    2    3    3    0    0  0.23068650712E+02 -0.88628018378E+01 -0.30586343471E+02  0.13064921600E+03  0.12459125705E+03 0.  0.
          5    1    4    4  502    0 -0.20135881167E+02  0.59707677927E+02 -0.44328906956E+02  0.77185507097E+02  0.47000000000E+01 0. -1.
         -5    1    4    4    0  502 -0.29327695452E+01 -0.50844876090E+02 -0.12167615590E+03  0.13198855813E+03  0.47000000000E+01 0. -1.
          5    1    5    5  503    0  0.43086026627E+02 -0.58186353762E+02 -0.93835338606E+01  0.73158718976E+02  0.47000000000E+01 0.  1.
         -5    1    5    5    0  503 -0.20017375915E+02  0.49323551924E+02 -0.21202809610E+02  0.57490497026E+02  0.47000000000E+01 0.  1.
<mgrwt>
<rscale>  0 0.27718528E+03</rscale>
<asrwt>0</asrwt>
<pdfrwt beam="1">  1        2 0.11017837E-01 0.27718528E+03</pdfrwt>
<pdfrwt beam="2">  1       -2 0.41262668E-01 0.27718528E+03</pdfrwt>
<totfact> 0.31733961E+03</totfact>
</mgrwt>
</event>
<event>
 9    1  0.7984035E-001  0.2743746E+03  0.7818608E-02  0.1098802E+00
         -2   -1    0    0    0  501 -0.00000000000E+00  0.00000000000E+00  0.90216196127E+01  0.90216196127E+01  0.00000000000E+00 0.  1.
          2   -1    0    0  501    0  0.00000000000E+00 -0.00000000000E+00 -0.20861388567E+04  0.20861388567E+04  0.00000000000E+00 0.  1.
         35    2    1    2    0    0  0.00000000000E+00  0.00000000000E+00 -0.20771172371E+04  0.20951604763E+04  0.27437457043E+03 0.  0.
         25    2    3    3    0    0  0.42109020502E+02 -0.34122248265E+02 -0.92395572025E+03  0.93398849717E+03  0.12531098289E+03 0.  0.
         25    2    3    3    0    0 -0.42109020502E+02  0.34122248265E+02 -0.11531615169E+04  0.11611719792E+04  0.12490549945E+03 0.  0.
          5    1    4    4  502    0  0.14965382603E+02 -0.36026182356E+02 -0.75760904029E+02  0.85344320672E+02  0.47000000000E+01 0. -1.
         -5    1    4    4    0  502  0.27143637899E+02  0.19039340909E+01 -0.84819481622E+03  0.84864417650E+03  0.47000000000E+01 0. -1.
          5    1    5    5  503    0 -0.50570361911E+02 -0.32411902238E+02 -0.75252489888E+03  0.75493291512E+03  0.47000000000E+01 0.  1.
         -5    1    5    5    0  503  0.84613414090E+01  0.66534150503E+02 -0.40063661799E+03  0.40623906405E+03  0.47000000000E+01 0.  1.
<mgrwt>
<rscale>  0 0.27437457E+03</rscale>
<asrwt>0</asrwt>
<pdfrwt beam="1">  1        2 0.32094410E+00 0.27437457E+03</pdfrwt>
<pdfrwt beam="2">  1       -2 0.13879429E-02 0.27437457E+03</pdfrwt>
<totfact> 0.88444705E+03</totfact>
</mgrwt>
</event>
<event>
 9    1  0.7984035E-001  0.2727021E+03  0.7818608E-02  0.1099743E+00
         -2   -1    0    0    0  501 -0.00000000000E+00  0.00000000000E+00  0.14191899953E+03  0.14191899953E+03  0.00000000000E+00 0.  1.
          2   -1    0    0  501    0  0.00000000000E+00 -0.00000000000E+00 -0.13100156144E+03  0.13100156144E+03  0.00000000000E+00 0.  1.
         35    2    1    2    0    0  0.88817841970E-15  0.00000000000E+00  0.10917438087E+02  0.27292056096E+03  0.27270211246E+03 0.  0.
         25    2    3    3    0    0 -0.77481245143E+01 -0.64505973482E+01  0.59250271807E+02  0.13889744937E+03  0.12522085726E+03 0.  0.
         25    2    3    3    0    0  0.77481245143E+01  0.64505973482E+01 -0.48332833719E+02  0.13402311159E+03  0.12459730329E+03 0.  0.
          5    1    4    4  502    0  0.21761370351E+02 -0.55894061232E+02  0.62346183639E+01  0.60486889379E+02  0.47000000000E+01 0.  1.
         -5    1    4    4    0  502 -0.29509494865E+02  0.49443463884E+02  0.53015653443E+02  0.78410559990E+02  0.47000000000E+01 0.  1.
          5    1    5    5  503    0  0.12690253262E+02  0.60136670263E+02 -0.26569277876E+00  0.61641075841E+02  0.47000000000E+01 0. -1.
         -5    1    5    5    0  503 -0.49421287478E+01 -0.53686072915E+02 -0.48067140940E+02  0.72382035753E+02  0.47000000000E+01 0. -1.
<mgrwt>
<rscale>  0 0.27270211E+03</rscale>
<asrwt>0</asrwt>
<pdfrwt beam="1">  1        2 0.20154086E-01 0.27270211E+03</pdfrwt>
<pdfrwt beam="2">  1       -2 0.21833692E-01 0.27270211E+03</pdfrwt>
<totfact> 0.49320784E+03</totfact>
</mgrwt>
</event>
<event>
 9    1  0.7984035E-001  0.2736216E+03  0.7818608E-02  0.1099225E+00
         -1   -1    0    0    0  501 -0.00000000000E+00  0.00000000000E+00  0.11210004564E+02  0.11210004564E+02  0.00000000000E+00 0.  1.
          1   -1    0    0  501    0  0.00000000000E+00 -0.00000000000E+00 -0.16696869132E+04  0.16696869132E+04  0.00000000000E+00 0.  1.
         35    2    1    2    0    0 -0.17763568394E-14  0.14210854715E-13 -0.16584769086E+04  0.16808969177E+04  0.27362162135E+03 0.  0.
         25    2    3    3    0    0 -0.12005730444E+02 -0.26747241081E+02 -0.11262263976E+04  0.11335744873E+04  0.12548174081E+03 0.  0.
         25    2    3    3    0    0  0.12005730444E+02  0.26747241081E+02 -0.53225051107E+03  0.54732243044E+03  0.12414380313E+03 0.  0.
          5    1    4    4  502    0 -0.32808220330E+02  0.42917053442E+02 -0.57573518568E+03  0.57828310266E+03  0.47000000000E+01 0. -1.
         -5    1    4    4    0  502  0.20802489886E+02 -0.69664294523E+02 -0.55049121187E+03  0.55529138465E+03  0.47000000000E+01 0. -1.
          5    1    5    5  503    0  0.15884964840E+02 -0.47734547385E+02 -0.16573878469E+03  0.17326959881E+03  0.47000000000E+01 0. -1.
         -5    1    5    5    0  503 -0.38792343955E+01  0.74481788466E+02 -0.36651172638E+03  0.37405283163E+03  0.47000000000E+01 0. -1.
<mgrwt>
<rscale>  0 0.27362162E+03</rscale>
<asrwt>0</asrwt>
<pdfrwt beam="1">  1        1 0.25687488E+00 0.27362162E+03</pdfrwt>
<pdfrwt beam="2">  1       -1 0.17246163E-02 0.27362162E+03</pdfrwt>
<totfact> 0.47117638E+03</totfact>
</mgrwt>
</event>
<event>
 9    1  0.7984035E-001  0.2905492E+03  0.7818608E-02  0.1090063E+00
          2   -1    0    0  501    0  0.00000000000E+00  0.00000000000E+00  0.13896135563E+04  0.13896135563E+04  0.00000000000E+00 0.  1.
         -2   -1    0    0    0  501 -0.00000000000E+00 -0.00000000000E+00 -0.15187471475E+02  0.15187471475E+02  0.00000000000E+00 0.  1.
         35    2    1    2    0    0  0.00000000000E+00  0.71054273576E-14  0.13744260848E+04  0.14048010278E+04  0.29054924710E+03 0.  0.
         25    2    3    3    0    0  0.58216414207E+02  0.24909445551E+01  0.89292663545E+03  0.90370373486E+03  0.12636102414E+03 0.  0.
         25    2    3    3    0    0 -0.58216414207E+02 -0.24909445551E+01  0.48149944940E+03  0.50109729293E+03  0.12594213563E+03 0.  0.
          5    1    4    4  502    0 -0.18467400096E+00 -0.47452279170E+02  0.55840539704E+03  0.56043771317E+03  0.47000000000E+01 0.  1.
         -5    1    4    4    0  502  0.58401088208E+02  0.49943223725E+02  0.33452123841E+03  0.34326602169E+03  0.47000000000E+01 0.  1.
          5    1    5    5  503    0 -0.41430200432E+02  0.59978293345E+02  0.28276266121E+03  0.29204566382E+03  0.47000000000E+01 0. -1.
         -5    1    5    5    0  503 -0.16786213775E+02 -0.62469237900E+02  0.19873678819E+03  0.20905162912E+03  0.47000000000E+01 0. -1.
<mgrwt>
<rscale>  0 0.29054925E+03</rscale>
<asrwt>0</asrwt>
<pdfrwt beam="1">  1        2 0.21378660E+00 0.29054925E+03</pdfrwt>
<pdfrwt beam="2">  1       -2 0.23365352E-02 0.29054925E+03</pdfrwt>
<totfact> 0.96294785E+03</totfact>
</mgrwt>
</event>
<event>
 9    1  0.7984035E-001  0.2736143E+03  0.7818608E-02  0.1099229E+00
          1   -1    0    0  501    0  0.00000000000E+00  0.00000000000E+00  0.23582916065E+03  0.23582916065E+03  0.00000000000E+00 0.  1.
         -1   -1    0    0    0  501 -0.00000000000E+00 -0.00000000000E+00 -0.79363345761E+02  0.79363345761E+02  0.00000000000E+00 0.  1.
         35    2    1    2    0    0 -0.35527136788E-14  0.00000000000E+00  0.15646581489E+03  0.31519250641E+03  0.27361426291E+03 0.  0.
         25    2    3    3    0    0  0.28979530963E+02 -0.23581788503E+02  0.37384984046E+02  0.13566852264E+03  0.12494957799E+03 0.  0.
         25    2    3    3    0    0 -0.28979530963E+02  0.23581788503E+02  0.11908083084E+03  0.17952398377E+03  0.12904535060E+03 0.  0.
          5    1    4    4  502    0  0.30292036675E+02  0.39145901118E+02  0.51074709299E+02  0.71279204473E+02  0.47000000000E+01 0.  1.
         -5    1    4    4    0  502 -0.13125057114E+01 -0.62727689621E+02 -0.13689725253E+02  0.64389318166E+02  0.47000000000E+01 0.  1.
          5    1    5    5  503    0  0.31081662635E+02 -0.25079379706E+01  0.10854436238E+03  0.11303242061E+03  0.47000000000E+01 0.  1.
         -5    1    5    5    0  503 -0.60061193598E+02  0.26089726473E+02  0.10536468464E+02  0.66491563161E+02  0.47000000000E+01 0.  1.
<mgrwt>
<rscale>  0 0.27361426E+03</rscale>
<asrwt>0</asrwt>
<pdfrwt beam="1">  1        1 0.36281409E-01 0.27361426E+03</pdfrwt>
<pdfrwt beam="2">  1       -1 0.12209746E-01 0.27361426E+03</pdfrwt>
<totfact> 0.52633875E+03</totfact>
</mgrwt>
</event>
<event>
 9    1  0.7984035E-001  0.2747883E+03  0.7818608E-02  0.1098570E+00
          2   -1    0    0  501    0  0.00000000000E+00  0.00000000000E+00  0.40973351446E+03  0.40973351446E+03  0.00000000000E+00 0. -1.
         -2   -1    0    0    0  501 -0.00000000000E+00 -0.00000000000E+00 -0.46071784356E+02  0.46071784356E+02  0.00000000000E+00 0. -1.
         35    2    1    2    0    0 -0.14210854715E-13  0.71054273576E-14  0.36366173010E+03  0.45580529882E+03  0.27478831214E+03 0.  0.
         25    2    3    3    0    0  0.55740904604E+02 -0.38594294796E+01  0.15095993769E+03  0.20279521088E+03  0.12334930533E+03 0.  0.
         25    2    3    3    0    0 -0.55740904604E+02  0.38594294796E+01  0.21270179241E+03  0.25301008794E+03  0.12510039353E+03 0.  0.
          5    1    4    4  502    0  0.52826124529E+02  0.51765855186E+02  0.11332706128E+03  0.13540833067E+03  0.47000000000E+01 0.  1.
         -5    1    4    4    0  502  0.29147800749E+01 -0.55625284666E+02  0.37632876411E+02  0.67386880207E+02  0.47000000000E+01 0.  1.
          5    1    5    5  503    0  0.15952109662E+02  0.41673081583E+02  0.32623591470E+02  0.55475258013E+02  0.47000000000E+01 0.  1.
         -5    1    5    5    0  503 -0.71693014266E+02 -0.37813652103E+02  0.18007820094E+03  0.19753482993E+03  0.47000000000E+01 0.  1.
<mgrwt>
<rscale>  0 0.27478831E+03</rscale>
<asrwt>0</asrwt>
<pdfrwt beam="1">  1        2 0.63035923E-01 0.27478831E+03</pdfrwt>
<pdfrwt beam="2">  1       -2 0.70879671E-02 0.27478831E+03</pdfrwt>
<totfact> 0.88264008E+03</totfact>
</mgrwt>
</event>
<event>
 9    1  0.7984035E-001  0.2731337E+03  0.7818608E-02  0.1099499E+00
         -1   -1    0    0    0  501 -0.00000000000E+00  0.00000000000E+00  0.16078627109E+02  0.16078627109E+02  0.00000000000E+00 0. -1.
          1   -1    0    0  501    0  0.00000000000E+00 -0.00000000000E+00 -0.11599563593E+04  0.11599563593E+04  0.00000000000E+00 0. -1.
         35    2    1    2    0    0  0.00000000000E+00 -0.17763568394E-14 -0.11438777322E+04  0.11760349864E+04  0.27313370912E+03 0.  0.
         25    2    3    3    0    0 -0.48493520291E+02  0.11277594197E+02 -0.46911242129E+03  0.48791630379E+03  0.12456745182E+03 0.  0.
         25    2    3    3    0    0  0.48493520291E+02 -0.11277594197E+02 -0.67476531089E+03  0.68811868262E+03  0.12538058437E+03 0.  0.
          5    1    4    4  502    0 -0.45291999227E+01  0.34527250764E+01  0.67115131005E+01  0.99784452943E+01  0.47000000000E+01 0. -1.
         -5    1    4    4    0  502 -0.43964320368E+02  0.78248691209E+01 -0.47582393439E+03  0.47793785849E+03  0.47000000000E+01 0. -1.
          5    1    5    5  503    0  0.40360296552E+02 -0.15502226910E+02 -0.64650519774E+02  0.77916957615E+02  0.47000000000E+01 0. -1.
         -5    1    5    5    0  503  0.81332237391E+01  0.42246327132E+01 -0.61011479112E+03  0.61020172500E+03  0.47000000000E+01 0. -1.
<mgrwt>
<rscale>  0 0.27313371E+03</rscale>
<asrwt>0</asrwt>
<pdfrwt beam="1">  1        1 0.17845485E+00 0.27313371E+03</pdfrwt>
<pdfrwt beam="2">  1       -1 0.24736347E-02 0.27313371E+03</pdfrwt>
<totfact> 0.61276264E+03</totfact>
</mgrwt>
</event>
<event>
 9    1  0.7984035E-001  0.2739744E+03  0.7818608E-02  0.1099026E+00
         -1   -1    0    0    0  501 -0.00000000000E+00  0.00000000000E+00  0.17416705112E+02  0.17416705112E+02  0.00000000000E+00 0.  1.
          1   -1    0    0  501    0  0.00000000000E+00 -0.00000000000E+00 -0.10774424062E+04  0.10774424062E+04  0.00000000000E+00 0.  1.
         35    2    1    2    0    0 -0.71054273576E-14  0.00000000000E+00 -0.10600257011E+04  0.10948591113E+04  0.27397442701E+03 0.  0.
         25    2    3    3    0    0  0.33184917966E+02  0.10809591602E+02 -0.70372201404E+03  0.71556622886E+03  0.12486900653E+03 0.  0.
         25    2    3    3    0    0 -0.33184917966E+02 -0.10809591602E+02 -0.35630368703E+03  0.37929288244E+03  0.12527045630E+03 0.  0.
          5    1    4    4  502    0 -0.34130029731E+02  0.70767575475E+01 -0.49342122489E+03  0.49467315937E+03  0.47000000000E+01 0.  1.
         -5    1    4    4    0  502  0.67314947696E+02  0.37328340546E+01 -0.21030078914E+03  0.22089306949E+03  0.47000000000E+01 0.  1.
          5    1    5    5  503    0 -0.72822401022E+02 -0.37856366744E+01 -0.12773561045E+03  0.14715946899E+03  0.47000000000E+01 0. -1.
         -5    1    5    5    0  503  0.39637483056E+02 -0.70239549277E+01 -0.22856807658E+03  0.23213341344E+03  0.47000000000E+01 0. -1.
<mgrwt>
<rscale>  0 0.27397443E+03</rscale>
<asrwt>0</asrwt>
<pdfrwt beam="1">  1        1 0.16576036E+00 0.27397443E+03</pdfrwt>
<pdfrwt beam="2">  1       -1 0.26794932E-02 0.27397443E+03</pdfrwt>
<totfact> 0.62431660E+03</totfact>
</mgrwt>
</event>
<event>
 9    1  0.7984035E-001  0.2752078E+03  0.7818608E-02  0.1098336E+00
          2   -1    0    0  501    0  0.00000000000E+00  0.00000000000E+00  0.11462839185E+04  0.11462839185E+04  0.00000000000E+00 0.  1.
         -2   -1    0    0    0  501 -0.00000000000E+00 -0.00000000000E+00 -0.16518448679E+02  0.16518448679E+02  0.00000000000E+00 0.  1.
         35    2    1    2    0    0  0.35527136788E-14  0.35527136788E-14  0.11297654698E+04  0.11628023671E+04  0.27520779115E+03 0.  0.
         25    2    3    3    0    0  0.15164078871E+02 -0.19985351307E+02  0.33960477156E+03  0.36256249216E+03  0.12446202752E+03 0.  0.
         25    2    3    3    0    0 -0.15164078871E+02  0.19985351307E+02  0.79016069821E+03  0.80023987498E+03  0.12409901268E+03 0.  0.
          5    1    4    4  502    0  0.47639095727E+01 -0.12270584950E+02  0.34675847027E+03  0.34704003918E+03  0.47000000000E+01 0.  1.
         -5    1    4    4    0  502  0.10400169299E+02 -0.77147663573E+01 -0.71536987035E+01  0.15522452980E+02  0.47000000000E+01 0.  1.
          5    1    5    5  503    0  0.42492777803E+02 -0.27283011768E+02  0.26720177403E+03  0.27197219884E+03  0.47000000000E+01 0.  1.
         -5    1    5    5    0  503 -0.57656856675E+02  0.47268363076E+02  0.52295892418E+03  0.52826767614E+03  0.47000000000E+01 0.  1.
<mgrwt>
<rscale>  0 0.27520779E+03</rscale>
<asrwt>0</asrwt>
<pdfrwt beam="1">  1        2 0.17635131E+00 0.27520779E+03</pdfrwt>
<pdfrwt beam="2">  1       -2 0.25413007E-02 0.27520779E+03</pdfrwt>
<totfact> 0.11620590E+04</totfact>
</mgrwt>
</event>
<event>
 9    1  0.7984035E-001  0.2746162E+03  0.7818608E-02  0.1098666E+00
          1   -1    0    0  501    0  0.00000000000E+00  0.00000000000E+00  0.38115255079E+03  0.38115255079E+03  0.00000000000E+00 0.  1.
         -1   -1    0    0    0  501 -0.00000000000E+00 -0.00000000000E+00 -0.49464494620E+02  0.49464494620E+02  0.00000000000E+00 0.  1.
         35    2    1    2    0    0 -0.35527136788E-14 -0.35527136788E-14  0.33168805617E+03  0.43061704541E+03  0.27461622893E+03 0.  0.
         25    2    3    3    0    0  0.87399428029E+01  0.16858857005E+02  0.25201885984E+03  0.28142838461E+03  0.12380558263E+03 0.  0.
         25    2    3    3    0    0 -0.87399428029E+01 -0.16858857005E+02  0.79669196323E+02  0.14918866079E+03  0.12469750602E+03 0.  0.
          5    1    4    4  502    0  0.11886921293E+02  0.69442264042E+02  0.12033292056E+03  0.13951927718E+03  0.47000000000E+01 0. -1.
         -5    1    4    4    0  502 -0.31469784898E+01 -0.52583407037E+02  0.13168593928E+03  0.14190910744E+03  0.47000000000E+01 0. -1.
          5    1    5    5  503    0 -0.59794633694E+02 -0.12959267324E+02  0.93433830802E+01  0.62070360362E+02  0.47000000000E+01 0. -1.
         -5    1    5    5    0  503  0.51054690891E+02 -0.38995896807E+01  0.70325813243E+02  0.87118300431E+02  0.47000000000E+01 0. -1.
<mgrwt>
<rscale>  0 0.27461623E+03</rscale>
<asrwt>0</asrwt>
<pdfrwt beam="1">  1        1 0.58638852E-01 0.27461623E+03</pdfrwt>
<pdfrwt beam="2">  1       -1 0.76099225E-02 0.27461623E+03</pdfrwt>
<totfact> 0.59599724E+03</totfact>
</mgrwt>
</event>
<event>
 9    1  0.7984035E-001  0.2705377E+03  0.7818608E-02  0.1100972E+00
         -2   -1    0    0    0  501 -0.00000000000E+00  0.00000000000E+00  0.23975635000E+02  0.23975635000E+02  0.00000000000E+00 0.  1.
          2   -1    0    0  501    0  0.00000000000E+00 -0.00000000000E+00 -0.76317711356E+03  0.76317711356E+03  0.00000000000E+00 0.  1.
         35    2    1    2    0    0  0.00000000000E+00  0.00000000000E+00 -0.73920147856E+03  0.78715274856E+03  0.27053765664E+03 0.  0.
         25    2    3    3    0    0 -0.37848300254E+02  0.18600013301E+02 -0.38415455151E+03  0.40819256397E+03  0.13140774526E+03 0.  0.
         25    2    3    3    0    0  0.37848300254E+02 -0.18600013301E+02 -0.35504692705E+03  0.37896018458E+03  0.12559477204E+03 0.  0.
          5    1    4    4  502    0  0.56142249235E+01  0.66738041382E+02 -0.13613387765E+03  0.15178935513E+03  0.47000000000E+01 0. -1.
         -5    1    4    4    0  502 -0.43462525178E+02 -0.48138028081E+02 -0.24802067386E+03  0.25640320884E+03  0.47000000000E+01 0. -1.
          5    1    5    5  503    0  0.14002948424E+02  0.32431668385E+02 -0.29247604520E+03  0.29463913979E+03  0.47000000000E+01 0.  1.
         -5    1    5    5    0  503  0.23845351831E+02 -0.51031681686E+02 -0.62570881851E+02  0.84321044794E+02  0.47000000000E+01 0.  1.
<mgrwt>
<rscale>  0 0.27053766E+03</rscale>
<asrwt>0</asrwt>
<pdfrwt beam="1">  1        2 0.11741185E+00 0.27053766E+03</pdfrwt>
<pdfrwt beam="2">  1       -2 0.36885597E-02 0.27053766E+03</pdfrwt>
<totfact> 0.11648092E+04</totfact>
</mgrwt>
</event>
<event>
 9    1  0.7984035E-001  0.2808541E+03  0.7818608E-02  0.1095223E+00
          2   -1    0    0  501    0  0.00000000000E+00  0.00000000000E+00  0.39277491749E+03  0.39277491749E+03  0.00000000000E+00 0.  1.
         -2   -1    0    0    0  501 -0.00000000000E+00 -0.00000000000E+00 -0.50206240578E+02  0.50206240578E+02  0.00000000000E+00 0.  1.
         35    2    1    2    0    0  0.35527136788E-14 -0.71054273576E-14  0.34256867691E+03  0.44298115807E+03  0.28085406887E+03 0.  0.
         25    2    3    3    0    0  0.29393293862E+02 -0.34885325853E+02  0.23913415000E+03  0.27370024881E+03  0.12508290376E+03 0.  0.
         25    2    3    3    0    0 -0.29393293862E+02  0.34885325853E+02  0.10343452691E+03  0.16928090927E+03  0.12600148095E+03 0.  0.
          5    1    4    4  502    0  0.45673527790E+02  0.35135908996E+02  0.77075771764E+02  0.96350235260E+02  0.47000000000E+01 0. -1.
         -5    1    4    4    0  502 -0.16280233928E+02 -0.70021234849E+02  0.16205837824E+03  0.17735001354E+03  0.47000000000E+01 0. -1.
          5    1    5    5  503    0  0.18115225728E+02 -0.17017382102E+02  0.94939294094E+02  0.98251271034E+02  0.47000000000E+01 0.  1.
         -5    1    5    5    0  503 -0.47508519590E+02  0.51902707955E+02  0.84952328172E+01  0.71029638232E+02  0.47000000000E+01 0.  1.
<mgrwt>
<rscale>  0 0.28085407E+03</rscale>
<asrwt>0</asrwt>
<pdfrwt beam="1">  1        2 0.60426908E-01 0.28085407E+03</pdfrwt>
<pdfrwt beam="2">  1       -2 0.77240373E-02 0.28085407E+03</pdfrwt>
<totfact> 0.80926950E+03</totfact>
</mgrwt>
</event>
<event>
 9    1  0.7984035E-001  0.2758411E+03  0.7818608E-02  0.1097982E+00
         -1   -1    0    0    0  501 -0.00000000000E+00  0.00000000000E+00  0.15880609875E+03  0.15880609875E+03  0.00000000000E+00 0. -1.
          1   -1    0    0  501    0  0.00000000000E+00 -0.00000000000E+00 -0.11978175816E+03  0.11978175816E+03  0.00000000000E+00 0. -1.
         35    2    1    2    0    0  0.71054273576E-14  0.00000000000E+00  0.39024340594E+02  0.27858785691E+03  0.27584106812E+03 0.  0.
         25    2    3    3    0    0 -0.51465853591E+02  0.22299367490E+01 -0.14351471645E+02  0.13304850689E+03  0.12182870656E+03 0.  0.
         25    2    3    3    0    0  0.51465853591E+02 -0.22299367490E+01  0.53375812240E+02  0.14553935002E+03  0.12521588705E+03 0.  0.
          5    1    4    4  502    0 -0.60039701948E+02 -0.31932151132E+02 -0.48584262852E+02  0.83707518675E+02  0.47000000000E+01 0.  1.
         -5    1    4    4    0  502  0.85738483568E+01  0.34162087881E+02  0.34232791207E+02  0.49340988213E+02  0.47000000000E+01 0.  1.
          5    1    5    5  503    0 -0.21651967029E+02 -0.29667558964E+02 -0.16595654165E+02  0.40576809489E+02  0.47000000000E+01 0.  1.
         -5    1    5    5    0  503  0.73117820620E+02  0.27437622215E+02  0.69971466404E+02  0.10496254054E+03  0.47000000000E+01 0.  1.
<mgrwt>
<rscale>  0 0.27584107E+03</rscale>
<asrwt>0</asrwt>
<pdfrwt beam="1">  1        1 0.18427963E-01 0.27584107E+03</pdfrwt>
<pdfrwt beam="2">  1       -1 0.24431708E-01 0.27584107E+03</pdfrwt>
<totfact> 0.40883101E+03</totfact>
</mgrwt>
</event>
<event>
 9    1  0.7984035E-001  0.2757691E+03  0.7818608E-02  0.1098022E+00
          2   -1    0    0  501    0  0.00000000000E+00  0.00000000000E+00  0.46370322796E+03  0.46370322796E+03  0.00000000000E+00 0.  1.
         -2   -1    0    0    0  501 -0.00000000000E+00 -0.00000000000E+00 -0.41000682377E+02  0.41000682377E+02  0.00000000000E+00 0.  1.
         35    2    1    2    0    0  0.00000000000E+00  0.00000000000E+00  0.42270254559E+03  0.50470391034E+03  0.27576909737E+03 0.  0.
         25    2    3    3    0    0  0.19986270478E+02 -0.26800986197E+02  0.12432560975E+03  0.17929343533E+03  0.12478595611E+03 0.  0.
         25    2    3    3    0    0 -0.19986270478E+02  0.26800986197E+02  0.29837693584E+03  0.32541047502E+03  0.12548082538E+03 0.  0.
          5    1    4    4  502    0 -0.37985642379E+02  0.26143270773E+02  0.25210916448E+02  0.52764191852E+02  0.47000000000E+01 0. -1.
         -5    1    4    4    0  502  0.57971912857E+02 -0.52944256970E+02  0.99114693298E+02  0.12652924347E+03  0.47000000000E+01 0. -1.
          5    1    5    5  503    0 -0.12666620814E+02 -0.22927977277E+02  0.42105221618E+01  0.26943532094E+02  0.47000000000E+01 0.  1.
         -5    1    5    5    0  503 -0.73196496644E+01  0.49728963474E+02  0.29416641368E+03  0.29846694292E+03  0.47000000000E+01 0.  1.
<mgrwt>
<rscale>  0 0.27576910E+03</rscale>
<asrwt>0</asrwt>
<pdfrwt beam="1">  1        2 0.71338954E-01 0.27576910E+03</pdfrwt>
<pdfrwt beam="2">  1       -2 0.63077976E-02 0.27576910E+03</pdfrwt>
<totfact> 0.92278315E+03</totfact>
</mgrwt>
</event>
<event>
 9    1  0.7984035E-001  0.2742354E+03  0.7818608E-02  0.1098880E+00
         -2   -1    0    0    0  501 -0.00000000000E+00  0.00000000000E+00  0.26148012465E+02  0.26148012465E+02  0.00000000000E+00 0. -1.
          2   -1    0    0  501    0  0.00000000000E+00 -0.00000000000E+00 -0.71903226495E+03  0.71903226495E+03  0.00000000000E+00 0. -1.
         35    2    1    2    0    0 -0.14210854715E-13  0.71054273576E-14 -0.69288425248E+03  0.74518027741E+03  0.27423540710E+03 0.  0.
         25    2    3    3    0    0 -0.42746891703E+02 -0.37210245692E+02 -0.34596199602E+03  0.37222455260E+03  0.12509802451E+03 0.  0.
         25    2    3    3    0    0  0.42746891703E+02  0.37210245692E+02 -0.34692225646E+03  0.37295572481E+03  0.12461549464E+03 0.  0.
          5    1    4    4  502    0 -0.35532618838E+02 -0.77275638783E+02 -0.29374547452E+03  0.30584732327E+03  0.47000000000E+01 0. -1.
         -5    1    4    4    0  502 -0.72142728643E+01  0.40065393091E+02 -0.52216521503E+02  0.66377229336E+02  0.47000000000E+01 0. -1.
          5    1    5    5  503    0  0.76447438044E+02  0.40437612558E+02 -0.31314608673E+03  0.32490302080E+03  0.47000000000E+01 0.  1.
         -5    1    5    5    0  503 -0.33700546341E+02 -0.32273668659E+01 -0.33776169739E+02  0.48052704011E+02  0.47000000000E+01 0.  1.
<mgrwt>
<rscale>  0 0.27423541E+03</rscale>
<asrwt>0</asrwt>
<pdfrwt beam="1">  1        2 0.11062036E+00 0.27423541E+03</pdfrwt>
<pdfrwt beam="2">  1       -2 0.40227709E-02 0.27423541E+03</pdfrwt>
<totfact> 0.11012983E+04</totfact>
</mgrwt>
</event>
<event>
 9    1  0.7984035E-001  0.2750678E+03  0.7818608E-02  0.1098414E+00
         -3   -1    0    0    0  501 -0.00000000000E+00  0.00000000000E+00  0.10817218304E+03  0.10817218304E+03  0.00000000000E+00 0.  1.
          3   -1    0    0  501    0  0.00000000000E+00 -0.00000000000E+00 -0.17486537809E+03  0.17486537809E+03  0.00000000000E+00 0.  1.
         35    2    1    2    0    0  0.35527136788E-14  0.00000000000E+00 -0.66693195051E+02  0.28303756113E+03  0.27506777118E+03 0.  0.
         25    2    3    3    0    0  0.26735076828E+02 -0.34822644893E+02  0.58712522448E+01  0.13275736686E+03  0.12515057300E+03 0.  0.
         25    2    3    3    0    0 -0.26735076828E+02  0.34822644893E+02 -0.72564447296E+02  0.15028019427E+03  0.12406110127E+03 0.  0.
          5    1    4    4  502    0 -0.17813880317E+02 -0.71848445008E+02 -0.14064444352E+01  0.74186261989E+02  0.47000000000E+01 0. -1.
         -5    1    4    4    0  502  0.44548957145E+02  0.37025800114E+02  0.72776966800E+01  0.58571104871E+02  0.47000000000E+01 0. -1.
          5    1    5    5  503    0 -0.50641871062E+02  0.42398570142E+02  0.71336497566E+01  0.66597423476E+02  0.47000000000E+01 0. -1.
         -5    1    5    5    0  503  0.23906794233E+02 -0.75759252493E+01 -0.79698097053E+02  0.83682770794E+02  0.47000000000E+01 0. -1.
<mgrwt>
<rscale>  0 0.27506777E+03</rscale>
<asrwt>0</asrwt>
<pdfrwt beam="1">  1        3 0.26902366E-01 0.27506777E+03</pdfrwt>
<pdfrwt beam="2">  1       -3 0.16641874E-01 0.27506777E+03</pdfrwt>
<totfact> 0.10359710E+03</totfact>
</mgrwt>
</event>
<event>
 9    1  0.7984035E-001  0.2757717E+03  0.7818608E-02  0.1098021E+00
         -2   -1    0    0    0  501 -0.00000000000E+00  0.00000000000E+00  0.28479579408E+03  0.28479579408E+03  0.00000000000E+00 0.  1.
          2   -1    0    0  501    0  0.00000000000E+00 -0.00000000000E+00 -0.66758367358E+02  0.66758367358E+02  0.00000000000E+00 0.  1.
         35    2    1    2    0    0  0.00000000000E+00  0.00000000000E+00  0.21803742672E+03  0.35155416144E+03  0.27577166093E+03 0.  0.
         25    2    3    3    0    0 -0.55769168219E+02 -0.91207084584E+01  0.12562850866E+03  0.18615657318E+03  0.12521325849E+03 0.  0.
         25    2    3    3    0    0  0.55769168219E+02  0.91207084584E+01  0.92408918066E+02  0.16539758826E+03  0.12499426634E+03 0.  0.
          5    1    4    4  502    0 -0.58665995684E+02  0.49794065914E+02  0.59238520576E+02  0.97223661574E+02  0.47000000000E+01 0.  1.
         -5    1    4    4    0  502  0.28968274649E+01 -0.58914774372E+02  0.66389988083E+02  0.88932911604E+02  0.47000000000E+01 0.  1.
          5    1    5    5  503    0 -0.38290440804E+02 -0.34167166320E+01  0.44502919564E+02  0.58995183357E+02  0.47000000000E+01 0. -1.
         -5    1    5    5    0  503  0.94059609023E+02  0.12537425090E+02  0.47905998501E+02  0.10640240491E+03  0.47000000000E+01 0. -1.
<mgrwt>
<rscale>  0 0.27577166E+03</rscale>
<asrwt>0</asrwt>
<pdfrwt beam="1">  1        2 0.10270518E-01 0.27577166E+03</pdfrwt>
<pdfrwt beam="2">  1       -2 0.43814737E-01 0.27577166E+03</pdfrwt>
<totfact> 0.30813205E+03</totfact>
</mgrwt>
</event>
<event>
 9    1  0.7984035E-001  0.2736981E+03  0.7818608E-02  0.1099182E+00
          2   -1    0    0  501    0  0.00000000000E+00  0.00000000000E+00  0.14213418588E+03  0.14213418588E+03  0.00000000000E+00 0.  1.
         -2   -1    0    0    0  501 -0.00000000000E+00 -0.00000000000E+00 -0.13176040595E+03  0.13176040595E+03  0.00000000000E+00 0.  1.
         35    2    1    2    0    0  0.00000000000E+00  0.00000000000E+00  0.10373779925E+02  0.27389459183E+03  0.27369806745E+03 0.  0.
         25    2    3    3    0    0 -0.70917062717E+01  0.51519434164E+02  0.14931964711E+02  0.13836586661E+03  0.12734836111E+03 0.  0.
         25    2    3    3    0    0  0.70917062717E+01 -0.51519434164E+02 -0.45581847860E+01  0.13552872522E+03  0.12507083560E+03 0.  0.
          5    1    4    4  502    0  0.43199350969E+02  0.61929062771E+02  0.34574877782E+02  0.83179954998E+02  0.47000000000E+01 0. -1.
         -5    1    4    4    0  502 -0.50291057241E+02 -0.10409628607E+02 -0.19642913072E+02  0.55185911609E+02  0.47000000000E+01 0. -1.
          5    1    5    5  503    0 -0.11085612422E+02  0.31685500257E+02  0.28264784534E+02  0.44134451102E+02  0.47000000000E+01 0. -1.
         -5    1    5    5    0  503  0.18177318694E+02 -0.83204934421E+02 -0.32822969320E+02  0.91394274120E+02  0.47000000000E+01 0. -1.
<mgrwt>
<rscale>  0 0.27369807E+03</rscale>
<asrwt>0</asrwt>
<pdfrwt beam="1">  1        2 0.21866798E-01 0.27369807E+03</pdfrwt>
<pdfrwt beam="2">  1       -2 0.20270832E-01 0.27369807E+03</pdfrwt>
<totfact> 0.51085421E+03</totfact>
</mgrwt>
</event>
<event>
 9    1  0.7984035E-001  0.2746911E+03  0.7818608E-02  0.1098624E+00
          2   -1    0    0  501    0  0.00000000000E+00  0.00000000000E+00  0.79631305293E+03  0.79631305293E+03  0.00000000000E+00 0. -1.
         -2   -1    0    0    0  501 -0.00000000000E+00 -0.00000000000E+00 -0.23688923353E+02  0.23688923353E+02  0.00000000000E+00 0. -1.
         35    2    1    2    0    0  0.00000000000E+00 -0.10658141036E-13  0.77262412958E+03  0.82000197628E+03  0.27469109105E+03 0.  0.
         25    2    3    3    0    0 -0.16084349961E+02  0.28801675380E+02  0.24237448830E+03  0.27384184336E+03  0.12310856906E+03 0.  0.
         25    2    3    3    0    0  0.16084349961E+02 -0.28801675380E+02  0.53024964128E+03  0.54616013293E+03  0.12664109090E+03 0.  0.
          5    1    4    4  502    0 -0.57769231619E+02 -0.11425149391E+02  0.17583504237E+03  0.18549358557E+03  0.47000000000E+01 0. -1.
         -5    1    4    4    0  502  0.41684881658E+02  0.40226824771E+02  0.66539445926E+02  0.88348257788E+02  0.47000000000E+01 0. -1.
          5    1    5    5  503    0  0.35839613437E+01  0.23945575240E+02  0.44060355036E+03  0.44129334228E+03  0.47000000000E+01 0. -1.
         -5    1    5    5    0  503  0.12500388617E+02 -0.52747250620E+02  0.89646090922E+02  0.10486679065E+03  0.47000000000E+01 0. -1.
<mgrwt>
<rscale>  0 0.27469109E+03</rscale>
<asrwt>0</asrwt>
<pdfrwt beam="1">  1        2 0.12250968E+00 0.27469109E+03</pdfrwt>
<pdfrwt beam="2">  1       -2 0.36444504E-02 0.27469109E+03</pdfrwt>
<totfact> 0.11247810E+04</totfact>
</mgrwt>
</event>
<event>
 9    1  0.7984035E-001  0.2746251E+03  0.7818608E-02  0.1098661E+00
          4   -1    0    0  501    0  0.00000000000E+00  0.00000000000E+00  0.47402028589E+02  0.47402028589E+02  0.00000000000E+00 0. -1.
         -4   -1    0    0    0  501 -0.00000000000E+00 -0.00000000000E+00 -0.39776217281E+03  0.39776217281E+03  0.00000000000E+00 0. -1.
         35    2    1    2    0    0  0.71054273576E-14  0.00000000000E+00 -0.35036014422E+03  0.44516420140E+03  0.27462508179E+03 0.  0.
         25    2    3    3    0    0 -0.23779430162E+02 -0.12890195859E+02 -0.93700345423E+02  0.15862722437E+03  0.12510484855E+03 0.  0.
         25    2    3    3    0    0  0.23779430162E+02  0.12890195859E+02 -0.25665979879E+03  0.28653697702E+03  0.12448923021E+03 0.  0.
          5    1    4    4  502    0  0.38176600630E+02  0.28693662177E+02 -0.59418800245E+02  0.76377109839E+02  0.47000000000E+01 0. -1.
         -5    1    4    4    0  502 -0.61956030792E+02 -0.41583858037E+02 -0.34281545178E+02  0.82250114532E+02  0.47000000000E+01 0. -1.
          5    1    5    5  503    0 -0.48849961907E+02 -0.26005345501E+01 -0.69436013879E+02  0.85067805789E+02  0.47000000000E+01 0. -1.
         -5    1    5    5    0  503  0.72629392069E+02  0.15490730409E+02 -0.18722378491E+03  0.20146917124E+03  0.47000000000E+01 0. -1.
<mgrwt>
<rscale>  0 0.27462508E+03</rscale>
<asrwt>0</asrwt>
<pdfrwt beam="1">  1        4 0.72926196E-02 0.27462508E+03</pdfrwt>
<pdfrwt beam="2">  1       -4 0.61194182E-01 0.27462508E+03</pdfrwt>
<totfact> 0.61394893E+02</totfact>
</mgrwt>
</event>
<event>
 9    1  0.7984035E-001  0.2759885E+03  0.7818608E-02  0.1097900E+00
         -1   -1    0    0    0  501 -0.00000000000E+00  0.00000000000E+00  0.16684417439E+04  0.16684417439E+04  0.00000000000E+00 0. -1.
          1   -1    0    0  501    0  0.00000000000E+00 -0.00000000000E+00 -0.11413290984E+02  0.11413290984E+02  0.00000000000E+00 0. -1.
         35    2    1    2    0    0  0.00000000000E+00  0.71054273576E-14  0.16570284530E+04  0.16798550349E+04  0.27598848609E+03 0.  0.
         25    2    3    3    0    0  0.38643105102E+02  0.17670976376E+02  0.10419145777E+04  0.10503456679E+04  0.12583513757E+03 0.  0.
         25    2    3    3    0    0 -0.38643105102E+02 -0.17670976376E+02  0.61511387523E+03  0.62950936701E+03  0.12693073181E+03 0.  0.
          5    1    4    4  502    0  0.55308567794E+02 -0.34724248227E+02  0.33877460185E+03  0.34504366672E+03  0.47000000000E+01 0.  1.
         -5    1    4    4    0  502 -0.16665462692E+02  0.52395224603E+02  0.70313997588E+03  0.70530200119E+03  0.47000000000E+01 0.  1.
          5    1    5    5  503    0 -0.35292983014E+02  0.38693154878E+02  0.48171999654E+03  0.48458126248E+03  0.47000000000E+01 0. -1.
         -5    1    5    5    0  503 -0.33501220878E+01 -0.56364131254E+02  0.13339387869E+03  0.14492810453E+03  0.47000000000E+01 0. -1.
<mgrwt>
<rscale>  0 0.27598849E+03</rscale>
<asrwt>0</asrwt>
<pdfrwt beam="1">  1        1 0.17558922E-02 0.27598849E+03</pdfrwt>
<pdfrwt beam="2">  1       -1 0.25668315E+00 0.27598849E+03</pdfrwt>
<totfact> 0.52403677E+02</totfact>
</mgrwt>
</event>
<event>
 9    1  0.7984035E-001  0.2747849E+03  0.7818608E-02  0.1098572E+00
         -2   -1    0    0    0  501 -0.00000000000E+00  0.00000000000E+00  0.35104354711E+02  0.35104354711E+02  0.00000000000E+00 0. -1.
          2   -1    0    0  501    0  0.00000000000E+00 -0.00000000000E+00 -0.53773042699E+03  0.53773042699E+03  0.00000000000E+00 0. -1.
         35    2    1    2    0    0  0.35527136788E-14  0.00000000000E+00 -0.50262607228E+03  0.57283478170E+03  0.27478485874E+03 0.  0.
         25    2    3    3    0    0  0.22516240061E+02 -0.11605530027E+02 -0.36249169587E+03  0.38295630982E+03  0.12088687382E+03 0.  0.
         25    2    3    3    0    0 -0.22516240061E+02  0.11605530027E+02 -0.14013437642E+03  0.18987847189E+03  0.12559666094E+03 0.  0.
          5    1    4    4  502    0  0.30006534271E+02  0.50267017128E+02 -0.21242468915E+03  0.22039397376E+03  0.47000000000E+01 0.  1.
         -5    1    4    4    0  502 -0.74902942101E+01 -0.61872547155E+02 -0.15006700672E+03  0.16256233606E+03  0.47000000000E+01 0.  1.
          5    1    5    5  503    0  0.17434864718E+02  0.60789189057E+02 -0.82812477715E+02  0.10430386608E+03  0.47000000000E+01 0. -1.
         -5    1    5    5    0  503 -0.39951104779E+02 -0.49183659030E+02 -0.57321898701E+02  0.85574605809E+02  0.47000000000E+01 0. -1.
<mgrwt>
<rscale>  0 0.27478486E+03</rscale>
<asrwt>0</asrwt>
<pdfrwt beam="1">  1        2 0.82727750E-01 0.27478486E+03</pdfrwt>
<pdfrwt beam="2">  1       -2 0.54006705E-02 0.27478486E+03</pdfrwt>
<totfact> 0.99165432E+03</totfact>
</mgrwt>
</event>
<event>
 9    1  0.7984035E-001  0.2780452E+03  0.7818608E-02  0.1096761E+00
          2   -1    0    0  501    0  0.00000000000E+00  0.00000000000E+00  0.79543747691E+03  0.79543747691E+03  0.00000000000E+00 0.  1.
         -2   -1    0    0    0  501 -0.00000000000E+00 -0.00000000000E+00 -0.24297669047E+02  0.24297669047E+02  0.00000000000E+00 0.  1.
         35    2    1    2    0    0  0.00000000000E+00  0.00000000000E+00  0.77113980787E+03  0.81973514596E+03  0.27804515145E+03 0.  0.
         25    2    3    3    0    0 -0.47779698765E+02  0.25765609907E+02  0.47382699274E+03  0.49259992498E+03  0.12327165439E+03 0.  0.
         25    2    3    3    0    0  0.47779698765E+02 -0.25765609907E+02  0.29731281512E+03  0.32713522098E+03  0.12520294125E+03 0.  0.
          5    1    4    4  502    0  0.12632587083E+02  0.92915572559E+01  0.37598223190E+03  0.37633846999E+03  0.47000000000E+01 0.  1.
         -5    1    4    4    0  502 -0.60412285848E+02  0.16474052651E+02  0.97844760841E+02  0.11626145499E+03  0.47000000000E+01 0.  1.
          5    1    5    5  503    0 -0.65953405407E+01  0.28923964602E+02  0.13387356190E+02  0.32884731273E+02  0.47000000000E+01 0. -1.
         -5    1    5    5    0  503  0.54375039305E+02 -0.54689574508E+02  0.28392545893E+03  0.29425048970E+03  0.47000000000E+01 0. -1.
<mgrwt>
<rscale>  0 0.27804515E+03</rscale>
<asrwt>0</asrwt>
<pdfrwt beam="1">  1        2 0.12237498E+00 0.27804515E+03</pdfrwt>
<pdfrwt beam="2">  1       -2 0.37381035E-02 0.27804515E+03</pdfrwt>
<totfact> 0.10847615E+04</totfact>
</mgrwt>
</event>
<event>
 9    1  0.7984035E-001  0.2779696E+03  0.7818608E-02  0.1096803E+00
          1   -1    0    0  501    0  0.00000000000E+00  0.00000000000E+00  0.16121526840E+03  0.16121526840E+03  0.00000000000E+00 0.  1.
         -1   -1    0    0    0  501 -0.00000000000E+00 -0.00000000000E+00 -0.11981977699E+03  0.11981977699E+03  0.00000000000E+00 0.  1.
         35    2    1    2    0    0 -0.35527136788E-14  0.14210854715E-13  0.41395491408E+02  0.28103504539E+03  0.27796962070E+03 0.  0.
         25    2    3    3    0    0 -0.23646867007E+02  0.55368838431E+02  0.33005235833E+02  0.14240486664E+03  0.12475943997E+03 0.  0.
         25    2    3    3    0    0  0.23646867007E+02 -0.55368838431E+02  0.83902555751E+01  0.13863017875E+03  0.12459152252E+03 0.  0.
          5    1    4    4  502    0 -0.24535919135E+02  0.88673850079E+02  0.49881306300E+02  0.10476305519E+03  0.47000000000E+01 0. -1.
         -5    1    4    4    0  502  0.88905212771E+00 -0.33305011648E+02 -0.16876070467E+02  0.37641811446E+02  0.47000000000E+01 0. -1.
          5    1    5    5  503    0 -0.11274478691E+02 -0.28373841276E+02 -0.53910411488E+02  0.62133816922E+02  0.47000000000E+01 0.  1.
         -5    1    5    5    0  503  0.34921345699E+02 -0.26994997156E+02  0.62300667063E+02  0.76496361831E+02  0.47000000000E+01 0.  1.
<mgrwt>
<rscale>  0 0.27796962E+03</rscale>
<asrwt>0</asrwt>
<pdfrwt beam="1">  1        1 0.24802349E-01 0.27796962E+03</pdfrwt>
<pdfrwt beam="2">  1       -1 0.18433812E-01 0.27796962E+03</pdfrwt>
<totfact> 0.44269182E+03</totfact>
</mgrwt>
</event>
<event>
 9    1  0.7984035E-001  0.2702538E+03  0.7818608E-02  0.1101134E+00
         -2   -1    0    0    0  501 -0.00000000000E+00  0.00000000000E+00  0.21976735462E+03  0.21976735462E+03  0.00000000000E+00 0.  1.
          2   -1    0    0  501    0  0.00000000000E+00 -0.00000000000E+00 -0.83084563337E+02  0.83084563337E+02  0.00000000000E+00 0.  1.
         35    2    1    2    0    0  0.00000000000E+00 -0.35527136788E-14  0.13668279129E+03  0.30285191796E+03  0.27025376737E+03 0.  0.
         25    2    3    3    0    0 -0.39144191145E+02 -0.23562379976E+02  0.93391620191E+02  0.16237674434E+03  0.12472673703E+03 0.  0.
         25    2    3    3    0    0  0.39144191145E+02  0.23562379976E+02  0.43291171096E+02  0.14047517362E+03  0.12558541101E+03 0.  0.
          5    1    4    4  502    0 -0.46930311843E+01 -0.68852662413E+02  0.25633908000E+02  0.73769240897E+02  0.47000000000E+01 0.  1.
         -5    1    4    4    0  502 -0.34451159960E+02  0.45290282437E+02  0.67757712190E+02  0.88607503447E+02  0.47000000000E+01 0.  1.
          5    1    5    5  503    0 -0.23013073634E+02  0.28018938783E+01 -0.32483468208E+02  0.40183552285E+02  0.47000000000E+01 0.  1.
         -5    1    5    5    0  503  0.62157264778E+02  0.20760486098E+02  0.75774639304E+02  0.10029162133E+03  0.47000000000E+01 0.  1.
<mgrwt>
<rscale>  0 0.27025377E+03</rscale>
<asrwt>0</asrwt>
<pdfrwt beam="1">  1        2 0.12782241E-01 0.27025377E+03</pdfrwt>
<pdfrwt beam="2">  1       -2 0.33810362E-01 0.27025377E+03</pdfrwt>
<totfact> 0.38523744E+03</totfact>
</mgrwt>
</event>
<event>
 9    1  0.7984035E-001  0.2733407E+03  0.7818608E-02  0.1099383E+00
          1   -1    0    0  501    0  0.00000000000E+00  0.00000000000E+00  0.35251216341E+03  0.35251216341E+03  0.00000000000E+00 0. -1.
         -1   -1    0    0    0  501 -0.00000000000E+00 -0.00000000000E+00 -0.52987647137E+02  0.52987647137E+02  0.00000000000E+00 0. -1.
         35    2    1    2    0    0 -0.35527136788E-14  0.00000000000E+00  0.29952451627E+03  0.40549981055E+03  0.27334074066E+03 0.  0.
         25    2    3    3    0    0 -0.91677743173E+01 -0.49310850069E+02  0.11586130955E+03  0.17728726063E+03  0.12446413824E+03 0.  0.
         25    2    3    3    0    0  0.91677743173E+01  0.49310850069E+02  0.18366320672E+03  0.22821254992E+03  0.12582999014E+03 0.  0.
          5    1    4    4  502    0 -0.28590633264E+02  0.32579523536E+02  0.15615711505E+02  0.46311878715E+02  0.47000000000E+01 0. -1.
         -5    1    4    4    0  502  0.19422858947E+02 -0.81890373605E+02  0.10024559805E+03  0.13097538191E+03  0.47000000000E+01 0. -1.
          5    1    5    5  503    0  0.38209426323E+02  0.32017612706E+02  0.18731506248E+03  0.19389200709E+03  0.47000000000E+01 0. -1.
         -5    1    5    5    0  503 -0.29041652006E+02  0.17293237362E+02 -0.36518557556E+01  0.34320542830E+02  0.47000000000E+01 0. -1.
<mgrwt>
<rscale>  0 0.27334074E+03</rscale>
<asrwt>0</asrwt>
<pdfrwt beam="1">  1        1 0.54232639E-01 0.27334074E+03</pdfrwt>
<pdfrwt beam="2">  1       -1 0.81519459E-02 0.27334074E+03</pdfrwt>
<totfact> 0.59257276E+03</totfact>
</mgrwt>
</event>
<event>
 9    1  0.7984035E-001  0.2740074E+03  0.7818608E-02  0.1099008E+00
          2   -1    0    0  501    0  0.00000000000E+00  0.00000000000E+00  0.93763384669E+03  0.93763384669E+03  0.00000000000E+00 0.  1.
         -2   -1    0    0    0  501 -0.00000000000E+00 -0.00000000000E+00 -0.20018494496E+02  0.20018494496E+02  0.00000000000E+00 0.  1.
         35    2    1    2    0    0  0.00000000000E+00  0.00000000000E+00  0.91761535220E+03  0.95765234119E+03  0.27400743055E+03 0.  0.
         25    2    3    3    0    0 -0.42835020100E+02  0.15041267167E+02  0.54255897620E+03  0.55861893882E+03  0.12499518985E+03 0.  0.
         25    2    3    3    0    0  0.42835020100E+02 -0.15041267167E+02  0.37505637600E+03  0.39903340237E+03  0.12844957130E+03 0.  0.
          5    1    4    4  502    0 -0.77029074964E+02  0.31799579349E+02  0.25025255271E+03  0.26380508292E+03  0.47000000000E+01 0.  1.
         -5    1    4    4    0  502  0.34194054864E+02 -0.16758312183E+02  0.29230642349E+03  0.29481385590E+03  0.47000000000E+01 0.  1.
          5    1    5    5  503    0  0.42871748229E+02 -0.51494516919E+02  0.34521659931E+03  0.35169057779E+03  0.47000000000E+01 0.  1.
         -5    1    5    5    0  503 -0.36728129056E-01  0.36453249752E+02  0.29839776685E+02  0.47342824578E+02  0.47000000000E+01 0.  1.
<mgrwt>
<rscale>  0 0.27400743E+03</rscale>
<asrwt>0</asrwt>
<pdfrwt beam="1">  1        2 0.14425133E+00 0.27400743E+03</pdfrwt>
<pdfrwt beam="2">  1       -2 0.30797691E-02 0.27400743E+03</pdfrwt>
<totfact> 0.11666258E+04</totfact>
</mgrwt>
</event>
<event>
 9    1  0.7984035E-001  0.2769644E+03  0.7818608E-02  0.1097359E+00
         -2   -1    0    0    0  501 -0.00000000000E+00  0.00000000000E+00  0.15410964659E+02  0.15410964659E+02  0.00000000000E+00 0. -1.
          2   -1    0    0  501    0  0.00000000000E+00 -0.00000000000E+00 -0.12443948122E+04  0.12443948122E+04  0.00000000000E+00 0. -1.
         35    2    1    2    0    0 -0.71054273576E-14  0.00000000000E+00 -0.12289838475E+04  0.12598057769E+04  0.27696443434E+03 0.  0.
         25    2    3    3    0    0 -0.29577257118E+02  0.49842858836E+02 -0.71744513328E+03  0.73039902837E+03  0.12408100844E+03 0.  0.
         25    2    3    3    0    0  0.29577257118E+02 -0.49842858836E+02 -0.51153871427E+03  0.52940674850E+03  0.12345251900E+03 0.  0.
          5    1    4    4  502    0  0.27880627835E+02 -0.26785874140E+02 -0.26992592891E+03  0.27272130383E+03  0.47000000000E+01 0. -1.
         -5    1    4    4    0  502 -0.57457884952E+02  0.76628732976E+02 -0.44751920437E+03  0.45767772454E+03  0.47000000000E+01 0. -1.
          5    1    5    5  503    0 -0.32088234725E+02 -0.48467401367E+02 -0.37501694190E+03  0.37952409741E+03  0.47000000000E+01 0. -1.
         -5    1    5    5    0  503  0.61665491843E+02 -0.13754574689E+01 -0.13652177237E+03  0.14988265109E+03  0.47000000000E+01 0. -1.
<mgrwt>
<rscale>  0 0.27696443E+03</rscale>
<asrwt>0</asrwt>
<pdfrwt beam="1">  1        2 0.19144537E+00 0.27696443E+03</pdfrwt>
<pdfrwt beam="2">  1       -2 0.23709174E-02 0.27696443E+03</pdfrwt>
<totfact> 0.11324839E+04</totfact>
</mgrwt>
</event>
<event>
 9    1  0.7984035E-001  0.2702891E+03  0.7818608E-02  0.1101114E+00
         -2   -1    0    0    0  501 -0.00000000000E+00  0.00000000000E+00  0.44574831626E+02  0.44574831626E+02  0.00000000000E+00 0. -1.
          2   -1    0    0  501    0  0.00000000000E+00 -0.00000000000E+00 -0.40973908577E+03  0.40973908577E+03  0.00000000000E+00 0. -1.
         35    2    1    2    0    0 -0.35527136788E-14 -0.14210854715E-13 -0.36516425415E+03  0.45431391740E+03  0.27028911010E+03 0.  0.
         25    2    3    3    0    0  0.71633511667E+01  0.36104764000E+02 -0.19565475518E+03  0.23544752241E+03  0.12569759346E+03 0.  0.
         25    2    3    3    0    0 -0.71633511667E+01 -0.36104764000E+02 -0.16950949897E+03  0.21886639499E+03  0.13346970080E+03 0.  0.
          5    1    4    4  502    0  0.25344035510E+02  0.75421069418E+01  0.87175403963E+01  0.28236306833E+02  0.47000000000E+01 0.  1.
         -5    1    4    4    0  502 -0.18180684343E+02  0.28562657058E+02 -0.20437229557E+03  0.20721121557E+03  0.47000000000E+01 0.  1.
          5    1    5    5  503    0  0.48275659808E+02  0.25847792355E+02 -0.73520661356E+02  0.91793383998E+02  0.47000000000E+01 0. -1.
         -5    1    5    5    0  503 -0.55439010975E+02 -0.61952556355E+02 -0.95988837612E+02  0.12707301099E+03  0.47000000000E+01 0. -1.
<mgrwt>
<rscale>  0 0.27028911E+03</rscale>
<asrwt>0</asrwt>
<pdfrwt beam="1">  1        2 0.63036783E-01 0.27028911E+03</pdfrwt>
<pdfrwt beam="2">  1       -2 0.68576664E-02 0.27028911E+03</pdfrwt>
<totfact> 0.92832515E+03</totfact>
</mgrwt>
</event>
<event>
 9    1  0.7984035E-001  0.2743316E+03  0.7818608E-02  0.1098826E+00
          2   -1    0    0  501    0  0.00000000000E+00  0.00000000000E+00  0.11026995989E+03  0.11026995989E+03  0.00000000000E+00 0. -1.
         -2   -1    0    0    0  501 -0.00000000000E+00 -0.00000000000E+00 -0.17062181229E+03  0.17062181229E+03  0.00000000000E+00 0. -1.
         35    2    1    2    0    0  0.00000000000E+00  0.00000000000E+00 -0.60351852406E+02  0.28089177218E+03  0.27433162703E+03 0.  0.
         25    2    3    3    0    0  0.49750356430E+02  0.12847464861E+02 -0.89475858555E+01  0.13515271692E+03  0.12468376911E+03 0.  0.
         25    2    3    3    0    0 -0.49750356430E+02 -0.12847464861E+02 -0.51404266550E+02  0.14573905527E+03  0.12632227948E+03 0.  0.
          5    1    4    4  502    0  0.60119600085E+02 -0.32864774186E+02 -0.39286435865E+02  0.79119995827E+02  0.47000000000E+01 0.  1.
         -5    1    4    4    0  502 -0.10369243655E+02  0.45712239047E+02  0.30338850009E+02  0.56032721088E+02  0.47000000000E+01 0.  1.
          5    1    5    5  503    0 -0.26694361069E+02 -0.65121186532E+02 -0.53256217068E+02  0.88383666504E+02  0.47000000000E+01 0.  1.
         -5    1    5    5    0  503 -0.23055995361E+02  0.52273721671E+02  0.18519505184E+01  0.57355388763E+02  0.47000000000E+01 0.  1.
<mgrwt>
<rscale>  0 0.27433163E+03</rscale>
<asrwt>0</asrwt>
<pdfrwt beam="1">  1        2 0.16964609E-01 0.27433163E+03</pdfrwt>
<pdfrwt beam="2">  1       -2 0.26249509E-01 0.27433163E+03</pdfrwt>
<totfact> 0.43585743E+03</totfact>
</mgrwt>
</event>
<event>
 9    1  0.7984035E-001  0.2801606E+03  0.7818608E-02  0.1095601E+00
         -2   -1    0    0    0  501 -0.00000000000E+00  0.00000000000E+00  0.81074809408E+01  0.81074809408E+01  0.00000000000E+00 0. -1.
          2   -1    0    0  501    0  0.00000000000E+00 -0.00000000000E+00 -0.24202935227E+04  0.24202935227E+04  0.00000000000E+00 0. -1.
         35    2    1    2    0    0  0.00000000000E+00  0.71054273576E-14 -0.24121860418E+04  0.24284010037E+04  0.28016055116E+03 0.  0.
         25    2    3    3    0    0 -0.10566849235E+02 -0.49491402936E+02 -0.15538722933E+04  0.15596509409E+04  0.12422115792E+03 0.  0.
         25    2    3    3    0    0  0.10566849235E+02  0.49491402936E+02 -0.85831374846E+03  0.86875006281E+03  0.12435080850E+03 0.  0.
          5    1    4    4  502    0  0.51938806497E+02 -0.47564652634E+02 -0.73535695087E+03  0.73873673997E+03  0.47000000000E+01 0. -1.
         -5    1    4    4    0  502 -0.62505655732E+02 -0.19267503013E+01 -0.81851534246E+03  0.82091420088E+03  0.47000000000E+01 0. -1.
          5    1    5    5  503    0  0.12763762618E+02  0.34191078163E+02 -0.84959520848E+03  0.85039170488E+03  0.47000000000E+01 0. -1.
         -5    1    5    5    0  503 -0.21969133826E+01  0.15300324772E+02 -0.87185399832E+01  0.18358357933E+02  0.47000000000E+01 0. -1.
<mgrwt>
<rscale>  0 0.28016055E+03</rscale>
<asrwt>0</asrwt>
<pdfrwt beam="1">  1        2 0.37235309E+00 0.28016055E+03</pdfrwt>
<pdfrwt beam="2">  1       -2 0.12473040E-02 0.28016055E+03</pdfrwt>
<totfact> 0.68501091E+03</totfact>
</mgrwt>
</event>
<event>
 9    1  0.7984035E-001  0.2682603E+03  0.7818608E-02  0.1102279E+00
         -1   -1    0    0    0  501 -0.00000000000E+00  0.00000000000E+00  0.11135758354E+03  0.11135758354E+03  0.00000000000E+00 0.  1.
          1   -1    0    0  501    0  0.00000000000E+00 -0.00000000000E+00 -0.16155967220E+03  0.16155967220E+03  0.00000000000E+00 0.  1.
         35    2    1    2    0    0 -0.71054273576E-14  0.00000000000E+00 -0.50202088659E+02  0.27291725574E+03  0.26826028177E+03 0.  0.
         25    2    3    3    0    0 -0.79453009564E+01  0.40170293193E+01 -0.71983672027E+02  0.14512300514E+03  0.12569714894E+03 0.  0.
         25    2    3    3    0    0  0.79453009564E+01 -0.40170293193E+01  0.21781583368E+02  0.12779425059E+03  0.12560919066E+03 0.  0.
          5    1    4    4  502    0 -0.45073703404E+02 -0.30753517102E+01 -0.91625294415E+02  0.10226622660E+03  0.47000000000E+01 0.  1.
         -5    1    4    4    0  502  0.37128402447E+02  0.70923810295E+01  0.19641622388E+02  0.42856778542E+02  0.47000000000E+01 0.  1.
          5    1    5    5  503    0  0.62117101811E+02 -0.51900106048E+01  0.35248789301E+02  0.71763763103E+02  0.47000000000E+01 0. -1.
         -5    1    5    5    0  503 -0.54171800854E+02  0.11729812855E+01 -0.13467205933E+02  0.56030487492E+02  0.47000000000E+01 0. -1.
<mgrwt>
<rscale>  0 0.26826028E+03</rscale>
<asrwt>0</asrwt>
<pdfrwt beam="1">  1        1 0.24855334E-01 0.26826028E+03</pdfrwt>
<pdfrwt beam="2">  1       -1 0.17131936E-01 0.26826028E+03</pdfrwt>
<totfact> 0.49610960E+03</totfact>
</mgrwt>
</event>
<event>
 9    1  0.7984035E-001  0.2766660E+03  0.7818608E-02  0.1097524E+00
          2   -1    0    0  501    0  0.00000000000E+00  0.00000000000E+00  0.10961385611E+04  0.10961385611E+04  0.00000000000E+00 0.  1.
         -2   -1    0    0    0  501 -0.00000000000E+00 -0.00000000000E+00 -0.17457669887E+02  0.17457669887E+02  0.00000000000E+00 0.  1.
         35    2    1    2    0    0  0.35527136788E-14  0.00000000000E+00  0.10786808912E+04  0.11135962310E+04  0.27666604525E+03 0.  0.
         25    2    3    3    0    0 -0.10544284891E+02 -0.57242183441E+02  0.49642692654E+03  0.51521166573E+03  0.12496206466E+03 0.  0.
         25    2    3    3    0    0  0.10544284891E+02  0.57242183441E+02  0.58225396464E+03  0.59838456522E+03  0.12512617251E+03 0.  0.
          5    1    4    4  502    0  0.53974023775E+02 -0.40977520224E+02  0.30572512035E+03  0.31318092473E+03  0.47000000000E+01 0. -1.
         -5    1    4    4    0  502 -0.64518308666E+02 -0.16264663217E+02  0.19070180619E+03  0.20203074099E+03  0.47000000000E+01 0. -1.
          5    1    5    5  503    0  0.16619341717E+02 -0.15913426409E+02  0.41507217265E+03  0.41573601981E+03  0.47000000000E+01 0.  1.
         -5    1    5    5    0  503 -0.60750568260E+01  0.73155609850E+02  0.16718179199E+03  0.18264854541E+03  0.47000000000E+01 0.  1.
<mgrwt>
<rscale>  0 0.27666605E+03</rscale>
<asrwt>0</asrwt>
<pdfrwt beam="1">  1        2 0.16863665E+00 0.27666605E+03</pdfrwt>
<pdfrwt beam="2">  1       -2 0.26857962E-02 0.27666605E+03</pdfrwt>
<totfact> 0.11453527E+04</totfact>
</mgrwt>
</event>
<event>
 9    1  0.7984035E-001  0.2772118E+03  0.7818608E-02  0.1097222E+00
         -1   -1    0    0    0  501 -0.00000000000E+00  0.00000000000E+00  0.20086159686E+02  0.20086159686E+02  0.00000000000E+00 0. -1.
          1   -1    0    0  501    0  0.00000000000E+00 -0.00000000000E+00 -0.95645915128E+03  0.95645915128E+03  0.00000000000E+00 0. -1.
         35    2    1    2    0    0  0.00000000000E+00  0.35527136788E-14 -0.93637299159E+03  0.97654531096E+03  0.27721176920E+03 0.  0.
         25    2    3    3    0    0 -0.53856132275E+02 -0.10969229978E+02 -0.37395458695E+03  0.39819105139E+03  0.12527279558E+03 0.  0.
         25    2    3    3    0    0  0.53856132275E+02  0.10969229978E+02 -0.56241840464E+03  0.57835425957E+03  0.12311937582E+03 0.  0.
          5    1    4    4  502    0 -0.22087091030E+00 -0.33431084085E+02 -0.30918157734E+03  0.31101933048E+03  0.47000000000E+01 0. -1.
         -5    1    4    4    0  502 -0.53635261365E+02  0.22461854106E+02 -0.64773009612E+02  0.87171720906E+02  0.47000000000E+01 0. -1.
          5    1    5    5  503    0  0.80778923845E+02  0.35778572676E+02 -0.47946646697E+03  0.48756078980E+03  0.47000000000E+01 0.  1.
         -5    1    5    5    0  503 -0.26922791570E+02 -0.24809342697E+02 -0.82951937672E+02  0.90793469780E+02  0.47000000000E+01 0.  1.
<mgrwt>
<rscale>  0 0.27721177E+03</rscale>
<asrwt>0</asrwt>
<pdfrwt beam="1">  1        1 0.14714757E+00 0.27721177E+03</pdfrwt>
<pdfrwt beam="2">  1       -1 0.30901783E-02 0.27721177E+03</pdfrwt>
<totfact> 0.62261600E+03</totfact>
</mgrwt>
</event>
<event>
 9    1  0.7984035E-001  0.2774240E+03  0.7818608E-02  0.1097104E+00
         -2   -1    0    0    0  501 -0.00000000000E+00  0.00000000000E+00  0.53216579662E+02  0.53216579662E+02  0.00000000000E+00 0.  1.
          2   -1    0    0  501    0  0.00000000000E+00 -0.00000000000E+00 -0.36156070543E+03  0.36156070543E+03  0.00000000000E+00 0.  1.
         35    2    1    2    0    0  0.00000000000E+00 -0.14210854715E-13 -0.30834412577E+03  0.41477728509E+03  0.27742403705E+03 0.  0.
         25    2    3    3    0    0  0.14462409826E+02 -0.36730098878E+02 -0.22186707644E+03  0.25746218798E+03  0.12451312048E+03 0.  0.
         25    2    3    3    0    0 -0.14462409826E+02  0.36730098878E+02 -0.86477049328E+02  0.15731509711E+03  0.12534551550E+03 0.  0.
          5    1    4    4  502    0 -0.23671768311E+02 -0.12879781106E+02  0.35215663881E+01  0.27581385138E+02  0.47000000000E+01 0. -1.
         -5    1    4    4    0  502  0.38134178137E+02 -0.23850317772E+02 -0.22538864283E+03  0.22988080285E+03  0.47000000000E+01 0. -1.
          5    1    5    5  503    0 -0.24461749580E+02  0.72976568131E+02 -0.90858859652E+02  0.11916953917E+03  0.47000000000E+01 0. -1.
         -5    1    5    5    0  503  0.99993397542E+01 -0.36246469253E+02  0.43818103243E+01  0.38145557940E+02  0.47000000000E+01 0. -1.
<mgrwt>
<rscale>  0 0.27742404E+03</rscale>
<asrwt>0</asrwt>
<pdfrwt beam="1">  1        2 0.55624725E-01 0.27742404E+03</pdfrwt>
<pdfrwt beam="2">  1       -2 0.81871660E-02 0.27742404E+03</pdfrwt>
<totfact> 0.80787177E+03</totfact>
</mgrwt>
</event>
<event>
 9    1  0.7984035E-001  0.2736621E+03  0.7818608E-02  0.1099202E+00
          2   -1    0    0  501    0  0.00000000000E+00  0.00000000000E+00  0.33268152673E+02  0.33268152673E+02  0.00000000000E+00 0. -1.
         -2   -1    0    0    0  501 -0.00000000000E+00 -0.00000000000E+00 -0.56278253847E+03  0.56278253847E+03  0.00000000000E+00 0. -1.
         35    2    1    2    0    0  0.00000000000E+00  0.00000000000E+00 -0.52951438580E+03  0.59605069115E+03  0.27366209392E+03 0.  0.
         25    2    3    3    0    0  0.46611580714E+02 -0.22472808250E+01 -0.19487490849E+03  0.23547765264E+03  0.12367621116E+03 0.  0.
         25    2    3    3    0    0 -0.46611580714E+02  0.22472808250E+01 -0.33463947731E+03  0.36057303851E+03  0.12590332242E+03 0.  0.
          5    1    4    4  502    0  0.67432074725E+02 -0.40389273524E+02 -0.16412349946E+03  0.18203568659E+03  0.47000000000E+01 0. -1.
         -5    1    4    4    0  502 -0.20820494011E+02  0.38141992699E+02 -0.30751409028E+02  0.53441966048E+02  0.47000000000E+01 0. -1.
          5    1    5    5  503    0 -0.46495780662E+02 -0.28155180343E+02 -0.32316631124E+03  0.32773941863E+03  0.47000000000E+01 0.  1.
         -5    1    5    5    0  503 -0.11580005157E+00  0.30402461168E+02 -0.11473166066E+02  0.32833619878E+02  0.47000000000E+01 0.  1.
<mgrwt>
<rscale>  0 0.27366209E+03</rscale>
<asrwt>0</asrwt>
<pdfrwt beam="1">  1        2 0.51181776E-02 0.27366209E+03</pdfrwt>
<pdfrwt beam="2">  1       -2 0.86581924E-01 0.27366209E+03</pdfrwt>
<totfact> 0.18157813E+03</totfact>
</mgrwt>
</event>
<event>
 9    1  0.7984035E-001  0.2728096E+03  0.7818608E-02  0.1099682E+00
         -2   -1    0    0    0  501 -0.00000000000E+00  0.00000000000E+00  0.18030540336E+02  0.18030540336E+02  0.00000000000E+00 0.  1.
          2   -1    0    0  501    0  0.00000000000E+00 -0.00000000000E+00 -0.10319309683E+04  0.10319309683E+04  0.00000000000E+00 0.  1.
         35    2    1    2    0    0  0.14210854715E-13 -0.35527136788E-14 -0.10139004279E+04  0.10499615086E+04  0.27280962554E+03 0.  0.
         25    2    3    3    0    0 -0.46084100645E+02  0.25970525717E+02 -0.45743901998E+03  0.47720180615E+03  0.12519143043E+03 0.  0.
         25    2    3    3    0    0  0.46084100645E+02 -0.25970525717E+02 -0.55646140794E+03  0.57275970244E+03  0.12492463999E+03 0.  0.
          5    1    4    4  502    0 -0.19302056240E+02  0.52311896749E+01 -0.21782193114E+01  0.20658396837E+02  0.47000000000E+01 0. -1.
         -5    1    4    4    0  502 -0.26782044405E+02  0.20739336043E+02 -0.45526080067E+03  0.45654340931E+03  0.47000000000E+01 0. -1.
          5    1    5    5  503    0  0.73885111375E+02  0.24195295406E+02 -0.33630353954E+03  0.34520513135E+03  0.47000000000E+01 0. -1.
         -5    1    5    5    0  503 -0.27801010730E+02 -0.50165821124E+02 -0.22015786840E+03  0.22755457109E+03  0.47000000000E+01 0. -1.
<mgrwt>
<rscale>  0 0.27280963E+03</rscale>
<asrwt>0</asrwt>
<pdfrwt beam="1">  1        2 0.15875863E+00 0.27280963E+03</pdfrwt>
<pdfrwt beam="2">  1       -2 0.27739289E-02 0.27280963E+03</pdfrwt>
<totfact> 0.11917908E+04</totfact>
</mgrwt>
</event>
<event>
 9    1  0.7984035E-001  0.2744193E+03  0.7818608E-02  0.1098777E+00
         -2   -1    0    0    0  501 -0.00000000000E+00  0.00000000000E+00  0.96361036572E+01  0.96361036572E+01  0.00000000000E+00 0.  1.
          2   -1    0    0  501    0  0.00000000000E+00 -0.00000000000E+00 -0.19537454528E+04  0.19537454528E+04  0.00000000000E+00 0.  1.
         35    2    1    2    0    0 -0.35527136788E-14 -0.71054273576E-14 -0.19441093492E+04  0.19633815565E+04  0.27441934118E+03 0.  0.
         25    2    3    3    0    0  0.24194316006E+02 -0.52252941662E+02 -0.98780117779E+03  0.99732783294E+03  0.12488356445E+03 0.  0.
         25    2    3    3    0    0 -0.24194316006E+02  0.52252941662E+02 -0.95630817138E+03  0.96605372355E+03  0.12417223236E+03 0.  0.
          5    1    4    4  502    0  0.93269317760E+01 -0.90217913004E+01 -0.88038721781E+03  0.88049538764E+03  0.47000000000E+01 0.  1.
         -5    1    4    4    0  502  0.14867384231E+02 -0.43231150362E+02 -0.10741395998E+03  0.11683244530E+03  0.47000000000E+01 0.  1.
          5    1    5    5  503    0 -0.37664578950E+02 -0.21394781065E+02 -0.61772361256E+03  0.61925835374E+03  0.47000000000E+01 0. -1.
         -5    1    5    5    0  503  0.13470262943E+02  0.73647722727E+02 -0.33858455882E+03  0.34679536980E+03  0.47000000000E+01 0. -1.
<mgrwt>
<rscale>  0 0.27441934E+03</rscale>
<asrwt>0</asrwt>
<pdfrwt beam="1">  1        2 0.30057614E+00 0.27441934E+03</pdfrwt>
<pdfrwt beam="2">  1       -2 0.14824779E-02 0.27441934E+03</pdfrwt>
<totfact> 0.94310250E+03</totfact>
</mgrwt>
</event>
<event>
 9    1  0.7984035E-001  0.2675084E+03  0.7818608E-02  0.1102714E+00
          1   -1    0    0  501    0  0.00000000000E+00  0.00000000000E+00  0.67707605756E+02  0.67707605756E+02  0.00000000000E+00 0. -1.
         -1   -1    0    0    0  501 -0.00000000000E+00 -0.00000000000E+00 -0.26422706525E+03  0.26422706525E+03  0.00000000000E+00 0. -1.
         35    2    1    2    0    0 -0.71054273576E-14  0.17763568394E-14 -0.19651945949E+03  0.33193467100E+03  0.26750836969E+03 0.  0.
         25    2    3    3    0    0  0.22402815495E+02 -0.11599001262E+02 -0.12815832880E+03  0.18761743348E+03  0.13468229703E+03 0.  0.
         25    2    3    3    0    0 -0.22402815495E+02  0.11599001262E+02 -0.68361130692E+02  0.14431723752E+03  0.12457045349E+03 0.  0.
          5    1    4    4  502    0  0.56673550569E+02 -0.25000963905E+02 -0.89404275608E+01  0.62761140646E+02  0.47000000000E+01 0.  1.
         -5    1    4    4    0  502 -0.34270735073E+02  0.13401962643E+02 -0.11921790124E+03  0.12485629283E+03  0.47000000000E+01 0.  1.
          5    1    5    5  503    0 -0.32575178699E+02 -0.36932905315E+02  0.10945701998E+02  0.50666361173E+02  0.47000000000E+01 0. -1.
         -5    1    5    5    0  503  0.10172363204E+02  0.48531906578E+02 -0.79306832690E+02  0.93650876347E+02  0.47000000000E+01 0. -1.
<mgrwt>
<rscale>  0 0.26750837E+03</rscale>
<asrwt>0</asrwt>
<pdfrwt beam="1">  1        1 0.10416555E-01 0.26750837E+03</pdfrwt>
<pdfrwt beam="2">  1       -1 0.40650319E-01 0.26750837E+03</pdfrwt>
<totfact> 0.36199223E+03</totfact>
</mgrwt>
</event>
<event>
 9    1  0.7984035E-001  0.2914334E+03  0.7818608E-02  0.1089603E+00
         -1   -1    0    0    0  501 -0.00000000000E+00  0.00000000000E+00  0.17732576261E+03  0.17732576261E+03  0.00000000000E+00 0. -1.
          1   -1    0    0  501    0  0.00000000000E+00 -0.00000000000E+00 -0.11974210648E+03  0.11974210648E+03  0.00000000000E+00 0. -1.
         35    2    1    2    0    0  0.00000000000E+00  0.71054273576E-14  0.57583656129E+02  0.29706786909E+03  0.29143342531E+03 0.  0.
         25    2    3    3    0    0  0.72209763955E+02 -0.10583195270E+02  0.11932350071E+02  0.14552464131E+03  0.12533469678E+03 0.  0.
         25    2    3    3    0    0 -0.72209763955E+02  0.10583195270E+02  0.45651306058E+02  0.15154322778E+03  0.12471990261E+03 0.  0.
          5    1    4    4  502    0  0.96129931433E+02  0.25701803464E+02 -0.20219075593E+01  0.99637967305E+02  0.47000000000E+01 0. -1.
         -5    1    4    4    0  502 -0.23920167478E+02 -0.36284998734E+02  0.13954257630E+02  0.45886674006E+02  0.47000000000E+01 0. -1.
          5    1    5    5  503    0  0.15018870683E+02 -0.39074644553E+02  0.25361347086E+01  0.42200904052E+02  0.47000000000E+01 0. -1.
         -5    1    5    5    0  503 -0.87228634638E+02  0.49657839824E+02  0.43115171350E+02  0.10934232372E+03  0.47000000000E+01 0. -1.
<mgrwt>
<rscale>  0 0.29143343E+03</rscale>
<asrwt>0</asrwt>
<pdfrwt beam="1">  1        1 0.18421863E-01 0.29143343E+03</pdfrwt>
<pdfrwt beam="2">  1       -1 0.27280887E-01 0.29143343E+03</pdfrwt>
<totfact> 0.34065634E+03</totfact>
</mgrwt>
</event>
<event>
 9    1  0.7984035E-001  0.2729716E+03  0.7818608E-02  0.1099591E+00
         -4   -1    0    0    0  501 -0.00000000000E+00  0.00000000000E+00  0.30589654635E+03  0.30589654635E+03  0.00000000000E+00 0. -1.
          4   -1    0    0  501    0  0.00000000000E+00 -0.00000000000E+00 -0.60897629532E+02  0.60897629532E+02  0.00000000000E+00 0. -1.
         35    2    1    2    0    0  0.00000000000E+00  0.00000000000E+00  0.24499891681E+03  0.36679417588E+03  0.27297160698E+03 0.  0.
         25    2    3    3    0    0  0.10996677343E+02 -0.41573973985E+02  0.75249009606E+02  0.15133024972E+03  0.12405284684E+03 0.  0.
         25    2    3    3    0    0 -0.10996677343E+02  0.41573973985E+02  0.16974990721E+03  0.21546392616E+03  0.12554023360E+03 0.  0.
          5    1    4    4  502    0  0.18403469034E+02  0.32572042134E+02 -0.89931390232E+01  0.38763283539E+02  0.47000000000E+01 0. -1.
         -5    1    4    4    0  502 -0.74067916908E+01 -0.74146016119E+02  0.84242148629E+02  0.11256696618E+03  0.47000000000E+01 0. -1.
          5    1    5    5  503    0  0.52269518243E+02  0.45047713826E+02  0.87738140001E+02  0.11172050067E+03  0.47000000000E+01 0.  1.
         -5    1    5    5    0  503 -0.63266195586E+02 -0.34737398408E+01  0.82011767207E+02  0.10374342549E+03  0.47000000000E+01 0.  1.
<mgrwt>
<rscale>  0 0.27297161E+03</rscale>
<asrwt>0</asrwt>
<pdfrwt beam="1">  1        4 0.93688663E-02 0.27297161E+03</pdfrwt>
<pdfrwt beam="2">  1       -4 0.47061006E-01 0.27297161E+03</pdfrwt>
<totfact> 0.69649675E+02</totfact>
</mgrwt>
</event>
<event>
 9    1  0.7984035E-001  0.2779756E+03  0.7818608E-02  0.1096800E+00
         -2   -1    0    0    0  501 -0.00000000000E+00  0.00000000000E+00  0.92123377010E+01  0.92123377010E+01  0.00000000000E+00 0.  1.
          2   -1    0    0  501    0  0.00000000000E+00 -0.00000000000E+00 -0.20969284298E+04  0.20969284298E+04  0.00000000000E+00 0.  1.
         35    2    1    2    0    0  0.71054273576E-14  0.00000000000E+00 -0.20877160921E+04  0.21061407675E+04  0.27797563080E+03 0.  0.
         25    2    3    3    0    0 -0.15355756249E+02  0.49631556117E+02 -0.12641988800E+04  0.12714700780E+04  0.12545222378E+03 0.  0.
         25    2    3    3    0    0  0.15355756249E+02 -0.49631556117E+02 -0.82351721208E+03  0.83467068948E+03  0.12568003290E+03 0.  0.
          5    1    4    4  502    0 -0.58562279349E+02  0.18306470676E+02 -0.32690837977E+03  0.33264973500E+03  0.47000000000E+01 0. -1.
         -5    1    4    4    0  502  0.43206523100E+02  0.31325085442E+02 -0.93729050021E+03  0.93882034298E+03  0.47000000000E+01 0. -1.
          5    1    5    5  503    0 -0.55387865309E+02 -0.22466248876E+02 -0.34649613869E+03  0.35164500862E+03  0.47000000000E+01 0. -1.
         -5    1    5    5    0  503  0.70743621559E+02 -0.27165307241E+02 -0.47702107339E+03  0.48302568085E+03  0.47000000000E+01 0. -1.
<mgrwt>
<rscale>  0 0.27797563E+03</rscale>
<asrwt>0</asrwt>
<pdfrwt beam="1">  1        2 0.32260468E+00 0.27797563E+03</pdfrwt>
<pdfrwt beam="2">  1       -2 0.14172814E-02 0.27797563E+03</pdfrwt>
<totfact> 0.84670224E+03</totfact>
</mgrwt>
</event>
<event>
 9    1  0.7984035E-001  0.2718082E+03  0.7818608E-02  0.1100249E+00
         -1   -1    0    0    0  501 -0.00000000000E+00  0.00000000000E+00  0.48028698829E+02  0.48028698829E+02  0.00000000000E+00 0. -1.
          1   -1    0    0  501    0  0.00000000000E+00 -0.00000000000E+00 -0.38456003282E+03  0.38456003282E+03  0.00000000000E+00 0. -1.
         35    2    1    2    0    0  0.00000000000E+00  0.00000000000E+00 -0.33653133399E+03  0.43258873164E+03  0.27180815292E+03 0.  0.
         25    2    3    3    0    0 -0.57401132480E+01 -0.20820824090E+02 -0.94813012693E+02  0.15963638381E+03  0.12660099544E+03 0.  0.
         25    2    3    3    0    0  0.57401132480E+01  0.20820824090E+02 -0.24171832129E+03  0.27295234783E+03  0.12493511004E+03 0.  0.
          5    1    4    4  502    0  0.55339688695E+02  0.13607445858E+02 -0.32838183771E+02  0.65939973013E+02  0.47000000000E+01 0. -1.
         -5    1    4    4    0  502 -0.61079801943E+02 -0.34428269948E+02 -0.61974828923E+02  0.93696410801E+02  0.47000000000E+01 0. -1.
          5    1    5    5  503    0  0.39784439582E+02 -0.20329462484E+02 -0.28742962248E+02  0.53332321874E+02  0.47000000000E+01 0.  1.
         -5    1    5    5    0  503 -0.34044326334E+02  0.41150286574E+02 -0.21297535904E+03  0.21962002596E+03  0.47000000000E+01 0.  1.
<mgrwt>
<rscale>  0 0.27180815E+03</rscale>
<asrwt>0</asrwt>
<pdfrwt beam="1">  1        1 0.59163084E-01 0.27180815E+03</pdfrwt>
<pdfrwt beam="2">  1       -1 0.73890304E-02 0.27180815E+03</pdfrwt>
<totfact> 0.61608858E+03</totfact>
</mgrwt>
</event>
<event>
 9    1  0.7984035E-001  0.2753055E+03  0.7818608E-02  0.1098281E+00
          1   -1    0    0  501    0  0.00000000000E+00  0.00000000000E+00  0.12381614890E+02  0.12381614890E+02  0.00000000000E+00 0.  1.
         -1   -1    0    0    0  501 -0.00000000000E+00 -0.00000000000E+00 -0.15303559532E+04  0.15303559532E+04  0.00000000000E+00 0.  1.
         35    2    1    2    0    0  0.00000000000E+00  0.00000000000E+00 -0.15179743384E+04  0.15427375681E+04  0.27530548893E+03 0.  0.
         25    2    3    3    0    0 -0.44015840902E+02 -0.32851543083E+02 -0.66176764014E+03  0.67571711951E+03  0.12506237617E+03 0.  0.
         25    2    3    3    0    0  0.44015840902E+02  0.32851543083E+02 -0.85620669822E+03  0.86702044863E+03  0.12497171732E+03 0.  0.
          5    1    4    4  502    0 -0.67354352553E+02  0.17598018440E+02 -0.49435904304E+03  0.49925870298E+03  0.47000000000E+01 0. -1.
         -5    1    4    4    0  502  0.23338511652E+02 -0.50449561524E+02 -0.16740859710E+03  0.17645841653E+03  0.47000000000E+01 0. -1.
          5    1    5    5  503    0 -0.10952660896E+02 -0.41875172473E+02 -0.28767758995E+03  0.29095356435E+03  0.47000000000E+01 0. -1.
         -5    1    5    5    0  503  0.54968501797E+02  0.74726715557E+02 -0.56852910827E+03  0.57606688428E+03  0.47000000000E+01 0. -1.
<mgrwt>
<rscale>  0 0.27530549E+03</rscale>
<asrwt>0</asrwt>
<pdfrwt beam="1">  1        1 0.19048641E-02 0.27530549E+03</pdfrwt>
<pdfrwt beam="2">  1       -1 0.23543935E+00 0.27530549E+03</pdfrwt>
<totfact> 0.63607568E+02</totfact>
</mgrwt>
</event>
<event>
 9    1  0.7984035E-001  0.2737751E+03  0.7818608E-02  0.1099138E+00
          2   -1    0    0  501    0  0.00000000000E+00  0.00000000000E+00  0.22140628528E+04  0.22140628528E+04  0.00000000000E+00 0.  1.
         -2   -1    0    0    0  501 -0.00000000000E+00 -0.00000000000E+00 -0.84632628788E+01  0.84632628788E+01  0.00000000000E+00 0.  1.
         35    2    1    2    0    0  0.00000000000E+00  0.00000000000E+00  0.22055995899E+04  0.22225261157E+04  0.27377506061E+03 0.  0.
         25    2    3    3    0    0 -0.32123336302E+02  0.44457444437E+02  0.10211041144E+04  0.10301518527E+04  0.12470306367E+03 0.  0.
         25    2    3    3    0    0  0.32123336302E+02 -0.44457444437E+02  0.11844954755E+04  0.11923742630E+04  0.12537335590E+03 0.  0.
          5    1    4    4  502    0 -0.10285221273E+02 -0.54765911197E+01  0.85851703927E+03  0.85860897710E+03  0.47000000000E+01 0. -1.
         -5    1    4    4    0  502 -0.21838115029E+02  0.49934035557E+02  0.16258707517E+03  0.17154287565E+03  0.47000000000E+01 0. -1.
          5    1    5    5  503    0 -0.16507050309E+02 -0.49566957742E+02  0.10023303869E+04  0.10037019780E+04  0.47000000000E+01 0.  1.
         -5    1    5    5    0  503  0.48630386610E+02  0.51095133057E+01  0.18216508858E+03  0.18867228499E+03  0.47000000000E+01 0.  1.
<mgrwt>
<rscale>  0 0.27377506E+03</rscale>
<asrwt>0</asrwt>
<pdfrwt beam="1">  1        2 0.34062459E+00 0.27377506E+03</pdfrwt>
<pdfrwt beam="2">  1       -2 0.13020422E-02 0.27377506E+03</pdfrwt>
<totfact> 0.83052912E+03</totfact>
</mgrwt>
</event>
<event>
 9    1  0.7984035E-001  0.2759506E+03  0.7818608E-02  0.1097921E+00
          2   -1    0    0  501    0  0.00000000000E+00  0.00000000000E+00  0.81468481374E+03  0.81468481374E+03  0.00000000000E+00 0.  1.
         -2   -1    0    0    0  501 -0.00000000000E+00 -0.00000000000E+00 -0.23367536798E+02  0.23367536798E+02  0.00000000000E+00 0.  1.
         35    2    1    2    0    0  0.00000000000E+00  0.00000000000E+00  0.79131727694E+03  0.83805235054E+03  0.27595055618E+03 0.  0.
         25    2    3    3    0    0 -0.23214476797E+02 -0.16458316667E+02  0.54876888156E+03  0.56356141021E+03  0.12507753432E+03 0.  0.
         25    2    3    3    0    0  0.23214476797E+02  0.16458316667E+02  0.24254839539E+03  0.27449094033E+03  0.12532264001E+03 0.  0.
          5    1    4    4  502    0 -0.58996337664E+02  0.26330891973E+02  0.38694949849E+03  0.39233389875E+03  0.47000000000E+01 0.  1.
         -5    1    4    4    0  502  0.35781860868E+02 -0.42789208640E+02  0.16181938307E+03  0.17122751146E+03  0.47000000000E+01 0.  1.
          5    1    5    5  503    0 -0.39242845476E+02  0.44323248769E+02  0.12559415223E+03  0.13892635595E+03  0.47000000000E+01 0. -1.
         -5    1    5    5    0  503  0.62457322273E+02 -0.27864932103E+02  0.11695424316E+03  0.13556458438E+03  0.47000000000E+01 0. -1.
<mgrwt>
<rscale>  0 0.27595056E+03</rscale>
<asrwt>0</asrwt>
<pdfrwt beam="1">  1        2 0.12533610E+00 0.27595056E+03</pdfrwt>
<pdfrwt beam="2">  1       -2 0.35950063E-02 0.27595056E+03</pdfrwt>
<totfact> 0.11152739E+04</totfact>
</mgrwt>
</event>
<event>
 9    1  0.7984035E-001  0.2738101E+03  0.7818608E-02  0.1099119E+00
          2   -1    0    0  501    0  0.00000000000E+00  0.00000000000E+00  0.15793842091E+04  0.15793842091E+04  0.00000000000E+00 0.  1.
         -2   -1    0    0    0  501 -0.00000000000E+00 -0.00000000000E+00 -0.11867279336E+02  0.11867279336E+02  0.00000000000E+00 0.  1.
         35    2    1    2    0    0  0.00000000000E+00  0.00000000000E+00  0.15675169297E+04  0.15912514884E+04  0.27381010637E+03 0.  0.
         25    2    3    3    0    0  0.17431479210E+02 -0.18084009175E+02  0.44013148769E+03  0.45657615174E+03  0.11880727264E+03 0.  0.
         25    2    3    3    0    0 -0.17431479210E+02  0.18084009175E+02  0.11273854421E+04  0.11346753367E+04  0.12593370016E+03 0.  0.
          5    1    4    4  502    0  0.60916464710E+02 -0.26877493475E+02  0.16734658455E+03  0.18016710213E+03  0.47000000000E+01 0.  1.
         -5    1    4    4    0  502 -0.43484985500E+02  0.87934842994E+01  0.27278490313E+03  0.27640904961E+03  0.47000000000E+01 0.  1.
          5    1    5    5  503    0  0.46785995516E+02  0.15411975575E+02  0.76541593778E+03  0.76701375879E+03  0.47000000000E+01 0.  1.
         -5    1    5    5    0  503 -0.64217474726E+02  0.26720336005E+01  0.36196950428E+03  0.36766157788E+03  0.47000000000E+01 0.  1.
<mgrwt>
<rscale>  0 0.27381011E+03</rscale>
<asrwt>0</asrwt>
<pdfrwt beam="1">  1        2 0.24298202E+00 0.27381011E+03</pdfrwt>
<pdfrwt beam="2">  1       -2 0.18257365E-02 0.27381011E+03</pdfrwt>
<totfact> 0.10940270E+04</totfact>
</mgrwt>
</event>
<event>
 9    1  0.7984035E-001  0.2754496E+03  0.7818608E-02  0.1098201E+00
         -2   -1    0    0    0  501 -0.00000000000E+00  0.00000000000E+00  0.19348645449E+02  0.19348645449E+02  0.00000000000E+00 0. -1.
          2   -1    0    0  501    0  0.00000000000E+00 -0.00000000000E+00 -0.98033331009E+03  0.98033331009E+03  0.00000000000E+00 0. -1.
         35    2    1    2    0    0  0.00000000000E+00  0.71054273576E-14 -0.96098466464E+03  0.99968195554E+03  0.27544960802E+03 0.  0.
         25    2    3    3    0    0 -0.23417067962E+02 -0.22030889533E+02 -0.63391530836E+03  0.64650300868E+03  0.12281613451E+03 0.  0.
         25    2    3    3    0    0  0.23417067962E+02  0.22030889533E+02 -0.32706935629E+03  0.35317894686E+03  0.12933400759E+03 0.  0.
          5    1    4    4  502    0  0.20796535780E+02 -0.36870173216E+01 -0.54485599568E+03  0.54528546288E+03  0.47000000000E+01 0. -1.
         -5    1    4    4    0  502 -0.44213603741E+02 -0.18343872212E+02 -0.89059312676E+02  0.10121754580E+03  0.47000000000E+01 0. -1.
          5    1    5    5  503    0  0.36337936895E+02 -0.43713805152E+02 -0.88123274265E+02  0.10497211004E+03  0.47000000000E+01 0. -1.
         -5    1    5    5    0  503 -0.12920868933E+02  0.65744694685E+02 -0.23894608202E+03  0.24820683683E+03  0.47000000000E+01 0. -1.
<mgrwt>
<rscale>  0 0.27544961E+03</rscale>
<asrwt>0</asrwt>
<pdfrwt beam="1">  1        2 0.15082050E+00 0.27544961E+03</pdfrwt>
<pdfrwt beam="2">  1       -2 0.29767149E-02 0.27544961E+03</pdfrwt>
<totfact> 0.11542927E+04</totfact>
</mgrwt>
</event>
<event>
 9    1  0.7984035E-001  0.2760699E+03  0.7818608E-02  0.1097855E+00
          1   -1    0    0  501    0  0.00000000000E+00  0.00000000000E+00  0.45847221454E+03  0.45847221454E+03  0.00000000000E+00 0.  1.
         -1   -1    0    0    0  501 -0.00000000000E+00 -0.00000000000E+00 -0.41559016018E+02  0.41559016018E+02  0.00000000000E+00 0.  1.
         35    2    1    2    0    0  0.17763568394E-14  0.00000000000E+00  0.41691319852E+03  0.50003123055E+03  0.27606994844E+03 0.  0.
         25    2    3    3    0    0 -0.62045976276E+01  0.93759380533E+01  0.31260287940E+03  0.33694264667E+03  0.12523330904E+03 0.  0.
         25    2    3    3    0    0  0.62045976276E+01 -0.93759380533E+01  0.10431031912E+03  0.16308858388E+03  0.12486327831E+03 0.  0.
          5    1    4    4  502    0  0.79413908828E+01 -0.45814680591E+02  0.51035874622E+02  0.69201164335E+02  0.47000000000E+01 0.  1.
         -5    1    4    4    0  502 -0.14145988510E+02  0.55190618645E+02  0.26156700478E+03  0.26774148234E+03  0.47000000000E+01 0.  1.
          5    1    5    5  503    0 -0.16076343991E+02  0.33004507164E+02 -0.10611642551E+02  0.38502510138E+02  0.47000000000E+01 0.  1.
         -5    1    5    5    0  503  0.22280941619E+02 -0.42380445217E+02  0.11492196167E+03  0.12458607374E+03  0.47000000000E+01 0.  1.
<mgrwt>
<rscale>  0 0.27606995E+03</rscale>
<asrwt>0</asrwt>
<pdfrwt beam="1">  1        1 0.70534183E-01 0.27606995E+03</pdfrwt>
<pdfrwt beam="2">  1       -1 0.63936951E-02 0.27606995E+03</pdfrwt>
<totfact> 0.61178846E+03</totfact>
</mgrwt>
</event>
<event>
 9    1  0.7984035E-001  0.2718745E+03  0.7818608E-02  0.1100212E+00
         -2   -1    0    0    0  501 -0.00000000000E+00  0.00000000000E+00  0.21383919101E+02  0.21383919101E+02  0.00000000000E+00 0. -1.
          2   -1    0    0  501    0  0.00000000000E+00 -0.00000000000E+00 -0.86415100913E+03  0.86415100913E+03  0.00000000000E+00 0. -1.
         35    2    1    2    0    0 -0.35527136788E-14  0.00000000000E+00 -0.84276709003E+03  0.88553492823E+03  0.27187449509E+03 0.  0.
         25    2    3    3    0    0  0.18533981305E+02 -0.38598371673E+02 -0.34908311031E+03  0.37458142519E+03  0.12891424837E+03 0.  0.
         25    2    3    3    0    0 -0.18533981305E+02  0.38598371673E+02 -0.49368397972E+03  0.51095350304E+03  0.12456431144E+03 0.  0.
          5    1    4    4  502    0  0.53869729221E+01  0.46690611385E+02 -0.15699289043E+03  0.16394477824E+03  0.47000000000E+01 0.  1.
         -5    1    4    4    0  502  0.13147008383E+02 -0.85288983058E+02 -0.19209021989E+03  0.21063664695E+03  0.47000000000E+01 0.  1.
          5    1    5    5  503    0  0.51583944689E+02  0.17517093642E+02 -0.15351747493E+03  0.16296458826E+03  0.47000000000E+01 0.  1.
         -5    1    5    5    0  503 -0.70117925995E+02  0.21081278031E+02 -0.34016650479E+03  0.34798891478E+03  0.47000000000E+01 0.  1.
<mgrwt>
<rscale>  0 0.27187450E+03</rscale>
<asrwt>0</asrwt>
<pdfrwt beam="1">  1        2 0.13294630E+00 0.27187450E+03</pdfrwt>
<pdfrwt beam="2">  1       -2 0.32898340E-02 0.27187450E+03</pdfrwt>
<totfact> 0.11790690E+04</totfact>
</mgrwt>
</event>
<event>
 9    1  0.7984035E-001  0.2751724E+03  0.7818608E-02  0.1098355E+00
         -2   -1    0    0    0  501 -0.00000000000E+00  0.00000000000E+00  0.44501830268E+02  0.44501830268E+02  0.00000000000E+00 0.  1.
          2   -1    0    0  501    0  0.00000000000E+00 -0.00000000000E+00 -0.42537499804E+03  0.42537499804E+03  0.00000000000E+00 0.  1.
         35    2    1    2    0    0 -0.17763568394E-14  0.00000000000E+00 -0.38087316777E+03  0.46987682831E+03  0.27517242568E+03 0.  0.
         25    2    3    3    0    0  0.31511822907E+01 -0.47165056339E+02 -0.24926043472E+03  0.28162192903E+03  0.12225250143E+03 0.  0.
         25    2    3    3    0    0 -0.31511822907E+01  0.47165056339E+02 -0.13161273306E+03  0.18825489928E+03  0.12602985008E+03 0.  0.
          5    1    4    4  502    0  0.55647074166E+02  0.34411022572E+01 -0.13322927049E+03  0.14450109537E+03  0.47000000000E+01 0. -1.
         -5    1    4    4    0  502 -0.52495891875E+02 -0.50606158596E+02 -0.11603116423E+03  0.13712083366E+03  0.47000000000E+01 0. -1.
          5    1    5    5  503    0 -0.46735428564E+01  0.90323838767E+02 -0.97030374503E+02  0.13272988145E+03  0.47000000000E+01 0. -1.
         -5    1    5    5    0  503  0.15223605657E+01 -0.43158782428E+02 -0.34582358554E+02  0.55525017835E+02  0.47000000000E+01 0. -1.
<mgrwt>
<rscale>  0 0.27517243E+03</rscale>
<asrwt>0</asrwt>
<pdfrwt beam="1">  1        2 0.65442308E-01 0.27517243E+03</pdfrwt>
<pdfrwt beam="2">  1       -2 0.68464354E-02 0.27517243E+03</pdfrwt>
<totfact> 0.89404339E+03</totfact>
</mgrwt>
</event>
<event>
 9    1  0.7984035E-001  0.2714189E+03  0.7818608E-02  0.1100470E+00
          2   -1    0    0  501    0  0.00000000000E+00  0.00000000000E+00  0.47262901907E+03  0.47262901907E+03  0.00000000000E+00 0. -1.
         -2   -1    0    0    0  501 -0.00000000000E+00 -0.00000000000E+00 -0.38967262383E+02  0.38967262383E+02  0.00000000000E+00 0. -1.
         35    2    1    2    0    0  0.35527136788E-14  0.00000000000E+00  0.43366175669E+03  0.51159628145E+03  0.27141893077E+03 0.  0.
         25    2    3    3    0    0 -0.74090246606E+00  0.30464181494E+02  0.29844370566E+03  0.32491701628E+03  0.12479505890E+03 0.  0.
         25    2    3    3    0    0  0.74090246606E+00 -0.30464181494E+02  0.13521805102E+03  0.18667926517E+03  0.12504643710E+03 0.  0.
          5    1    4    4  502    0 -0.11510415953E+02  0.15246196808E+02 -0.54514063248E+01  0.20414309281E+02  0.47000000000E+01 0.  1.
         -5    1    4    4    0  502  0.10769513487E+02  0.15217984686E+02  0.30389511199E+03  0.30450270700E+03  0.47000000000E+01 0.  1.
          5    1    5    5  503    0 -0.54623633735E+02  0.13514440082E+02  0.73661036599E+02  0.92813898561E+02  0.47000000000E+01 0.  1.
         -5    1    5    5    0  503  0.55364536201E+02 -0.43978621576E+02  0.61557014425E+02  0.93865366613E+02  0.47000000000E+01 0.  1.
<mgrwt>
<rscale>  0 0.27141893E+03</rscale>
<asrwt>0</asrwt>
<pdfrwt beam="1">  1        2 0.72712153E-01 0.27141893E+03</pdfrwt>
<pdfrwt beam="2">  1       -2 0.59949638E-02 0.27141893E+03</pdfrwt>
<totfact> 0.97634234E+03</totfact>
</mgrwt>
</event>
<event>
 9    1  0.7984035E-001  0.2741426E+03  0.7818608E-02  0.1098932E+00
         -1   -1    0    0    0  501 -0.00000000000E+00  0.00000000000E+00  0.14649818383E+03  0.14649818383E+03  0.00000000000E+00 0. -1.
          1   -1    0    0  501    0  0.00000000000E+00 -0.00000000000E+00 -0.12825104504E+03  0.12825104504E+03  0.00000000000E+00 0. -1.
         35    2    1    2    0    0  0.35527136788E-14  0.14210854715E-13  0.18247138789E+02  0.27474922888E+03  0.27414262838E+03 0.  0.
         25    2    3    3    0    0 -0.58617335394E+01  0.53107302211E+02  0.29543298378E+02  0.13859649745E+03  0.12442442348E+03 0.  0.
         25    2    3    3    0    0  0.58617335394E+01 -0.53107302211E+02 -0.11296159589E+02  0.13615273142E+03  0.12472055799E+03 0.  0.
          5    1    4    4  502    0  0.18519372359E+02 -0.35683049255E+02  0.22057382041E+02  0.46096260794E+02  0.47000000000E+01 0. -1.
         -5    1    4    4    0  502 -0.24381105898E+02  0.88790351465E+02  0.74859163366E+01  0.92500236657E+02  0.47000000000E+01 0. -1.
          5    1    5    5  503    0 -0.51217287717E+02 -0.44803012780E+02  0.19033018781E+02  0.70815720848E+02  0.47000000000E+01 0. -1.
         -5    1    5    5    0  503  0.57079021257E+02 -0.83042894309E+01 -0.30329178370E+02  0.65337010577E+02  0.47000000000E+01 0. -1.
<mgrwt>
<rscale>  0 0.27414263E+03</rscale>
<asrwt>0</asrwt>
<pdfrwt beam="1">  1        1 0.19730930E-01 0.27414263E+03</pdfrwt>
<pdfrwt beam="2">  1       -1 0.22538182E-01 0.27414263E+03</pdfrwt>
<totfact> 0.42755433E+03</totfact>
</mgrwt>
</event>
<event>
 9    1  0.7984035E-001  0.2760791E+03  0.7818608E-02  0.1097850E+00
          2   -1    0    0  501    0  0.00000000000E+00  0.00000000000E+00  0.17782662922E+04  0.17782662922E+04  0.00000000000E+00 0. -1.
         -2   -1    0    0    0  501 -0.00000000000E+00 -0.00000000000E+00 -0.10715444432E+02  0.10715444432E+02  0.00000000000E+00 0. -1.
         35    2    1    2    0    0  0.71054273576E-14  0.00000000000E+00  0.17675508478E+04  0.17889817366E+04  0.27607907302E+03 0.  0.
         25    2    3    3    0    0 -0.44895664436E+02  0.28654409914E+02  0.75616519551E+03  0.76829781149E+03  0.12513603936E+03 0.  0.
         25    2    3    3    0    0  0.44895664436E+02 -0.28654409914E+02  0.10113856523E+04  0.10206839251E+04  0.12672032812E+03 0.  0.
          5    1    4    4  502    0 -0.64202464153E+01  0.28381573128E+02  0.33611831846E+02  0.44705463842E+02  0.47000000000E+01 0. -1.
         -5    1    4    4    0  502 -0.38475418020E+02  0.27283678543E+00  0.72255336366E+03  0.72359234764E+03  0.47000000000E+01 0. -1.
          5    1    5    5  503    0  0.58917218130E+02 -0.15512312037E+02  0.98868683580E+03  0.99057337927E+03  0.47000000000E+01 0. -1.
         -5    1    5    5    0  503 -0.14021553694E+02 -0.13142097877E+02  0.22698816452E+02  0.30110545876E+02  0.47000000000E+01 0. -1.
<mgrwt>
<rscale>  0 0.27607907E+03</rscale>
<asrwt>0</asrwt>
<pdfrwt beam="1">  1        2 0.27357920E+00 0.27607907E+03</pdfrwt>
<pdfrwt beam="2">  1       -2 0.16485313E-02 0.27607907E+03</pdfrwt>
<totfact> 0.99820605E+03</totfact>
</mgrwt>
</event>
<event>
 9    1  0.7984035E-001  0.2759017E+03  0.7818608E-02  0.1097949E+00
         -2   -1    0    0    0  501 -0.00000000000E+00  0.00000000000E+00  0.54192780772E+03  0.54192780772E+03  0.00000000000E+00 0.  1.
          2   -1    0    0  501    0  0.00000000000E+00 -0.00000000000E+00 -0.35116180487E+02  0.35116180487E+02  0.00000000000E+00 0.  1.
         35    2    1    2    0    0  0.00000000000E+00 -0.35527136788E-14  0.50681162723E+03  0.57704398820E+03  0.27590168326E+03 0.  0.
         25    2    3    3    0    0  0.48915918966E+02  0.31064212675E+02  0.21821588841E+03  0.25731592267E+03  0.12343240122E+03 0.  0.
         25    2    3    3    0    0 -0.48915918966E+02 -0.31064212675E+02  0.28859573882E+03  0.31972806553E+03  0.12482300663E+03 0.  0.
          5    1    4    4  502    0  0.67197291599E+02  0.66373632999E+02  0.17102009224E+03  0.19542491424E+03  0.47000000000E+01 0.  1.
         -5    1    4    4    0  502 -0.18281372633E+02 -0.35309420324E+02  0.47195796166E+02  0.61891008432E+02  0.47000000000E+01 0.  1.
          5    1    5    5  503    0 -0.71989742283E+02 -0.14746605920E+02  0.78280396397E+02  0.10747044170E+03  0.47000000000E+01 0.  1.
         -5    1    5    5    0  503  0.23073823317E+02 -0.16317606755E+02  0.21031534243E+03  0.21225762383E+03  0.47000000000E+01 0.  1.
<mgrwt>
<rscale>  0 0.27590168E+03</rscale>
<asrwt>0</asrwt>
<pdfrwt beam="1">  1        2 0.54024897E-02 0.27590168E+03</pdfrwt>
<pdfrwt beam="2">  1       -2 0.83373503E-01 0.27590168E+03</pdfrwt>
<totfact> 0.18401868E+03</totfact>
</mgrwt>
</event>
<event>
 9    1  0.7984035E-001  0.2786953E+03  0.7818608E-02  0.1096404E+00
          1   -1    0    0  501    0  0.00000000000E+00  0.00000000000E+00  0.17991372096E+04  0.17991372096E+04  0.00000000000E+00 0.  1.
         -1   -1    0    0    0  501 -0.00000000000E+00 -0.00000000000E+00 -0.10792822325E+02  0.10792822325E+02  0.00000000000E+00 0.  1.
         35    2    1    2    0    0 -0.35527136788E-14  0.00000000000E+00  0.17883443873E+04  0.18099300319E+04  0.27869530489E+03 0.  0.
         25    2    3    3    0    0 -0.24165209789E+01  0.71397845309E+02  0.97072729122E+03  0.98091573852E+03  0.12157598550E+03 0.  0.
         25    2    3    3    0    0  0.24165209789E+01 -0.71397845309E+02  0.81761709605E+03  0.82901429341E+03  0.11689093650E+03 0.  0.
          5    1    4    4  502    0 -0.20438991275E+02  0.10136295516E+03  0.79236761596E+03  0.79909994986E+03  0.47000000000E+01 0.  1.
         -5    1    4    4    0  502  0.18022470296E+02 -0.29965109852E+02  0.17835967527E+03  0.18181578866E+03  0.47000000000E+01 0.  1.
          5    1    5    5  503    0 -0.44356253527E+02 -0.75321039563E+02  0.45524089924E+03  0.46358074007E+03  0.47000000000E+01 0. -1.
         -5    1    5    5    0  503  0.46772774506E+02  0.39231942543E+01  0.36237619681E+03  0.36543355334E+03  0.47000000000E+01 0. -1.
<mgrwt>
<rscale>  0 0.27869530E+03</rscale>
<asrwt>0</asrwt>
<pdfrwt beam="1">  1        1 0.27679010E+00 0.27869530E+03</pdfrwt>
<pdfrwt beam="2">  1       -1 0.16604356E-02 0.27869530E+03</pdfrwt>
<totfact> 0.41006931E+03</totfact>
</mgrwt>
</event>
<event>
 9    1  0.7984035E-001  0.2775909E+03  0.7818608E-02  0.1097012E+00
          1   -1    0    0  501    0  0.00000000000E+00  0.00000000000E+00  0.20902415358E+03  0.20902415358E+03  0.00000000000E+00 0. -1.
         -1   -1    0    0    0  501 -0.00000000000E+00 -0.00000000000E+00 -0.92162470445E+02  0.92162470445E+02  0.00000000000E+00 0. -1.
         35    2    1    2    0    0  0.35527136788E-14  0.35527136788E-14  0.11686168314E+03  0.30118662403E+03  0.27759093917E+03 0.  0.
         25    2    3    3    0    0 -0.31402070439E+02 -0.31134316484E+01  0.10897638272E+03  0.16901269856E+03  0.12527432618E+03 0.  0.
         25    2    3    3    0    0  0.31402070439E+02  0.31134316484E+01  0.78853004131E+01  0.13217392546E+03  0.12810927025E+03 0.  0.
          5    1    4    4  502    0  0.14048799280E+02 -0.19975691154E+02  0.11703243223E+03  0.11964563173E+03  0.47000000000E+01 0.  1.
         -5    1    4    4    0  502 -0.45450869719E+02  0.16862259506E+02 -0.80560495090E+01  0.49367066832E+02  0.47000000000E+01 0.  1.
          5    1    5    5  503    0  0.57524665919E+02  0.38692507924E+02  0.37358000069E+02  0.78891745625E+02  0.47000000000E+01 0.  1.
         -5    1    5    5    0  503 -0.26122595480E+02 -0.35579076276E+02 -0.29472699656E+02  0.53282179838E+02  0.47000000000E+01 0.  1.
<mgrwt>
<rscale>  0 0.27759094E+03</rscale>
<asrwt>0</asrwt>
<pdfrwt beam="1">  1        1 0.32157562E-01 0.27759094E+03</pdfrwt>
<pdfrwt beam="2">  1       -1 0.14178842E-01 0.27759094E+03</pdfrwt>
<totfact> 0.48448808E+03</totfact>
</mgrwt>
</event>
<event>
 9    1  0.7984035E-001  0.2741682E+03  0.7818608E-02  0.1098917E+00
         -1   -1    0    0    0  501 -0.00000000000E+00  0.00000000000E+00  0.39155105653E+02  0.39155105653E+02  0.00000000000E+00 0. -1.
          1   -1    0    0  501    0  0.00000000000E+00 -0.00000000000E+00 -0.47993870859E+03  0.47993870859E+03  0.00000000000E+00 0. -1.
         35    2    1    2    0    0 -0.71054273576E-14  0.71054273576E-14 -0.44078360293E+03  0.51909381424E+03  0.27416820269E+03 0.  0.
         25    2    3    3    0    0 -0.33483748967E+02  0.35125983665E+02 -0.16552157354E+03  0.21319207450E+03  0.12529354792E+03 0.  0.
         25    2    3    3    0    0  0.33483748967E+02 -0.35125983665E+02 -0.27526202939E+03  0.30590173973E+03  0.12430484051E+03 0.  0.
          5    1    4    4  502    0 -0.22052609753E+02  0.34035478619E+02 -0.18535459844E+03  0.18979765163E+03  0.47000000000E+01 0. -1.
         -5    1    4    4    0  502 -0.11431139214E+02  0.10905050456E+01  0.19833024898E+02  0.23394422873E+02  0.47000000000E+01 0. -1.
          5    1    5    5  503    0  0.63146669106E+02  0.33224842739E+01 -0.23261302100E+03  0.24110049410E+03  0.47000000000E+01 0. -1.
         -5    1    5    5    0  503 -0.29662920139E+02 -0.38448467939E+02 -0.42649008396E+02  0.64801245630E+02  0.47000000000E+01 0. -1.
<mgrwt>
<rscale>  0 0.27416820E+03</rscale>
<asrwt>0</asrwt>
<pdfrwt beam="1">  1        1 0.73836730E-01 0.27416820E+03</pdfrwt>
<pdfrwt beam="2">  1       -1 0.60238620E-02 0.27416820E+03</pdfrwt>
<totfact> 0.63023923E+03</totfact>
</mgrwt>
</event>
<event>
 9    1  0.7984035E-001  0.2685834E+03  0.7818608E-02  0.1102093E+00
          2   -1    0    0  501    0  0.00000000000E+00  0.00000000000E+00  0.23868053874E+04  0.23868053874E+04  0.00000000000E+00 0.  1.
         -2   -1    0    0    0  501 -0.00000000000E+00 -0.00000000000E+00 -0.75558148672E+01  0.75558148672E+01  0.00000000000E+00 0.  1.
         35    2    1    2    0    0  0.71054273576E-14  0.00000000000E+00  0.23792495725E+04  0.23943612022E+04  0.26858339212E+03 0.  0.
         25    2    3    3    0    0 -0.72127929995E+01  0.21515886727E+02  0.84982314201E+03  0.85898583887E+03  0.12305421943E+03 0.  0.
         25    2    3    3    0    0  0.72127929995E+01 -0.21515886727E+02  0.15294264305E+04  0.15353753634E+04  0.13310650764E+03 0.  0.
          5    1    4    4  502    0  0.40267516183E+02 -0.73215513046E+01  0.65632145549E+03  0.65761312404E+03  0.47000000000E+01 0.  1.
         -5    1    4    4    0  502 -0.47480309183E+02  0.28837438031E+02  0.19350168652E+03  0.20137271483E+03  0.47000000000E+01 0.  1.
          5    1    5    5  503    0 -0.19430231182E+02  0.49901402449E+02  0.43924492518E+03  0.44252217815E+03  0.47000000000E+01 0.  1.
         -5    1    5    5    0  503  0.26643024182E+02 -0.71417289176E+02  0.10901815053E+04  0.10928531852E+04  0.47000000000E+01 0.  1.
<mgrwt>
<rscale>  0 0.26858339E+03</rscale>
<asrwt>0</asrwt>
<pdfrwt beam="1">  1        2 0.36720023E+00 0.26858339E+03</pdfrwt>
<pdfrwt beam="2">  1       -2 0.11624350E-02 0.26858339E+03</pdfrwt>
<totfact> 0.79154244E+03</totfact>
</mgrwt>
</event>
<event>
 9    1  0.7984035E-001  0.2754372E+03  0.7818608E-02  0.1098207E+00
          2   -1    0    0  501    0  0.00000000000E+00  0.00000000000E+00  0.46306471988E+03  0.46306471988E+03  0.00000000000E+00 0.  1.
         -2   -1    0    0    0  501 -0.00000000000E+00 -0.00000000000E+00 -0.40958458679E+02  0.40958458679E+02  0.00000000000E+00 0.  1.
         35    2    1    2    0    0  0.71054273576E-14  0.35527136788E-14  0.42210626120E+03  0.50402317856E+03  0.27543723202E+03 0.  0.
         25    2    3    3    0    0  0.46119200776E+02 -0.27985180700E+02  0.25516843540E+03  0.28855490562E+03  0.12346194601E+03 0.  0.
         25    2    3    3    0    0 -0.46119200776E+02  0.27985180700E+02  0.16693782580E+03  0.21546827294E+03  0.12509271739E+03 0.  0.
          5    1    4    4  502    0  0.45287480465E+02 -0.13634885075E+02  0.26583377841E+03  0.27004916908E+03  0.47000000000E+01 0. -1.
         -5    1    4    4    0  502  0.83172031075E+00 -0.14350295624E+02 -0.10665343010E+02  0.18505736535E+02  0.47000000000E+01 0. -1.
          5    1    5    5  503    0 -0.22057122832E+01  0.62475763431E+02  0.34258830383E+02  0.71441190095E+02  0.47000000000E+01 0. -1.
         -5    1    5    5    0  503 -0.43913488493E+02 -0.34490582731E+02  0.13267899542E+03  0.14402708285E+03  0.47000000000E+01 0. -1.
<mgrwt>
<rscale>  0 0.27543723E+03</rscale>
<asrwt>0</asrwt>
<pdfrwt beam="1">  1        2 0.71240723E-01 0.27543723E+03</pdfrwt>
<pdfrwt beam="2">  1       -2 0.63013016E-02 0.27543723E+03</pdfrwt>
<totfact> 0.92561378E+03</totfact>
</mgrwt>
</event>
<event>
 9    1  0.7984035E-001  0.2803344E+03  0.7818608E-02  0.1095506E+00
         -4   -1    0    0    0  501 -0.00000000000E+00  0.00000000000E+00  0.15416624891E+03  0.15416624891E+03  0.00000000000E+00 0. -1.
          4   -1    0    0  501    0  0.00000000000E+00 -0.00000000000E+00 -0.12743932871E+03  0.12743932871E+03  0.00000000000E+00 0. -1.
         35    2    1    2    0    0  0.00000000000E+00 -0.71054273576E-14  0.26726920193E+02  0.28160557762E+03  0.28033439512E+03 0.  0.
         25    2    3    3    0    0  0.52216928585E+02 -0.35614666702E+02  0.37131860620E+02  0.14108529498E+03  0.12054573104E+03 0.  0.
         25    2    3    3    0    0 -0.52216928585E+02  0.35614666702E+02 -0.10404940427E+02  0.14052028264E+03  0.12507067975E+03 0.  0.
          5    1    4    4  502    0  0.43920116995E+02 -0.73103363803E+02  0.51596865702E+02  0.99786797857E+02  0.47000000000E+01 0. -1.
         -5    1    4    4    0  502  0.82968115894E+01  0.37488697102E+02 -0.14465005083E+02  0.41298497127E+02  0.47000000000E+01 0. -1.
          5    1    5    5  503    0 -0.35488624667E+02  0.32311679201E+02 -0.66249044008E+02  0.81942131565E+02  0.47000000000E+01 0.  1.
         -5    1    5    5    0  503 -0.16728303918E+02  0.33029875007E+01  0.55844103581E+02  0.58578151073E+02  0.47000000000E+01 0.  1.
<mgrwt>
<rscale>  0 0.28033440E+03</rscale>
<asrwt>0</asrwt>
<pdfrwt beam="1">  1        4 0.19606051E-01 0.28033440E+03</pdfrwt>
<pdfrwt beam="2">  1       -4 0.23717884E-01 0.28033440E+03</pdfrwt>
<totfact> 0.72636003E+02</totfact>
</mgrwt>
</event>
<event>
 9    1  0.7984035E-001  0.2742596E+03  0.7818608E-02  0.1098866E+00
         -1   -1    0    0    0  501 -0.00000000000E+00  0.00000000000E+00  0.10025227447E+03  0.10025227447E+03  0.00000000000E+00 0. -1.
          1   -1    0    0  501    0  0.00000000000E+00 -0.00000000000E+00 -0.18757261056E+03  0.18757261056E+03  0.00000000000E+00 0. -1.
         35    2    1    2    0    0  0.00000000000E+00  0.00000000000E+00 -0.87320336091E+02  0.28782488503E+03  0.27425959117E+03 0.  0.
         25    2    3    3    0    0 -0.51240855814E+02 -0.39438342476E+01 -0.63692882229E+02  0.14966489950E+03  0.12530610425E+03 0.  0.
         25    2    3    3    0    0  0.51240855814E+02  0.39438342476E+01 -0.23627453862E+02  0.13815998554E+03  0.12605056880E+03 0.  0.
          5    1    4    4  502    0 -0.29142623977E+01 -0.41752911511E+02 -0.76015881465E+02  0.86903985983E+02  0.47000000000E+01 0.  1.
         -5    1    4    4    0  502 -0.48326593416E+02  0.37809077263E+02  0.12322999235E+02  0.62760913512E+02  0.47000000000E+01 0.  1.
          5    1    5    5  503    0  0.80825189914E+02 -0.23979831884E+02 -0.40768933261E+02  0.93765343177E+02  0.47000000000E+01 0. -1.
         -5    1    5    5    0  503 -0.29584334100E+02  0.27923666132E+02  0.17141479399E+02  0.44394642361E+02  0.47000000000E+01 0. -1.
<mgrwt>
<rscale>  0 0.27425959E+03</rscale>
<asrwt>0</asrwt>
<pdfrwt beam="1">  1        1 0.28857324E-01 0.27425959E+03</pdfrwt>
<pdfrwt beam="2">  1       -1 0.15423427E-01 0.27425959E+03</pdfrwt>
<totfact> 0.48585788E+03</totfact>
</mgrwt>
</event>
<event>
 9    1  0.7984035E-001  0.2865552E+03  0.7818608E-02  0.1092162E+00
         -1   -1    0    0    0  501 -0.00000000000E+00  0.00000000000E+00  0.45137593423E+02  0.45137593423E+02  0.00000000000E+00 0. -1.
          1   -1    0    0  501    0  0.00000000000E+00 -0.00000000000E+00 -0.45479754011E+03  0.45479754011E+03  0.00000000000E+00 0. -1.
         35    2    1    2    0    0 -0.14210854715E-13 -0.35527136788E-14 -0.40965994669E+03  0.49993513353E+03  0.28655517064E+03 0.  0.
         25    2    3    3    0    0 -0.67849557955E+02 -0.50152526047E+01 -0.26204638370E+03  0.29788644394E+03  0.12425502404E+03 0.  0.
         25    2    3    3    0    0  0.67849557955E+02  0.50152526047E+01 -0.14761356299E+03  0.20204868959E+03  0.12002163853E+03 0.  0.
          5    1    4    4  502    0 -0.58742591592E+02  0.54935780651E+02 -0.14004733713E+03  0.16156725751E+03  0.47000000000E+01 0. -1.
         -5    1    4    4    0  502 -0.91069663629E+01 -0.59951033256E+02 -0.12199904657E+03  0.13631918643E+03  0.47000000000E+01 0. -1.
          5    1    5    5  503    0  0.10782049451E+02  0.49328310513E+00 -0.14401684622E+03  0.14449718999E+03  0.47000000000E+01 0. -1.
         -5    1    5    5    0  503  0.57067508504E+02  0.45219694995E+01 -0.35967167621E+01  0.57551499602E+02  0.47000000000E+01 0. -1.
<mgrwt>
<rscale>  0 0.28655517E+03</rscale>
<asrwt>0</asrwt>
<pdfrwt beam="1">  1        1 0.69968850E-01 0.28655517E+03</pdfrwt>
<pdfrwt beam="2">  1       -1 0.69442454E-02 0.28655517E+03</pdfrwt>
<totfact> 0.54607744E+03</totfact>
</mgrwt>
</event>
<event>
 9    1  0.7984035E-001  0.2728666E+03  0.7818608E-02  0.1099650E+00
          2   -1    0    0  501    0  0.00000000000E+00  0.00000000000E+00  0.10012122260E+04  0.10012122260E+04  0.00000000000E+00 0. -1.
         -2   -1    0    0    0  501 -0.00000000000E+00 -0.00000000000E+00 -0.18591507517E+02  0.18591507517E+02  0.00000000000E+00 0. -1.
         35    2    1    2    0    0  0.71054273576E-14  0.71054273576E-14  0.98262071850E+03  0.10198037335E+04  0.27286659470E+03 0.  0.
         25    2    3    3    0    0  0.28010307775E+02  0.46155543845E+02  0.52323538644E+03  0.54062714014E+03  0.12485000389E+03 0.  0.
         25    2    3    3    0    0 -0.28010307775E+02 -0.46155543845E+02  0.45938533206E+03  0.47917659339E+03  0.12514157091E+03 0.  0.
          5    1    4    4  502    0  0.72601325397E+02  0.36903366227E+02  0.41766003534E+03  0.42555235402E+03  0.47000000000E+01 0. -1.
         -5    1    4    4    0  502 -0.44591017622E+02  0.92521776185E+01  0.10557535110E+03  0.11507478613E+03  0.47000000000E+01 0. -1.
          5    1    5    5  503    0  0.32903486704E+02  0.17773553238E+02  0.66272794675E+02  0.76241143394E+02  0.47000000000E+01 0. -1.
         -5    1    5    5    0  503 -0.60913794480E+02 -0.63929097084E+02  0.39311253739E+03  0.40293544999E+03  0.47000000000E+01 0. -1.
<mgrwt>
<rscale>  0 0.27286659E+03</rscale>
<asrwt>0</asrwt>
<pdfrwt beam="1">  1        2 0.15403261E+00 0.27286659E+03</pdfrwt>
<pdfrwt beam="2">  1       -2 0.28602327E-02 0.27286659E+03</pdfrwt>
<totfact> 0.11888167E+04</totfact>
</mgrwt>
</event>
<event>
 9    1  0.7984035E-001  0.2743105E+03  0.7818608E-02  0.1098838E+00
         -2   -1    0    0    0  501 -0.00000000000E+00  0.00000000000E+00  0.22613519991E+03  0.22613519991E+03  0.00000000000E+00 0.  1.
          2   -1    0    0  501    0  0.00000000000E+00 -0.00000000000E+00 -0.83187211875E+02  0.83187211875E+02  0.00000000000E+00 0.  1.
         35    2    1    2    0    0 -0.71054273576E-14  0.17763568394E-14  0.14294798804E+03  0.30932241179E+03  0.27431045760E+03 0.  0.
         25    2    3    3    0    0 -0.61379275555E+02 -0.67347487785E+00  0.58926893262E+02  0.14592532982E+03  0.11854937409E+03 0.  0.
         25    2    3    3    0    0  0.61379275555E+02  0.67347487785E+00  0.84021094776E+02  0.16339708197E+03  0.12598092313E+03 0.  0.
          5    1    4    4  502    0 -0.39687566178E+02  0.14827133991E+02 -0.30549359969E+02  0.52443304682E+02  0.47000000000E+01 0.  1.
         -5    1    4    4    0  502 -0.21691709377E+02 -0.15500608869E+02  0.89476253231E+02  0.93482025135E+02  0.47000000000E+01 0.  1.
          5    1    5    5  503    0  0.88207899768E+02 -0.18292806159E+02  0.21687086085E+02  0.92777583723E+02  0.47000000000E+01 0. -1.
         -5    1    5    5    0  503 -0.26828624213E+02  0.18966281037E+02  0.62334008691E+02  0.70619498250E+02  0.47000000000E+01 0. -1.
<mgrwt>
<rscale>  0 0.27431046E+03</rscale>
<asrwt>0</asrwt>
<pdfrwt beam="1">  1        2 0.12798033E-01 0.27431046E+03</pdfrwt>
<pdfrwt beam="2">  1       -2 0.34790030E-01 0.27431046E+03</pdfrwt>
<totfact> 0.36496371E+03</totfact>
</mgrwt>
</event>
<event>
 9    1  0.7984035E-001  0.2764250E+03  0.7818608E-02  0.1097658E+00
          2   -1    0    0  501    0  0.00000000000E+00  0.00000000000E+00  0.30943219884E+03  0.30943219884E+03  0.00000000000E+00 0.  1.
         -2   -1    0    0    0  501 -0.00000000000E+00 -0.00000000000E+00 -0.61734669510E+02  0.61734669510E+02  0.00000000000E+00 0.  1.
         35    2    1    2    0    0 -0.71054273576E-14  0.14210854715E-13  0.24769752933E+03  0.37116686835E+03  0.27642499547E+03 0.  0.
         25    2    3    3    0    0 -0.31455007767E+02  0.50270461156E+02  0.11710933639E+03  0.18116519039E+03  0.12485869117E+03 0.  0.
         25    2    3    3    0    0  0.31455007767E+02 -0.50270461156E+02  0.13058819294E+03  0.19000167795E+03  0.12462272952E+03 0.  0.
          5    1    4    4  502    0 -0.34556546570E+02  0.86794535666E+02  0.10843526892E+03  0.14320525087E+03  0.47000000000E+01 0. -1.
         -5    1    4    4    0  502  0.31015388029E+01 -0.36524074510E+02  0.86740674707E+01  0.37959939519E+02  0.47000000000E+01 0. -1.
          5    1    5    5  503    0 -0.30751593776E+02 -0.21190258869E+02 -0.49737584406E+01  0.37967299927E+02  0.47000000000E+01 0.  1.
         -5    1    5    5    0  503  0.62206601543E+02 -0.29080202287E+02  0.13556195138E+03  0.15203437803E+03  0.47000000000E+01 0.  1.
<mgrwt>
<rscale>  0 0.27642500E+03</rscale>
<asrwt>0</asrwt>
<pdfrwt beam="1">  1        2 0.47604953E-01 0.27642500E+03</pdfrwt>
<pdfrwt beam="2">  1       -2 0.94976416E-02 0.27642500E+03</pdfrwt>
<totfact> 0.75629189E+03</totfact>
</mgrwt>
</event>
<event>
 9    1  0.7984035E-001  0.2804461E+03  0.7818608E-02  0.1095446E+00
          2   -1    0    0  501    0  0.00000000000E+00  0.00000000000E+00  0.26961739059E+03  0.26961739059E+03  0.00000000000E+00 0. -1.
         -2   -1    0    0    0  501 -0.00000000000E+00 -0.00000000000E+00 -0.72927436231E+02  0.72927436231E+02  0.00000000000E+00 0. -1.
         35    2    1    2    0    0  0.71054273576E-14 -0.14210854715E-13  0.19668995436E+03  0.34254482682E+03  0.28044610933E+03 0.  0.
         25    2    3    3    0    0 -0.34103975699E+00 -0.58275209835E+02  0.66322618391E+02  0.15287613247E+03  0.12480507113E+03 0.  0.
         25    2    3    3    0    0  0.34103975699E+00  0.58275209835E+02  0.13036733597E+03  0.18966869435E+03  0.12482970376E+03 0.  0.
          5    1    4    4  502    0  0.37837457052E+02 -0.65928380256E+02  0.80830690389E+02  0.11105816038E+03  0.47000000000E+01 0.  1.
         -5    1    4    4    0  502 -0.38178496809E+02  0.76531704212E+01 -0.14508071998E+02  0.41817972083E+02  0.47000000000E+01 0.  1.
          5    1    5    5  503    0  0.34926097573E+02  0.61791620963E+02  0.13662607606E+03  0.15403509786E+03  0.47000000000E+01 0. -1.
         -5    1    5    5    0  503 -0.34585057816E+02 -0.35164111285E+01 -0.62587400938E+01  0.35633596491E+02  0.47000000000E+01 0. -1.
<mgrwt>
<rscale>  0 0.28044611E+03</rscale>
<asrwt>0</asrwt>
<pdfrwt beam="1">  1        2 0.41479598E-01 0.28044611E+03</pdfrwt>
<pdfrwt beam="2">  1       -2 0.11219606E-01 0.28044611E+03</pdfrwt>
<totfact> 0.67287630E+03</totfact>
</mgrwt>
</event>
<event>
 9    1  0.7984035E-001  0.2745891E+03  0.7818608E-02  0.1098681E+00
         -1   -1    0    0    0  501 -0.00000000000E+00  0.00000000000E+00  0.62818576404E+02  0.62818576404E+02  0.00000000000E+00 0.  1.
          1   -1    0    0  501    0  0.00000000000E+00 -0.00000000000E+00 -0.30006724423E+03  0.30006724423E+03  0.00000000000E+00 0.  1.
         35    2    1    2    0    0 -0.71054273576E-14 -0.14210854715E-13 -0.23724866783E+03  0.36288582064E+03  0.27458912657E+03 0.  0.
         25    2    3    3    0    0 -0.27269130568E+02 -0.42636036534E+02 -0.11420077326E+03  0.18082008212E+03  0.13073885571E+03 0.  0.
         25    2    3    3    0    0  0.27269130568E+02  0.42636036534E+02 -0.12304789457E+03  0.18206573851E+03  0.12428077763E+03 0.  0.
          5    1    4    4  502    0  0.32172289772E+02 -0.22558319723E+02  0.10677138284E+02  0.40988111689E+02  0.47000000000E+01 0.  1.
         -5    1    4    4    0  502 -0.59441420340E+02 -0.20077716811E+02 -0.12487791154E+03  0.13983197044E+03  0.47000000000E+01 0.  1.
          5    1    5    5  503    0  0.15628025081E+02  0.29904305064E+02 -0.14771908625E+03  0.15159657341E+03  0.47000000000E+01 0.  1.
         -5    1    5    5    0  503  0.11641105487E+02  0.12731731471E+02  0.24671191675E+02  0.30469165100E+02  0.47000000000E+01 0.  1.
<mgrwt>
<rscale>  0 0.27458913E+03</rscale>
<asrwt>0</asrwt>
<pdfrwt beam="1">  1        1 0.46164192E-01 0.27458913E+03</pdfrwt>
<pdfrwt beam="2">  1       -1 0.96643962E-02 0.27458913E+03</pdfrwt>
<totfact> 0.55928447E+03</totfact>
</mgrwt>
</event>
<event>
 8    1  0.7984035E-001  0.3439532E+03  0.7818608E-02  0.1065125E+00
          2   -1    0    0  501    0  0.00000000000E+00  0.00000000000E+00  0.46089507794E+03  0.46089507794E+03  0.00000000000E+00 0.  1.
         -2   -1    0    0    0  501 -0.00000000000E+00 -0.00000000000E+00 -0.64170693093E+02  0.64170693093E+02  0.00000000000E+00 0.  1.
         25    2    1    2    0    0  0.48760043004E+02  0.87363842074E+02  0.10338792432E+03  0.19092591704E+03  0.12551358575E+03 0.  0.
         25    2    1    2    0    0 -0.48760043004E+02 -0.87363842074E+02  0.29333646053E+03  0.33413985399E+03  0.12487265614E+03 0.  0.
          5    1    3    3  502    0 -0.12070929220E+02  0.93881699204E+02  0.83824587680E+02  0.12652324797E+03  0.47000000000E+01 0. -1.
         -5    1    3    3    0  502  0.60830972224E+02 -0.65178571293E+01  0.19563336635E+02  0.64402669072E+02  0.47000000000E+01 0. -1.
          5    1    4    4  503    0  0.34049094792E+02  0.38362841415E+01  0.43751928425E+02  0.55770773467E+02  0.47000000000E+01 0.  1.
         -5    1    4    4    0  503 -0.82809137796E+02 -0.91200126216E+02  0.24958453211E+03  0.27836908052E+03  0.47000000000E+01 0.  1.
<mgrwt>
<rscale>  0 0.34395323E+03</rscale>
<asrwt>0</asrwt>
<pdfrwt beam="1">  1        2 0.70906933E-01 0.34395323E+03</pdfrwt>
<pdfrwt beam="2">  1       -2 0.98724146E-02 0.34395323E+03</pdfrwt>
<totfact> 0.46359583E+03</totfact>
</mgrwt>
</event>
<event>
 9    1  0.7984035E-001  0.2745333E+03  0.7818608E-02  0.1098713E+00
         -2   -1    0    0    0  501 -0.00000000000E+00  0.00000000000E+00  0.13768202690E+02  0.13768202690E+02  0.00000000000E+00 0. -1.
          2   -1    0    0  501    0  0.00000000000E+00 -0.00000000000E+00 -0.13685257592E+04  0.13685257592E+04  0.00000000000E+00 0. -1.
         35    2    1    2    0    0  0.35527136788E-14 -0.71054273576E-14 -0.13547575565E+04  0.13822939618E+04  0.27453334980E+03 0.  0.
         25    2    3    3    0    0  0.29199101403E+02 -0.29884555969E+02 -0.50325545176E+03  0.52062680033E+03  0.12665125855E+03 0.  0.
         25    2    3    3    0    0 -0.29199101403E+02  0.29884555969E+02 -0.85150210471E+03  0.86166716151E+03  0.12517503226E+03 0.  0.
          5    1    4    4  502    0 -0.28445347014E+01  0.33135210814E+02 -0.41133383961E+02  0.53104414595E+02  0.47000000000E+01 0. -1.
         -5    1    4    4    0  502  0.32043636104E+02 -0.63019766783E+02 -0.46212206780E+03  0.46752238574E+03  0.47000000000E+01 0. -1.
          5    1    5    5  503    0 -0.38657571615E+02  0.24304727641E+01 -0.80921563691E+03  0.81015575790E+03  0.47000000000E+01 0. -1.
         -5    1    5    5    0  503  0.94584702120E+01  0.27454083205E+02 -0.42286467799E+02  0.51511403614E+02  0.47000000000E+01 0. -1.
<mgrwt>
<rscale>  0 0.27453335E+03</rscale>
<asrwt>0</asrwt>
<pdfrwt beam="1">  1        2 0.21054244E+00 0.27453335E+03</pdfrwt>
<pdfrwt beam="2">  1       -2 0.21181849E-02 0.27453335E+03</pdfrwt>
<totfact> 0.11415367E+04</totfact>
</mgrwt>
</event>
<event>
 9    1  0.7984035E-001  0.2651331E+03  0.7818608E-02  0.1104098E+00
          3   -1    0    0  501    0  0.00000000000E+00  0.00000000000E+00  0.14184613145E+03  0.14184613145E+03  0.00000000000E+00 0.  1.
         -3   -1    0    0    0  501 -0.00000000000E+00 -0.00000000000E+00 -0.12389401963E+03  0.12389401963E+03  0.00000000000E+00 0.  1.
         35    2    1    2    0    0  0.00000000000E+00 -0.13322676296E-14  0.17952111823E+02  0.26574015109E+03  0.26513307900E+03 0.  0.
         25    2    3    3    0    0  0.35017382986E+02  0.30402705027E+01 -0.18801776176E+02  0.13081953444E+03  0.12459848895E+03 0.  0.
         25    2    3    3    0    0 -0.35017382986E+02 -0.30402705027E+01  0.36753887998E+02  0.13492061664E+03  0.12496905279E+03 0.  0.
          5    1    4    4  502    0 -0.26540463919E+02 -0.42408129744E+02 -0.20169636747E+02  0.54145636389E+02  0.47000000000E+01 0. -1.
         -5    1    4    4    0  502  0.61557846905E+02  0.45448400247E+02  0.13678605716E+01  0.76673898056E+02  0.47000000000E+01 0. -1.
          5    1    5    5  503    0 -0.39081920579E+02 -0.16879814653E+01  0.81077177812E+02  0.90143466538E+02  0.47000000000E+01 0.  1.
         -5    1    5    5    0  503  0.40645375925E+01 -0.13522890374E+01 -0.44323289814E+02  0.44777150103E+02  0.47000000000E+01 0.  1.
<mgrwt>
<rscale>  0 0.26513308E+03</rscale>
<asrwt>0</asrwt>
<pdfrwt beam="1">  1        3 0.21822482E-01 0.26513308E+03</pdfrwt>
<pdfrwt beam="2">  1       -3 0.19060618E-01 0.26513308E+03</pdfrwt>
<totfact> 0.11892850E+03</totfact>
</mgrwt>
</event>
<event>
 9    1  0.7984035E-001  0.2689957E+03  0.7818608E-02  0.1101856E+00
          2   -1    0    0  501    0  0.00000000000E+00  0.00000000000E+00  0.23373138804E+04  0.23373138804E+04  0.00000000000E+00 0.  1.
         -2   -1    0    0    0  501 -0.00000000000E+00 -0.00000000000E+00 -0.77395103618E+01  0.77395103618E+01  0.00000000000E+00 0.  1.
         35    2    1    2    0    0 -0.35527136788E-14  0.00000000000E+00  0.23295743701E+04  0.23450533908E+04  0.26899565050E+03 0.  0.
         25    2    3    3    0    0  0.30171518939E+02  0.26140374213E+02  0.15007351564E+04  0.15059084444E+04  0.11815495609E+03 0.  0.
         25    2    3    3    0    0 -0.30171518939E+02 -0.26140374213E+02  0.82883921368E+03  0.83914494637E+03  0.12488458336E+03 0.  0.
          5    1    4    4  502    0 -0.26073367129E+02  0.25512113522E+02  0.16802058988E+03  0.17199911928E+03  0.47000000000E+01 0.  1.
         -5    1    4    4    0  502  0.56244886068E+02  0.62826069135E+00  0.13327145665E+04  0.13339093251E+04  0.47000000000E+01 0.  1.
          5    1    5    5  503    0 -0.75999194056E+02 -0.14349469177E+02  0.62752309385E+03  0.63228878535E+03  0.47000000000E+01 0.  1.
         -5    1    5    5    0  503  0.45827675117E+02 -0.11790905036E+02  0.20131611983E+03  0.20685616102E+03  0.47000000000E+01 0.  1.
<mgrwt>
<rscale>  0 0.26899565E+03</rscale>
<asrwt>0</asrwt>
<pdfrwt beam="1">  1        2 0.35958619E+00 0.26899565E+03</pdfrwt>
<pdfrwt beam="2">  1       -2 0.11906958E-02 0.26899565E+03</pdfrwt>
<totfact> 0.81278122E+03</totfact>
</mgrwt>
</event>
<event>
 9    1  0.7984035E-001  0.2746867E+03  0.7818608E-02  0.1098627E+00
          1   -1    0    0  501    0  0.00000000000E+00  0.00000000000E+00  0.27529719162E+03  0.27529719162E+03  0.00000000000E+00 0.  1.
         -1   -1    0    0    0  501 -0.00000000000E+00 -0.00000000000E+00 -0.68519394522E+02  0.68519394522E+02  0.00000000000E+00 0.  1.
         35    2    1    2    0    0  0.00000000000E+00  0.71054273576E-14  0.20677779710E+03  0.34381658614E+03  0.27468670797E+03 0.  0.
         25    2    3    3    0    0  0.33250394393E+02 -0.38884426413E+02  0.86309093561E+02  0.16306277877E+03  0.12854035492E+03 0.  0.
         25    2    3    3    0    0 -0.33250394393E+02  0.38884426413E+02  0.12046870354E+03  0.18075380737E+03  0.12466612613E+03 0.  0.
          5    1    4    4  502    0 -0.10525789714E+02 -0.14456421967E+02  0.10702997532E+03  0.10861531200E+03  0.47000000000E+01 0. -1.
         -5    1    4    4    0  502  0.43776184106E+02 -0.24428004446E+02 -0.20720881756E+02  0.54447466763E+02  0.47000000000E+01 0. -1.
          5    1    5    5  503    0 -0.66553542770E+02  0.61811103470E+02  0.64290137566E+02  0.11137907504E+03  0.47000000000E+01 0.  1.
         -5    1    5    5    0  503  0.33303148378E+02 -0.22926677057E+02  0.56178565970E+02  0.69374732339E+02  0.47000000000E+01 0.  1.
<mgrwt>
<rscale>  0 0.27468671E+03</rscale>
<asrwt>0</asrwt>
<pdfrwt beam="1">  1        1 0.42353414E-01 0.27468671E+03</pdfrwt>
<pdfrwt beam="2">  1       -1 0.10541445E-01 0.27468671E+03</pdfrwt>
<totfact> 0.54488520E+03</totfact>
</mgrwt>
</event>
<event>
 9    1  0.7984035E-001  0.2673879E+03  0.7818608E-02  0.1102784E+00
         -1   -1    0    0    0  501 -0.00000000000E+00  0.00000000000E+00  0.26553644980E+03  0.26553644980E+03  0.00000000000E+00 0.  1.
          1   -1    0    0  501    0  0.00000000000E+00 -0.00000000000E+00 -0.67313090022E+02  0.67313090022E+02  0.00000000000E+00 0.  1.
         35    2    1    2    0    0  0.35527136788E-14 -0.21316282073E-13  0.19822335978E+03  0.33284953983E+03  0.26738794999E+03 0.  0.
         25    2    3    3    0    0  0.21247919341E+02  0.53434468941E+02  0.82251630701E+02  0.15208272879E+03  0.11426770802E+03 0.  0.
         25    2    3    3    0    0 -0.21247919341E+02 -0.53434468941E+02  0.11597172908E+03  0.18076681104E+03  0.12617639034E+03 0.  0.
          5    1    4    4  502    0 -0.37375179391E+02 -0.10023808329E+02  0.39800240584E+02  0.55709334214E+02  0.47000000000E+01 0.  1.
         -5    1    4    4    0  502  0.58623098732E+02  0.63458277270E+02  0.42451390117E+02  0.96373394575E+02  0.47000000000E+01 0.  1.
          5    1    5    5  503    0  0.25446521207E+02  0.32015799317E+02  0.33616001885E+02  0.53147553379E+02  0.47000000000E+01 0.  1.
         -5    1    5    5    0  503 -0.46694440548E+02 -0.85450268258E+02  0.82355727195E+02  0.12761925766E+03  0.47000000000E+01 0.  1.
<mgrwt>
<rscale>  0 0.26738795E+03</rscale>
<asrwt>0</asrwt>
<pdfrwt beam="1">  1        1 0.10355860E-01 0.26738795E+03</pdfrwt>
<pdfrwt beam="2">  1       -1 0.40851761E-01 0.26738795E+03</pdfrwt>
<totfact> 0.36163756E+03</totfact>
</mgrwt>
</event>
<event>
 9    1  0.7984035E-001  0.2711167E+03  0.7818608E-02  0.1100642E+00
          2   -1    0    0  501    0  0.00000000000E+00  0.00000000000E+00  0.76211421837E+02  0.76211421837E+02  0.00000000000E+00 0.  1.
         -2   -1    0    0    0  501 -0.00000000000E+00 -0.00000000000E+00 -0.24111951122E+03  0.24111951122E+03  0.00000000000E+00 0.  1.
         35    2    1    2    0    0  0.00000000000E+00 -0.35527136788E-14 -0.16490808938E+03  0.31733093305E+03  0.27111665963E+03 0.  0.
         25    2    3    3    0    0 -0.21638880737E+02  0.17510816618E+02 -0.31427711942E+02  0.13261816800E+03  0.12579748625E+03 0.  0.
         25    2    3    3    0    0  0.21638880737E+02 -0.17510816618E+02 -0.13348037744E+03  0.18471276506E+03  0.12460708068E+03 0.  0.
          5    1    4    4  502    0  0.42431604342E+02  0.35021311261E+02  0.71259288874E+01  0.55675866872E+02  0.47000000000E+01 0.  1.
         -5    1    4    4    0  502 -0.64070485079E+02 -0.17510494642E+02 -0.38553640829E+02  0.76942301123E+02  0.47000000000E+01 0.  1.
          5    1    5    5  503    0 -0.45449900398E+02 -0.18492804615E+02 -0.20835885890E+02  0.53515431508E+02  0.47000000000E+01 0.  1.
         -5    1    5    5    0  503  0.67088781135E+02  0.98198799684E+00 -0.11264449155E+03  0.13119733355E+03  0.47000000000E+01 0.  1.
<mgrwt>
<rscale>  0 0.27111666E+03</rscale>
<asrwt>0</asrwt>
<pdfrwt beam="1">  1        2 0.11724834E-01 0.27111666E+03</pdfrwt>
<pdfrwt beam="2">  1       -2 0.37095310E-01 0.27111666E+03</pdfrwt>
<totfact> 0.35982669E+03</totfact>
</mgrwt>
</event>
<event>
 9    1  0.7984035E-001  0.2749790E+03  0.7818608E-02  0.1098463E+00
          2   -1    0    0  501    0  0.00000000000E+00  0.00000000000E+00  0.76847202660E+02  0.76847202660E+02  0.00000000000E+00 0. -1.
         -2   -1    0    0    0  501 -0.00000000000E+00 -0.00000000000E+00 -0.24598637264E+03  0.24598637264E+03  0.00000000000E+00 0. -1.
         35    2    1    2    0    0 -0.71054273576E-14 -0.71054273576E-14 -0.16913916998E+03  0.32283357530E+03  0.27497901469E+03 0.  0.
         25    2    3    3    0    0 -0.32714931314E+02  0.18421908002E+02 -0.35600647759E+02  0.13582766371E+03  0.12558708008E+03 0.  0.
         25    2    3    3    0    0  0.32714931314E+02 -0.18421908002E+02 -0.13353852222E+03  0.18700591159E+03  0.12541547204E+03 0.  0.
          5    1    4    4  502    0  0.17901531982E+02  0.54495616500E+02  0.10235569092E+02  0.58455914497E+02  0.47000000000E+01 0. -1.
         -5    1    4    4    0  502 -0.50616463297E+02 -0.36073708498E+02 -0.45836216851E+02  0.77371749216E+02  0.47000000000E+01 0. -1.
          5    1    5    5  503    0 -0.97099575928E+01 -0.65439935845E+02 -0.56166248191E+02  0.86910332617E+02  0.47000000000E+01 0. -1.
         -5    1    5    5    0  503  0.42424888907E+02  0.47018027843E+02 -0.77372274032E+02  0.10009557897E+03  0.47000000000E+01 0. -1.
<mgrwt>
<rscale>  0 0.27497901E+03</rscale>
<asrwt>0</asrwt>
<pdfrwt beam="1">  1        2 0.11822647E-01 0.27497901E+03</pdfrwt>
<pdfrwt beam="2">  1       -2 0.37844056E-01 0.27497901E+03</pdfrwt>
<totfact> 0.34317195E+03</totfact>
</mgrwt>
</event>
<event>
 9    1  0.7984035E-001  0.2739058E+03  0.7818608E-02  0.1099065E+00
         -2   -1    0    0    0  501 -0.00000000000E+00  0.00000000000E+00  0.11069107433E+02  0.11069107433E+02  0.00000000000E+00 0.  1.
          2   -1    0    0  501    0  0.00000000000E+00 -0.00000000000E+00 -0.16944548487E+04  0.16944548487E+04  0.00000000000E+00 0.  1.
         35    2    1    2    0    0  0.00000000000E+00 -0.71054273576E-14 -0.16833857413E+04  0.17055239562E+04  0.27390584339E+03 0.  0.
         25    2    3    3    0    0  0.41550006999E+02  0.19182840509E+02 -0.10469625669E+04  0.10553282917E+04  0.12447008526E+03 0.  0.
         25    2    3    3    0    0 -0.41550006999E+02 -0.19182840509E+02 -0.63642317436E+03  0.65019566452E+03  0.12500224336E+03 0.  0.
          5    1    4    4  502    0 -0.67913552253E+01 -0.47535677773E+02 -0.30535030131E+03  0.30913857682E+03  0.47000000000E+01 0. -1.
         -5    1    4    4    0  502  0.48341362224E+02  0.66718518282E+02 -0.74161226564E+03  0.74618971483E+03  0.47000000000E+01 0. -1.
          5    1    5    5  503    0  0.37644440546E+02  0.59266195260E+01 -0.34484272911E+03  0.34697381247E+03  0.47000000000E+01 0. -1.
         -5    1    5    5    0  503 -0.79194447545E+02 -0.25109460035E+02 -0.29158044525E+03  0.30322185205E+03  0.47000000000E+01 0. -1.
<mgrwt>
<rscale>  0 0.27390584E+03</rscale>
<asrwt>0</asrwt>
<pdfrwt beam="1">  1        2 0.26068523E+00 0.27390584E+03</pdfrwt>
<pdfrwt beam="2">  1       -2 0.17029405E-02 0.27390584E+03</pdfrwt>
<totfact> 0.10533526E+04</totfact>
</mgrwt>
</event>
<event>
 9    1  0.7984035E-001  0.2771675E+03  0.7818608E-02  0.1097246E+00
         -2   -1    0    0    0  501 -0.00000000000E+00  0.00000000000E+00  0.16690918026E+02  0.16690918026E+02  0.00000000000E+00 0. -1.
          2   -1    0    0  501    0  0.00000000000E+00 -0.00000000000E+00 -0.11506527989E+04  0.11506527989E+04  0.00000000000E+00 0. -1.
         35    2    1    2    0    0  0.00000000000E+00  0.00000000000E+00 -0.11339618809E+04  0.11673437169E+04  0.27716746954E+03 0.  0.
         25    2    3    3    0    0  0.31641484757E+02  0.23172858534E+02 -0.33561610221E+03  0.35853872541E+03  0.11989030246E+03 0.  0.
         25    2    3    3    0    0 -0.31641484757E+02 -0.23172858534E+02 -0.79834577867E+03  0.80880499152E+03  0.12357737279E+03 0.  0.
          5    1    4    4  502    0 -0.19411939222E+02 -0.39976805539E+02 -0.12632918101E+03  0.13400044903E+03  0.47000000000E+01 0.  1.
         -5    1    4    4    0  502  0.51053423979E+02  0.63149664074E+02 -0.20928692120E+03  0.22453827638E+03  0.47000000000E+01 0.  1.
          5    1    5    5  503    0  0.80382366680E+01 -0.68483556740E+02 -0.40817160014E+03  0.41398158891E+03  0.47000000000E+01 0. -1.
         -5    1    5    5    0  503 -0.39679721425E+02  0.45310698205E+02 -0.39017417853E+03  0.39482340262E+03  0.47000000000E+01 0. -1.
<mgrwt>
<rscale>  0 0.27716747E+03</rscale>
<asrwt>0</asrwt>
<pdfrwt beam="1">  1        2 0.17702355E+00 0.27716747E+03</pdfrwt>
<pdfrwt beam="2">  1       -2 0.25678329E-02 0.27716747E+03</pdfrwt>
<totfact> 0.11379200E+04</totfact>
</mgrwt>
</event>
<event>
 9    1  0.7984035E-001  0.2730243E+03  0.7818608E-02  0.1099561E+00
          2   -1    0    0  501    0  0.00000000000E+00  0.00000000000E+00  0.14997183948E+03  0.14997183948E+03  0.00000000000E+00 0. -1.
         -2   -1    0    0    0  501 -0.00000000000E+00 -0.00000000000E+00 -0.12426043406E+03  0.12426043406E+03  0.00000000000E+00 0. -1.
         35    2    1    2    0    0  0.71054273576E-14  0.00000000000E+00  0.25711405420E+02  0.27423227354E+03  0.27302429101E+03 0.  0.
         25    2    3    3    0    0  0.47848402003E+02  0.12527185238E+02  0.11461515067E+02  0.13528687075E+03  0.12539844946E+03 0.  0.
         25    2    3    3    0    0 -0.47848402003E+02 -0.12527185238E+02  0.14249890353E+02  0.13894540279E+03  0.12905954299E+03 0.  0.
          5    1    4    4  502    0 -0.41384249370E+02 -0.93427035097E+01  0.63085077793E+01  0.43148922063E+02  0.47000000000E+01 0.  1.
         -5    1    4    4    0  502  0.89232651373E+02  0.21869888748E+02  0.51530072874E+01  0.92137948691E+02  0.47000000000E+01 0.  1.
          5    1    5    5  503    0  0.76569228793E+01 -0.52635286254E+01  0.63432843647E+02  0.64281792560E+02  0.47000000000E+01 0.  1.
         -5    1    5    5    0  503 -0.55505324883E+02 -0.72636566126E+01 -0.49182953294E+02  0.74663610229E+02  0.47000000000E+01 0.  1.
<mgrwt>
<rscale>  0 0.27302429E+03</rscale>
<asrwt>0</asrwt>
<pdfrwt beam="1">  1        2 0.23072591E-01 0.27302429E+03</pdfrwt>
<pdfrwt beam="2">  1       -2 0.19116990E-01 0.27302429E+03</pdfrwt>
<totfact> 0.53132579E+03</totfact>
</mgrwt>
</event>
<event>
 9    1  0.7984035E-001  0.2766092E+03  0.7818608E-02  0.1097555E+00
          2   -1    0    0  501    0  0.00000000000E+00  0.00000000000E+00  0.41337736485E+03  0.41337736485E+03  0.00000000000E+00 0. -1.
         -2   -1    0    0    0  501 -0.00000000000E+00 -0.00000000000E+00 -0.46272871265E+02  0.46272871265E+02  0.00000000000E+00 0. -1.
         35    2    1    2    0    0  0.00000000000E+00 -0.10658141036E-13  0.36710449358E+03  0.45965023611E+03  0.27660916534E+03 0.  0.
         25    2    3    3    0    0  0.56648155532E+02 -0.99049077437E+01  0.15348002643E+03  0.20615266060E+03  0.12504271364E+03 0.  0.
         25    2    3    3    0    0 -0.56648155532E+02  0.99049077437E+01  0.21362446715E+03  0.25349757552E+03  0.12376787590E+03 0.  0.
          5    1    4    4  502    0  0.36700457535E+02 -0.65590791063E+02  0.10666959741E+03  0.13057399614E+03  0.47000000000E+01 0. -1.
         -5    1    4    4    0  502  0.19947697997E+02  0.55685883320E+02  0.46810429020E+02  0.75578664459E+02  0.47000000000E+01 0. -1.
          5    1    5    5  503    0  0.20756004356E+02 -0.18640565890E+02  0.45097207384E+01  0.28648036489E+02  0.47000000000E+01 0. -1.
         -5    1    5    5    0  503 -0.77404159888E+02  0.28545473634E+02  0.20911474642E+03  0.22484953903E+03  0.47000000000E+01 0. -1.
<mgrwt>
<rscale>  0 0.27660917E+03</rscale>
<asrwt>0</asrwt>
<pdfrwt beam="1">  1        2 0.63596515E-01 0.27660917E+03</pdfrwt>
<pdfrwt beam="2">  1       -2 0.71189035E-02 0.27660917E+03</pdfrwt>
<totfact> 0.86850242E+03</totfact>
</mgrwt>
</event>
<event>
 9    1  0.7984035E-001  0.2821545E+03  0.7818608E-02  0.1094518E+00
          2   -1    0    0  501    0  0.00000000000E+00  0.00000000000E+00  0.44871191043E+02  0.44871191043E+02  0.00000000000E+00 0.  1.
         -2   -1    0    0    0  501 -0.00000000000E+00 -0.00000000000E+00 -0.44355371483E+03  0.44355371483E+03  0.00000000000E+00 0.  1.
         35    2    1    2    0    0  0.00000000000E+00  0.00000000000E+00 -0.39868252378E+03  0.48842490587E+03  0.28215445044E+03 0.  0.
         25    2    3    3    0    0  0.24838641719E+02 -0.30636642730E+02 -0.11025377350E+03  0.17147331596E+03  0.12526628244E+03 0.  0.
         25    2    3    3    0    0 -0.24838641719E+02  0.30636642730E+02 -0.28842875028E+03  0.31695158991E+03  0.12534593873E+03 0.  0.
          5    1    4    4  502    0 -0.32238499096E+02 -0.23359436918E+02 -0.10629921934E+03  0.11360720993E+03  0.47000000000E+01 0.  1.
         -5    1    4    4    0  502  0.57077140815E+02 -0.72772058120E+01 -0.39545541613E+01  0.57866106027E+02  0.47000000000E+01 0.  1.
          5    1    5    5  503    0 -0.26471479816E+02 -0.87257562504E+01 -0.27287674267E+03  0.27433680897E+03  0.47000000000E+01 0. -1.
         -5    1    5    5    0  503  0.16328380969E+01  0.39362398981E+02 -0.15552007617E+02  0.42614780941E+02  0.47000000000E+01 0. -1.
<mgrwt>
<rscale>  0 0.28215445E+03</rscale>
<asrwt>0</asrwt>
<pdfrwt beam="1">  1        2 0.69032598E-02 0.28215445E+03</pdfrwt>
<pdfrwt beam="2">  1       -2 0.68239037E-01 0.28215445E+03</pdfrwt>
<totfact> 0.20698503E+03</totfact>
</mgrwt>
</event>
<event>
 9    1  0.7984035E-001  0.2805116E+03  0.7818608E-02  0.1095410E+00
         -1   -1    0    0    0  501 -0.00000000000E+00  0.00000000000E+00  0.10082407305E+02  0.10082407305E+02  0.00000000000E+00 0.  1.
          1   -1    0    0  501    0  0.00000000000E+00 -0.00000000000E+00 -0.19510906080E+04  0.19510906080E+04  0.00000000000E+00 0.  1.
         35    2    1    2    0    0  0.00000000000E+00 -0.14210854715E-13 -0.19410082007E+04  0.19611730153E+04  0.28051160545E+03 0.  0.
         25    2    3    3    0    0 -0.29714349256E+02  0.56602066442E+02 -0.10251004948E+04  0.10345957862E+04  0.12438118844E+03 0.  0.
         25    2    3    3    0    0  0.29714349256E+02 -0.56602066442E+02 -0.91590770595E+03  0.92657722909E+03  0.12478661459E+03 0.  0.
          5    1    4    4  502    0  0.10326283353E+02 -0.30589442321E+02 -0.11813639401E+03  0.12255873571E+03  0.47000000000E+01 0. -1.
         -5    1    4    4    0  502 -0.40040632608E+02  0.87191508763E+02 -0.90696410075E+03  0.91203705051E+03  0.47000000000E+01 0. -1.
          5    1    5    5  503    0 -0.10263250625E+01 -0.45333360086E+02 -0.98910294519E+02  0.10891052861E+03  0.47000000000E+01 0. -1.
         -5    1    5    5    0  503  0.30740674318E+02 -0.11268706356E+02 -0.81699741143E+03  0.81766670048E+03  0.47000000000E+01 0. -1.
<mgrwt>
<rscale>  0 0.28051161E+03</rscale>
<asrwt>0</asrwt>
<pdfrwt beam="1">  1        1 0.30016752E+00 0.28051161E+03</pdfrwt>
<pdfrwt beam="2">  1       -1 0.15511409E-02 0.28051161E+03</pdfrwt>
<totfact> 0.36077324E+03</totfact>
</mgrwt>
</event>
<event>
 9    1  0.7984035E-001  0.2696758E+03  0.7818608E-02  0.1101465E+00
         -2   -1    0    0    0  501 -0.00000000000E+00  0.00000000000E+00  0.87831390770E+01  0.87831390770E+01  0.00000000000E+00 0.  1.
          2   -1    0    0  501    0  0.00000000000E+00 -0.00000000000E+00 -0.20700187515E+04  0.20700187515E+04  0.00000000000E+00 0.  1.
         35    2    1    2    0    0  0.71054273576E-14  0.71054273576E-14 -0.20612356124E+04  0.20788018906E+04  0.26967582455E+03 0.  0.
         25    2    3    3    0    0  0.36122321630E+02  0.33569660832E+02 -0.94097245393E+03  0.95054459148E+03  0.12519631413E+03 0.  0.
         25    2    3    3    0    0 -0.36122321630E+02 -0.33569660832E+02 -0.11202631585E+04  0.11282572991E+04  0.12467254894E+03 0.  0.
          5    1    4    4  502    0 -0.46547992094E+02  0.18145498405E+02 -0.32989453494E+03  0.33368918003E+03  0.47000000000E+01 0.  1.
         -5    1    4    4    0  502  0.82670313724E+02  0.15424162426E+02 -0.61107791899E+03  0.61685541145E+03  0.47000000000E+01 0.  1.
          5    1    5    5  503    0 -0.71539724870E+02 -0.12682688929E+02 -0.95930160207E+03  0.96206051606E+03  0.47000000000E+01 0. -1.
         -5    1    5    5    0  503  0.35417403240E+02 -0.20886971902E+02 -0.16096155642E+03  0.16619678304E+03  0.47000000000E+01 0. -1.
<mgrwt>
<rscale>  0 0.26967582E+03</rscale>
<asrwt>0</asrwt>
<pdfrwt beam="1">  1        2 0.31846474E+00 0.26967582E+03</pdfrwt>
<pdfrwt beam="2">  1       -2 0.13512508E-02 0.26967582E+03</pdfrwt>
<totfact> 0.93778003E+03</totfact>
</mgrwt>
</event>
<event>
 9    1  0.7984035E-001  0.2749031E+03  0.7818608E-02  0.1098506E+00
          2   -1    0    0  501    0  0.00000000000E+00  0.00000000000E+00  0.18255301107E+03  0.18255301107E+03  0.00000000000E+00 0.  1.
         -2   -1    0    0    0  501 -0.00000000000E+00 -0.00000000000E+00 -0.10349284666E+03  0.10349284666E+03  0.00000000000E+00 0.  1.
         35    2    1    2    0    0  0.00000000000E+00 -0.17763568394E-14  0.79060164406E+02  0.28604585773E+03  0.27490311590E+03 0.  0.
         25    2    3    3    0    0 -0.56855744065E+02  0.58182181827E+01  0.52612221327E+02  0.14738762348E+03  0.12525429504E+03 0.  0.
         25    2    3    3    0    0  0.56855744065E+02 -0.58182181827E+01  0.26447943079E+02  0.13865823425E+03  0.12353212107E+03 0.  0.
          5    1    4    4  502    0 -0.28880297442E+02  0.65413562201E+02  0.28487686594E+02  0.77114486237E+02  0.47000000000E+01 0. -1.
         -5    1    4    4    0  502 -0.27975446624E+02 -0.59595344018E+02  0.24124534733E+02  0.70273137247E+02  0.47000000000E+01 0. -1.
          5    1    5    5  503    0 -0.47687574763E+01  0.60108192015E+01 -0.43587453585E+02  0.44506483857E+02  0.47000000000E+01 0. -1.
         -5    1    5    5    0  503  0.61624501542E+02 -0.11829037384E+02  0.70035396663E+02  0.94151750390E+02  0.47000000000E+01 0. -1.
<mgrwt>
<rscale>  0 0.27490312E+03</rscale>
<asrwt>0</asrwt>
<pdfrwt beam="1">  1        2 0.28085079E-01 0.27490312E+03</pdfrwt>
<pdfrwt beam="2">  1       -2 0.15921976E-01 0.27490312E+03</pdfrwt>
<totfact> 0.58042385E+03</totfact>
</mgrwt>
</event>
<event>
 9    1  0.7984035E-001  0.2758643E+03  0.7818608E-02  0.1097969E+00
         -2   -1    0    0    0  501 -0.00000000000E+00  0.00000000000E+00  0.83240119741E+02  0.83240119741E+02  0.00000000000E+00 0.  1.
          2   -1    0    0  501    0  0.00000000000E+00 -0.00000000000E+00 -0.22855891678E+03  0.22855891678E+03  0.00000000000E+00 0.  1.
         35    2    1    2    0    0  0.71054273576E-14  0.71054273576E-14 -0.14531879704E+03  0.31179903652E+03  0.27586425358E+03 0.  0.
         25    2    3    3    0    0  0.22877351101E+02 -0.42769570490E+02 -0.10707842043E+03  0.17201023173E+03  0.12557516612E+03 0.  0.
         25    2    3    3    0    0 -0.22877351101E+02  0.42769570490E+02 -0.38240376612E+02  0.13978880479E+03  0.12540324632E+03 0.  0.
          5    1    4    4  502    0  0.72720684549E+02 -0.91481054682E+01 -0.49035837035E+02  0.88309620702E+02  0.47000000000E+01 0.  1.
         -5    1    4    4    0  502 -0.49843333448E+02 -0.33621465022E+02 -0.58042583395E+02  0.83700611029E+02  0.47000000000E+01 0.  1.
          5    1    5    5  503    0  0.25011258371E+02 -0.20172907898E+01  0.33739100929E+02  0.42308975867E+02  0.47000000000E+01 0.  1.
         -5    1    5    5    0  503 -0.47888609471E+02  0.44786861280E+02 -0.71979477541E+02  0.97479828926E+02  0.47000000000E+01 0.  1.
<mgrwt>
<rscale>  0 0.27586425E+03</rscale>
<asrwt>0</asrwt>
<pdfrwt beam="1">  1        2 0.35162910E-01 0.27586425E+03</pdfrwt>
<pdfrwt beam="2">  1       -2 0.12806172E-01 0.27586425E+03</pdfrwt>
<totfact> 0.64935169E+03</totfact>
</mgrwt>
</event>
<event>
 9    1  0.7984035E-001  0.2725221E+03  0.7818608E-02  0.1099845E+00
          2   -1    0    0  501    0  0.00000000000E+00  0.00000000000E+00  0.24343852904E+03  0.24343852904E+03  0.00000000000E+00 0. -1.
         -2   -1    0    0    0  501 -0.00000000000E+00 -0.00000000000E+00 -0.76270050737E+02  0.76270050737E+02  0.00000000000E+00 0. -1.
         35    2    1    2    0    0  0.00000000000E+00 -0.71054273576E-14  0.16716847830E+03  0.31970857977E+03  0.27252206488E+03 0.  0.
         25    2    3    3    0    0 -0.13026568251E+02  0.50563973132E+02  0.72221636825E+02  0.15457742705E+03  0.12630047216E+03 0.  0.
         25    2    3    3    0    0  0.13026568251E+02 -0.50563973132E+02  0.94946841474E+02  0.16513115273E+03  0.12460733540E+03 0.  0.
          5    1    4    4  502    0 -0.11611666102E+02  0.17651940569E+02  0.10539254721E+03  0.10759228970E+03  0.47000000000E+01 0. -1.
         -5    1    4    4    0  502 -0.14149021488E+01  0.32912032563E+02 -0.33170910386E+02  0.46985137345E+02  0.47000000000E+01 0. -1.
          5    1    5    5  503    0 -0.10912388778E+02 -0.76036061417E+02  0.10336707678E+03  0.12886972270E+03  0.47000000000E+01 0. -1.
         -5    1    5    5    0  503  0.23938957029E+02  0.25472088285E+02 -0.84202353106E+01  0.36261430031E+02  0.47000000000E+01 0. -1.
<mgrwt>
<rscale>  0 0.27252206E+03</rscale>
<asrwt>0</asrwt>
<pdfrwt beam="1">  1        2 0.37452081E-01 0.27252206E+03</pdfrwt>
<pdfrwt beam="2">  1       -2 0.11733854E-01 0.27252206E+03</pdfrwt>
<totfact> 0.69830174E+03</totfact>
</mgrwt>
</event>
<event>
 9    1  0.7984035E-001  0.2720643E+03  0.7818608E-02  0.1100104E+00
         -2   -1    0    0    0  501 -0.00000000000E+00  0.00000000000E+00  0.42613583259E+02  0.42613583259E+02  0.00000000000E+00 0.  1.
          2   -1    0    0  501    0  0.00000000000E+00 -0.00000000000E+00 -0.43424526632E+03  0.43424526632E+03  0.00000000000E+00 0.  1.
         35    2    1    2    0    0  0.71054273576E-14  0.71054273576E-14 -0.39163168306E+03  0.47685884958E+03  0.27206430719E+03 0.  0.
         25    2    3    3    0    0 -0.18264807679E+02  0.18535371704E+02 -0.11485079619E+03  0.17212253384E+03  0.12553205991E+03 0.  0.
         25    2    3    3    0    0  0.18264807679E+02 -0.18535371704E+02 -0.27678088687E+03  0.30473631574E+03  0.12481746510E+03 0.  0.
          5    1    4    4  502    0 -0.30826770604E+02 -0.48636795516E+02 -0.37876939770E+02  0.69083863747E+02  0.47000000000E+01 0. -1.
         -5    1    4    4    0  502  0.12561962925E+02  0.67172167219E+02 -0.76973856425E+02  0.10303867009E+03  0.47000000000E+01 0. -1.
          5    1    5    5  503    0  0.44137082225E+02  0.17669275949E+02 -0.24558548903E+03  0.25018914397E+03  0.47000000000E+01 0. -1.
         -5    1    5    5    0  503 -0.25872274546E+02 -0.36204647653E+02 -0.31195397840E+02  0.54547171771E+02  0.47000000000E+01 0. -1.
<mgrwt>
<rscale>  0 0.27206431E+03</rscale>
<asrwt>0</asrwt>
<pdfrwt beam="1">  1        2 0.66806963E-01 0.27206431E+03</pdfrwt>
<pdfrwt beam="2">  1       -2 0.65559359E-02 0.27206431E+03</pdfrwt>
<totfact> 0.93418143E+03</totfact>
</mgrwt>
</event>
<event>
 9    1  0.7984035E-001  0.2764995E+03  0.7818608E-02  0.1097616E+00
          1   -1    0    0  501    0  0.00000000000E+00  0.00000000000E+00  0.22351984931E+03  0.22351984931E+03  0.00000000000E+00 0. -1.
         -1   -1    0    0    0  501 -0.00000000000E+00 -0.00000000000E+00 -0.85509157734E+02  0.85509157734E+02  0.00000000000E+00 0. -1.
         35    2    1    2    0    0  0.00000000000E+00 -0.71054273576E-14  0.13801069158E+03  0.30902900704E+03  0.27649950489E+03 0.  0.
         25    2    3    3    0    0 -0.33510320498E+02  0.43899242451E+02  0.93458111976E+02  0.16543130839E+03  0.12483194317E+03 0.  0.
         25    2    3    3    0    0  0.33510320498E+02 -0.43899242451E+02  0.44552579601E+02  0.14359769865E+03  0.12484102547E+03 0.  0.
          5    1    4    4  502    0 -0.55240160893E+02 -0.26515852370E+02  0.53456972383E+02  0.81451235096E+02  0.47000000000E+01 0. -1.
         -5    1    4    4    0  502  0.21729840395E+02  0.70415094821E+02  0.40001139592E+02  0.83980073297E+02  0.47000000000E+01 0. -1.
          5    1    5    5  503    0  0.56110150275E+02  0.22715698332E+02  0.40492194428E+02  0.72979858346E+02  0.47000000000E+01 0.  1.
         -5    1    5    5    0  503 -0.22599829778E+02 -0.66614940783E+02  0.40603851735E+01  0.70617840305E+02  0.47000000000E+01 0.  1.
<mgrwt>
<rscale>  0 0.27649950E+03</rscale>
<asrwt>0</asrwt>
<pdfrwt beam="1">  1        1 0.34387669E-01 0.27649950E+03</pdfrwt>
<pdfrwt beam="2">  1       -1 0.13155255E-01 0.27649950E+03</pdfrwt>
<totfact> 0.50105247E+03</totfact>
</mgrwt>
</event>
<event>
 9    1  0.7984035E-001  0.2752687E+03  0.7818608E-02  0.1098301E+00
          2   -1    0    0  501    0  0.00000000000E+00  0.00000000000E+00  0.11738588890E+04  0.11738588890E+04  0.00000000000E+00 0. -1.
         -2   -1    0    0    0  501 -0.00000000000E+00 -0.00000000000E+00 -0.16137559528E+02  0.16137559528E+02  0.00000000000E+00 0. -1.
         35    2    1    2    0    0  0.00000000000E+00  0.00000000000E+00  0.11577213295E+04  0.11899964485E+04  0.27526872469E+03 0.  0.
         25    2    3    3    0    0 -0.42588946594E+02  0.10171592692E+02  0.44872460021E+03  0.46866513140E+03  0.12796858554E+03 0.  0.
         25    2    3    3    0    0  0.42588946594E+02 -0.10171592692E+02  0.70899672927E+03  0.72133131714E+03  0.12540026834E+03 0.  0.
          5    1    4    4  502    0 -0.34997062635E+02 -0.18506187688E+02  0.32712203740E+02  0.51569871527E+02  0.47000000000E+01 0. -1.
         -5    1    4    4    0  502 -0.75918839596E+01  0.28677780380E+02  0.41601239647E+03  0.41709525987E+03  0.47000000000E+01 0. -1.
          5    1    5    5  503    0  0.40165332619E+02  0.38800093906E+02  0.58840547704E+03  0.59106835192E+03  0.47000000000E+01 0.  1.
         -5    1    5    5    0  503  0.24236139752E+01 -0.48971686598E+02  0.12059125223E+03  0.13026296522E+03  0.47000000000E+01 0.  1.
<mgrwt>
<rscale>  0 0.27526872E+03</rscale>
<asrwt>0</asrwt>
<pdfrwt beam="1">  1        2 0.18059361E+00 0.27526872E+03</pdfrwt>
<pdfrwt beam="2">  1       -2 0.24827024E-02 0.27526872E+03</pdfrwt>
<totfact> 0.11597465E+04</totfact>
</mgrwt>
</event>
<event>
 9    1  0.7984035E-001  0.2899861E+03  0.7818608E-02  0.1090356E+00
         -3   -1    0    0    0  501 -0.00000000000E+00  0.00000000000E+00  0.11632362314E+03  0.11632362314E+03  0.00000000000E+00 0. -1.
          3   -1    0    0  501    0  0.00000000000E+00 -0.00000000000E+00 -0.18072836120E+03  0.18072836120E+03  0.00000000000E+00 0. -1.
         35    2    1    2    0    0 -0.14210854715E-13  0.00000000000E+00 -0.64404738060E+02  0.29705198434E+03  0.28998605332E+03 0.  0.
         25    2    3    3    0    0 -0.40697492142E+02 -0.61072966551E+02 -0.33702987742E+02  0.14874334137E+03  0.12490995600E+03 0.  0.
         25    2    3    3    0    0  0.40697492142E+02  0.61072966551E+02 -0.30701750318E+02  0.14830864298E+03  0.12516654105E+03 0.  0.
          5    1    4    4  502    0 -0.30197668019E+02 -0.94736785483E+02 -0.47863621315E+02  0.11045349213E+03  0.47000000000E+01 0.  1.
         -5    1    4    4    0  502 -0.10499824123E+02  0.33663818932E+02  0.14160633572E+02  0.38289849241E+02  0.47000000000E+01 0.  1.
          5    1    5    5  503    0  0.54021120918E+02 -0.91586672320E+01  0.22147467270E+02  0.59285436637E+02  0.47000000000E+01 0.  1.
         -5    1    5    5    0  503 -0.13323628776E+02  0.70231633783E+02 -0.52849217588E+02  0.89023206341E+02  0.47000000000E+01 0.  1.
<mgrwt>
<rscale>  0 0.28998605E+03</rscale>
<asrwt>0</asrwt>
<pdfrwt beam="1">  1        3 0.27804363E-01 0.28998605E+03</pdfrwt>
<pdfrwt beam="2">  1       -3 0.17895942E-01 0.28998605E+03</pdfrwt>
<totfact> 0.86289261E+02</totfact>
</mgrwt>
</event>
<event>
 9    1  0.7984035E-001  0.2774047E+03  0.7818608E-02  0.1097115E+00
         -2   -1    0    0    0  501 -0.00000000000E+00  0.00000000000E+00  0.45685660861E+02  0.45685660861E+02  0.00000000000E+00 0. -1.
          2   -1    0    0  501    0  0.00000000000E+00 -0.00000000000E+00 -0.42110226978E+03  0.42110226978E+03  0.00000000000E+00 0. -1.
         35    2    1    2    0    0  0.00000000000E+00  0.00000000000E+00 -0.37541660892E+03  0.46678793064E+03  0.27740465378E+03 0.  0.
         25    2    3    3    0    0  0.12743170985E+02  0.42307017129E+02 -0.12094483049E+03  0.17956749287E+03  0.12515814144E+03 0.  0.
         25    2    3    3    0    0 -0.12743170985E+02 -0.42307017129E+02 -0.25447177843E+03  0.28722043777E+03  0.12564800735E+03 0.  0.
          5    1    4    4  502    0  0.54440768801E+02 -0.18412341692E+02 -0.65428682529E+02  0.87211318828E+02  0.47000000000E+01 0.  1.
         -5    1    4    4    0  502 -0.41697597816E+02  0.60719358821E+02 -0.55516147959E+02  0.92356174040E+02  0.47000000000E+01 0.  1.
          5    1    5    5  503    0 -0.52708862832E+02 -0.45220378862E+02 -0.71246310640E+02  0.99605389740E+02  0.47000000000E+01 0. -1.
         -5    1    5    5    0  503  0.39965691846E+02  0.29133617331E+01 -0.18322546779E+03  0.18761504803E+03  0.47000000000E+01 0. -1.
<mgrwt>
<rscale>  0 0.27740465E+03</rscale>
<asrwt>0</asrwt>
<pdfrwt beam="1">  1        2 0.64784965E-01 0.27740465E+03</pdfrwt>
<pdfrwt beam="2">  1       -2 0.70285632E-02 0.27740465E+03</pdfrwt>
<totfact> 0.86823482E+03</totfact>
</mgrwt>
</event>
<event>
 9    1  0.7984035E-001  0.2799110E+03  0.7818608E-02  0.1095738E+00
         -1   -1    0    0    0  501 -0.00000000000E+00  0.00000000000E+00  0.21924887286E+02  0.21924887286E+02  0.00000000000E+00 0.  1.
          1   -1    0    0  501    0  0.00000000000E+00 -0.00000000000E+00 -0.89339327961E+03  0.89339327961E+03  0.00000000000E+00 0.  1.
         35    2    1    2    0    0  0.00000000000E+00 -0.71054273576E-14 -0.87146839232E+03  0.91531816690E+03  0.27991103556E+03 0.  0.
         25    2    3    3    0    0 -0.20134331534E+02  0.58980441153E+02 -0.44082444294E+03  0.46257573887E+03  0.12556289642E+03 0.  0.
         25    2    3    3    0    0  0.20134331534E+02 -0.58980441153E+02 -0.43064394939E+03  0.45274242803E+03  0.12504963512E+03 0.  0.
          5    1    4    4  502    0 -0.10071997358E+02  0.40331483443E+02 -0.30733080167E+02  0.51910364130E+02  0.47000000000E+01 0.  1.
         -5    1    4    4    0  502 -0.10062334176E+02  0.18648957710E+02 -0.41009136277E+03  0.41066537474E+03  0.47000000000E+01 0.  1.
          5    1    5    5  503    0  0.37331881573E+02 -0.41153657098E+02 -0.42262238483E+03  0.42628518979E+03  0.47000000000E+01 0. -1.
         -5    1    5    5    0  503 -0.17197550039E+02 -0.17826784055E+02 -0.80215645578E+01  0.26457238236E+02  0.47000000000E+01 0. -1.
<mgrwt>
<rscale>  0 0.27991104E+03</rscale>
<asrwt>0</asrwt>
<pdfrwt beam="1">  1        1 0.13744512E+00 0.27991104E+03</pdfrwt>
<pdfrwt beam="2">  1       -1 0.33730597E-02 0.27991104E+03</pdfrwt>
<totfact> 0.61234314E+03</totfact>
</mgrwt>
</event>
<event>
 9    1  0.7984035E-001  0.2731727E+03  0.7818608E-02  0.1099477E+00
         -2   -1    0    0    0  501 -0.00000000000E+00  0.00000000000E+00  0.66738410778E+01  0.66738410778E+01  0.00000000000E+00 0. -1.
          2   -1    0    0  501    0  0.00000000000E+00 -0.00000000000E+00 -0.27953661462E+04  0.27953661462E+04  0.00000000000E+00 0. -1.
         35    2    1    2    0    0  0.00000000000E+00  0.71054273576E-14 -0.27886923051E+04  0.28020399873E+04  0.27317268834E+03 0.  0.
         25    2    3    3    0    0 -0.37872727131E+02 -0.26044167196E+01 -0.97634122042E+03  0.98505126087E+03  0.12507070566E+03 0.  0.
         25    2    3    3    0    0  0.37872727131E+02  0.26044167196E+01 -0.18123510847E+04  0.18169887264E+04  0.12405825730E+03 0.  0.
          5    1    4    4  502    0 -0.32735840631E+02  0.59545802749E+02 -0.52295250190E+03  0.52736964942E+03  0.47000000000E+01 0.  1.
         -5    1    4    4    0  502 -0.51368864994E+01 -0.62150219468E+02 -0.45338871851E+03  0.45768161145E+03  0.47000000000E+01 0.  1.
          5    1    5    5  503    0  0.52167124524E+02 -0.51239694788E+02 -0.94369707513E+03  0.94653746614E+03  0.47000000000E+01 0. -1.
         -5    1    5    5    0  503 -0.14294397393E+02  0.53844111507E+02 -0.86865400957E+03  0.87045126026E+03  0.47000000000E+01 0. -1.
<mgrwt>
<rscale>  0 0.27317269E+03</rscale>
<asrwt>0</asrwt>
<pdfrwt beam="1">  1        2 0.43005643E+00 0.27317269E+03</pdfrwt>
<pdfrwt beam="2">  1       -2 0.10267445E-02 0.27317269E+03</pdfrwt>
<totfact> 0.56248768E+03</totfact>
</mgrwt>
</event>
<event>
 9    1  0.7984035E-001  0.2898245E+03  0.7818608E-02  0.1090441E+00
          1   -1    0    0  501    0  0.00000000000E+00  0.00000000000E+00  0.90259997379E+03  0.90259997379E+03  0.00000000000E+00 0.  1.
         -1   -1    0    0    0  501 -0.00000000000E+00 -0.00000000000E+00 -0.23265629491E+02  0.23265629491E+02  0.00000000000E+00 0.  1.
         35    2    1    2    0    0 -0.14210854715E-13 -0.35527136788E-14  0.87933434430E+03  0.92586560328E+03  0.28982447494E+03 0.  0.
         25    2    3    3    0    0 -0.25285651624E+02  0.62493055496E+00  0.21925523512E+03  0.25349147869E+03  0.12468086028E+03 0.  0.
         25    2    3    3    0    0  0.25285651624E+02 -0.62493055496E+00  0.66007910917E+03  0.67237412459E+03  0.12547022890E+03 0.  0.
          5    1    4    4  502    0 -0.25411090839E+02 -0.56540189158E+02  0.15690448877E+03  0.16877092500E+03  0.47000000000E+01 0.  1.
         -5    1    4    4    0  502  0.12543921562E+00  0.57165119712E+02  0.62350746350E+02  0.84720553688E+02  0.47000000000E+01 0.  1.
          5    1    5    5  503    0 -0.43042676120E+02  0.30110990847E+02  0.25476441607E+03  0.26016598823E+03  0.47000000000E+01 0.  1.
         -5    1    5    5    0  503  0.68328327744E+02 -0.30735921402E+02  0.40531469310E+03  0.41220813636E+03  0.47000000000E+01 0.  1.
<mgrwt>
<rscale>  0 0.28982447E+03</rscale>
<asrwt>0</asrwt>
<pdfrwt beam="1">  1        1 0.13886151E+00 0.28982447E+03</pdfrwt>
<pdfrwt beam="2">  1       -1 0.35793283E-02 0.28982447E+03</pdfrwt>
<totfact> 0.55185023E+03</totfact>
</mgrwt>
</event>
<event>
 9    1  0.7984035E-001  0.2680937E+03  0.7818608E-02  0.1102376E+00
          2   -1    0    0  501    0  0.00000000000E+00  0.00000000000E+00  0.85806449411E+03  0.85806449411E+03  0.00000000000E+00 0. -1.
         -2   -1    0    0    0  501 -0.00000000000E+00 -0.00000000000E+00 -0.20940804978E+02  0.20940804978E+02  0.00000000000E+00 0. -1.
         35    2    1    2    0    0  0.00000000000E+00 -0.71054273576E-14  0.83712368914E+03  0.87900529909E+03  0.26809372413E+03 0.  0.
         25    2    3    3    0    0  0.27788381567E+02  0.80237044078E+01  0.28536621927E+03  0.31256000719E+03  0.12419059954E+03 0.  0.
         25    2    3    3    0    0 -0.27788381567E+02 -0.80237044078E+01  0.55175746987E+03  0.56644529190E+03  0.12484946607E+03 0.  0.
          5    1    4    4  502    0  0.43907959758E+01 -0.56745013383E+02  0.10666046057E+03  0.12098685665E+03  0.47000000000E+01 0.  1.
         -5    1    4    4    0  502  0.23397585591E+02  0.64768717791E+02  0.17870575870E+03  0.19157315054E+03  0.47000000000E+01 0.  1.
          5    1    5    5  503    0  0.27942173087E+02 -0.13260687132E+02  0.36235008310E+02  0.47871460049E+02  0.47000000000E+01 0. -1.
         -5    1    5    5    0  503 -0.55730554654E+02  0.52369827238E+01  0.51552246156E+03  0.51857383185E+03  0.47000000000E+01 0. -1.
<mgrwt>
<rscale>  0 0.26809372E+03</rscale>
<asrwt>0</asrwt>
<pdfrwt beam="1">  1        2 0.13200990E+00 0.26809372E+03</pdfrwt>
<pdfrwt beam="2">  1       -2 0.32216630E-02 0.26809372E+03</pdfrwt>
<totfact> 0.12272014E+04</totfact>
</mgrwt>
</event>
<event>
 9    1  0.7984035E-001  0.2516438E+03  0.7818608E-02  0.1112270E+00
          2   -1    0    0  501    0  0.00000000000E+00  0.00000000000E+00  0.12983584698E+04  0.12983584698E+04  0.00000000000E+00 0. -1.
         -2   -1    0    0    0  501 -0.00000000000E+00 -0.00000000000E+00 -0.12193205706E+02  0.12193205706E+02  0.00000000000E+00 0. -1.
         35    2    1    2    0    0  0.71054273576E-14  0.17763568394E-14  0.12861652641E+04  0.13105516755E+04  0.25164381100E+03 0.  0.
         25    2    3    3    0    0 -0.13092302607E+02 -0.39167396876E+01  0.65587680392E+03  0.66775425448E+03  0.12463792850E+03 0.  0.
         25    2    3    3    0    0  0.13092302607E+02  0.39167396876E+01  0.63028846020E+03  0.64279742105E+03  0.12545211123E+03 0.  0.
          5    1    4    4  502    0 -0.63103015622E+02  0.82535712654E+01  0.22782245495E+03  0.23659094023E+03  0.47000000000E+01 0.  1.
         -5    1    4    4    0  502  0.50010713015E+02 -0.12170310953E+02  0.42805434897E+03  0.43116331425E+03  0.47000000000E+01 0.  1.
          5    1    5    5  503    0 -0.48211141795E+02 -0.57601340061E+01  0.13364926741E+03  0.14227336369E+03  0.47000000000E+01 0. -1.
         -5    1    5    5    0  503  0.61303444402E+02  0.96768736937E+01  0.49663919279E+03  0.50052405736E+03  0.47000000000E+01 0. -1.
<mgrwt>
<rscale>  0 0.25164381E+03</rscale>
<asrwt>0</asrwt>
<pdfrwt beam="1">  1        2 0.19974735E+00 0.25164381E+03</pdfrwt>
<pdfrwt beam="2">  1       -2 0.18758788E-02 0.25164381E+03</pdfrwt>
<totfact> 0.14875046E+04</totfact>
</mgrwt>
</event>
<event>
 9    1  0.7984035E-001  0.2713598E+03  0.7818608E-02  0.1100504E+00
          2   -1    0    0  501    0  0.00000000000E+00  0.00000000000E+00  0.13890950486E+04  0.13890950486E+04  0.00000000000E+00 0.  1.
         -2   -1    0    0    0  501 -0.00000000000E+00 -0.00000000000E+00 -0.13252533769E+02  0.13252533769E+02  0.00000000000E+00 0.  1.
         35    2    1    2    0    0 -0.71054273576E-14  0.17763568394E-14  0.13758425148E+04  0.14023475824E+04  0.27135975413E+03 0.  0.
         25    2    3    3    0    0 -0.44331477968E+02 -0.53745807099E+01  0.85250535215E+03  0.86269003317E+03  0.12439675169E+03 0.  0.
         25    2    3    3    0    0  0.44331477968E+02  0.53745807099E+01  0.52333716267E+03  0.53965754919E+03  0.12391254378E+03 0.  0.
          5    1    4    4  502    0 -0.87937695574E+02 -0.58618912710E+01  0.58052163826E+03  0.58719235567E+03  0.47000000000E+01 0.  1.
         -5    1    4    4    0  502  0.43606217606E+02  0.48731056113E+00  0.27198371389E+03  0.27549767750E+03  0.47000000000E+01 0.  1.
          5    1    5    5  503    0  0.55803615017E+02  0.32044110709E+02  0.49372189766E+03  0.49791994408E+03  0.47000000000E+01 0. -1.
         -5    1    5    5    0  503 -0.11472137050E+02 -0.26669529999E+02  0.29615265014E+02  0.41737605114E+02  0.47000000000E+01 0. -1.
<mgrwt>
<rscale>  0 0.27135975E+03</rscale>
<asrwt>0</asrwt>
<pdfrwt beam="1">  1        2 0.21370682E+00 0.27135975E+03</pdfrwt>
<pdfrwt beam="2">  1       -2 0.20388524E-02 0.27135975E+03</pdfrwt>
<totfact> 0.11764414E+04</totfact>
</mgrwt>
</event>
<event>
 9    1  0.7984035E-001  0.2756144E+03  0.7818608E-02  0.1098109E+00
          1   -1    0    0  501    0  0.00000000000E+00  0.00000000000E+00  0.16355918808E+04  0.16355918808E+04  0.00000000000E+00 0.  1.
         -1   -1    0    0    0  501 -0.00000000000E+00 -0.00000000000E+00 -0.11610980073E+02  0.11610980073E+02  0.00000000000E+00 0.  1.
         35    2    1    2    0    0  0.00000000000E+00  0.00000000000E+00  0.16239809007E+04  0.16472028609E+04  0.27561440264E+03 0.  0.
         25    2    3    3    0    0  0.35697756198E+02 -0.13310623485E+02  0.10817581259E+04  0.10894860004E+04  0.12380468368E+03 0.  0.
         25    2    3    3    0    0 -0.35697756198E+02  0.13310623485E+02  0.54222277484E+03  0.55771686045E+03  0.12486415170E+03 0.  0.
          5    1    4    4  502    0 -0.11519854846E+00  0.51751737573E+02  0.56706709902E+03  0.56944309672E+03  0.47000000000E+01 0. -1.
         -5    1    4    4    0  502  0.35812954746E+02 -0.65062361058E+02  0.51469102685E+03  0.52004290369E+03  0.47000000000E+01 0. -1.
          5    1    5    5  503    0  0.23656378528E+02  0.23760036888E+02  0.41999797834E+03  0.42136036289E+03  0.47000000000E+01 0.  1.
         -5    1    5    5    0  503 -0.59354134726E+02 -0.10449413403E+02  0.12222479650E+03  0.13635649757E+03  0.47000000000E+01 0.  1.
<mgrwt>
<rscale>  0 0.27561440E+03</rscale>
<asrwt>0</asrwt>
<pdfrwt beam="1">  1        1 0.25162934E+00 0.27561440E+03</pdfrwt>
<pdfrwt beam="2">  1       -1 0.17863059E-02 0.27561440E+03</pdfrwt>
<totfact> 0.47123525E+03</totfact>
</mgrwt>
</event>
<event>
 9    1  0.7984035E-001  0.2738101E+03  0.7818608E-02  0.1099119E+00
          3   -1    0    0  501    0  0.00000000000E+00  0.00000000000E+00  0.14521448924E+03  0.14521448924E+03  0.00000000000E+00 0. -1.
         -3   -1    0    0    0  501 -0.00000000000E+00 -0.00000000000E+00 -0.12907113138E+03  0.12907113138E+03  0.00000000000E+00 0. -1.
         35    2    1    2    0    0  0.00000000000E+00  0.71054273576E-14  0.16143357864E+02  0.27428562062E+03  0.27381014166E+03 0.  0.
         25    2    3    3    0    0 -0.18688485279E+02 -0.51479534328E+02  0.21360249470E+01  0.13723717780E+03  0.12581763958E+03 0.  0.
         25    2    3    3    0    0  0.18688485279E+02  0.51479534328E+02  0.14007332917E+02  0.13704844283E+03  0.12484657932E+03 0.  0.
          5    1    4    4  502    0 -0.49741075030E+02 -0.79027440672E+02 -0.92064322299E+01  0.93948705785E+02  0.47000000000E+01 0. -1.
         -5    1    4    4    0  502  0.31052589750E+02  0.27547906344E+02  0.11342457177E+02  0.43288472010E+02  0.47000000000E+01 0. -1.
          5    1    5    5  503    0  0.91357530230E+01  0.92841195236E+02  0.13158159097E+02  0.94330147180E+02  0.47000000000E+01 0.  1.
         -5    1    5    5    0  503  0.95527322562E+01 -0.41361660908E+02  0.84917381954E+00  0.42718295645E+02  0.47000000000E+01 0.  1.
<mgrwt>
<rscale>  0 0.27381014E+03</rscale>
<asrwt>0</asrwt>
<pdfrwt beam="1">  1        3 0.22340691E-01 0.27381014E+03</pdfrwt>
<pdfrwt beam="2">  1       -3 0.19857097E-01 0.27381014E+03</pdfrwt>
<totfact> 0.10640774E+03</totfact>
</mgrwt>
</event>
<event>
 9    1  0.7984035E-001  0.2752938E+03  0.7818608E-02  0.1098287E+00
          1   -1    0    0  501    0  0.00000000000E+00  0.00000000000E+00  0.29325872419E+04  0.29325872419E+04  0.00000000000E+00 0. -1.
         -1   -1    0    0    0  501 -0.00000000000E+00 -0.00000000000E+00 -0.64607347994E+01  0.64607347994E+01  0.00000000000E+00 0. -1.
         35    2    1    2    0    0  0.17763568394E-14 -0.71054273576E-14  0.29261265071E+04  0.29390479767E+04  0.27529379540E+03 0.  0.
         25    2    3    3    0    0 -0.11633824824E+02  0.35124302377E+02  0.10154533953E+04  0.10237666420E+04  0.12483379588E+03 0.  0.
         25    2    3    3    0    0  0.11633824824E+02 -0.35124302377E+02  0.19106731118E+04  0.19152813348E+04  0.12752171848E+03 0.  0.
          5    1    4    4  502    0 -0.81611773021E+01  0.79504834754E+02  0.77982498513E+03  0.78392392551E+03  0.47000000000E+01 0.  1.
         -5    1    4    4    0  502 -0.34726475223E+01 -0.44380532377E+02  0.23562841022E+03  0.23984271646E+03  0.47000000000E+01 0.  1.
          5    1    5    5  503    0 -0.94733636172E+01  0.43427539951E+02  0.41717819378E+03  0.41956576506E+03  0.47000000000E+01 0.  1.
         -5    1    5    5    0  503  0.21107188442E+02 -0.78551842327E+02  0.14934949180E+04  0.14957155697E+04  0.47000000000E+01 0.  1.
<mgrwt>
<rscale>  0 0.27529380E+03</rscale>
<asrwt>0</asrwt>
<pdfrwt beam="1">  1        1 0.45116620E+00 0.27529380E+03</pdfrwt>
<pdfrwt beam="2">  1       -1 0.99396154E-03 0.27529380E+03</pdfrwt>
<totfact> 0.15303810E+03</totfact>
</mgrwt>
</event>
<event>
 9    1  0.7984035E-001  0.2754674E+03  0.7818608E-02  0.1098191E+00
         -2   -1    0    0    0  501 -0.00000000000E+00  0.00000000000E+00  0.20895459251E+02  0.20895459251E+02  0.00000000000E+00 0.  1.
          2   -1    0    0  501    0  0.00000000000E+00 -0.00000000000E+00 -0.90788024373E+03  0.90788024373E+03  0.00000000000E+00 0.  1.
         35    2    1    2    0    0  0.17763568394E-14  0.00000000000E+00 -0.88698478447E+03  0.92877570298E+03  0.27546741831E+03 0.  0.
         25    2    3    3    0    0 -0.13473349424E+02 -0.53716040247E+02 -0.50460758892E+03  0.52262647692E+03  0.12426854570E+03 0.  0.
         25    2    3    3    0    0  0.13473349424E+02  0.53716040247E+02 -0.38237719555E+03  0.40614922606E+03  0.12521154111E+03 0.  0.
          5    1    4    4  502    0 -0.14388196707E+02 -0.58421097563E+02 -0.92389742216E+02  0.11035397279E+03  0.47000000000E+01 0.  1.
         -5    1    4    4    0  502  0.91484728269E+00  0.47050573154E+01 -0.41221784671E+03  0.41227250412E+03  0.47000000000E+01 0.  1.
          5    1    5    5  503    0 -0.30871023671E+02  0.53810836865E+02 -0.33637843800E+03  0.34208357140E+03  0.47000000000E+01 0. -1.
         -5    1    5    5    0  503  0.44344373095E+02 -0.94796617440E-01 -0.45998757549E+02  0.64065654665E+02  0.47000000000E+01 0. -1.
<mgrwt>
<rscale>  0 0.27546742E+03</rscale>
<asrwt>0</asrwt>
<pdfrwt beam="1">  1        2 0.13967390E+00 0.27546742E+03</pdfrwt>
<pdfrwt beam="2">  1       -2 0.32146857E-02 0.27546742E+03</pdfrwt>
<totfact> 0.11434560E+04</totfact>
</mgrwt>
</event>
<event>
 9    1  0.7984035E-001  0.2746750E+03  0.7818608E-02  0.1098633E+00
         -2   -1    0    0    0  501 -0.00000000000E+00  0.00000000000E+00  0.20688172693E+02  0.20688172693E+02  0.00000000000E+00 0. -1.
          2   -1    0    0  501    0  0.00000000000E+00 -0.00000000000E+00 -0.91170883999E+03  0.91170883999E+03  0.00000000000E+00 0. -1.
         35    2    1    2    0    0  0.00000000000E+00 -0.14210854715E-13 -0.89102066730E+03  0.93239701269E+03  0.27467500744E+03 0.  0.
         25    2    3    3    0    0 -0.16356700200E+01  0.55544684131E+02 -0.46154626228E+03  0.48134052704E+03  0.12480329881E+03 0.  0.
         25    2    3    3    0    0  0.16356700200E+01 -0.55544684131E+02 -0.42947440502E+03  0.45105648565E+03  0.12615784290E+03 0.  0.
          5    1    4    4  502    0 -0.44881856514E+02 -0.87784275435E+01 -0.82712352740E+02  0.94630149160E+02  0.47000000000E+01 0.  1.
         -5    1    4    4    0  502  0.43246186494E+02  0.64323111675E+02 -0.37883390954E+03  0.38671037788E+03  0.47000000000E+01 0.  1.
          5    1    5    5  503    0  0.27520907859E+02  0.30636678411E+02 -0.79360312159E+02  0.89532985985E+02  0.47000000000E+01 0. -1.
         -5    1    5    5    0  503 -0.25885237839E+02 -0.86181362542E+02 -0.35011409286E+03  0.36152349966E+03  0.47000000000E+01 0. -1.
<mgrwt>
<rscale>  0 0.27467501E+03</rscale>
<asrwt>0</asrwt>
<pdfrwt beam="1">  1        2 0.14026292E+00 0.27467501E+03</pdfrwt>
<pdfrwt beam="2">  1       -2 0.31827954E-02 0.27467501E+03</pdfrwt>
<totfact> 0.11539237E+04</totfact>
</mgrwt>
</event>
<event>
 9    1  0.7984035E-001  0.2751523E+03  0.7818608E-02  0.1098366E+00
          1   -1    0    0  501    0  0.00000000000E+00  0.00000000000E+00  0.38416991260E+03  0.38416991260E+03  0.00000000000E+00 0. -1.
         -1   -1    0    0    0  501 -0.00000000000E+00 -0.00000000000E+00 -0.49267792577E+02  0.49267792577E+02  0.00000000000E+00 0. -1.
         35    2    1    2    0    0  0.00000000000E+00  0.00000000000E+00  0.33490212002E+03  0.43343770517E+03  0.27515234739E+03 0.  0.
         25    2    3    3    0    0  0.43960239351E+02 -0.63333108003E+01  0.10963314512E+03  0.17200365690E+03  0.12487280732E+03 0.  0.
         25    2    3    3    0    0 -0.43960239351E+02  0.63333108003E+01  0.22526897490E+03  0.26143404828E+03  0.12501614726E+03 0.  0.
          5    1    4    4  502    0 -0.43487739424E+01 -0.58363990203E+02  0.66864556436E+02  0.88984414897E+02  0.47000000000E+01 0.  1.
         -5    1    4    4    0  502  0.48309013293E+02  0.52030679403E+02  0.42768588680E+02  0.83019241999E+02  0.47000000000E+01 0.  1.
          5    1    5    5  503    0 -0.76835590302E+02  0.24435997705E+02  0.89765619810E+02  0.12075091064E+03  0.47000000000E+01 0. -1.
         -5    1    5    5    0  503  0.32875350952E+02 -0.18102686905E+02  0.13550335509E+03  0.14068313764E+03  0.47000000000E+01 0. -1.
<mgrwt>
<rscale>  0 0.27515235E+03</rscale>
<asrwt>0</asrwt>
<pdfrwt beam="1">  1        1 0.59103062E-01 0.27515235E+03</pdfrwt>
<pdfrwt beam="2">  1       -1 0.75796606E-02 0.27515235E+03</pdfrwt>
<totfact> 0.59365757E+03</totfact>
</mgrwt>
</event>
<event>
 9    1  0.7984035E-001  0.2766978E+03  0.7818608E-02  0.1097506E+00
          2   -1    0    0  501    0  0.00000000000E+00  0.00000000000E+00  0.23407956580E+03  0.23407956580E+03  0.00000000000E+00 0. -1.
         -2   -1    0    0    0  501 -0.00000000000E+00 -0.00000000000E+00 -0.81768866473E+02  0.81768866473E+02  0.00000000000E+00 0. -1.
         35    2    1    2    0    0 -0.14210854715E-13  0.00000000000E+00  0.15231069933E+03  0.31584843228E+03  0.27669781900E+03 0.  0.
         25    2    3    3    0    0 -0.44682384486E+02 -0.42215895255E+02  0.67062169365E+02  0.15374108815E+03  0.12393663837E+03 0.  0.
         25    2    3    3    0    0  0.44682384486E+02  0.42215895255E+02  0.85248529966E+02  0.16210734413E+03  0.12342115646E+03 0.  0.
          5    1    4    4  502    0  0.88631730717E+01 -0.23872724321E+02  0.89125372603E+02  0.92811016830E+02  0.47000000000E+01 0. -1.
         -5    1    4    4    0  502 -0.53545557558E+02 -0.18343170934E+02 -0.22063203238E+02  0.60930071321E+02  0.47000000000E+01 0. -1.
          5    1    5    5  503    0  0.79599571809E+02 -0.12182259693E+00  0.33359242917E+02  0.86435153502E+02  0.47000000000E+01 0.  1.
         -5    1    5    5    0  503 -0.34917187323E+02  0.42337717852E+02  0.51889287049E+02  0.75672190625E+02  0.47000000000E+01 0.  1.
<mgrwt>
<rscale>  0 0.27669782E+03</rscale>
<asrwt>0</asrwt>
<pdfrwt beam="1">  1        2 0.36012240E-01 0.27669782E+03</pdfrwt>
<pdfrwt beam="2">  1       -2 0.12579826E-01 0.27669782E+03</pdfrwt>
<totfact> 0.65141136E+03</totfact>
</mgrwt>
</event>
<event>
 9    1  0.7984035E-001  0.2754772E+03  0.7818608E-02  0.1098185E+00
         -1   -1    0    0    0  501 -0.00000000000E+00  0.00000000000E+00  0.13891039648E+02  0.13891039648E+02  0.00000000000E+00 0. -1.
          1   -1    0    0  501    0  0.00000000000E+00 -0.00000000000E+00 -0.13657665009E+04  0.13657665009E+04  0.00000000000E+00 0. -1.
         35    2    1    2    0    0 -0.71054273576E-14  0.00000000000E+00 -0.13518754612E+04  0.13796575405E+04  0.27547716140E+03 0.  0.
         25    2    3    3    0    0  0.17258565336E+02  0.33549941212E+02 -0.88388506270E+03  0.89355919480E+03  0.12558572335E+03 0.  0.
         25    2    3    3    0    0 -0.17258565336E+02 -0.33549941212E+02 -0.46799039852E+03  0.48609834572E+03  0.12590922115E+03 0.  0.
          5    1    4    4  502    0  0.70405003481E+02  0.11725998582E+02 -0.41158241079E+03  0.41775176173E+03  0.47000000000E+01 0.  1.
         -5    1    4    4    0  502 -0.53146438145E+02  0.21823942629E+02 -0.47230265191E+03  0.47580743307E+03  0.47000000000E+01 0.  1.
          5    1    5    5  503    0 -0.31967533280E+02  0.20310601688E+02 -0.37914318431E+03  0.38105916592E+03  0.47000000000E+01 0.  1.
         -5    1    5    5    0  503  0.14708967944E+02 -0.53860542900E+02 -0.88847214211E+02  0.10503917980E+03  0.47000000000E+01 0.  1.
<mgrwt>
<rscale>  0 0.27547716E+03</rscale>
<asrwt>0</asrwt>
<pdfrwt beam="1">  1        1 0.21011799E+00 0.27547716E+03</pdfrwt>
<pdfrwt beam="2">  1       -1 0.21370824E-02 0.27547716E+03</pdfrwt>
<totfact> 0.54764643E+03</totfact>
</mgrwt>
</event>
<event>
 9    1  0.7984035E-001  0.2773711E+03  0.7818608E-02  0.1097134E+00
         -1   -1    0    0    0  501 -0.00000000000E+00  0.00000000000E+00  0.60499284638E+03  0.60499284638E+03  0.00000000000E+00 0. -1.
          1   -1    0    0  501    0  0.00000000000E+00 -0.00000000000E+00 -0.31791588996E+02  0.31791588996E+02  0.00000000000E+00 0. -1.
         35    2    1    2    0    0  0.00000000000E+00  0.00000000000E+00  0.57320125738E+03  0.63678443538E+03  0.27737111542E+03 0.  0.
         25    2    3    3    0    0  0.76952620445E+01  0.53571317753E+02  0.23472403475E+03  0.27168250806E+03  0.12564596911E+03 0.  0.
         25    2    3    3    0    0 -0.76952620445E+01 -0.53571317753E+02  0.33847722263E+03  0.36510192731E+03  0.12571190852E+03 0.  0.
          5    1    4    4  502    0 -0.54304601356E+02  0.15068567462E+02  0.14681291490E+03  0.15732823471E+03  0.47000000000E+01 0.  1.
         -5    1    4    4    0  502  0.61999863401E+02  0.38502750290E+02  0.87911119850E+02  0.11435427336E+03  0.47000000000E+01 0.  1.
          5    1    5    5  503    0 -0.43329767644E+02 -0.57227166270E+02  0.96066232372E+02  0.12001345060E+03  0.47000000000E+01 0.  1.
         -5    1    5    5    0  503  0.35634505599E+02  0.36558485173E+01  0.24241099026E+03  0.24508847671E+03  0.47000000000E+01 0.  1.
<mgrwt>
<rscale>  0 0.27737112E+03</rscale>
<asrwt>0</asrwt>
<pdfrwt beam="1">  1        1 0.48910141E-02 0.27737112E+03</pdfrwt>
<pdfrwt beam="2">  1       -1 0.93075814E-01 0.27737112E+03</pdfrwt>
<totfact> 0.20253426E+03</totfact>
</mgrwt>
</event>
<event>
 9    1  0.7984035E-001  0.2757700E+03  0.7818608E-02  0.1098022E+00
          2   -1    0    0  501    0  0.00000000000E+00  0.00000000000E+00  0.92375640665E+03  0.92375640665E+03  0.00000000000E+00 0. -1.
         -2   -1    0    0    0  501 -0.00000000000E+00 -0.00000000000E+00 -0.20581485618E+02  0.20581485618E+02  0.00000000000E+00 0. -1.
         35    2    1    2    0    0 -0.71054273576E-14  0.35527136788E-14  0.90317492104E+03  0.94433789227E+03  0.27577004332E+03 0.  0.
         25    2    3    3    0    0  0.51242340902E+02 -0.17415357824E+02  0.37956704300E+03  0.40315494529E+03  0.12463425528E+03 0.  0.
         25    2    3    3    0    0 -0.51242340902E+02  0.17415357824E+02  0.52360787803E+03  0.54118294698E+03  0.12563717593E+03 0.  0.
          5    1    4    4  502    0  0.56789912617E+02  0.34360612726E+02  0.10997068916E+03  0.12853555289E+03  0.47000000000E+01 0. -1.
         -5    1    4    4    0  502 -0.55475717153E+01 -0.51775970550E+02  0.26959635384E+03  0.27461939240E+03  0.47000000000E+01 0. -1.
          5    1    5    5  503    0  0.22349638688E+02  0.47570659210E+02  0.14551557900E+03  0.15478807351E+03  0.47000000000E+01 0. -1.
         -5    1    5    5    0  503 -0.73591979590E+02 -0.30155301386E+02  0.37809229903E+03  0.38639487347E+03  0.47000000000E+01 0. -1.
<mgrwt>
<rscale>  0 0.27577004E+03</rscale>
<asrwt>0</asrwt>
<pdfrwt beam="1">  1        2 0.14211634E+00 0.27577004E+03</pdfrwt>
<pdfrwt beam="2">  1       -2 0.31663831E-02 0.27577004E+03</pdfrwt>
<totfact> 0.11425612E+04</totfact>
</mgrwt>
</event>
<event>
 9    1  0.7984035E-001  0.2752335E+03  0.7818608E-02  0.1098321E+00
         -2   -1    0    0    0  501 -0.00000000000E+00  0.00000000000E+00  0.63606534406E+01  0.63606534406E+01  0.00000000000E+00 0.  1.
          2   -1    0    0  501    0  0.00000000000E+00 -0.00000000000E+00 -0.29774244561E+04  0.29774244561E+04  0.00000000000E+00 0.  1.
         35    2    1    2    0    0  0.35527136788E-14  0.71054273576E-14 -0.29710638026E+04  0.29837851095E+04  0.27523346534E+03 0.  0.
         25    2    3    3    0    0 -0.15317842814E+02 -0.53532748354E+02 -0.15876986161E+04  0.15934896983E+04  0.12378259833E+03 0.  0.
         25    2    3    3    0    0  0.15317842814E+02  0.53532748354E+02 -0.13833651866E+04  0.13902954112E+04  0.12697125504E+03 0.  0.
          5    1    4    4  502    0  0.18131934426E+02 -0.43851743358E+02 -0.14671396904E+04  0.14679144061E+04  0.47000000000E+01 0. -1.
         -5    1    4    4    0  502 -0.33449777240E+02 -0.96810049955E+01 -0.12055892565E+03  0.12557529219E+03  0.47000000000E+01 0. -1.
          5    1    5    5  503    0  0.55464306304E+02 -0.15575415247E+02 -0.65400825144E+03  0.65655751141E+03  0.47000000000E+01 0. -1.
         -5    1    5    5    0  503 -0.40146463490E+02  0.69108163601E+02 -0.72935693512E+03  0.73373789980E+03  0.47000000000E+01 0. -1.
<mgrwt>
<rscale>  0 0.27523347E+03</rscale>
<asrwt>0</asrwt>
<pdfrwt beam="1">  1        2 0.45806686E+00 0.27523347E+03</pdfrwt>
<pdfrwt beam="2">  1       -2 0.97855873E-03 0.27523347E+03</pdfrwt>
<totfact> 0.47276673E+03</totfact>
</mgrwt>
</event>
<event>
 9    1  0.7984035E-001  0.2732072E+03  0.7818608E-02  0.1099458E+00
          2   -1    0    0  501    0  0.00000000000E+00  0.00000000000E+00  0.92568851340E+03  0.92568851340E+03  0.00000000000E+00 0.  1.
         -2   -1    0    0    0  501 -0.00000000000E+00 -0.00000000000E+00 -0.20158556840E+02  0.20158556840E+02  0.00000000000E+00 0.  1.
         35    2    1    2    0    0  0.00000000000E+00  0.00000000000E+00  0.90552995656E+03  0.94584707024E+03  0.27320720718E+03 0.  0.
         25    2    3    3    0    0  0.75665825417E+01  0.40662851513E+02  0.32733006280E+03  0.35254496420E+03  0.12422665215E+03 0.  0.
         25    2    3    3    0    0 -0.75665825417E+01 -0.40662851513E+02  0.57819989376E+03  0.59330210605E+03  0.12641816019E+03 0.  0.
          5    1    4    4  502    0 -0.46802410174E+02  0.42071198171E+02  0.25029768743E+03  0.25813072976E+03  0.47000000000E+01 0.  1.
         -5    1    4    4    0  502  0.54368992716E+02 -0.14083466583E+01  0.77032375366E+02  0.94414234434E+02  0.47000000000E+01 0.  1.
          5    1    5    5  503    0 -0.39244694570E+02 -0.65866589299E+02  0.49192387127E+03  0.49788526667E+03  0.47000000000E+01 0. -1.
         -5    1    5    5    0  503  0.31678112028E+02  0.25203737786E+02  0.86276022491E+02  0.95416839378E+02  0.47000000000E+01 0. -1.
<mgrwt>
<rscale>  0 0.27320721E+03</rscale>
<asrwt>0</asrwt>
<pdfrwt beam="1">  1        2 0.14241358E+00 0.27320721E+03</pdfrwt>
<pdfrwt beam="2">  1       -2 0.31013171E-02 0.27320721E+03</pdfrwt>
<totfact> 0.11747757E+04</totfact>
</mgrwt>
</event>
<event>
 9    1  0.7984035E-001  0.2753277E+03  0.7818608E-02  0.1098269E+00
          1   -1    0    0  501    0  0.00000000000E+00  0.00000000000E+00  0.68658802458E+03  0.68658802458E+03  0.00000000000E+00 0. -1.
         -1   -1    0    0    0  501 -0.00000000000E+00 -0.00000000000E+00 -0.27602190302E+02  0.27602190302E+02  0.00000000000E+00 0. -1.
         35    2    1    2    0    0  0.71054273576E-14 -0.14210854715E-13  0.65898583427E+03  0.71419021488E+03  0.27532768341E+03 0.  0.
         25    2    3    3    0    0 -0.36456153244E+02 -0.43869133581E+02  0.35604566462E+03  0.38168520376E+03  0.12514602464E+03 0.  0.
         25    2    3    3    0    0  0.36456153244E+02  0.43869133581E+02  0.30294016966E+03  0.33250501112E+03  0.12463259621E+03 0.  0.
          5    1    4    4  502    0 -0.33409780725E+02 -0.76242973589E+02  0.13839512822E+03  0.16156888928E+03  0.47000000000E+01 0. -1.
         -5    1    4    4    0  502 -0.30463725188E+01  0.32373840009E+02  0.21765053640E+03  0.22011631448E+03  0.47000000000E+01 0. -1.
          5    1    5    5  503    0  0.33634509576E+02  0.63270015042E+02  0.75582911744E+02  0.10425565493E+03  0.47000000000E+01 0.  1.
         -5    1    5    5    0  503  0.28216436677E+01 -0.19400881461E+02  0.22735725791E+03  0.22824935619E+03  0.47000000000E+01 0.  1.
<mgrwt>
<rscale>  0 0.27532768E+03</rscale>
<asrwt>0</asrwt>
<pdfrwt beam="1">  1        1 0.10562891E+00 0.27532768E+03</pdfrwt>
<pdfrwt beam="2">  1       -1 0.42464913E-02 0.27532768E+03</pdfrwt>
<totfact> 0.65039296E+03</totfact>
</mgrwt>
</event>
<event>
 9    1  0.7984035E-001  0.2759860E+03  0.7818608E-02  0.1097902E+00
         -2   -1    0    0    0  501 -0.00000000000E+00  0.00000000000E+00  0.10598937695E+03  0.10598937695E+03  0.00000000000E+00 0. -1.
          2   -1    0    0  501    0  0.00000000000E+00 -0.00000000000E+00 -0.17966019554E+03  0.17966019554E+03  0.00000000000E+00 0. -1.
         35    2    1    2    0    0 -0.35527136788E-14 -0.14210854715E-13 -0.73670818586E+02  0.28564957249E+03  0.27598602999E+03 0.  0.
         25    2    3    3    0    0  0.23475197888E+02  0.70018447497E+01 -0.94200902921E+02  0.15878441752E+03  0.12545345906E+03 0.  0.
         25    2    3    3    0    0 -0.23475197888E+02 -0.70018447497E+01  0.20530084335E+02  0.12686515497E+03  0.12277284894E+03 0.  0.
          5    1    4    4  502    0 -0.21917997244E+00 -0.57833945708E+02 -0.50712662447E+02  0.77062814954E+02  0.47000000000E+01 0. -1.
         -5    1    4    4    0  502  0.23694377861E+02  0.64835790458E+02 -0.43488240474E+02  0.81721602567E+02  0.47000000000E+01 0. -1.
          5    1    5    5  503    0  0.94217110913E+01  0.45380653934E+02 -0.22133165323E+02  0.51576539227E+02  0.47000000000E+01 0.  1.
         -5    1    5    5    0  503 -0.32896908979E+02 -0.52382498684E+02  0.42663249659E+02  0.75288615741E+02  0.47000000000E+01 0.  1.
<mgrwt>
<rscale>  0 0.27598603E+03</rscale>
<asrwt>0</asrwt>
<pdfrwt beam="1">  1        2 0.27640030E-01 0.27598603E+03</pdfrwt>
<pdfrwt beam="2">  1       -2 0.16306058E-01 0.27598603E+03</pdfrwt>
<totfact> 0.56784559E+03</totfact>
</mgrwt>
</event>
<event>
 9    1  0.7984035E-001  0.2758072E+03  0.7818608E-02  0.1098001E+00
         -2   -1    0    0    0  501 -0.00000000000E+00  0.00000000000E+00  0.10475475708E+02  0.10475475708E+02  0.00000000000E+00 0.  1.
          2   -1    0    0  501    0  0.00000000000E+00 -0.00000000000E+00 -0.18154219954E+04  0.18154219954E+04  0.00000000000E+00 0.  1.
         35    2    1    2    0    0 -0.71054273576E-14 -0.71054273576E-14 -0.18049465197E+04  0.18258974711E+04  0.27580724438E+03 0.  0.
         25    2    3    3    0    0 -0.41411005078E+02  0.34335723209E+02 -0.74991924992E+03  0.76214895820E+03  0.12489331390E+03 0.  0.
         25    2    3    3    0    0  0.41411005078E+02 -0.34335723209E+02 -0.10550272698E+04  0.10637485129E+04  0.12483807721E+03 0.  0.
          5    1    4    4  502    0  0.30457682732E+00 -0.74047531720E+01  0.10604521876E+01  0.88395528973E+01  0.47000000000E+01 0.  1.
         -5    1    4    4    0  502 -0.41715581906E+02  0.41740476381E+02 -0.75097970211E+03  0.75330940530E+03  0.47000000000E+01 0.  1.
          5    1    5    5  503    0 -0.38901932929E+01 -0.74698983953E+02 -0.60537823422E+03  0.60999997399E+03  0.47000000000E+01 0. -1.
         -5    1    5    5    0  503  0.45301198371E+02  0.40363260744E+02 -0.44964903556E+03  0.45374853892E+03  0.47000000000E+01 0. -1.
<mgrwt>
<rscale>  0 0.27580724E+03</rscale>
<asrwt>0</asrwt>
<pdfrwt beam="1">  1        2 0.27929551E+00 0.27580724E+03</pdfrwt>
<pdfrwt beam="2">  1       -2 0.16116127E-02 0.27580724E+03</pdfrwt>
<totfact> 0.98653745E+03</totfact>
</mgrwt>
</event>
<event>
 9    1  0.7984035E-001  0.2733035E+03  0.7818608E-02  0.1099404E+00
          2   -1    0    0  501    0  0.00000000000E+00  0.00000000000E+00  0.43613741883E+03  0.43613741883E+03  0.00000000000E+00 0. -1.
         -2   -1    0    0    0  501 -0.00000000000E+00 -0.00000000000E+00 -0.42816086251E+02  0.42816086251E+02  0.00000000000E+00 0. -1.
         35    2    1    2    0    0 -0.71054273576E-14  0.71054273576E-14  0.39332133258E+03  0.47895350508E+03  0.27330347485E+03 0.  0.
         25    2    3    3    0    0 -0.28464431572E+02  0.42477121323E+02  0.23865086641E+03  0.27418121234E+03  0.12492626409E+03 0.  0.
         25    2    3    3    0    0  0.28464431572E+02 -0.42477121323E+02  0.15467046617E+03  0.20477229274E+03  0.12407340194E+03 0.  0.
          5    1    4    4  502    0  0.15072425573E+02 -0.69563059132E+01 -0.78736744736E+01  0.18964518299E+02  0.47000000000E+01 0.  1.
         -5    1    4    4    0  502 -0.43536857145E+02  0.49433427236E+02  0.24652454088E+03  0.25521669404E+03  0.47000000000E+01 0.  1.
          5    1    5    5  503    0 -0.13643292137E+01  0.42308991041E+02  0.35580294622E+02  0.55497382664E+02  0.47000000000E+01 0.  1.
         -5    1    5    5    0  503  0.29828760786E+02 -0.84786112364E+02  0.11909017155E+03  0.14927491008E+03  0.47000000000E+01 0.  1.
<mgrwt>
<rscale>  0 0.27330347E+03</rscale>
<asrwt>0</asrwt>
<pdfrwt beam="1">  1        2 0.67098061E-01 0.27330347E+03</pdfrwt>
<pdfrwt beam="2">  1       -2 0.65870905E-02 0.27330347E+03</pdfrwt>
<totfact> 0.92313099E+03</totfact>
</mgrwt>
</event>
<event>
 9    1  0.7984035E-001  0.2726458E+03  0.7818608E-02  0.1099775E+00
          2   -1    0    0  501    0  0.00000000000E+00  0.00000000000E+00  0.19944488078E+04  0.19944488078E+04  0.00000000000E+00 0. -1.
         -2   -1    0    0    0  501 -0.00000000000E+00 -0.00000000000E+00 -0.93178283173E+01  0.93178283173E+01  0.00000000000E+00 0. -1.
         35    2    1    2    0    0 -0.71054273576E-14 -0.71054273576E-14  0.19851309794E+04  0.20037666361E+04  0.27264578910E+03 0.  0.
         25    2    3    3    0    0  0.21677323214E+02  0.31196411476E+02  0.12662398511E+04  0.12731278777E+04  0.12668113482E+03 0.  0.
         25    2    3    3    0    0 -0.21677323214E+02 -0.31196411476E+02  0.71889112832E+03  0.73063875840E+03  0.12484157347E+03 0.  0.
          5    1    4    4  502    0  0.14459525677E+02  0.15449250660E+02  0.31385618255E+02  0.38143207286E+02  0.47000000000E+01 0.  1.
         -5    1    4    4    0  502  0.72177975374E+01  0.15747160816E+02  0.12348542329E+04  0.12349846704E+04  0.47000000000E+01 0.  1.
          5    1    5    5  503    0 -0.58371470449E+02 -0.41561092703E+02  0.62616060731E+03  0.63026482460E+03  0.47000000000E+01 0. -1.
         -5    1    5    5    0  503  0.36694147235E+02  0.10364681227E+02  0.92730521010E+02  0.10037393379E+03  0.47000000000E+01 0. -1.
<mgrwt>
<rscale>  0 0.27264579E+03</rscale>
<asrwt>0</asrwt>
<pdfrwt beam="1">  1        2 0.30683794E+00 0.27264579E+03</pdfrwt>
<pdfrwt beam="2">  1       -2 0.14335136E-02 0.27264579E+03</pdfrwt>
<totfact> 0.94288852E+03</totfact>
</mgrwt>
</event>
<event>
 9    1  0.7984035E-001  0.2767322E+03  0.7818608E-02  0.1097487E+00
          1   -1    0    0  501    0  0.00000000000E+00  0.00000000000E+00  0.28769040371E+03  0.28769040371E+03  0.00000000000E+00 0.  1.
         -1   -1    0    0    0  501 -0.00000000000E+00 -0.00000000000E+00 -0.66547860487E+02  0.66547860487E+02  0.00000000000E+00 0.  1.
         35    2    1    2    0    0  0.00000000000E+00  0.00000000000E+00  0.22114254322E+03  0.35423826419E+03  0.27673222327E+03 0.  0.
         25    2    3    3    0    0 -0.49968357440E+02 -0.29485246407E+02  0.93712261799E+02  0.16741808149E+03  0.12601829033E+03 0.  0.
         25    2    3    3    0    0  0.49968357440E+02  0.29485246407E+02  0.12743028142E+03  0.18682018270E+03  0.12368139529E+03 0.  0.
          5    1    4    4  502    0 -0.56546525293E+02  0.29072538667E+02  0.93963983840E+01  0.64444583401E+02  0.47000000000E+01 0.  1.
         -5    1    4    4    0  502  0.65781678528E+01 -0.58557785074E+02  0.84315863415E+02  0.10297349809E+03  0.47000000000E+01 0.  1.
          5    1    5    5  503    0  0.36801312872E+02  0.17578843449E+02 -0.14626157814E+02  0.43581726199E+02  0.47000000000E+01 0. -1.
         -5    1    5    5    0  503  0.13167044568E+02  0.11906402958E+02  0.14205643923E+03  0.14323845651E+03  0.47000000000E+01 0. -1.
<mgrwt>
<rscale>  0 0.27673222E+03</rscale>
<asrwt>0</asrwt>
<pdfrwt beam="1">  1        1 0.44260062E-01 0.27673222E+03</pdfrwt>
<pdfrwt beam="2">  1       -1 0.10238133E-01 0.27673222E+03</pdfrwt>
<totfact> 0.53955722E+03</totfact>
</mgrwt>
</event>
<event>
 9    1  0.7984035E-001  0.2796484E+03  0.7818608E-02  0.1095881E+00
         -4   -1    0    0    0  501 -0.00000000000E+00  0.00000000000E+00  0.78558778721E+02  0.78558778721E+02  0.00000000000E+00 0. -1.
          4   -1    0    0  501    0  0.00000000000E+00 -0.00000000000E+00 -0.24886850033E+03  0.24886850033E+03  0.00000000000E+00 0. -1.
         35    2    1    2    0    0  0.00000000000E+00  0.00000000000E+00 -0.17030972161E+03  0.32742727905E+03  0.27964838958E+03 0.  0.
         25    2    3    3    0    0  0.37490802866E+02  0.16985627101E+02 -0.32432723303E+02  0.13604761532E+03  0.12555078759E+03 0.  0.
         25    2    3    3    0    0 -0.37490802866E+02 -0.16985627101E+02 -0.13787699831E+03  0.19137966373E+03  0.12618255506E+03 0.  0.
          5    1    4    4  502    0  0.42596220031E+02  0.65460185538E+02 -0.17492889603E+01  0.78259976128E+02  0.47000000000E+01 0.  1.
         -5    1    4    4    0  502 -0.51054171652E+01 -0.48474558438E+02 -0.30683434343E+02  0.57787639191E+02  0.47000000000E+01 0.  1.
          5    1    5    5  503    0  0.11450461851E+02 -0.60413882123E+02 -0.39836342073E+02  0.73416444885E+02  0.47000000000E+01 0.  1.
         -5    1    5    5    0  503 -0.48941264717E+02  0.43428255022E+02 -0.98040656232E+02  0.11796321885E+03  0.47000000000E+01 0.  1.
<mgrwt>
<rscale>  0 0.27964839E+03</rscale>
<asrwt>0</asrwt>
<pdfrwt beam="1">  1        4 0.38287461E-01 0.27964839E+03</pdfrwt>
<pdfrwt beam="2">  1       -4 0.12085966E-01 0.27964839E+03</pdfrwt>
<totfact> 0.68401381E+02</totfact>
</mgrwt>
</event>
<event>
 9    1  0.7984035E-001  0.2697890E+03  0.7818608E-02  0.1101400E+00
          2   -1    0    0  501    0  0.00000000000E+00  0.00000000000E+00  0.11467403535E+04  0.11467403535E+04  0.00000000000E+00 0.  1.
         -2   -1    0    0    0  501 -0.00000000000E+00 -0.00000000000E+00 -0.15868047209E+02  0.15868047209E+02  0.00000000000E+00 0.  1.
         35    2    1    2    0    0  0.71054273576E-14  0.00000000000E+00  0.11308723063E+04  0.11626084007E+04  0.26978902917E+03 0.  0.
         25    2    3    3    0    0  0.47134244377E+02  0.17999269846E+02  0.61707947724E+03  0.63162147365E+03  0.12495196688E+03 0.  0.
         25    2    3    3    0    0 -0.47134244377E+02 -0.17999269846E+02  0.51379282901E+03  0.53098692702E+03  0.12417099027E+03 0.  0.
          5    1    4    4  502    0  0.33430386849E+02  0.46193347814E+02  0.58010343434E+03  0.58291809088E+03  0.47000000000E+01 0. -1.
         -5    1    4    4    0  502  0.13703857527E+02 -0.28194077968E+02  0.36976042905E+02  0.48703382763E+02  0.47000000000E+01 0. -1.
          5    1    5    5  503    0 -0.36661063111E+02 -0.37758827442E+02  0.75801113178E+02  0.92399466218E+02  0.47000000000E+01 0. -1.
         -5    1    5    5    0  503 -0.10473181265E+02  0.19759557596E+02  0.43799171583E+03  0.43858746081E+03  0.47000000000E+01 0. -1.
<mgrwt>
<rscale>  0 0.26978903E+03</rscale>
<asrwt>0</asrwt>
<pdfrwt beam="1">  1        2 0.17642153E+00 0.26978903E+03</pdfrwt>
<pdfrwt beam="2">  1       -2 0.24412389E-02 0.26978903E+03</pdfrwt>
<totfact> 0.12317411E+04</totfact>
</mgrwt>
</event>
<event>
 9    1  0.7984035E-001  0.2743121E+03  0.7818608E-02  0.1098837E+00
         -3   -1    0    0    0  501 -0.00000000000E+00  0.00000000000E+00  0.36972189657E+02  0.36972189657E+02  0.00000000000E+00 0. -1.
          3   -1    0    0  501    0  0.00000000000E+00 -0.00000000000E+00 -0.50880884841E+03  0.50880884841E+03  0.00000000000E+00 0. -1.
         35    2    1    2    0    0 -0.71054273576E-14 -0.71054273576E-14 -0.47183665876E+03  0.54578103807E+03  0.27431206494E+03 0.  0.
         25    2    3    3    0    0 -0.46932851608E+02  0.30678881664E+02 -0.25509101357E+03  0.28942466507E+03  0.12470495262E+03 0.  0.
         25    2    3    3    0    0  0.46932851608E+02 -0.30678881664E+02 -0.21674564519E+03  0.25635637300E+03  0.12488406195E+03 0.  0.
          5    1    4    4  502    0  0.17927515141E+02  0.25974336152E+02 -0.66808324295E+01  0.32600390482E+02  0.47000000000E+01 0.  1.
         -5    1    4    4    0  502 -0.64860366750E+02  0.47045455123E+01 -0.24841018114E+03  0.25682427459E+03  0.47000000000E+01 0.  1.
          5    1    5    5  503    0  0.66250459370E+02 -0.53226945436E+01 -0.42217331693E+02  0.78878688751E+02  0.47000000000E+01 0. -1.
         -5    1    5    5    0  503 -0.19317607761E+02 -0.25356187120E+02 -0.17452831349E+03  0.17747768425E+03  0.47000000000E+01 0. -1.
<mgrwt>
<rscale>  0 0.27431206E+03</rscale>
<asrwt>0</asrwt>
<pdfrwt beam="1">  1        3 0.78278284E-01 0.27431206E+03</pdfrwt>
<pdfrwt beam="2">  1       -3 0.56880292E-02 0.27431206E+03</pdfrwt>
<totfact> 0.73736422E+02</totfact>
</mgrwt>
</event>
<event>
 9    1  0.7984035E-001  0.2748609E+03  0.7818608E-02  0.1098529E+00
         -1   -1    0    0    0  501 -0.00000000000E+00  0.00000000000E+00  0.18724920518E+02  0.18724920518E+02  0.00000000000E+00 0. -1.
          1   -1    0    0  501    0  0.00000000000E+00 -0.00000000000E+00 -0.10086626869E+04  0.10086626869E+04  0.00000000000E+00 0. -1.
         35    2    1    2    0    0  0.00000000000E+00  0.35527136788E-14 -0.98993776643E+03  0.10273876075E+04  0.27486090040E+03 0.  0.
         25    2    3    3    0    0  0.50351687102E+02  0.33350457177E+01 -0.53152782983E+03  0.54929132454E+03  0.12904538118E+03 0.  0.
         25    2    3    3    0    0 -0.50351687102E+02 -0.33350457177E+01 -0.45840993659E+03  0.47809628292E+03  0.12605542770E+03 0.  0.
          5    1    4    4  502    0  0.22684735059E+02 -0.29360176786E+02 -0.48279742158E+03  0.48424379962E+03  0.47000000000E+01 0.  1.
         -5    1    4    4    0  502  0.27666952042E+02  0.32695222504E+02 -0.48730408254E+02  0.65047524922E+02  0.47000000000E+01 0.  1.
          5    1    5    5  503    0 -0.31382228405E+02  0.28389880755E+02 -0.42769025511E+03  0.42980446008E+03  0.47000000000E+01 0.  1.
         -5    1    5    5    0  503 -0.18969458697E+02 -0.31724926473E+02 -0.30719681486E+02  0.48291822844E+02  0.47000000000E+01 0.  1.
<mgrwt>
<rscale>  0 0.27486090E+03</rscale>
<asrwt>0</asrwt>
<pdfrwt beam="1">  1        1 0.15517888E+00 0.27486090E+03</pdfrwt>
<pdfrwt beam="2">  1       -1 0.28807569E-02 0.27486090E+03</pdfrwt>
<totfact> 0.63055796E+03</totfact>
</mgrwt>
</event>
<event>
 9    1  0.7984035E-001  0.3011523E+03  0.7818608E-02  0.1084666E+00
         -1   -1    0    0    0  501 -0.00000000000E+00  0.00000000000E+00  0.84443496366E+01  0.84443496366E+01  0.00000000000E+00 0.  1.
          1   -1    0    0  501    0  0.00000000000E+00 -0.00000000000E+00 -0.26850114442E+04  0.26850114442E+04  0.00000000000E+00 0.  1.
         35    2    1    2    0    0  0.00000000000E+00 -0.71054273576E-14 -0.26765670946E+04  0.26934557938E+04  0.30115228980E+03 0.  0.
         25    2    3    3    0    0 -0.14259985240E+02  0.56063892776E+02 -0.18908504489E+04  0.18958515115E+04  0.12486403127E+03 0.  0.
         25    2    3    3    0    0  0.14259985240E+02 -0.56063892776E+02 -0.78571664568E+03  0.79760428235E+03  0.12440030818E+03 0.  0.
          5    1    4    4  502    0 -0.41288403090E+02  0.39538336825E+02 -0.35005772235E+03  0.35472596647E+03  0.47000000000E+01 0. -1.
         -5    1    4    4    0  502  0.27028417850E+02  0.16525555952E+02 -0.15407927265E+04  0.15411255450E+04  0.47000000000E+01 0. -1.
          5    1    5    5  503    0  0.35401796406E+02 -0.43522123478E+02 -0.13321596656E+03  0.14462380913E+03  0.47000000000E+01 0. -1.
         -5    1    5    5    0  503 -0.21141811165E+02 -0.12541769299E+02 -0.65250067912E+03  0.65298047322E+03  0.47000000000E+01 0. -1.
<mgrwt>
<rscale>  0 0.30115229E+03</rscale>
<asrwt>0</asrwt>
<pdfrwt beam="1">  1        1 0.41307897E+00 0.30115229E+03</pdfrwt>
<pdfrwt beam="2">  1       -1 0.12991298E-02 0.30115229E+03</pdfrwt>
<totfact> 0.15299292E+03</totfact>
</mgrwt>
</event>
<event>
 9    1  0.7984035E-001  0.2765561E+03  0.7818608E-02  0.1097585E+00
          2   -1    0    0  501    0  0.00000000000E+00  0.00000000000E+00  0.29397095009E+04  0.29397095009E+04  0.00000000000E+00 0. -1.
         -2   -1    0    0    0  501 -0.00000000000E+00 -0.00000000000E+00 -0.65043226953E+01  0.65043226953E+01  0.00000000000E+00 0. -1.
         35    2    1    2    0    0  0.00000000000E+00 -0.71054273576E-14  0.29332051783E+04  0.29462138236E+04  0.27655610082E+03 0.  0.
         25    2    3    3    0    0  0.38801423376E+02  0.26750880537E+02  0.17833308054E+04  0.17883245077E+04  0.12495848693E+03 0.  0.
         25    2    3    3    0    0 -0.38801423376E+02 -0.26750880537E+02  0.11498743728E+04  0.11578893159E+04  0.12757521098E+03 0.  0.
          5    1    4    4  502    0  0.16838280615E+01  0.69869129269E+02  0.12465572803E+04  0.12485237977E+04  0.47000000000E+01 0. -1.
         -5    1    4    4    0  502  0.37117595315E+02 -0.43118248732E+02  0.53677352512E+03  0.53980071001E+03  0.47000000000E+01 0. -1.
          5    1    5    5  503    0 -0.70248775772E+00 -0.72607526987E+02  0.49961493171E+03  0.50488564690E+03  0.47000000000E+01 0.  1.
         -5    1    5    5    0  503 -0.38098935619E+02  0.45856646450E+02  0.65025944114E+03  0.65300366899E+03  0.47000000000E+01 0.  1.
<mgrwt>
<rscale>  0 0.27655610E+03</rscale>
<asrwt>0</asrwt>
<pdfrwt beam="1">  1        2 0.45226194E+00 0.27655610E+03</pdfrwt>
<pdfrwt beam="2">  1       -2 0.10006674E-02 0.27655610E+03</pdfrwt>
<totfact> 0.48162442E+03</totfact>
</mgrwt>
</event>
<event>
 9    1  0.7984035E-001  0.2780194E+03  0.7818608E-02  0.1096776E+00
         -1   -1    0    0    0  501 -0.00000000000E+00  0.00000000000E+00  0.45755287931E+02  0.45755287931E+02  0.00000000000E+00 0.  1.
          1   -1    0    0  501    0  0.00000000000E+00 -0.00000000000E+00 -0.42232715850E+03  0.42232715850E+03  0.00000000000E+00 0.  1.
         35    2    1    2    0    0 -0.71054273576E-14 -0.71054273576E-14 -0.37657187057E+03  0.46808244643E+03  0.27801942909E+03 0.  0.
         25    2    3    3    0    0  0.86936390303E+01 -0.41197514324E+02 -0.22350026902E+03  0.25936522704E+03  0.12468013555E+03 0.  0.
         25    2    3    3    0    0 -0.86936390303E+01  0.41197514324E+02 -0.15307160155E+03  0.20871721939E+03  0.13549593324E+03 0.  0.
          5    1    4    4  502    0 -0.47780177266E+02  0.92743606817E+01 -0.13032783170E+03  0.13919911214E+03  0.47000000000E+01 0.  1.
         -5    1    4    4    0  502  0.56473816296E+02 -0.50471875005E+02 -0.93172437323E+02  0.12016611490E+03  0.47000000000E+01 0.  1.
          5    1    5    5  503    0 -0.34828226830E+02 -0.10103894726E+02  0.81451286052E+01  0.37463678313E+02  0.47000000000E+01 0.  1.
         -5    1    5    5    0  503  0.26134587800E+02  0.51301409049E+02 -0.16121673015E+03  0.17125354108E+03  0.47000000000E+01 0.  1.
<mgrwt>
<rscale>  0 0.27801943E+03</rscale>
<asrwt>0</asrwt>
<pdfrwt beam="1">  1        1 0.64973409E-01 0.27801943E+03</pdfrwt>
<pdfrwt beam="2">  1       -1 0.70392751E-02 0.27801943E+03</pdfrwt>
<totfact> 0.58847145E+03</totfact>
</mgrwt>
</event>
<event>
 9    1  0.7984035E-001  0.2884337E+03  0.7818608E-02  0.1091170E+00
         -2   -1    0    0    0  501 -0.00000000000E+00  0.00000000000E+00  0.23403840823E+02  0.23403840823E+02  0.00000000000E+00 0. -1.
          2   -1    0    0  501    0  0.00000000000E+00 -0.00000000000E+00 -0.88867909150E+03  0.88867909150E+03  0.00000000000E+00 0. -1.
         35    2    1    2    0    0 -0.17763568394E-14  0.71054273576E-14 -0.86527525068E+03  0.91208293233E+03  0.28843372896E+03 0.  0.
         25    2    3    3    0    0 -0.11401161726E+01  0.50243604760E+02 -0.25708545781E+03  0.28908558972E+03  0.12227765897E+03 0.  0.
         25    2    3    3    0    0  0.11401161726E+01 -0.50243604760E+02 -0.60818979287E+03  0.62299734261E+03  0.12532017019E+03 0.  0.
          5    1    4    4  502    0  0.89673765373E+01 -0.11115556229E+02  0.78137702778E+01  0.16944451546E+02  0.47000000000E+01 0.  1.
         -5    1    4    4    0  502 -0.10107492710E+02  0.61359160989E+02 -0.26489922809E+03  0.27214113817E+03  0.47000000000E+01 0.  1.
          5    1    5    5  503    0  0.32105581284E+02 -0.47128369021E+02 -0.57274062605E+03  0.57559166624E+03  0.47000000000E+01 0. -1.
         -5    1    5    5    0  503 -0.30965465112E+02 -0.31152357390E+01 -0.35449166818E+02  0.47405676363E+02  0.47000000000E+01 0. -1.
<mgrwt>
<rscale>  0 0.28843373E+03</rscale>
<asrwt>0</asrwt>
<pdfrwt beam="1">  1        2 0.13671985E+00 0.28843373E+03</pdfrwt>
<pdfrwt beam="2">  1       -2 0.36005912E-02 0.28843373E+03</pdfrwt>
<totfact> 0.99452569E+03</totfact>
</mgrwt>
</event>
<event>
 9    1  0.7984035E-001  0.2805111E+03  0.7818608E-02  0.1095410E+00
          2   -1    0    0  501    0  0.00000000000E+00  0.00000000000E+00  0.13013326868E+03  0.13013326868E+03  0.00000000000E+00 0. -1.
         -2   -1    0    0    0  501 -0.00000000000E+00 -0.00000000000E+00 -0.15116514021E+03  0.15116514021E+03  0.00000000000E+00 0. -1.
         35    2    1    2    0    0 -0.71054273576E-14  0.00000000000E+00 -0.21031871524E+02  0.28129840889E+03  0.28051106079E+03 0.  0.
         25    2    3    3    0    0  0.21284659254E+02 -0.49024568284E+02  0.24680741037E+02  0.13818835726E+03  0.12502175046E+03 0.  0.
         25    2    3    3    0    0 -0.21284659254E+02  0.49024568284E+02 -0.45712612560E+02  0.14311005164E+03  0.12463706879E+03 0.  0.
          5    1    4    4  502    0 -0.21936442637E+02  0.12502661049E+02  0.52043388089E+02  0.58035577818E+02  0.47000000000E+01 0. -1.
         -5    1    4    4    0  502  0.43221101891E+02 -0.61527229333E+02 -0.27362647053E+02  0.80152779439E+02  0.47000000000E+01 0. -1.
          5    1    5    5  503    0 -0.70753383535E+02  0.22353566715E+02 -0.69430707566E+01  0.74672749100E+02  0.47000000000E+01 0.  1.
         -5    1    5    5    0  503  0.49468724281E+02  0.26671001569E+02 -0.38769541804E+02  0.68437302536E+02  0.47000000000E+01 0.  1.
<mgrwt>
<rscale>  0 0.28051106E+03</rscale>
<asrwt>0</asrwt>
<pdfrwt beam="1">  1        2 0.20020503E-01 0.28051106E+03</pdfrwt>
<pdfrwt beam="2">  1       -2 0.23256175E-01 0.28051106E+03</pdfrwt>
<totfact> 0.44575476E+03</totfact>
</mgrwt>
</event>
<event>
 9    1  0.7984035E-001  0.2718109E+03  0.7818608E-02  0.1100248E+00
         -1   -1    0    0    0  501 -0.00000000000E+00  0.00000000000E+00  0.11061607502E+03  0.11061607502E+03  0.00000000000E+00 0.  1.
          1   -1    0    0  501    0  0.00000000000E+00 -0.00000000000E+00 -0.16697654346E+03  0.16697654346E+03  0.00000000000E+00 0.  1.
         35    2    1    2    0    0  0.00000000000E+00  0.00000000000E+00 -0.56360468439E+02  0.27759261848E+03  0.27181088910E+03 0.  0.
         25    2    3    3    0    0 -0.46316262538E+02  0.16347961341E+02 -0.52255483565E+02  0.14433557729E+03  0.12525841806E+03 0.  0.
         25    2    3    3    0    0  0.46316262538E+02 -0.16347961341E+02 -0.41049848745E+01  0.13325704119E+03  0.12380685001E+03 0.  0.
          5    1    4    4  502    0 -0.54894243996E+02 -0.41642452583E+02 -0.50399785203E+02  0.85496784908E+02  0.47000000000E+01 0. -1.
         -5    1    4    4    0  502  0.85779814587E+01  0.57990413924E+02 -0.18556983616E+01  0.58838792386E+02  0.47000000000E+01 0. -1.
          5    1    5    5  503    0  0.57912751295E+01 -0.16273002153E+02 -0.60816347181E+02  0.63396116215E+02  0.47000000000E+01 0.  1.
         -5    1    5    5    0  503  0.40524987408E+02 -0.74959187845E-01  0.56711362307E+02  0.69860924972E+02  0.47000000000E+01 0.  1.
<mgrwt>
<rscale>  0 0.27181089E+03</rscale>
<asrwt>0</asrwt>
<pdfrwt beam="1">  1        1 0.25688699E-01 0.27181089E+03</pdfrwt>
<pdfrwt beam="2">  1       -1 0.17017858E-01 0.27181089E+03</pdfrwt>
<totfact> 0.48106346E+03</totfact>
</mgrwt>
</event>
<event>
 9    1  0.7984035E-001  0.2754147E+03  0.7818608E-02  0.1098220E+00
          2   -1    0    0  501    0  0.00000000000E+00  0.00000000000E+00  0.35875492752E+03  0.35875492752E+03  0.00000000000E+00 0.  1.
         -2   -1    0    0    0  501 -0.00000000000E+00 -0.00000000000E+00 -0.52858689937E+02  0.52858689937E+02  0.00000000000E+00 0.  1.
         35    2    1    2    0    0  0.17763568394E-14  0.14210854715E-13  0.30589623758E+03  0.41161361745E+03  0.27541470895E+03 0.  0.
         25    2    3    3    0    0 -0.62173939247E+00 -0.40967591014E+02  0.21761675243E+03  0.25321849627E+03  0.12281622791E+03 0.  0.
         25    2    3    3    0    0  0.62173939247E+00  0.40967591014E+02  0.88279485145E+02  0.15839512119E+03  0.12496806330E+03 0.  0.
          5    1    4    4  502    0  0.51489314893E+02 -0.11441252579E+02  0.16522794239E+03  0.17350623838E+03  0.47000000000E+01 0.  1.
         -5    1    4    4    0  502 -0.52111054285E+02 -0.29526338436E+02  0.52388810044E+02  0.79712257890E+02  0.47000000000E+01 0.  1.
          5    1    5    5  503    0 -0.10599874871E+02  0.18342967620E+02 -0.30185880748E+02  0.37176594854E+02  0.47000000000E+01 0. -1.
         -5    1    5    5    0  503  0.11221614263E+02  0.22624623394E+02  0.11846536589E+03  0.12121852633E+03  0.47000000000E+01 0. -1.
<mgrwt>
<rscale>  0 0.27541471E+03</rscale>
<asrwt>0</asrwt>
<pdfrwt beam="1">  1        2 0.55193064E-01 0.27541471E+03</pdfrwt>
<pdfrwt beam="2">  1       -2 0.81321064E-02 0.27541471E+03</pdfrwt>
<totfact> 0.82312273E+03</totfact>
</mgrwt>
</event>
<event>
 9    1  0.7984035E-001  0.2768394E+03  0.7818608E-02  0.1097428E+00
         -2   -1    0    0    0  501 -0.00000000000E+00  0.00000000000E+00  0.16035429194E+02  0.16035429194E+02  0.00000000000E+00 0.  1.
          2   -1    0    0  501    0  0.00000000000E+00 -0.00000000000E+00 -0.11948547000E+04  0.11948547000E+04  0.00000000000E+00 0.  1.
         35    2    1    2    0    0 -0.71054273576E-14  0.14210854715E-13 -0.11788192708E+04  0.12108901292E+04  0.27683936093E+03 0.  0.
         25    2    3    3    0    0  0.33032651754E+02 -0.34971770637E+02 -0.43476332915E+03  0.45481902213E+03  0.12460742231E+03 0.  0.
         25    2    3    3    0    0 -0.33032651754E+02  0.34971770637E+02 -0.74405594169E+03  0.75607110710E+03  0.12533991303E+03 0.  0.
          5    1    4    4  502    0 -0.37525002574E+02 -0.40509361884E+02 -0.12023764294E+03  0.13239454293E+03  0.47000000000E+01 0.  1.
         -5    1    4    4    0  502  0.70557654328E+02  0.55375912468E+01 -0.31452568620E+03  0.32242447919E+03  0.47000000000E+01 0.  1.
          5    1    5    5  503    0  0.46160432539E+02  0.16390805635E+02 -0.36899417842E+03  0.37226098070E+03  0.47000000000E+01 0.  1.
         -5    1    5    5    0  503 -0.79193084293E+02  0.18580965002E+02 -0.37506176327E+03  0.38381012640E+03  0.47000000000E+01 0.  1.
<mgrwt>
<rscale>  0 0.27683936E+03</rscale>
<asrwt>0</asrwt>
<pdfrwt beam="1">  1        2 0.18382379E+00 0.27683936E+03</pdfrwt>
<pdfrwt beam="2">  1       -2 0.24669892E-02 0.27683936E+03</pdfrwt>
<totfact> 0.11389961E+04</totfact>
</mgrwt>
</event>
<event>
 9    1  0.7984035E-001  0.2747781E+03  0.7818608E-02  0.1098576E+00
         -2   -1    0    0    0  501 -0.00000000000E+00  0.00000000000E+00  0.63923499734E+02  0.63923499734E+02  0.00000000000E+00 0.  1.
          2   -1    0    0  501    0  0.00000000000E+00 -0.00000000000E+00 -0.29528652399E+03  0.29528652399E+03  0.00000000000E+00 0.  1.
         35    2    1    2    0    0  0.00000000000E+00  0.00000000000E+00 -0.23136302426E+03  0.35921002373E+03  0.27477807800E+03 0.  0.
         25    2    3    3    0    0 -0.35710026688E+02  0.46405682779E+02 -0.11432336590E+03  0.17985138647E+03  0.12588882327E+03 0.  0.
         25    2    3    3    0    0  0.35710026688E+02 -0.46405682779E+02 -0.11703965836E+03  0.17935863725E+03  0.12264805636E+03 0.  0.
          5    1    4    4  502    0  0.28690245892E+02  0.64064949484E+02 -0.71923192986E+02  0.10061055437E+03  0.47000000000E+01 0.  1.
         -5    1    4    4    0  502 -0.64400272580E+02 -0.17659266706E+02 -0.42400172912E+02  0.79240832100E+02  0.47000000000E+01 0.  1.
          5    1    5    5  503    0  0.47974273024E+02 -0.25005663366E+02 -0.13694363329E+03  0.14731755758E+03  0.47000000000E+01 0.  1.
         -5    1    5    5    0  503 -0.12264246336E+02 -0.21400019413E+02  0.19903974926E+02  0.32041079677E+02  0.47000000000E+01 0.  1.
<mgrwt>
<rscale>  0 0.27477808E+03</rscale>
<asrwt>0</asrwt>
<pdfrwt beam="1">  1        2 0.45428696E-01 0.27477808E+03</pdfrwt>
<pdfrwt beam="2">  1       -2 0.98343847E-02 0.27477808E+03</pdfrwt>
<totfact> 0.75242215E+03</totfact>
</mgrwt>
</event>
<event>
 9    1  0.7984035E-001  0.2769181E+03  0.7818608E-02  0.1097384E+00
          2   -1    0    0  501    0  0.00000000000E+00  0.00000000000E+00  0.54671929556E+03  0.54671929556E+03  0.00000000000E+00 0. -1.
         -2   -1    0    0    0  501 -0.00000000000E+00 -0.00000000000E+00 -0.35065365405E+02  0.35065365405E+02  0.00000000000E+00 0. -1.
         35    2    1    2    0    0  0.10658141036E-13  0.14210854715E-13  0.51165393015E+03  0.58178466096E+03  0.27691812417E+03 0.  0.
         25    2    3    3    0    0 -0.27641798121E+02 -0.40486747025E+02  0.32606348002E+03  0.35257662673E+03  0.12485847597E+03 0.  0.
         25    2    3    3    0    0  0.27641798121E+02  0.40486747025E+02  0.18559045013E+03  0.22920803424E+03  0.12525678461E+03 0.  0.
          5    1    4    4  502    0 -0.10948704215E+02 -0.82585589335E+02  0.25381050769E+03  0.26717432044E+03  0.47000000000E+01 0. -1.
         -5    1    4    4    0  502 -0.16693093907E+02  0.42098842310E+02  0.72252972339E+02  0.85402306291E+02  0.47000000000E+01 0. -1.
          5    1    5    5  503    0 -0.28336231797E+02 -0.35753615768E+01  0.14337340035E+03  0.14626601509E+03  0.47000000000E+01 0. -1.
         -5    1    5    5    0  503  0.55978029919E+02  0.44062108602E+02  0.42217049784E+02  0.82942019149E+02  0.47000000000E+01 0. -1.
<mgrwt>
<rscale>  0 0.27691812E+03</rscale>
<asrwt>0</asrwt>
<pdfrwt beam="1">  1        2 0.84110655E-01 0.27691812E+03</pdfrwt>
<pdfrwt beam="2">  1       -2 0.53946720E-02 0.27691812E+03</pdfrwt>
<totfact> 0.97510098E+03</totfact>
</mgrwt>
</event>
<event>
 9    1  0.7984035E-001  0.2757747E+03  0.7818608E-02  0.1098019E+00
         -3   -1    0    0    0  501 -0.00000000000E+00  0.00000000000E+00  0.45608155453E+02  0.45608155453E+02  0.00000000000E+00 0.  1.
          3   -1    0    0  501    0  0.00000000000E+00 -0.00000000000E+00 -0.41687542702E+03  0.41687542702E+03  0.00000000000E+00 0.  1.
         35    2    1    2    0    0  0.35527136788E-14 -0.14210854715E-13 -0.37126727156E+03  0.46248358247E+03  0.27577468542E+03 0.  0.
         25    2    3    3    0    0  0.24250616625E+02 -0.46268950733E+02 -0.14125808686E+03  0.19589317507E+03  0.12526524150E+03 0.  0.
         25    2    3    3    0    0 -0.24250616625E+02  0.46268950733E+02 -0.23000918470E+03  0.26659040740E+03  0.12424698009E+03 0.  0.
          5    1    4    4  502    0  0.61989936486E+02 -0.66186900346E+02 -0.11079709998E+03  0.14325343056E+03  0.47000000000E+01 0. -1.
         -5    1    4    4    0  502 -0.37739319862E+02  0.19917949613E+02 -0.30460986879E+02  0.52639744509E+02  0.47000000000E+01 0. -1.
          5    1    5    5  503    0 -0.46569033077E+02  0.46743533384E+02 -0.44593485338E+02  0.79776573564E+02  0.47000000000E+01 0. -1.
         -5    1    5    5    0  503  0.22318416452E+02 -0.47458265065E+00 -0.18541569937E+03  0.18681383384E+03  0.47000000000E+01 0. -1.
<mgrwt>
<rscale>  0 0.27577469E+03</rscale>
<asrwt>0</asrwt>
<pdfrwt beam="1">  1        3 0.64134683E-01 0.27577469E+03</pdfrwt>
<pdfrwt beam="2">  1       -3 0.70166391E-02 0.27577469E+03</pdfrwt>
<totfact> 0.80514445E+02</totfact>
</mgrwt>
</event>
<event>
 9    1  0.7984035E-001  0.2808337E+03  0.7818608E-02  0.1095234E+00
         -1   -1    0    0    0  501 -0.00000000000E+00  0.00000000000E+00  0.88063929773E+02  0.88063929773E+02  0.00000000000E+00 0. -1.
          1   -1    0    0  501    0  0.00000000000E+00 -0.00000000000E+00 -0.22389288170E+03  0.22389288170E+03  0.00000000000E+00 0. -1.
         35    2    1    2    0    0 -0.71054273576E-14  0.00000000000E+00 -0.13582895192E+03  0.31195681147E+03  0.28083366615E+03 0.  0.
         25    2    3    3    0    0  0.46482299737E+02  0.24032712775E+02 -0.25956114710E+02  0.13721535010E+03  0.12416181756E+03 0.  0.
         25    2    3    3    0    0 -0.46482299737E+02 -0.24032712775E+02 -0.10987283721E+03  0.17474146137E+03  0.12539682011E+03 0.  0.
          5    1    4    4  502    0  0.65278436969E+02  0.23833661357E+02 -0.63955851730E+02  0.94560873078E+02  0.47000000000E+01 0. -1.
         -5    1    4    4    0  502 -0.18796137232E+02  0.19905141741E+00  0.37999737020E+02  0.42654477021E+02  0.47000000000E+01 0. -1.
          5    1    5    5  503    0 -0.42348031121E+02  0.37705529288E+02 -0.10910746772E+02  0.57932694343E+02  0.47000000000E+01 0.  1.
         -5    1    5    5    0  503 -0.41342686156E+01 -0.61738242063E+02 -0.98962090440E+02  0.11680876703E+03  0.47000000000E+01 0.  1.
<mgrwt>
<rscale>  0 0.28083367E+03</rscale>
<asrwt>0</asrwt>
<pdfrwt beam="1">  1        1 0.34445059E-01 0.28083367E+03</pdfrwt>
<pdfrwt beam="2">  1       -1 0.13548297E-01 0.28083367E+03</pdfrwt>
<totfact> 0.47759564E+03</totfact>
</mgrwt>
</event>
<event>
 9    1  0.7984035E-001  0.2778304E+03  0.7818608E-02  0.1096880E+00
         -1   -1    0    0    0  501 -0.00000000000E+00  0.00000000000E+00  0.66283679145E+02  0.66283679145E+02  0.00000000000E+00 0.  1.
          1   -1    0    0  501    0  0.00000000000E+00 -0.00000000000E+00 -0.29113400467E+03  0.29113400467E+03  0.00000000000E+00 0.  1.
         35    2    1    2    0    0  0.00000000000E+00 -0.17763568394E-14 -0.22485032553E+03  0.35741768382E+03  0.27783040117E+03 0.  0.
         25    2    3    3    0    0  0.33628039321E+02  0.12483152527E+02 -0.17697125177E+03  0.21951148627E+03  0.12481904714E+03 0.  0.
         25    2    3    3    0    0 -0.33628039321E+02 -0.12483152527E+02 -0.47879073762E+02  0.13790619755E+03  0.12425393149E+03 0.  0.
          5    1    4    4  502    0  0.10317160446E+02  0.16230729759E+02 -0.19074932782E+03  0.19177402444E+03  0.47000000000E+01 0. -1.
         -5    1    4    4    0  502  0.23310878876E+02 -0.37475772325E+01  0.13778076052E+02  0.27737461830E+02  0.47000000000E+01 0. -1.
          5    1    5    5  503    0  0.39288021529E+02 -0.12578187388E+02  0.12239144264E+02  0.43285633713E+02  0.47000000000E+01 0. -1.
         -5    1    5    5    0  503 -0.72916060850E+02  0.95034861004E-01 -0.60118218026E+02  0.94620563833E+02  0.47000000000E+01 0. -1.
<mgrwt>
<rscale>  0 0.27783040E+03</rscale>
<asrwt>0</asrwt>
<pdfrwt beam="1">  1        1 0.44789847E-01 0.27783040E+03</pdfrwt>
<pdfrwt beam="2">  1       -1 0.10197489E-01 0.27783040E+03</pdfrwt>
<totfact> 0.53490025E+03</totfact>
</mgrwt>
</event>
<event>
 9    1  0.7984035E-001  0.2744506E+03  0.7818608E-02  0.1098759E+00
         -2   -1    0    0    0  501 -0.00000000000E+00  0.00000000000E+00  0.20810016731E+02  0.20810016731E+02  0.00000000000E+00 0.  1.
          2   -1    0    0  501    0  0.00000000000E+00 -0.00000000000E+00 -0.90489060376E+03  0.90489060376E+03  0.00000000000E+00 0.  1.
         35    2    1    2    0    0  0.00000000000E+00  0.00000000000E+00 -0.88408058703E+03  0.92570062049E+03  0.27445064113E+03 0.  0.
         25    2    3    3    0    0 -0.46845972916E+02  0.32595424282E+02 -0.46984614537E+03  0.48949052203E+03  0.12485417083E+03 0.  0.
         25    2    3    3    0    0  0.46845972916E+02 -0.32595424282E+02 -0.41423444166E+03  0.43621009846E+03  0.12422588491E+03 0.  0.
          5    1    4    4  502    0  0.19423020685E+02  0.50330592097E+02 -0.10416309248E+03  0.11739873112E+03  0.47000000000E+01 0. -1.
         -5    1    4    4    0  502 -0.66268993601E+02 -0.17735167815E+02 -0.36568305289E+03  0.37209179091E+03  0.47000000000E+01 0. -1.
          5    1    5    5  503    0 -0.41183351178E+02 -0.24557720769E+02 -0.14830978107E+03  0.15593919080E+03  0.47000000000E+01 0.  1.
         -5    1    5    5    0  503  0.88029324094E+02 -0.80377035126E+01 -0.26592466058E+03  0.28027090767E+03  0.47000000000E+01 0.  1.
<mgrwt>
<rscale>  0 0.27445064E+03</rscale>
<asrwt>0</asrwt>
<pdfrwt beam="1">  1        2 0.13921392E+00 0.27445064E+03</pdfrwt>
<pdfrwt beam="2">  1       -2 0.32015415E-02 0.27445064E+03</pdfrwt>
<totfact> 0.11554325E+04</totfact>
</mgrwt>
</event>
<event>
 9    1  0.7984035E-001  0.2739865E+03  0.7818608E-02  0.1099019E+00
          2   -1    0    0  501    0  0.00000000000E+00  0.00000000000E+00  0.10354837248E+04  0.10354837248E+04  0.00000000000E+00 0.  1.
         -2   -1    0    0    0  501 -0.00000000000E+00 -0.00000000000E+00 -0.18124047410E+02  0.18124047410E+02  0.00000000000E+00 0.  1.
         35    2    1    2    0    0 -0.71054273576E-14  0.00000000000E+00  0.10173596774E+04  0.10536077722E+04  0.27398654070E+03 0.  0.
         25    2    3    3    0    0  0.29559349218E+02  0.22207848278E+02  0.65918570302E+03  0.67198916365E+03  0.12520663462E+03 0.  0.
         25    2    3    3    0    0 -0.29559349218E+02 -0.22207848278E+02  0.35817397440E+03  0.38161860859E+03  0.12640103967E+03 0.  0.
          5    1    4    4  502    0 -0.48620275266E+02  0.16379391954E+01  0.28266109207E+03  0.28685535899E+03  0.47000000000E+01 0.  1.
         -5    1    4    4    0  502  0.78179624484E+02  0.20569909082E+02  0.37652461094E+03  0.38513380466E+03  0.47000000000E+01 0.  1.
          5    1    5    5  503    0  0.29770604774E+02 -0.18288789714E+02  0.25174975473E+02  0.43320181531E+02  0.47000000000E+01 0.  1.
         -5    1    5    5    0  503 -0.59329953992E+02 -0.39190585634E+01  0.33299899893E+03  0.33829842705E+03  0.47000000000E+01 0.  1.
<mgrwt>
<rscale>  0 0.27398654E+03</rscale>
<asrwt>0</asrwt>
<pdfrwt beam="1">  1        2 0.15930514E+00 0.27398654E+03</pdfrwt>
<pdfrwt beam="2">  1       -2 0.27883158E-02 0.27398654E+03</pdfrwt>
<totfact> 0.11770138E+04</totfact>
</mgrwt>
</event>
<event>
 9    1  0.7984035E-001  0.2768925E+03  0.7818608E-02  0.1097398E+00
          1   -1    0    0  501    0  0.00000000000E+00  0.00000000000E+00  0.47183317514E+03  0.47183317514E+03  0.00000000000E+00 0.  1.
         -1   -1    0    0    0  501 -0.00000000000E+00 -0.00000000000E+00 -0.40623189790E+02  0.40623189790E+02  0.00000000000E+00 0.  1.
         35    2    1    2    0    0  0.00000000000E+00  0.00000000000E+00  0.43120998535E+03  0.51245636493E+03  0.27689253239E+03 0.  0.
         25    2    3    3    0    0  0.29428538414E+02 -0.13472817312E+02  0.12932602950E+03  0.18366548773E+03  0.12633381890E+03 0.  0.
         25    2    3    3    0    0 -0.29428538414E+02  0.13472817312E+02  0.30188395585E+03  0.32879087720E+03  0.12618225885E+03 0.  0.
          5    1    4    4  502    0 -0.13896087476E+02  0.12619946630E+02 -0.18856772691E+02  0.27019107617E+02  0.47000000000E+01 0. -1.
         -5    1    4    4    0  502  0.43324625890E+02 -0.26092763942E+02  0.14818280219E+03  0.15664638011E+03  0.47000000000E+01 0. -1.
          5    1    5    5  503    0 -0.29901330049E+02  0.68420099624E+02  0.16264002860E+03  0.17902309481E+03  0.47000000000E+01 0.  1.
         -5    1    5    5    0  503  0.47279163433E+00 -0.54947282312E+02  0.13924392725E+03  0.14976778239E+03  0.47000000000E+01 0.  1.
<mgrwt>
<rscale>  0 0.27689253E+03</rscale>
<asrwt>0</asrwt>
<pdfrwt beam="1">  1        1 0.72589715E-01 0.27689253E+03</pdfrwt>
<pdfrwt beam="2">  1       -1 0.62497219E-02 0.27689253E+03</pdfrwt>
<totfact> 0.60987271E+03</totfact>
</mgrwt>
</event>
<event>
 9    1  0.7984035E-001  0.2713265E+03  0.7818608E-02  0.1100523E+00
          2   -1    0    0  501    0  0.00000000000E+00  0.00000000000E+00  0.18598735404E+04  0.18598735404E+04  0.00000000000E+00 0.  1.
         -2   -1    0    0    0  501 -0.00000000000E+00 -0.00000000000E+00 -0.98955756966E+01  0.98955756966E+01  0.00000000000E+00 0.  1.
         35    2    1    2    0    0  0.00000000000E+00  0.00000000000E+00  0.18499779647E+04  0.18697691161E+04  0.27132651478E+03 0.  0.
         25    2    3    3    0    0  0.31607691344E+02 -0.40031715034E+02  0.97895489748E+03  0.98819712534E+03  0.12481699746E+03 0.  0.
         25    2    3    3    0    0 -0.31607691344E+02  0.40031715034E+02  0.87102306722E+03  0.88157199076E+03  0.12604129047E+03 0.  0.
          5    1    4    4  502    0  0.69098370826E+02 -0.50749035439E+02  0.81911590625E+03  0.82360367126E+03  0.47000000000E+01 0. -1.
         -5    1    4    4    0  502 -0.37490679481E+02  0.10717320406E+02  0.15983899124E+03  0.16459345407E+03  0.47000000000E+01 0. -1.
          5    1    5    5  503    0  0.74314494483E+01 -0.41759784934E+02  0.36376625443E+03  0.36626095060E+03  0.47000000000E+01 0. -1.
         -5    1    5    5    0  503 -0.39039140793E+02  0.81791499968E+02  0.50725681279E+03  0.51531104016E+03  0.47000000000E+01 0. -1.
<mgrwt>
<rscale>  0 0.27132651E+03</rscale>
<asrwt>0</asrwt>
<pdfrwt beam="1">  1        2 0.28613411E+00 0.27132651E+03</pdfrwt>
<pdfrwt beam="2">  1       -2 0.15223977E-02 0.27132651E+03</pdfrwt>
<totfact> 0.10159964E+04</totfact>
</mgrwt>
</event>
<event>
 9    1  0.7984035E-001  0.2754554E+03  0.7818608E-02  0.1098197E+00
          1   -1    0    0  501    0  0.00000000000E+00  0.00000000000E+00  0.34742872346E+04  0.34742872346E+04  0.00000000000E+00 0. -1.
         -1   -1    0    0    0  501 -0.00000000000E+00 -0.00000000000E+00 -0.54598014127E+01  0.54598014127E+01  0.00000000000E+00 0. -1.
         35    2    1    2    0    0  0.00000000000E+00  0.88817841970E-15  0.34688274332E+04  0.34797470360E+04  0.27545539277E+03 0.  0.
         25    2    3    3    0    0  0.54260776233E+02 -0.38833826345E+01  0.19929618558E+04  0.19976462943E+04  0.12543701985E+03 0.  0.
         25    2    3    3    0    0 -0.54260776233E+02  0.38833826345E+01  0.14758655774E+04  0.14821007417E+04  0.12443509785E+03 0.  0.
          5    1    4    4  502    0  0.83505662660E+02 -0.50463512632E+01  0.18359313916E+04  0.18378424378E+04  0.47000000000E+01 0. -1.
         -5    1    4    4    0  502 -0.29244886427E+02  0.11629686287E+01  0.15703046413E+03  0.15980385647E+03  0.47000000000E+01 0. -1.
          5    1    5    5  503    0  0.11454533736E+02  0.67252855028E+01  0.18552317421E+02  0.23296229092E+02  0.47000000000E+01 0.  1.
         -5    1    5    5    0  503 -0.65715309969E+02 -0.28419028684E+01  0.14573132600E+04  0.14588045126E+04  0.47000000000E+01 0.  1.
<mgrwt>
<rscale>  0 0.27545539E+03</rscale>
<asrwt>0</asrwt>
<pdfrwt beam="1">  1        1 0.53450396E+00 0.27545539E+03</pdfrwt>
<pdfrwt beam="2">  1       -1 0.83997222E-03 0.27545539E+03</pdfrwt>
<totfact> 0.79401971E+02</totfact>
</mgrwt>
</event>
<event>
 9    1  0.7984035E-001  0.2834977E+03  0.7818608E-02  0.1093794E+00
          1   -1    0    0  501    0  0.00000000000E+00  0.00000000000E+00  0.15861440615E+03  0.15861440615E+03  0.00000000000E+00 0. -1.
         -1   -1    0    0    0  501 -0.00000000000E+00 -0.00000000000E+00 -0.12667665505E+03  0.12667665505E+03  0.00000000000E+00 0. -1.
         35    2    1    2    0    0  0.00000000000E+00 -0.35527136788E-14  0.31937751098E+02  0.28529106120E+03  0.28349774189E+03 0.  0.
         25    2    3    3    0    0  0.50939984601E+02 -0.11525441475E+02 -0.27404267874E+02  0.13677570517E+03  0.12340535562E+03 0.  0.
         25    2    3    3    0    0 -0.50939984601E+02  0.11525441475E+02  0.59342018972E+02  0.14851535603E+03  0.12572834974E+03 0.  0.
          5    1    4    4  502    0  0.76229349104E+02 -0.47082671586E+02 -0.23311329591E+02  0.92699513029E+02  0.47000000000E+01 0. -1.
         -5    1    4    4    0  502 -0.25289364502E+02  0.35557230111E+02 -0.40929382838E+01  0.44076192144E+02  0.47000000000E+01 0. -1.
          5    1    5    5  503    0 -0.85840633469E+02  0.18047436041E+02  0.68678282491E+02  0.11150390481E+03  0.47000000000E+01 0. -1.
         -5    1    5    5    0  503  0.34900648868E+02 -0.65219945661E+01 -0.93362635190E+01  0.37011451215E+02  0.47000000000E+01 0. -1.
<mgrwt>
<rscale>  0 0.28349774E+03</rscale>
<asrwt>0</asrwt>
<pdfrwt beam="1">  1        1 0.24402216E-01 0.28349774E+03</pdfrwt>
<pdfrwt beam="2">  1       -1 0.19488716E-01 0.28349774E+03</pdfrwt>
<totfact> 0.41326977E+03</totfact>
</mgrwt>
</event>
<event>
 9    1  0.7984035E-001  0.2801944E+03  0.7818608E-02  0.1095583E+00
         -1   -1    0    0    0  501 -0.00000000000E+00  0.00000000000E+00  0.21444727472E+02  0.21444727472E+02  0.00000000000E+00 0.  1.
          1   -1    0    0  501    0  0.00000000000E+00 -0.00000000000E+00 -0.91524708381E+03  0.91524708381E+03  0.00000000000E+00 0.  1.
         35    2    1    2    0    0  0.00000000000E+00  0.71054273576E-14 -0.89380235634E+03  0.93669181128E+03  0.28019439168E+03 0.  0.
         25    2    3    3    0    0  0.51502218317E+02  0.35664598176E+02 -0.49320762998E+03  0.51290436503E+03  0.12606617049E+03 0.  0.
         25    2    3    3    0    0 -0.51502218317E+02 -0.35664598176E+02 -0.40059472636E+03  0.42378744625E+03  0.12326890427E+03 0.  0.
          5    1    4    4  502    0  0.95519846325E+01 -0.46745027195E+02 -0.15433951566E+03  0.16161408995E+03  0.47000000000E+01 0. -1.
         -5    1    4    4    0  502  0.41950233684E+02  0.82409625371E+02 -0.33886811432E+03  0.35129027508E+03  0.47000000000E+01 0. -1.
          5    1    5    5  503    0 -0.42405188219E+02  0.38623949228E+02 -0.11618669028E+03  0.12965896205E+03  0.47000000000E+01 0.  1.
         -5    1    5    5    0  503 -0.90970300980E+01 -0.74288547405E+02 -0.28440803608E+03  0.29412848420E+03  0.47000000000E+01 0.  1.
<mgrwt>
<rscale>  0 0.28019439E+03</rscale>
<asrwt>0</asrwt>
<pdfrwt beam="1">  1        1 0.14080721E+00 0.28019439E+03</pdfrwt>
<pdfrwt beam="2">  1       -1 0.32991896E-02 0.28019439E+03</pdfrwt>
<totfact> 0.60826978E+03</totfact>
</mgrwt>
</event>
<event>
 9    1  0.7984035E-001  0.2754825E+03  0.7818608E-02  0.1098182E+00
         -1   -1    0    0    0  501 -0.00000000000E+00  0.00000000000E+00  0.23995819031E+02  0.23995819031E+02  0.00000000000E+00 0.  1.
          1   -1    0    0  501    0  0.00000000000E+00 -0.00000000000E+00 -0.79066514935E+03  0.79066514935E+03  0.00000000000E+00 0.  1.
         35    2    1    2    0    0  0.17763568394E-14  0.71054273576E-14 -0.76666933031E+03  0.81466096838E+03  0.27548254273E+03 0.  0.
         25    2    3    3    0    0 -0.12558648156E+02  0.56076534664E+02 -0.35897402238E+03  0.38435214756E+03  0.12474745370E+03 0.  0.
         25    2    3    3    0    0  0.12558648156E+02 -0.56076534664E+02 -0.40769530793E+03  0.43030882082E+03  0.12509164552E+03 0.  0.
          5    1    4    4  502    0 -0.57705478041E+02 -0.77244550440E+01 -0.17191394898E+03  0.18156564999E+03  0.47000000000E+01 0.  1.
         -5    1    4    4    0  502  0.45146829885E+02  0.63800989708E+02 -0.18706007340E+03  0.20278649757E+03  0.47000000000E+01 0.  1.
          5    1    5    5  503    0  0.22209292325E+02 -0.66095908981E+02 -0.98546693744E+02  0.12081168279E+03  0.47000000000E+01 0.  1.
         -5    1    5    5    0  503 -0.96506441688E+01  0.10019374317E+02 -0.30914861419E+03  0.30949713803E+03  0.47000000000E+01 0.  1.
<mgrwt>
<rscale>  0 0.27548254E+03</rscale>
<asrwt>0</asrwt>
<pdfrwt beam="1">  1        1 0.12164077E+00 0.27548254E+03</pdfrwt>
<pdfrwt beam="2">  1       -1 0.36916650E-02 0.27548254E+03</pdfrwt>
<totfact> 0.64913569E+03</totfact>
</mgrwt>
</event>
<event>
 9    1  0.7984035E-001  0.2694402E+03  0.7818608E-02  0.1101600E+00
          1   -1    0    0  501    0  0.00000000000E+00  0.00000000000E+00  0.20500016930E+04  0.20500016930E+04  0.00000000000E+00 0. -1.
         -1   -1    0    0    0  501 -0.00000000000E+00 -0.00000000000E+00 -0.88534102699E+01  0.88534102699E+01  0.00000000000E+00 0. -1.
         35    2    1    2    0    0  0.71054273576E-14  0.14210854715E-13  0.20411482828E+04  0.20588551033E+04  0.26944020518E+03 0.  0.
         25    2    3    3    0    0  0.48187214049E+02  0.94073496756E+01  0.11167304932E+04  0.11248098001E+04  0.12529798902E+03 0.  0.
         25    2    3    3    0    0 -0.48187214049E+02 -0.94073496756E+01  0.92441778957E+03  0.93404530324E+03  0.12442617496E+03 0.  0.
          5    1    4    4  502    0 -0.23611572184E+02 -0.38054416502E+02  0.51049038385E+03  0.51247260118E+03  0.47000000000E+01 0.  1.
         -5    1    4    4    0  502  0.71798786233E+02  0.47461766178E+02  0.60624010935E+03  0.61233719888E+03  0.47000000000E+01 0.  1.
          5    1    5    5  503    0 -0.27769402452E+02 -0.66633309658E+02  0.46205473677E+03  0.46768344790E+03  0.47000000000E+01 0.  1.
         -5    1    5    5    0  503 -0.20417811597E+02  0.57225959982E+02  0.46236305280E+03  0.46636185534E+03  0.47000000000E+01 0.  1.
<mgrwt>
<rscale>  0 0.26944021E+03</rscale>
<asrwt>0</asrwt>
<pdfrwt beam="1">  1        1 0.31538450E+00 0.26944021E+03</pdfrwt>
<pdfrwt beam="2">  1       -1 0.13620647E-02 0.26944021E+03</pdfrwt>
<totfact> 0.37601484E+03</totfact>
</mgrwt>
</event>
<event>
 9    1  0.7984035E-001  0.2776875E+03  0.7818608E-02  0.1096959E+00
          2   -1    0    0  501    0  0.00000000000E+00  0.00000000000E+00  0.10260852199E+04  0.10260852199E+04  0.00000000000E+00 0.  1.
         -2   -1    0    0    0  501 -0.00000000000E+00 -0.00000000000E+00 -0.18787505698E+02  0.18787505698E+02  0.00000000000E+00 0.  1.
         35    2    1    2    0    0  0.00000000000E+00  0.00000000000E+00  0.10072977142E+04  0.10448727256E+04  0.27768746400E+03 0.  0.
         25    2    3    3    0    0 -0.60578898922E+02  0.36185047362E+01  0.41900175348E+03  0.44148507114E+03  0.12515471244E+03 0.  0.
         25    2    3    3    0    0  0.60578898922E+02 -0.36185047362E+01  0.58829596077E+03  0.60338765451E+03  0.11958941251E+03 0.  0.
          5    1    4    4  502    0 -0.36759692843E+02  0.62263931886E+02  0.17602674260E+03  0.19035644550E+03  0.47000000000E+01 0.  1.
         -5    1    4    4    0  502 -0.23819206079E+02 -0.58645427149E+02  0.24297501088E+03  0.25112862564E+03  0.47000000000E+01 0.  1.
          5    1    5    5  503    0  0.38597327757E+02  0.48755020473E+02  0.16717510600E+03  0.17842760940E+03  0.47000000000E+01 0.  1.
         -5    1    5    5    0  503  0.21981571165E+02 -0.52373525209E+02  0.42112085477E+03  0.42496004510E+03  0.47000000000E+01 0.  1.
<mgrwt>
<rscale>  0 0.27768746E+03</rscale>
<asrwt>0</asrwt>
<pdfrwt beam="1">  1        2 0.15785922E+00 0.27768746E+03</pdfrwt>
<pdfrwt beam="2">  1       -2 0.28903863E-02 0.27768746E+03</pdfrwt>
<totfact> 0.11309486E+04</totfact>
</mgrwt>
</event>
<event>
 9    1  0.7984035E-001  0.2743177E+03  0.7818608E-02  0.1098834E+00
         -1   -1    0    0    0  501 -0.00000000000E+00  0.00000000000E+00  0.17868379999E+02  0.17868379999E+02  0.00000000000E+00 0. -1.
          1   -1    0    0  501    0  0.00000000000E+00 -0.00000000000E+00 -0.10528405802E+04  0.10528405802E+04  0.00000000000E+00 0. -1.
         35    2    1    2    0    0 -0.35527136788E-14  0.00000000000E+00 -0.10349722002E+04  0.10707089602E+04  0.27431773960E+03 0.  0.
         25    2    3    3    0    0  0.18822824342E+02  0.55311933369E+01 -0.30880215581E+03  0.33400708859E+03  0.12576593729E+03 0.  0.
         25    2    3    3    0    0 -0.18822824342E+02 -0.55311933369E+01 -0.72617004435E+03  0.73670187157E+03  0.12256354043E+03 0.  0.
          5    1    4    4  502    0  0.24898878826E+02 -0.30924836969E+02 -0.23691123478E+02  0.46472131864E+02  0.47000000000E+01 0.  1.
         -5    1    4    4    0  502 -0.60760544843E+01  0.36456030306E+02 -0.28511103233E+03  0.28753495673E+03  0.47000000000E+01 0.  1.
          5    1    5    5  503    0 -0.19578978591E+02  0.27688370583E+02 -0.55615934040E+02  0.65308532271E+02  0.47000000000E+01 0.  1.
         -5    1    5    5    0  503  0.75615424979E+00 -0.33219563920E+02 -0.67055411031E+03  0.67139333930E+03  0.47000000000E+01 0.  1.
<mgrwt>
<rscale>  0 0.27431774E+03</rscale>
<asrwt>0</asrwt>
<pdfrwt beam="1">  1        1 0.16197543E+00 0.27431774E+03</pdfrwt>
<pdfrwt beam="2">  1       -1 0.27489823E-02 0.27431774E+03</pdfrwt>
<totfact> 0.62661471E+03</totfact>
</mgrwt>
</event>
<event>
 9    1  0.7984035E-001  0.2747704E+03  0.7818608E-02  0.1098580E+00
          1   -1    0    0  501    0  0.00000000000E+00  0.00000000000E+00  0.21485559492E+04  0.21485559492E+04  0.00000000000E+00 0. -1.
         -1   -1    0    0    0  501 -0.00000000000E+00 -0.00000000000E+00 -0.87848295806E+01  0.87848295806E+01  0.00000000000E+00 0. -1.
         35    2    1    2    0    0  0.35527136788E-14  0.71054273576E-14  0.21397711196E+04  0.21573407788E+04  0.27477043406E+03 0.  0.
         25    2    3    3    0    0  0.20847233433E+02  0.40489587362E+02  0.80562153280E+03  0.81654481613E+03  0.12508144874E+03 0.  0.
         25    2    3    3    0    0 -0.20847233433E+02 -0.40489587362E+02  0.13341495868E+04  0.13407959626E+04  0.12531831315E+03 0.  0.
          5    1    4    4  502    0 -0.68350658294E+01 -0.41043245475E+02  0.16902767909E+03  0.17413705069E+03  0.47000000000E+01 0.  1.
         -5    1    4    4    0  502  0.27682299262E+02  0.81532832838E+02  0.63659385371E+03  0.64240776545E+03  0.47000000000E+01 0.  1.
          5    1    5    5  503    0 -0.38573648377E+01 -0.66757443740E+02  0.36338983939E+03  0.36952090730E+03  0.47000000000E+01 0.  1.
         -5    1    5    5    0  503 -0.16989868595E+02  0.26267856378E+02  0.97075974741E+03  0.97127505533E+03  0.47000000000E+01 0.  1.
<mgrwt>
<rscale>  0 0.27477043E+03</rscale>
<asrwt>0</asrwt>
<pdfrwt beam="1">  1        1 0.33054665E+00 0.27477043E+03</pdfrwt>
<pdfrwt beam="2">  1       -1 0.13515139E-02 0.27477043E+03</pdfrwt>
<totfact> 0.32805825E+03</totfact>
</mgrwt>
</event>
<event>
 9    1  0.7984035E-001  0.2768026E+03  0.7818608E-02  0.1097448E+00
          2   -1    0    0  501    0  0.00000000000E+00  0.00000000000E+00  0.95823495013E+03  0.95823495013E+03  0.00000000000E+00 0. -1.
         -2   -1    0    0    0  501 -0.00000000000E+00 -0.00000000000E+00 -0.19989796379E+02  0.19989796379E+02  0.00000000000E+00 0. -1.
         35    2    1    2    0    0  0.00000000000E+00  0.00000000000E+00  0.93824515375E+03  0.97822474651E+03  0.27680261225E+03 0.  0.
         25    2    3    3    0    0 -0.36752977986E+02 -0.33044655893E+02  0.36642594711E+03  0.39076269153E+03  0.12643091277E+03 0.  0.
         25    2    3    3    0    0  0.36752977986E+02  0.33044655893E+02  0.57181920665E+03  0.58746205498E+03  0.12526663674E+03 0.  0.
          5    1    4    4  502    0 -0.20166775675E+02 -0.46874632142E+02  0.43892038302E+02  0.67472446271E+02  0.47000000000E+01 0. -1.
         -5    1    4    4    0  502 -0.16586202311E+02  0.13829976250E+02  0.32253390880E+03  0.32329024526E+03  0.47000000000E+01 0. -1.
          5    1    5    5  503    0 -0.40252765976E+01  0.69290910868E+02  0.20275759707E+03  0.21435989912E+03  0.47000000000E+01 0. -1.
         -5    1    5    5    0  503  0.40778254584E+02 -0.36246254975E+02  0.36906160958E+03  0.37310215587E+03  0.47000000000E+01 0. -1.
<mgrwt>
<rscale>  0 0.27680261E+03</rscale>
<asrwt>0</asrwt>
<pdfrwt beam="1">  1        2 0.14742073E+00 0.27680261E+03</pdfrwt>
<pdfrwt beam="2">  1       -2 0.30753540E-02 0.27680261E+03</pdfrwt>
<totfact> 0.11351359E+04</totfact>
</mgrwt>
</event>
<event>
 9    1  0.7984035E-001  0.2750836E+03  0.7818608E-02  0.1098405E+00
          1   -1    0    0  501    0  0.00000000000E+00  0.00000000000E+00  0.39111211335E+03  0.39111211335E+03  0.00000000000E+00 0.  1.
         -1   -1    0    0    0  501 -0.00000000000E+00 -0.00000000000E+00 -0.48369107607E+02  0.48369107607E+02  0.00000000000E+00 0.  1.
         35    2    1    2    0    0 -0.71054273576E-14  0.00000000000E+00  0.34274300574E+03  0.43948122095E+03  0.27508357928E+03 0.  0.
         25    2    3    3    0    0  0.20445213234E+01 -0.33349222381E+02  0.98890711657E+02  0.16355298568E+03  0.12591209462E+03 0.  0.
         25    2    3    3    0    0 -0.20445213234E+01  0.33349222381E+02  0.24385229408E+03  0.27592823528E+03  0.12472409147E+03 0.  0.
          5    1    4    4  502    0 -0.36771637011E+02  0.35132584426E+02  0.44679727597E+02  0.67858822824E+02  0.47000000000E+01 0. -1.
         -5    1    4    4    0  502  0.38816158334E+02 -0.68481806807E+02  0.54210984061E+02  0.95694162853E+02  0.47000000000E+01 0. -1.
          5    1    5    5  503    0  0.47239637056E+02  0.25699094041E+02  0.43266998929E+02  0.69182005898E+02  0.47000000000E+01 0. -1.
         -5    1    5    5    0  503 -0.49284158379E+02  0.76501283395E+01  0.20058529515E+03  0.20674622938E+03  0.47000000000E+01 0. -1.
<mgrwt>
<rscale>  0 0.27508358E+03</rscale>
<asrwt>0</asrwt>
<pdfrwt beam="1">  1        1 0.60171092E-01 0.27508358E+03</pdfrwt>
<pdfrwt beam="2">  1       -1 0.74414014E-02 0.27508358E+03</pdfrwt>
<totfact> 0.59671232E+03</totfact>
</mgrwt>
</event>
<event>
 9    1  0.7984035E-001  0.2736371E+03  0.7818608E-02  0.1099216E+00
          2   -1    0    0  501    0  0.00000000000E+00  0.00000000000E+00  0.34184038043E+03  0.34184038043E+03  0.00000000000E+00 0.  1.
         -2   -1    0    0    0  501 -0.00000000000E+00 -0.00000000000E+00 -0.54760408112E+02  0.54760408112E+02  0.00000000000E+00 0.  1.
         35    2    1    2    0    0  0.00000000000E+00  0.00000000000E+00  0.28707997232E+03  0.39660078854E+03  0.27363712278E+03 0.  0.
         25    2    3    3    0    0  0.23494364082E+02 -0.56052684537E+02  0.15423928838E+03  0.20788362995E+03  0.12542709808E+03 0.  0.
         25    2    3    3    0    0 -0.23494364082E+02  0.56052684537E+02  0.13284068394E+03  0.18871715859E+03  0.11947229826E+03 0.  0.
          5    1    4    4  502    0 -0.15274133393E+02 -0.28530609896E+02 -0.12062462292E+02  0.34855241334E+02  0.47000000000E+01 0. -1.
         -5    1    4    4    0  502  0.38768497475E+02 -0.27522074642E+02  0.16630175067E+03  0.17302838861E+03  0.47000000000E+01 0. -1.
          5    1    5    5  503    0 -0.31892154942E+02  0.54200164410E+02  0.80865592574E+01  0.63578689902E+02  0.47000000000E+01 0. -1.
         -5    1    5    5    0  503  0.83977908606E+01  0.18525201271E+01  0.12475412468E+03  0.12513846869E+03  0.47000000000E+01 0. -1.
<mgrwt>
<rscale>  0 0.27363712E+03</rscale>
<asrwt>0</asrwt>
<pdfrwt beam="1">  1        2 0.52590826E-01 0.27363712E+03</pdfrwt>
<pdfrwt beam="2">  1       -2 0.84246785E-02 0.27363712E+03</pdfrwt>
<totfact> 0.82027186E+03</totfact>
</mgrwt>
</event>
<event>
 9    1  0.7984035E-001  0.2753260E+03  0.7818608E-02  0.1098270E+00
          1   -1    0    0  501    0  0.00000000000E+00  0.00000000000E+00  0.92500780428E+02  0.92500780428E+02  0.00000000000E+00 0.  1.
         -1   -1    0    0    0  501 -0.00000000000E+00 -0.00000000000E+00 -0.20487497513E+03  0.20487497513E+03  0.00000000000E+00 0.  1.
         35    2    1    2    0    0  0.00000000000E+00  0.00000000000E+00 -0.11237419470E+03  0.29737575555E+03  0.27532595293E+03 0.  0.
         25    2    3    3    0    0 -0.24830605420E+02 -0.53141383355E+02 -0.32289720215E+02  0.13776128607E+03  0.12039510089E+03 0.  0.
         25    2    3    3    0    0  0.24830605420E+02  0.53141383355E+02 -0.80084474483E+02  0.15961446949E+03  0.12499076056E+03 0.  0.
          5    1    4    4  502    0  0.13636691456E+02 -0.75679798340E+02  0.80389293161E+01  0.77460348664E+02  0.47000000000E+01 0. -1.
         -5    1    4    4    0  502 -0.38467296876E+02  0.22538414985E+02 -0.40328649531E+02  0.60300937405E+02  0.47000000000E+01 0. -1.
          5    1    5    5  503    0  0.24969142919E+02  0.25448763618E+02 -0.11168673516E+03  0.11733334769E+03  0.47000000000E+01 0. -1.
         -5    1    5    5    0  503 -0.13853749847E+00  0.27692619738E+02  0.31602260680E+02  0.42281121800E+02  0.47000000000E+01 0. -1.
<mgrwt>
<rscale>  0 0.27532595E+03</rscale>
<asrwt>0</asrwt>
<pdfrwt beam="1">  1        1 0.14230889E-01 0.27532595E+03</pdfrwt>
<pdfrwt beam="2">  1       -1 0.31519227E-01 0.27532595E+03</pdfrwt>
<totfact> 0.37302315E+03</totfact>
</mgrwt>
</event>
<event>
 9    1  0.7984035E-001  0.2765009E+03  0.7818608E-02  0.1097616E+00
          1   -1    0    0  501    0  0.00000000000E+00  0.00000000000E+00  0.20826995954E+04  0.20826995954E+04  0.00000000000E+00 0. -1.
         -1   -1    0    0    0  501 -0.00000000000E+00 -0.00000000000E+00 -0.91771235778E+01  0.91771235778E+01  0.00000000000E+00 0. -1.
         35    2    1    2    0    0 -0.71054273576E-14  0.00000000000E+00  0.20735224718E+04  0.20918767190E+04  0.27650093354E+03 0.  0.
         25    2    3    3    0    0  0.25783597677E+02 -0.42296924656E+02  0.12790760438E+04  0.12861120965E+04  0.12487984241E+03 0.  0.
         25    2    3    3    0    0 -0.25783597677E+02  0.42296924656E+02  0.79444642795E+03  0.80576462247E+03  0.12513063650E+03 0.  0.
          5    1    4    4  502    0  0.39972292094E+02 -0.44733121898E+01  0.11514676200E+04  0.11521794845E+04  0.47000000000E+01 0.  1.
         -5    1    4    4    0  502 -0.14188694416E+02 -0.37823612467E+02  0.12760842383E+03  0.13393261194E+03  0.47000000000E+01 0.  1.
          5    1    5    5  503    0  0.36226642622E+02  0.59688845772E+02  0.40548603791E+03  0.41148043074E+03  0.47000000000E+01 0. -1.
         -5    1    5    5    0  503 -0.62010240300E+02 -0.17391921116E+02  0.38896039004E+03  0.39428419173E+03  0.47000000000E+01 0. -1.
<mgrwt>
<rscale>  0 0.27650093E+03</rscale>
<asrwt>0</asrwt>
<pdfrwt beam="1">  1        1 0.32041495E+00 0.27650093E+03</pdfrwt>
<pdfrwt beam="2">  1       -1 0.14118668E-02 0.27650093E+03</pdfrwt>
<totfact> 0.33980115E+03</totfact>
</mgrwt>
</event>
<event>
 9    1  0.7984035E-001  0.2733453E+03  0.7818608E-02  0.1099380E+00
         -2   -1    0    0    0  501 -0.00000000000E+00  0.00000000000E+00  0.64823991716E+01  0.64823991716E+01  0.00000000000E+00 0.  1.
          2   -1    0    0  501    0  0.00000000000E+00 -0.00000000000E+00 -0.28815586663E+04  0.28815586663E+04  0.00000000000E+00 0.  1.
         35    2    1    2    0    0  0.10658141036E-13  0.14210854715E-13 -0.28750762671E+04  0.28880410655E+04  0.27334530185E+03 0.  0.
         25    2    3    3    0    0  0.29674471765E+02 -0.42693537205E+02 -0.16371012307E+04  0.16427006169E+04  0.12514617418E+03 0.  0.
         25    2    3    3    0    0 -0.29674471765E+02  0.42693537205E+02 -0.12379750365E+04  0.12453404486E+04  0.12484922731E+03 0.  0.
          5    1    4    4  502    0  0.34443958066E+02 -0.69581571980E+02 -0.57489521857E+03  0.58013324654E+03  0.47000000000E+01 0.  1.
         -5    1    4    4    0  502 -0.47694863007E+01  0.26888034776E+02 -0.10622060121E+04  0.10625673704E+04  0.47000000000E+01 0.  1.
          5    1    5    5  503    0  0.26871245823E+02  0.64755713756E+02 -0.81238700286E+03  0.81542019765E+03  0.47000000000E+01 0.  1.
         -5    1    5    5    0  503 -0.56545717588E+02 -0.22062176551E+02 -0.42558803360E+03  0.42992025092E+03  0.47000000000E+01 0.  1.
<mgrwt>
<rscale>  0 0.27334530E+03</rscale>
<asrwt>0</asrwt>
<pdfrwt beam="1">  1        2 0.44331692E+00 0.27334530E+03</pdfrwt>
<pdfrwt beam="2">  1       -2 0.99729173E-03 0.27334530E+03</pdfrwt>
<totfact> 0.52341008E+03</totfact>
</mgrwt>
</event>
<event>
 9    1  0.7984035E-001  0.2781000E+03  0.7818608E-02  0.1096731E+00
          1   -1    0    0  501    0  0.00000000000E+00  0.00000000000E+00  0.23657856937E+03  0.23657856937E+03  0.00000000000E+00 0.  1.
         -1   -1    0    0    0  501 -0.00000000000E+00 -0.00000000000E+00 -0.81727181603E+02  0.81727181603E+02  0.00000000000E+00 0.  1.
         35    2    1    2    0    0 -0.71054273576E-14 -0.71054273576E-14  0.15485138777E+03  0.31830575097E+03  0.27809997988E+03 0.  0.
         25    2    3    3    0    0  0.50651412828E+02  0.27723488732E+02  0.82056756888E+02  0.16244343663E+03  0.12775132604E+03 0.  0.
         25    2    3    3    0    0 -0.50651412828E+02 -0.27723488732E+02  0.72794630880E+02  0.15586231434E+03  0.12513930357E+03 0.  0.
          5    1    4    4  502    0  0.18427763937E+02  0.77964840851E+02  0.44414001701E+02  0.91721275829E+02  0.47000000000E+01 0.  1.
         -5    1    4    4    0  502  0.32223648891E+02 -0.50241352119E+02  0.37642755187E+02  0.70722160803E+02  0.47000000000E+01 0.  1.
          5    1    5    5  503    0  0.40493289494E+02  0.27993103985E+01  0.14549640519E+02  0.43374239728E+02  0.47000000000E+01 0.  1.
         -5    1    5    5    0  503 -0.91144702322E+02 -0.30522799130E+02  0.58244990361E+02  0.11248807461E+03  0.47000000000E+01 0.  1.
<mgrwt>
<rscale>  0 0.27809998E+03</rscale>
<asrwt>0</asrwt>
<pdfrwt beam="1">  1        1 0.36396703E-01 0.27809998E+03</pdfrwt>
<pdfrwt beam="2">  1       -1 0.12573413E-01 0.27809998E+03</pdfrwt>
<totfact> 0.50096564E+03</totfact>
</mgrwt>
</event>
<event>
 9    1  0.7984035E-001  0.2709317E+03  0.7818608E-02  0.1100748E+00
         -2   -1    0    0    0  501 -0.00000000000E+00  0.00000000000E+00  0.10450312981E+02  0.10450312981E+02  0.00000000000E+00 0.  1.
          2   -1    0    0  501    0  0.00000000000E+00 -0.00000000000E+00 -0.17560231148E+04  0.17560231148E+04  0.00000000000E+00 0.  1.
         35    2    1    2    0    0  0.00000000000E+00 -0.35527136788E-14 -0.17455728018E+04  0.17664734278E+04  0.27093166040E+03 0.  0.
         25    2    3    3    0    0  0.22780652837E+02  0.30836756090E+02 -0.11101094065E+04  0.11177798602E+04  0.12497622891E+03 0.  0.
         25    2    3    3    0    0 -0.22780652837E+02 -0.30836756090E+02 -0.63546339529E+03  0.64869356755E+03  0.12457830535E+03 0.  0.
          5    1    4    4  502    0 -0.38584028089E+02  0.34230471643E+01 -0.14006449089E+03  0.14539806079E+03  0.47000000000E+01 0.  1.
         -5    1    4    4    0  502  0.61364680925E+02  0.27413708926E+02 -0.97004491566E+03  0.97238179945E+03  0.47000000000E+01 0.  1.
          5    1    5    5  503    0 -0.23965992464E+02 -0.72305968312E+02 -0.26157888285E+03  0.27248508913E+03  0.47000000000E+01 0. -1.
         -5    1    5    5    0  503  0.11853396275E+01  0.41469212222E+02 -0.37388451244E+03  0.37620847842E+03  0.47000000000E+01 0. -1.
<mgrwt>
<rscale>  0 0.27093166E+03</rscale>
<asrwt>0</asrwt>
<pdfrwt beam="1">  1        2 0.27015707E+00 0.27093166E+03</pdfrwt>
<pdfrwt beam="2">  1       -2 0.16077425E-02 0.27093166E+03</pdfrwt>
<totfact> 0.10634475E+04</totfact>
</mgrwt>
</event>
<event>
 9    1  0.7984035E-001  0.2713359E+03  0.7818608E-02  0.1100517E+00
          2   -1    0    0  501    0  0.00000000000E+00  0.00000000000E+00  0.11333540744E+04  0.11333540744E+04  0.00000000000E+00 0. -1.
         -2   -1    0    0    0  501 -0.00000000000E+00 -0.00000000000E+00 -0.16240111034E+02  0.16240111034E+02  0.00000000000E+00 0. -1.
         35    2    1    2    0    0  0.35527136788E-14 -0.35527136788E-14  0.11171139634E+04  0.11495941854E+04  0.27133592471E+03 0.  0.
         25    2    3    3    0    0 -0.40316990630E+01 -0.20843882172E+02  0.35564779619E+03  0.37752217456E+03  0.12484756838E+03 0.  0.
         25    2    3    3    0    0  0.40316990630E+01  0.20843882172E+02  0.76146616719E+03  0.77207201088E+03  0.12575271049E+03 0.  0.
          5    1    4    4  502    0 -0.31365093413E+02 -0.62162659939E+02  0.14287370993E+03  0.15900613939E+03  0.47000000000E+01 0. -1.
         -5    1    4    4    0  502  0.27333394350E+02  0.41318777768E+02  0.21277408626E+03  0.21851603517E+03  0.47000000000E+01 0. -1.
          5    1    5    5  503    0  0.24468339995E+02 -0.31891978632E+01  0.71651126185E+03  0.71695142723E+03  0.47000000000E+01 0. -1.
         -5    1    5    5    0  503 -0.20436640932E+02  0.24033080035E+02  0.44954905335E+02  0.55120583653E+02  0.47000000000E+01 0. -1.
<mgrwt>
<rscale>  0 0.27133592E+03</rscale>
<asrwt>0</asrwt>
<pdfrwt beam="1">  1        2 0.17436210E+00 0.27133592E+03</pdfrwt>
<pdfrwt beam="2">  1       -2 0.24984795E-02 0.27133592E+03</pdfrwt>
<totfact> 0.12118701E+04</totfact>
</mgrwt>
</event>
<event>
 9    1  0.7984035E-001  0.2679279E+03  0.7818608E-02  0.1102471E+00
          2   -1    0    0  501    0  0.00000000000E+00  0.00000000000E+00  0.22207907426E+04  0.22207907426E+04  0.00000000000E+00 0.  1.
         -2   -1    0    0    0  501 -0.00000000000E+00 -0.00000000000E+00 -0.80810595077E+01  0.80810595077E+01  0.00000000000E+00 0.  1.
         35    2    1    2    0    0  0.00000000000E+00 -0.10658141036E-13  0.22127096831E+04  0.22288718021E+04  0.26792791676E+03 0.  0.
         25    2    3    3    0    0 -0.17954560630E+02 -0.17200902023E+02  0.88154481955E+03  0.89174222020E+03  0.13215400533E+03 0.  0.
         25    2    3    3    0    0  0.17954560630E+02  0.17200902023E+02  0.13311648635E+04  0.13371295819E+04  0.12368260839E+03 0.  0.
          5    1    4    4  502    0  0.99248392953E+01 -0.18009885314E+02  0.17987457757E+02  0.27721779175E+02  0.47000000000E+01 0. -1.
         -5    1    4    4    0  502 -0.27879399925E+02  0.80898329041E+00  0.86355736180E+03  0.86402044102E+03  0.47000000000E+01 0. -1.
          5    1    5    5  503    0  0.21722638491E+02  0.68112885216E+02  0.62170950580E+03  0.62582428665E+03  0.47000000000E+01 0.  1.
         -5    1    5    5    0  503 -0.37680778610E+01 -0.50911983192E+02  0.70945535773E+03  0.71130529526E+03  0.47000000000E+01 0.  1.
<mgrwt>
<rscale>  0 0.26792792E+03</rscale>
<asrwt>0</asrwt>
<pdfrwt beam="1">  1        2 0.34165963E+00 0.26792792E+03</pdfrwt>
<pdfrwt beam="2">  1       -2 0.12432417E-02 0.26792792E+03</pdfrwt>
<totfact> 0.88102315E+03</totfact>
</mgrwt>
</event>
<event>
 9    1  0.7984035E-001  0.2734252E+03  0.7818608E-02  0.1099335E+00
          1   -1    0    0  501    0  0.00000000000E+00  0.00000000000E+00  0.16193413024E+04  0.16193413024E+04  0.00000000000E+00 0. -1.
         -1   -1    0    0    0  501 -0.00000000000E+00 -0.00000000000E+00 -0.11541935271E+02  0.11541935271E+02  0.00000000000E+00 0. -1.
         35    2    1    2    0    0  0.71054273576E-14  0.71054273576E-14  0.16077993672E+04  0.16308832377E+04  0.27342518168E+03 0.  0.
         25    2    3    3    0    0  0.29200786506E+02  0.46055476427E+02  0.76393544989E+03  0.77618352924E+03  0.12605437965E+03 0.  0.
         25    2    3    3    0    0 -0.29200786506E+02 -0.46055476427E+02  0.84386391729E+03  0.85469970848E+03  0.12422354015E+03 0.  0.
          5    1    4    4  502    0 -0.12372954374E+01 -0.35298437788E+01  0.63062547357E+03  0.63065408000E+03  0.47000000000E+01 0. -1.
         -5    1    4    4    0  502  0.30438081943E+02  0.49585320206E+02  0.13330997631E+03  0.14552944924E+03  0.47000000000E+01 0. -1.
          5    1    5    5  503    0 -0.54881904056E+01  0.21172189223E+02  0.28593645144E+02  0.36305211376E+02  0.47000000000E+01 0.  1.
         -5    1    5    5    0  503 -0.23712596100E+02 -0.67227665650E+02  0.81527027215E+03  0.81839449710E+03  0.47000000000E+01 0.  1.
<mgrwt>
<rscale>  0 0.27342518E+03</rscale>
<asrwt>0</asrwt>
<pdfrwt beam="1">  1        1 0.24912925E+00 0.27342518E+03</pdfrwt>
<pdfrwt beam="2">  1       -1 0.17756836E-02 0.27342518E+03</pdfrwt>
<totfact> 0.48713370E+03</totfact>
</mgrwt>
</event>
<event>
 9    1  0.7984035E-001  0.2785728E+03  0.7818608E-02  0.1096471E+00
         -2   -1    0    0    0  501 -0.00000000000E+00  0.00000000000E+00  0.51340085930E+02  0.51340085930E+02  0.00000000000E+00 0.  1.
          2   -1    0    0  501    0  0.00000000000E+00 -0.00000000000E+00 -0.37788612794E+03  0.37788612794E+03  0.00000000000E+00 0.  1.
         35    2    1    2    0    0  0.14210854715E-13  0.00000000000E+00 -0.32654604201E+03  0.42922621387E+03  0.27857283629E+03 0.  0.
         25    2    3    3    0    0  0.45739770972E+02  0.37648326457E+02 -0.19949340340E+03  0.24130426960E+03  0.12214994634E+03 0.  0.
         25    2    3    3    0    0 -0.45739770972E+02 -0.37648326457E+02 -0.12705263861E+03  0.18792194427E+03  0.12515095297E+03 0.  0.
          5    1    4    4  502    0  0.52203389480E+02  0.53115971454E+02 -0.47810033355E+02  0.88624994139E+02  0.47000000000E+01 0.  1.
         -5    1    4    4    0  502 -0.64636185082E+01 -0.15467644997E+02 -0.15168337004E+03  0.15267927546E+03  0.47000000000E+01 0.  1.
          5    1    5    5  503    0 -0.61950906141E+02 -0.53685070949E+02 -0.28903053325E+02  0.87048711111E+02  0.47000000000E+01 0. -1.
         -5    1    5    5    0  503  0.16211135169E+02  0.16036744492E+02 -0.98149585284E+02  0.10087323316E+03  0.47000000000E+01 0. -1.
<mgrwt>
<rscale>  0 0.27857284E+03</rscale>
<asrwt>0</asrwt>
<pdfrwt beam="1">  1        2 0.58136325E-01 0.27857284E+03</pdfrwt>
<pdfrwt beam="2">  1       -2 0.78984751E-02 0.27857284E+03</pdfrwt>
<totfact> 0.81474996E+03</totfact>
</mgrwt>
</event>
<event>
 9    1  0.7984035E-001  0.2767416E+03  0.7818608E-02  0.1097482E+00
          1   -1    0    0  501    0  0.00000000000E+00  0.00000000000E+00  0.62805194565E+03  0.62805194565E+03  0.00000000000E+00 0. -1.
         -1   -1    0    0    0  501 -0.00000000000E+00 -0.00000000000E+00 -0.30485494354E+02  0.30485494354E+02  0.00000000000E+00 0. -1.
         35    2    1    2    0    0 -0.44408920985E-14  0.00000000000E+00  0.59756645130E+03  0.65853744001E+03  0.27674156929E+03 0.  0.
         25    2    3    3    0    0 -0.31228277917E+01 -0.57227260028E+02  0.27201318507E+03  0.30509181973E+03  0.12571847227E+03 0.  0.
         25    2    3    3    0    0  0.31228277917E+01  0.57227260028E+02  0.32555326623E+03  0.35344562028E+03  0.12511660960E+03 0.  0.
          5    1    4    4  502    0 -0.33800504942E+01  0.54531896659E+01  0.22851122551E+03  0.22864958387E+03  0.47000000000E+01 0. -1.
         -5    1    4    4    0  502  0.25722270248E+00 -0.62680449694E+02  0.43501959554E+02  0.76442235854E+02  0.47000000000E+01 0. -1.
          5    1    5    5  503    0  0.62606497625E+02  0.16948428200E+02  0.17099991123E+03  0.18294775868E+03  0.47000000000E+01 0.  1.
         -5    1    5    5    0  503 -0.59483669833E+02  0.40278831829E+02  0.15455335500E+03  0.17049786160E+03  0.47000000000E+01 0.  1.
<mgrwt>
<rscale>  0 0.27674157E+03</rscale>
<asrwt>0</asrwt>
<pdfrwt beam="1">  1        1 0.96623367E-01 0.27674157E+03</pdfrwt>
<pdfrwt beam="2">  1       -1 0.46900765E-02 0.27674157E+03</pdfrwt>
<totfact> 0.63695691E+03</totfact>
</mgrwt>
</event>
<event>
 9    1  0.7984035E-001  0.2714132E+03  0.7818608E-02  0.1100473E+00
          1   -1    0    0  501    0  0.00000000000E+00  0.00000000000E+00  0.89907008815E+03  0.89907008815E+03  0.00000000000E+00 0. -1.
         -1   -1    0    0    0  501 -0.00000000000E+00 -0.00000000000E+00 -0.20483706059E+02  0.20483706059E+02  0.00000000000E+00 0. -1.
         35    2    1    2    0    0  0.71054273576E-14  0.71054273576E-14  0.87858638209E+03  0.91955379421E+03  0.27141324516E+03 0.  0.
         25    2    3    3    0    0  0.26867692479E+02  0.33555346329E+02  0.31335157894E+03  0.33895177976E+03  0.12186575734E+03 0.  0.
         25    2    3    3    0    0 -0.26867692479E+02 -0.33555346329E+02  0.56523480316E+03  0.58060201445E+03  0.12554075960E+03 0.  0.
          5    1    4    4  502    0  0.41926979971E+02  0.22224173167E+02  0.31579533030E+03  0.31937527481E+03  0.47000000000E+01 0.  1.
         -5    1    4    4    0  502 -0.15059287492E+02  0.11331173162E+02 -0.24437513668E+01  0.19576504942E+02  0.47000000000E+01 0.  1.
          5    1    5    5  503    0  0.48414150374E+02 -0.29178156354E+02  0.21981408787E+03  0.22701457661E+03  0.47000000000E+01 0. -1.
         -5    1    5    5    0  503 -0.75281842853E+02 -0.43771899751E+01  0.34542071529E+03  0.35358743785E+03  0.47000000000E+01 0. -1.
<mgrwt>
<rscale>  0 0.27141325E+03</rscale>
<asrwt>0</asrwt>
<pdfrwt beam="1">  1        1 0.13831844E+00 0.27141325E+03</pdfrwt>
<pdfrwt beam="2">  1       -1 0.31513401E-02 0.27141325E+03</pdfrwt>
<totfact> 0.66970523E+03</totfact>
</mgrwt>
</event>
<event>
 9    1  0.7984035E-001  0.2753246E+03  0.7818608E-02  0.1098270E+00
         -1   -1    0    0    0  501 -0.00000000000E+00  0.00000000000E+00  0.14543758715E+02  0.14543758715E+02  0.00000000000E+00 0.  1.
          1   -1    0    0  501    0  0.00000000000E+00 -0.00000000000E+00 -0.13030265877E+04  0.13030265877E+04  0.00000000000E+00 0.  1.
         35    2    1    2    0    0  0.00000000000E+00 -0.71054273576E-14 -0.12884828290E+04  0.13175703465E+04  0.27532456695E+03 0.  0.
         25    2    3    3    0    0 -0.97033763675E+01 -0.52584987958E+02 -0.55585803034E+03  0.57244956420E+03  0.12594053037E+03 0.  0.
         25    2    3    3    0    0  0.97033763675E+01  0.52584987958E+02 -0.73262479869E+03  0.74512078226E+03  0.12492617031E+03 0.  0.
          5    1    4    4  502    0 -0.12668328620E+02 -0.47083889018E+02 -0.64317440112E+02  0.80846782605E+02  0.47000000000E+01 0.  1.
         -5    1    4    4    0  502  0.29649522529E+01 -0.55010989404E+01 -0.49154059023E+03  0.49160278160E+03  0.47000000000E+01 0.  1.
          5    1    5    5  503    0 -0.50691478058E+02  0.23943923471E+02 -0.18370748200E+03  0.19212877547E+03  0.47000000000E+01 0.  1.
         -5    1    5    5    0  503  0.60394854425E+02  0.28641064487E+02 -0.54891731669E+03  0.55299200679E+03  0.47000000000E+01 0.  1.
<mgrwt>
<rscale>  0 0.27532457E+03</rscale>
<asrwt>0</asrwt>
<pdfrwt beam="1">  1        1 0.20046566E+00 0.27532457E+03</pdfrwt>
<pdfrwt beam="2">  1       -1 0.22375010E-02 0.27532457E+03</pdfrwt>
<totfact> 0.56481037E+03</totfact>
</mgrwt>
</event>
<event>
 9    1  0.7984035E-001  0.3120237E+03  0.7818608E-02  0.1079380E+00
          2   -1    0    0  501    0  0.00000000000E+00  0.00000000000E+00  0.27398317290E+03  0.27398317290E+03  0.00000000000E+00 0. -1.
         -2   -1    0    0    0  501 -0.00000000000E+00 -0.00000000000E+00 -0.88836462479E+02  0.88836462479E+02  0.00000000000E+00 0. -1.
         35    2    1    2    0    0  0.71054273576E-14  0.00000000000E+00  0.18514671042E+03  0.36281963538E+03  0.31202369051E+03 0.  0.
         25    2    3    3    0    0  0.49573229742E+02 -0.78728935110E+01  0.27638582447E+01  0.13655475024E+03  0.12696485081E+03 0.  0.
         25    2    3    3    0    0 -0.49573229742E+02  0.78728935110E+01  0.18238285218E+03  0.22626488514E+03  0.12414832227E+03 0.  0.
          5    1    4    4  502    0  0.23230458514E+01  0.47183119778E+02 -0.30683563122E+02  0.56526227363E+02  0.47000000000E+01 0. -1.
         -5    1    4    4    0  502  0.47250183890E+02 -0.55056013289E+02  0.33447421367E+02  0.80028522872E+02  0.47000000000E+01 0. -1.
          5    1    5    5  503    0  0.36370019860E+02  0.25291450865E+02  0.78293645406E+02  0.90080079609E+02  0.47000000000E+01 0. -1.
         -5    1    5    5    0  503 -0.85943249601E+02 -0.17418557354E+02  0.10408920677E+03  0.13618480554E+03  0.47000000000E+01 0. -1.
<mgrwt>
<rscale>  0 0.31202369E+03</rscale>
<asrwt>0</asrwt>
<pdfrwt beam="1">  1        2 0.42151257E-01 0.31202369E+03</pdfrwt>
<pdfrwt beam="2">  1       -2 0.13667148E-01 0.31202369E+03</pdfrwt>
<totfact> 0.48167477E+03</totfact>
</mgrwt>
</event>
<event>
 9    1  0.7984035E-001  0.2786101E+03  0.7818608E-02  0.1096450E+00
         -2   -1    0    0    0  501 -0.00000000000E+00  0.00000000000E+00  0.14829643777E+02  0.14829643777E+02  0.00000000000E+00 0.  1.
          2   -1    0    0  501    0  0.00000000000E+00 -0.00000000000E+00 -0.13085886381E+04  0.13085886381E+04  0.00000000000E+00 0.  1.
         35    2    1    2    0    0 -0.71054273576E-14  0.00000000000E+00 -0.12937589943E+04  0.13234182819E+04  0.27861014593E+03 0.  0.
         25    2    3    3    0    0 -0.56465769551E+02  0.22872610353E+02 -0.64626648694E+03  0.66105620099E+03  0.12499355702E+03 0.  0.
         25    2    3    3    0    0  0.56465769551E+02 -0.22872610353E+02 -0.64749250738E+03  0.66236208088E+03  0.12556050191E+03 0.  0.
          5    1    4    4  502    0 -0.87573202175E+02  0.10025254116E+02 -0.57903327715E+03  0.58572279920E+03  0.47000000000E+01 0.  1.
         -5    1    4    4    0  502  0.31107432624E+02  0.12847356238E+02 -0.67233209794E+02  0.75333401795E+02  0.47000000000E+01 0.  1.
          5    1    5    5  503    0  0.16154486793E+01 -0.50172187326E+02 -0.10583856847E+03  0.11723374357E+03  0.47000000000E+01 0.  1.
         -5    1    5    5    0  503  0.54850320872E+02  0.27299576972E+02 -0.54165393891E+03  0.54512833731E+03  0.47000000000E+01 0.  1.
<mgrwt>
<rscale>  0 0.27861015E+03</rscale>
<asrwt>0</asrwt>
<pdfrwt beam="1">  1        2 0.20132140E+00 0.27861015E+03</pdfrwt>
<pdfrwt beam="2">  1       -2 0.22814829E-02 0.27861015E+03</pdfrwt>
<totfact> 0.11040854E+04</totfact>
</mgrwt>
</event>
<event>
 9    1  0.7984035E-001  0.2756101E+03  0.7818608E-02  0.1098111E+00
         -1   -1    0    0    0  501 -0.00000000000E+00  0.00000000000E+00  0.10093049298E+04  0.10093049298E+04  0.00000000000E+00 0. -1.
          1   -1    0    0  501    0  0.00000000000E+00 -0.00000000000E+00 -0.18815162646E+02  0.18815162646E+02  0.00000000000E+00 0. -1.
         35    2    1    2    0    0  0.14210854715E-13  0.00000000000E+00  0.99048976716E+03  0.10281200924E+04  0.27561013344E+03 0.  0.
         25    2    3    3    0    0 -0.41829931036E+02  0.36838858654E+02  0.43161037493E+03  0.45267125257E+03  0.12456685962E+03 0.  0.
         25    2    3    3    0    0  0.41829931036E+02 -0.36838858654E+02  0.55887939223E+03  0.57544883988E+03  0.12525313421E+03 0.  0.
          5    1    4    4  502    0  0.43154690253E+02  0.26124175512E+02  0.16383667274E+03  0.17149153091E+03  0.47000000000E+01 0.  1.
         -5    1    4    4    0  502 -0.84984621289E+02  0.10714683143E+02  0.26777370219E+03  0.28117972166E+03  0.47000000000E+01 0.  1.
          5    1    5    5  503    0  0.81686932111E+02 -0.47243991459E+02  0.42095172346E+03  0.43142460881E+03  0.47000000000E+01 0. -1.
         -5    1    5    5    0  503 -0.39857001075E+02  0.10405132804E+02  0.13792766877E+03  0.14402423107E+03  0.47000000000E+01 0. -1.
<mgrwt>
<rscale>  0 0.27561013E+03</rscale>
<asrwt>0</asrwt>
<pdfrwt beam="1">  1        1 0.28946412E-02 0.27561013E+03</pdfrwt>
<pdfrwt beam="2">  1       -1 0.15527764E+00 0.27561013E+03</pdfrwt>
<totfact> 0.12363162E+03</totfact>
</mgrwt>
</event>
<event>
 9    1  0.7984035E-001  0.2735933E+03  0.7818608E-02  0.1099241E+00
          2   -1    0    0  501    0  0.00000000000E+00  0.00000000000E+00  0.19362766917E+03  0.19362766917E+03  0.00000000000E+00 0.  1.
         -2   -1    0    0    0  501 -0.00000000000E+00 -0.00000000000E+00 -0.96645896200E+02  0.96645896200E+02  0.00000000000E+00 0.  1.
         35    2    1    2    0    0 -0.88817841970E-15 -0.71054273576E-14  0.96981772974E+02  0.29027356537E+03  0.27359327197E+03 0.  0.
         25    2    3    3    0    0  0.57437894936E+01  0.55171740196E+02  0.33927982651E+02  0.13974757761E+03  0.12369868798E+03 0.  0.
         25    2    3    3    0    0 -0.57437894936E+01 -0.55171740196E+02  0.63053790323E+02  0.15052598776E+03  0.12492149728E+03 0.  0.
          5    1    4    4  502    0  0.94392709848E+01  0.54667666779E+01  0.74418004394E+02  0.75359901490E+02  0.47000000000E+01 0.  1.
         -5    1    4    4    0  502 -0.36954814912E+01  0.49704973518E+02 -0.40490021743E+02  0.64387676124E+02  0.47000000000E+01 0.  1.
          5    1    5    5  503    0 -0.28109480334E+01 -0.21498694360E+02 -0.37924625802E+02  0.43937029147E+02  0.47000000000E+01 0. -1.
         -5    1    5    5    0  503 -0.29328414602E+01 -0.33673045836E+02  0.10097841613E+03  0.10658895861E+03  0.47000000000E+01 0. -1.
<mgrwt>
<rscale>  0 0.27359327E+03</rscale>
<asrwt>0</asrwt>
<pdfrwt beam="1">  1        2 0.29788872E-01 0.27359327E+03</pdfrwt>
<pdfrwt beam="2">  1       -2 0.14868599E-01 0.27359327E+03</pdfrwt>
<totfact> 0.60919840E+03</totfact>
</mgrwt>
</event>
<event>
 9    1  0.7984035E-001  0.2790131E+03  0.7818608E-02  0.1096229E+00
         -2   -1    0    0    0  501 -0.00000000000E+00  0.00000000000E+00  0.63144674794E+02  0.63144674794E+02  0.00000000000E+00 0.  1.
          2   -1    0    0  501    0  0.00000000000E+00 -0.00000000000E+00 -0.30821404446E+03  0.30821404446E+03  0.00000000000E+00 0.  1.
         35    2    1    2    0    0  0.00000000000E+00  0.00000000000E+00 -0.24506936966E+03  0.37135871925E+03  0.27901308646E+03 0.  0.
         25    2    3    3    0    0 -0.22258385502E+02 -0.57405197630E+02 -0.12580005870E+03  0.18810825803E+03  0.12557177044E+03 0.  0.
         25    2    3    3    0    0  0.22258385502E+02  0.57405197630E+02 -0.11926931097E+03  0.18325046122E+03  0.12475884962E+03 0.  0.
          5    1    4    4  502    0  0.41297464801E+02 -0.49273297262E+02 -0.99782681340E+02  0.11879398940E+03  0.47000000000E+01 0. -1.
         -5    1    4    4    0  502 -0.63555850303E+02 -0.81319003680E+01 -0.26017377356E+02  0.69314268631E+02  0.47000000000E+01 0. -1.
          5    1    5    5  503    0  0.67388496556E+01  0.31323384679E+00  0.25497328592E+02  0.26790184312E+02  0.47000000000E+01 0.  1.
         -5    1    5    5    0  503  0.15519535846E+02  0.57091963783E+02 -0.14476663956E+03  0.15646027691E+03  0.47000000000E+01 0.  1.
<mgrwt>
<rscale>  0 0.27901309E+03</rscale>
<asrwt>0</asrwt>
<pdfrwt beam="1">  1        2 0.47417546E-01 0.27901309E+03</pdfrwt>
<pdfrwt beam="2">  1       -2 0.97145652E-02 0.27901309E+03</pdfrwt>
<totfact> 0.73306748E+03</totfact>
</mgrwt>
</event>
<event>
 9    1  0.7984035E-001  0.2786935E+03  0.7818608E-02  0.1096405E+00
          2   -1    0    0  501    0  0.00000000000E+00  0.00000000000E+00  0.30642210673E+02  0.30642210673E+02  0.00000000000E+00 0.  1.
         -2   -1    0    0    0  501 -0.00000000000E+00 -0.00000000000E+00 -0.63368541468E+03  0.63368541468E+03  0.00000000000E+00 0.  1.
         35    2    1    2    0    0  0.71054273576E-14  0.35527136788E-14 -0.60304320401E+03  0.66432762535E+03  0.27869353761E+03 0.  0.
         25    2    3    3    0    0 -0.50242807194E+02 -0.27367262742E+02 -0.33995992453E+03  0.36688903071E+03  0.12554482795E+03 0.  0.
         25    2    3    3    0    0  0.50242807194E+02  0.27367262742E+02 -0.26308327948E+03  0.29743859464E+03  0.12642625874E+03 0.  0.
          5    1    4    4  502    0 -0.15465417459E+02 -0.57396464188E+02 -0.29983362767E+03  0.30570545876E+03  0.47000000000E+01 0.  1.
         -5    1    4    4    0  502 -0.34777389735E+02  0.30029201445E+02 -0.40126296866E+02  0.61183571949E+02  0.47000000000E+01 0.  1.
          5    1    5    5  503    0  0.18703562829E+02 -0.81831574115E+00 -0.25295623056E+03  0.25369161887E+03  0.47000000000E+01 0.  1.
         -5    1    5    5    0  503  0.31539244365E+02  0.28185578484E+02 -0.10127048912E+02  0.43746975772E+02  0.47000000000E+01 0.  1.
<mgrwt>
<rscale>  0 0.27869354E+03</rscale>
<asrwt>0</asrwt>
<pdfrwt beam="1">  1        2 0.47141868E-02 0.27869354E+03</pdfrwt>
<pdfrwt beam="2">  1       -2 0.97490052E-01 0.27869354E+03</pdfrwt>
<totfact> 0.15464280E+03</totfact>
</mgrwt>
</event>
<event>
 9    1  0.7984035E-001  0.2730812E+03  0.7818608E-02  0.1099529E+00
         -2   -1    0    0    0  501 -0.00000000000E+00  0.00000000000E+00  0.36413703149E+03  0.36413703149E+03  0.00000000000E+00 0. -1.
          2   -1    0    0  501    0  0.00000000000E+00 -0.00000000000E+00 -0.51198684960E+02  0.51198684960E+02  0.00000000000E+00 0. -1.
         35    2    1    2    0    0  0.00000000000E+00  0.26645352591E-14  0.31293834653E+03  0.41533571645E+03  0.27308121252E+03 0.  0.
         25    2    3    3    0    0  0.54158155275E+02  0.43126176337E+01  0.14477264252E+03  0.19914101215E+03  0.12548434263E+03 0.  0.
         25    2    3    3    0    0 -0.54158155275E+02 -0.43126176337E+01  0.16816570401E+03  0.21619470430E+03  0.12453409857E+03 0.  0.
          5    1    4    4  502    0  0.61786769970E+02  0.45258381095E+02  0.40513393104E+02  0.86771833122E+02  0.47000000000E+01 0. -1.
         -5    1    4    4    0  502 -0.76286146950E+01 -0.40945763461E+02  0.10425924942E+03  0.11236917903E+03  0.47000000000E+01 0. -1.
          5    1    5    5  503    0  0.32628544319E+01 -0.49483007340E+01 -0.18952758322E+02  0.20406590779E+02  0.47000000000E+01 0. -1.
         -5    1    5    5    0  503 -0.57421009707E+02  0.63568310030E+00  0.18711846233E+03  0.19578811352E+03  0.47000000000E+01 0. -1.
<mgrwt>
<rscale>  0 0.27308121E+03</rscale>
<asrwt>0</asrwt>
<pdfrwt beam="1">  1        2 0.78767210E-02 0.27308121E+03</pdfrwt>
<pdfrwt beam="2">  1       -2 0.56021080E-01 0.27308121E+03</pdfrwt>
<totfact> 0.26350633E+03</totfact>
</mgrwt>
</event>
<event>
 9    1  0.7984035E-001  0.2748650E+03  0.7818608E-02  0.1098527E+00
          1   -1    0    0  501    0  0.00000000000E+00  0.00000000000E+00  0.11706613280E+04  0.11706613280E+04  0.00000000000E+00 0. -1.
         -1   -1    0    0    0  501 -0.00000000000E+00 -0.00000000000E+00 -0.16134211164E+02  0.16134211164E+02  0.00000000000E+00 0. -1.
         35    2    1    2    0    0  0.00000000000E+00 -0.71054273576E-14  0.11545271168E+04  0.11867955391E+04  0.27486503646E+03 0.  0.
         25    2    3    3    0    0 -0.41778304430E+02  0.33570586464E+02  0.57184171536E+03  0.58752270256E+03  0.12372375522E+03 0.  0.
         25    2    3    3    0    0  0.41778304430E+02 -0.33570586464E+02  0.58268540145E+03  0.59927283657E+03  0.12935704309E+03 0.  0.
          5    1    4    4  502    0  0.35984333468E+02 -0.39148538635E+01  0.30130798511E+03  0.30351077448E+03  0.47000000000E+01 0. -1.
         -5    1    4    4    0  502 -0.77762637898E+02  0.37485440327E+02  0.27053373025E+03  0.28401192808E+03  0.47000000000E+01 0. -1.
          5    1    5    5  503    0  0.19867278612E+02  0.10502403621E+02  0.51468852941E+03  0.51520033147E+03  0.47000000000E+01 0. -1.
         -5    1    5    5    0  503  0.21911025819E+02 -0.44072990084E+02  0.67996872042E+02  0.84072505107E+02  0.47000000000E+01 0. -1.
<mgrwt>
<rscale>  0 0.27486504E+03</rscale>
<asrwt>0</asrwt>
<pdfrwt beam="1">  1        1 0.18010168E+00 0.27486504E+03</pdfrwt>
<pdfrwt beam="2">  1       -1 0.24821873E-02 0.27486504E+03</pdfrwt>
<totfact> 0.59920760E+03</totfact>
</mgrwt>
</event>
<event>
 9    1  0.7984035E-001  0.2748731E+03  0.7818608E-02  0.1098523E+00
          1   -1    0    0  501    0  0.00000000000E+00  0.00000000000E+00  0.69022032730E+02  0.69022032730E+02  0.00000000000E+00 0. -1.
         -1   -1    0    0    0  501 -0.00000000000E+00 -0.00000000000E+00 -0.27366336090E+03  0.27366336090E+03  0.00000000000E+00 0. -1.
         35    2    1    2    0    0  0.71054273576E-14 -0.71054273576E-14 -0.20464132817E+03  0.34268539363E+03  0.27487307219E+03 0.  0.
         25    2    3    3    0    0  0.33044541512E+02 -0.12154351182E+02 -0.15209236110E+03  0.20019485106E+03  0.12532446732E+03 0.  0.
         25    2    3    3    0    0 -0.33044541512E+02  0.12154351182E+02 -0.52548967073E+02  0.14249054258E+03  0.12768120773E+03 0.  0.
          5    1    4    4  502    0  0.46926838129E+02  0.28549151734E+02 -0.16018795962E+02  0.57409703235E+02  0.47000000000E+01 0.  1.
         -5    1    4    4    0  502 -0.13882296617E+02 -0.40703502915E+02 -0.13607356514E+03  0.14278514782E+03  0.47000000000E+01 0.  1.
          5    1    5    5  503    0  0.34363329469E+02  0.34717821499E+02 -0.51649703606E+02  0.71245683549E+02  0.47000000000E+01 0. -1.
         -5    1    5    5    0  503 -0.67407870981E+02 -0.22563470317E+02 -0.89926346726E+00  0.71244859027E+02  0.47000000000E+01 0. -1.
<mgrwt>
<rscale>  0 0.27487307E+03</rscale>
<asrwt>0</asrwt>
<pdfrwt beam="1">  1        1 0.10618774E-01 0.27487307E+03</pdfrwt>
<pdfrwt beam="2">  1       -1 0.42102056E-01 0.27487307E+03</pdfrwt>
<totfact> 0.33162138E+03</totfact>
</mgrwt>
</event>
<event>
 9    1  0.7984035E-001  0.2875768E+03  0.7818608E-02  0.1091621E+00
         -2   -1    0    0    0  501 -0.00000000000E+00  0.00000000000E+00  0.15242295944E+02  0.15242295944E+02  0.00000000000E+00 0.  1.
          2   -1    0    0  501    0  0.00000000000E+00 -0.00000000000E+00 -0.13564300707E+04  0.13564300707E+04  0.00000000000E+00 0.  1.
         35    2    1    2    0    0  0.71054273576E-14  0.00000000000E+00 -0.13411877747E+04  0.13716723666E+04  0.28757683192E+03 0.  0.
         25    2    3    3    0    0  0.44605683339E+02 -0.25200190544E+02 -0.43951383850E+03  0.45959664017E+03  0.12422536311E+03 0.  0.
         25    2    3    3    0    0 -0.44605683339E+02  0.25200190544E+02 -0.90167393625E+03  0.91207572646E+03  0.12744224924E+03 0.  0.
          5    1    4    4  502    0  0.64672483928E+02  0.13483454612E+02 -0.37975191374E+03  0.38548403303E+03  0.47000000000E+01 0. -1.
         -5    1    4    4    0  502 -0.20066800588E+02 -0.38683645155E+02 -0.59761924751E+02  0.74112607148E+02  0.47000000000E+01 0. -1.
          5    1    5    5  503    0 -0.78127811133E+02 -0.37109726142E+01 -0.35266773387E+03  0.36126769397E+03  0.47000000000E+01 0.  1.
         -5    1    5    5    0  503  0.33522127793E+02  0.28911163158E+02 -0.54900620238E+03  0.55080803249E+03  0.47000000000E+01 0.  1.
<mgrwt>
<rscale>  0 0.28757683E+03</rscale>
<asrwt>0</asrwt>
<pdfrwt beam="1">  1        2 0.20868160E+00 0.28757683E+03</pdfrwt>
<pdfrwt beam="2">  1       -2 0.23449680E-02 0.28757683E+03</pdfrwt>
<totfact> 0.99849233E+03</totfact>
</mgrwt>
</event>
<event>
 9    1  0.7984035E-001  0.2763362E+03  0.7818608E-02  0.1097707E+00
         -2   -1    0    0    0  501 -0.00000000000E+00  0.00000000000E+00  0.14557684437E+02  0.14557684437E+02  0.00000000000E+00 0. -1.
          2   -1    0    0  501    0  0.00000000000E+00 -0.00000000000E+00 -0.13113644428E+04  0.13113644428E+04  0.00000000000E+00 0. -1.
         35    2    1    2    0    0  0.53290705182E-14  0.00000000000E+00 -0.12968067583E+04  0.13259221272E+04  0.27633624258E+03 0.  0.
         25    2    3    3    0    0 -0.24999582682E+01 -0.42855833671E+02 -0.45540717684E+03  0.47412459654E+03  0.12472194697E+03 0.  0.
         25    2    3    3    0    0  0.24999582682E+01  0.42855833671E+02 -0.84139958151E+03  0.85179753069E+03  0.12555040918E+03 0.  0.
          5    1    4    4  502    0 -0.10303844056E+02 -0.52855284623E+02 -0.45728419141E+03  0.46046799240E+03  0.47000000000E+01 0. -1.
         -5    1    4    4    0  502  0.78038857874E+01  0.99994509519E+01  0.18770145733E+01  0.13656604132E+02  0.47000000000E+01 0. -1.
          5    1    5    5  503    0  0.35553212629E+02  0.76959900869E+02 -0.52665357259E+03  0.53345377756E+03  0.47000000000E+01 0.  1.
         -5    1    5    5    0  503 -0.33053254361E+02 -0.34104067198E+02 -0.31474600893E+03  0.31834375313E+03  0.47000000000E+01 0.  1.
<mgrwt>
<rscale>  0 0.27633624E+03</rscale>
<asrwt>0</asrwt>
<pdfrwt beam="1">  1        2 0.20174849E+00 0.27633624E+03</pdfrwt>
<pdfrwt beam="2">  1       -2 0.22396425E-02 0.27633624E+03</pdfrwt>
<totfact> 0.11304401E+04</totfact>
</mgrwt>
</event>
<event>
 9    1  0.7984035E-001  0.2750941E+03  0.7818608E-02  0.1098399E+00
         -2   -1    0    0    0  501 -0.00000000000E+00  0.00000000000E+00  0.27803983718E+03  0.27803983718E+03  0.00000000000E+00 0. -1.
          2   -1    0    0  501    0  0.00000000000E+00 -0.00000000000E+00 -0.68044913299E+02  0.68044913299E+02  0.00000000000E+00 0. -1.
         35    2    1    2    0    0  0.71054273576E-14  0.00000000000E+00  0.20999492388E+03  0.34608475048E+03  0.27509414109E+03 0.  0.
         25    2    3    3    0    0 -0.12018708665E+02 -0.52276289580E+02  0.78400829061E+02  0.15671616725E+03  0.12464352076E+03 0.  0.
         25    2    3    3    0    0  0.12018708665E+02  0.52276289580E+02  0.13159409482E+03  0.18936858324E+03  0.12516467039E+03 0.  0.
          5    1    4    4  502    0  0.43459283858E+02 -0.27460437336E+02  0.80606182048E+02  0.95719546365E+02  0.47000000000E+01 0. -1.
         -5    1    4    4    0  502 -0.55477992523E+02 -0.24815852244E+02 -0.22053529864E+01  0.60996620880E+02  0.47000000000E+01 0. -1.
          5    1    5    5  503    0 -0.17675596790E+02 -0.35092955589E+02  0.62578916349E+02  0.74041562823E+02  0.47000000000E+01 0. -1.
         -5    1    5    5    0  503  0.29694305455E+02  0.87369245169E+02  0.69015178472E+02  0.11532702041E+03  0.47000000000E+01 0. -1.
<mgrwt>
<rscale>  0 0.27509414E+03</rscale>
<asrwt>0</asrwt>
<pdfrwt beam="1">  1        2 0.10468448E-01 0.27509414E+03</pdfrwt>
<pdfrwt beam="2">  1       -2 0.42775359E-01 0.27509414E+03</pdfrwt>
<totfact> 0.31525575E+03</totfact>
</mgrwt>
</event>
<event>
 9    1  0.7984035E-001  0.2740237E+03  0.7818608E-02  0.1098999E+00
          2   -1    0    0  501    0  0.00000000000E+00  0.00000000000E+00  0.78048172011E+03  0.78048172011E+03  0.00000000000E+00 0. -1.
         -2   -1    0    0    0  501 -0.00000000000E+00 -0.00000000000E+00 -0.24052135821E+02  0.24052135821E+02  0.00000000000E+00 0. -1.
         35    2    1    2    0    0  0.00000000000E+00  0.35527136788E-14  0.75642958429E+03  0.80453385593E+03  0.27402373866E+03 0.  0.
         25    2    3    3    0    0  0.43115108829E+02 -0.13937148503E+02  0.29531104016E+03  0.32410317507E+03  0.12562285193E+03 0.  0.
         25    2    3    3    0    0 -0.43115108829E+02  0.13937148503E+02  0.46111854412E+03  0.48043068086E+03  0.12700460882E+03 0.  0.
          5    1    4    4  502    0  0.87052372437E+02 -0.18253028059E+02  0.19182457938E+03  0.21149479387E+03  0.47000000000E+01 0.  1.
         -5    1    4    4    0  502 -0.43937263609E+02  0.43158795556E+01  0.10348646079E+03  0.11260838120E+03  0.47000000000E+01 0.  1.
          5    1    5    5  503    0 -0.37765912774E+02  0.27817132053E+02  0.46238288023E+03  0.46477959823E+03  0.47000000000E+01 0. -1.
         -5    1    5    5    0  503 -0.53491960545E+01 -0.13879983550E+02 -0.12643361046E+01  0.15651082632E+02  0.47000000000E+01 0. -1.
<mgrwt>
<rscale>  0 0.27402374E+03</rscale>
<asrwt>0</asrwt>
<pdfrwt beam="1">  1        2 0.12007409E+00 0.27402374E+03</pdfrwt>
<pdfrwt beam="2">  1       -2 0.37003292E-02 0.27402374E+03</pdfrwt>
<totfact> 0.11276185E+04</totfact>
</mgrwt>
</event>
<event>
 9    1  0.7984035E-001  0.2689289E+03  0.7818608E-02  0.1101894E+00
          1   -1    0    0  501    0  0.00000000000E+00  0.00000000000E+00  0.10888795776E+04  0.10888795776E+04  0.00000000000E+00 0. -1.
         -1   -1    0    0    0  501 -0.00000000000E+00 -0.00000000000E+00 -0.16604858403E+02  0.16604858403E+02  0.00000000000E+00 0. -1.
         35    2    1    2    0    0  0.00000000000E+00  0.00000000000E+00  0.10722747192E+04  0.11054844360E+04  0.26892892149E+03 0.  0.
         25    2    3    3    0    0  0.40051004042E+02  0.23344748990E+02  0.68468470618E+03  0.69717550555E+03  0.12292875349E+03 0.  0.
         25    2    3    3    0    0 -0.40051004042E+02 -0.23344748990E+02  0.38759001302E+03  0.40830893046E+03  0.11975434967E+03 0.  0.
          5    1    4    4  502    0  0.45729123120E+02  0.17263163600E+02  0.68579903072E+03  0.68755477604E+03  0.47000000000E+01 0.  1.
         -5    1    4    4    0  502 -0.56781190776E+01  0.60815853907E+01 -0.11143245423E+01  0.96207295103E+01  0.47000000000E+01 0.  1.
          5    1    5    5  503    0  0.10436692558E+02  0.29921110231E+02  0.32318735035E+02  0.45505911960E+02  0.47000000000E+01 0. -1.
         -5    1    5    5    0  503 -0.50487696600E+02 -0.53265859222E+02  0.35527127799E+03  0.36280301850E+03  0.47000000000E+01 0. -1.
<mgrwt>
<rscale>  0 0.26892892E+03</rscale>
<asrwt>0</asrwt>
<pdfrwt beam="1">  1        1 0.16751988E+00 0.26892892E+03</pdfrwt>
<pdfrwt beam="2">  1       -1 0.25545944E-02 0.26892892E+03</pdfrwt>
<totfact> 0.65679888E+03</totfact>
</mgrwt>
</event>
<event>
 9    1  0.7984035E-001  0.2749200E+03  0.7818608E-02  0.1098496E+00
          2   -1    0    0  501    0  0.00000000000E+00  0.00000000000E+00  0.11752882427E+03  0.11752882427E+03  0.00000000000E+00 0.  1.
         -2   -1    0    0    0  501 -0.00000000000E+00 -0.00000000000E+00 -0.16077121146E+03  0.16077121146E+03  0.00000000000E+00 0.  1.
         35    2    1    2    0    0 -0.14210854715E-13  0.00000000000E+00 -0.43242387184E+02  0.27830003573E+03  0.27491999897E+03 0.  0.
         25    2    3    3    0    0 -0.52654219271E+02 -0.13778994934E+01 -0.43988143651E+02  0.14235124622E+03  0.12471790211E+03 0.  0.
         25    2    3    3    0    0  0.52654219271E+02  0.13778994934E+01  0.74575646691E+00  0.13594878950E+03  0.12532817640E+03 0.  0.
          5    1    4    4  502    0 -0.71554252233E+02  0.44386064584E+02 -0.17993995482E+02  0.86232288705E+02  0.47000000000E+01 0.  1.
         -5    1    4    4    0  502  0.18900032962E+02 -0.45763964077E+02 -0.25994148169E+02  0.56118957519E+02  0.47000000000E+01 0.  1.
          5    1    5    5  503    0  0.19013721058E+02  0.56329975924E+02 -0.27215970991E+02  0.65554457156E+02  0.47000000000E+01 0.  1.
         -5    1    5    5    0  503  0.33640498213E+02 -0.54952076430E+02  0.27961727458E+02  0.70394332346E+02  0.47000000000E+01 0.  1.
<mgrwt>
<rscale>  0 0.27492000E+03</rscale>
<asrwt>0</asrwt>
<pdfrwt beam="1">  1        2 0.18081358E-01 0.27492000E+03</pdfrwt>
<pdfrwt beam="2">  1       -2 0.24734032E-01 0.27492000E+03</pdfrwt>
<totfact> 0.44962585E+03</totfact>
</mgrwt>
</event>
<event>
 9    1  0.7984035E-001  0.2803888E+03  0.7818608E-02  0.1095477E+00
          2   -1    0    0  501    0  0.00000000000E+00  0.00000000000E+00  0.38496621819E+03  0.38496621819E+03  0.00000000000E+00 0.  1.
         -2   -1    0    0    0  501 -0.00000000000E+00 -0.00000000000E+00 -0.51055058787E+02  0.51055058787E+02  0.00000000000E+00 0.  1.
         35    2    1    2    0    0  0.00000000000E+00  0.00000000000E+00  0.33391115940E+03  0.43602127697E+03  0.28038882218E+03 0.  0.
         25    2    3    3    0    0  0.58132629720E+02  0.55946661129E+01  0.20446609150E+03  0.24663226939E+03  0.12494154955E+03 0.  0.
         25    2    3    3    0    0 -0.58132629720E+02 -0.55946661129E+01  0.12944506790E+03  0.18938900758E+03  0.12530549733E+03 0.  0.
          5    1    4    4  502    0  0.86640313343E+02  0.31435843642E+02  0.17534939132E+03  0.19815210117E+03  0.47000000000E+01 0. -1.
         -5    1    4    4    0  502 -0.28507683623E+02 -0.25841177529E+02  0.29116700187E+02  0.48480168228E+02  0.47000000000E+01 0. -1.
          5    1    5    5  503    0 -0.39936841767E+02  0.14065733623E+02 -0.12866332457E+02  0.44502007860E+02  0.47000000000E+01 0.  1.
         -5    1    5    5    0  503 -0.18195787953E+02 -0.19660399736E+02  0.14231140035E+03  0.14488699972E+03  0.47000000000E+01 0.  1.
<mgrwt>
<rscale>  0 0.28038882E+03</rscale>
<asrwt>0</asrwt>
<pdfrwt beam="1">  1        2 0.59225570E-01 0.28038882E+03</pdfrwt>
<pdfrwt beam="2">  1       -2 0.78546247E-02 0.28038882E+03</pdfrwt>
<totfact> 0.80569486E+03</totfact>
</mgrwt>
</event>
<event>
 9    1  0.7984035E-001  0.2781861E+03  0.7818608E-02  0.1096684E+00
          1   -1    0    0  501    0  0.00000000000E+00  0.00000000000E+00  0.62671652609E+03  0.62671652609E+03  0.00000000000E+00 0. -1.
         -1   -1    0    0    0  501 -0.00000000000E+00 -0.00000000000E+00 -0.30870222868E+02  0.30870222868E+02  0.00000000000E+00 0. -1.
         35    2    1    2    0    0 -0.35527136788E-14  0.00000000000E+00  0.59584630322E+03  0.65758674896E+03  0.27818611637E+03 0.  0.
         25    2    3    3    0    0 -0.26174319947E+02  0.37916823480E+01  0.18353060602E+03  0.22557814022E+03  0.12846222059E+03 0.  0.
         25    2    3    3    0    0  0.26174319947E+02 -0.37916823480E+01  0.41231569720E+03  0.43200860874E+03  0.12620511871E+03 0.  0.
          5    1    4    4  502    0  0.41656474522E+01  0.25315323787E+02 -0.10382571295E+02  0.28073226103E+02  0.47000000000E+01 0. -1.
         -5    1    4    4    0  502 -0.30339967400E+02 -0.21523641439E+02  0.19391317732E+03  0.19750491411E+03  0.47000000000E+01 0. -1.
          5    1    5    5  503    0  0.90048030153E+01  0.64220803792E+01  0.41128391815E+03  0.41145945234E+03  0.47000000000E+01 0.  1.
         -5    1    5    5    0  503  0.17169516932E+02 -0.10213762727E+02  0.10317790529E+01  0.20549156400E+02  0.47000000000E+01 0.  1.
<mgrwt>
<rscale>  0 0.27818612E+03</rscale>
<asrwt>0</asrwt>
<pdfrwt beam="1">  1        1 0.96417917E-01 0.27818612E+03</pdfrwt>
<pdfrwt beam="2">  1       -1 0.47492656E-02 0.27818612E+03</pdfrwt>
<totfact> 0.62708827E+03</totfact>
</mgrwt>
</event>
<event>
 9    1  0.7984035E-001  0.2745580E+03  0.7818608E-02  0.1098699E+00
          4   -1    0    0  501    0  0.00000000000E+00  0.00000000000E+00  0.25263121580E+02  0.25263121580E+02  0.00000000000E+00 0.  1.
         -4   -1    0    0    0  501 -0.00000000000E+00 -0.00000000000E+00 -0.74596993039E+03  0.74596993039E+03  0.00000000000E+00 0.  1.
         35    2    1    2    0    0  0.00000000000E+00 -0.71054273576E-14 -0.72070680881E+03  0.77123305197E+03  0.27455803792E+03 0.  0.
         25    2    3    3    0    0  0.31678228008E+02  0.37999386714E+02 -0.27904075662E+03  0.30943677210E+03  0.12425742857E+03 0.  0.
         25    2    3    3    0    0 -0.31678228008E+02 -0.37999386714E+02 -0.44166605219E+03  0.46179627987E+03  0.12545692058E+03 0.  0.
          5    1    4    4  502    0  0.38493099252E+02  0.52903713674E+02 -0.57463984726E+02  0.87205052325E+02  0.47000000000E+01 0. -1.
         -5    1    4    4    0  502 -0.68148712441E+01 -0.14904326960E+02 -0.22157677189E+03  0.22223171978E+03  0.47000000000E+01 0. -1.
          5    1    5    5  503    0 -0.37742482260E+02 -0.46750526011E+02 -0.44548832583E+03  0.44954648826E+03  0.47000000000E+01 0.  1.
         -5    1    5    5    0  503  0.60642542524E+01  0.87511392967E+01  0.38222736458E+01  0.12249791608E+02  0.47000000000E+01 0.  1.
<mgrwt>
<rscale>  0 0.27455804E+03</rscale>
<asrwt>0</asrwt>
<pdfrwt beam="1">  1        4 0.38866340E-02 0.27455804E+03</pdfrwt>
<pdfrwt beam="2">  1       -4 0.11476461E+00 0.27455804E+03</pdfrwt>
<totfact> 0.41273947E+02</totfact>
</mgrwt>
</event>
<event>
 9    1  0.7984035E-001  0.2526455E+03  0.7818608E-02  0.1111644E+00
          3   -1    0    0  501    0  0.00000000000E+00  0.00000000000E+00  0.39240364261E+02  0.39240364261E+02  0.00000000000E+00 0.  1.
         -3   -1    0    0    0  501 -0.00000000000E+00 -0.00000000000E+00 -0.40665879910E+03  0.40665879910E+03  0.00000000000E+00 0.  1.
         35    2    1    2    0    0  0.00000000000E+00  0.35527136788E-14 -0.36741843484E+03  0.44589916336E+03  0.25264551773E+03 0.  0.
         25    2    3    3    0    0 -0.97270886318E+01 -0.57577007093E+01 -0.14201420304E+03  0.18935950948E+03  0.12474462952E+03 0.  0.
         25    2    3    3    0    0  0.97270886318E+01  0.57577007093E+01 -0.22540423180E+03  0.25653965388E+03  0.12197441917E+03 0.  0.
          5    1    4    4  502    0  0.36847663581E+02  0.31745456705E+02 -0.11219696264E+03  0.12237553987E+03  0.47000000000E+01 0.  1.
         -5    1    4    4    0  502 -0.46574752213E+02 -0.37503157414E+02 -0.29817240404E+02  0.66983969612E+02  0.47000000000E+01 0.  1.
          5    1    5    5  503    0  0.49033898035E+02  0.52906725299E+01 -0.20706411834E+03  0.21290832176E+03  0.47000000000E+01 0. -1.
         -5    1    5    5    0  503 -0.39306809403E+02  0.46702817939E+00 -0.18340113458E+02  0.43631332118E+02  0.47000000000E+01 0. -1.
<mgrwt>
<rscale>  0 0.25264552E+03</rscale>
<asrwt>0</asrwt>
<pdfrwt beam="1">  1        3 0.60369793E-02 0.25264552E+03</pdfrwt>
<pdfrwt beam="2">  1       -3 0.62562890E-01 0.25264552E+03</pdfrwt>
<totfact> 0.10711426E+03</totfact>
</mgrwt>
</event>
<event>
 9    1  0.7984035E-001  0.2752347E+03  0.7818608E-02  0.1098320E+00
         -2   -1    0    0    0  501 -0.00000000000E+00  0.00000000000E+00  0.60566293191E+02  0.60566293191E+02  0.00000000000E+00 0.  1.
          2   -1    0    0  501    0  0.00000000000E+00 -0.00000000000E+00 -0.31269110283E+03  0.31269110283E+03  0.00000000000E+00 0.  1.
         35    2    1    2    0    0  0.00000000000E+00  0.71054273576E-14 -0.25212480964E+03  0.37325739602E+03  0.27523474354E+03 0.  0.
         25    2    3    3    0    0 -0.45276424977E+02 -0.31310315377E+02 -0.14595749299E+03  0.20036064963E+03  0.12573984911E+03 0.  0.
         25    2    3    3    0    0  0.45276424977E+02  0.31310315377E+02 -0.10616731665E+03  0.17289674639E+03  0.12486590920E+03 0.  0.
          5    1    4    4  502    0  0.25050488396E+02 -0.56247539651E+02 -0.55729190531E+02  0.83181400343E+02  0.47000000000E+01 0. -1.
         -5    1    4    4    0  502 -0.70326913374E+02  0.24937224275E+02 -0.90228302459E+02  0.11717924929E+03  0.47000000000E+01 0. -1.
          5    1    5    5  503    0  0.87646691544E+02  0.31454090283E+02 -0.80160481596E+02  0.12295972976E+03  0.47000000000E+01 0. -1.
         -5    1    5    5    0  503 -0.42370266566E+02 -0.14377490629E+00 -0.26006835055E+02  0.49937016628E+02  0.47000000000E+01 0. -1.
<mgrwt>
<rscale>  0 0.27523474E+03</rscale>
<asrwt>0</asrwt>
<pdfrwt beam="1">  1        2 0.48106322E-01 0.27523474E+03</pdfrwt>
<pdfrwt beam="2">  1       -2 0.93178915E-02 0.27523474E+03</pdfrwt>
<totfact> 0.77063481E+03</totfact>
</mgrwt>
</event>
<event>
 9    1  0.7984035E-001  0.2749070E+03  0.7818608E-02  0.1098504E+00
         -2   -1    0    0    0  501 -0.00000000000E+00  0.00000000000E+00  0.21462639859E+04  0.21462639859E+04  0.00000000000E+00 0. -1.
          2   -1    0    0  501    0  0.00000000000E+00 -0.00000000000E+00 -0.88029526319E+01  0.88029526319E+01  0.00000000000E+00 0. -1.
         35    2    1    2    0    0  0.71054273576E-14  0.35527136788E-14  0.21374610333E+04  0.21550669385E+04  0.27490696756E+03 0.  0.
         25    2    3    3    0    0  0.24367449006E+02  0.11076195141E+02  0.14740161121E+04  0.14795602667E+04  0.12513444514E+03 0.  0.
         25    2    3    3    0    0 -0.24367449006E+02 -0.11076195141E+02  0.66344492115E+03  0.67550667183E+03  0.12423222453E+03 0.  0.
          5    1    4    4  502    0 -0.25752373057E+02  0.19603147705E+02  0.11432089830E+03  0.11890679504E+03  0.47000000000E+01 0. -1.
         -5    1    4    4    0  502  0.50119822063E+02 -0.85269525635E+01  0.13596952138E+04  0.13606534717E+04  0.47000000000E+01 0. -1.
          5    1    5    5  503    0 -0.41647354251E+02 -0.59440054734E+02  0.31646422487E+03  0.32471420949E+03  0.47000000000E+01 0.  1.
         -5    1    5    5    0  503  0.17279905245E+02  0.48363859593E+02  0.34698069629E+03  0.35079246234E+03  0.47000000000E+01 0.  1.
<mgrwt>
<rscale>  0 0.27490697E+03</rscale>
<asrwt>0</asrwt>
<pdfrwt beam="1">  1        2 0.13543021E-02 0.27490697E+03</pdfrwt>
<pdfrwt beam="2">  1       -2 0.33019404E+00 0.27490697E+03</pdfrwt>
<totfact> 0.22894925E+02</totfact>
</mgrwt>
</event>
<event>
 9    1  0.7984035E-001  0.2742763E+03  0.7818608E-02  0.1098857E+00
         -2   -1    0    0    0  501 -0.00000000000E+00  0.00000000000E+00  0.35394852016E+02  0.35394852016E+02  0.00000000000E+00 0. -1.
          2   -1    0    0  501    0  0.00000000000E+00 -0.00000000000E+00 -0.53134497161E+03  0.53134497161E+03  0.00000000000E+00 0. -1.
         35    2    1    2    0    0 -0.71054273576E-14  0.71054273576E-14 -0.49595011959E+03  0.56673982362E+03  0.27427633248E+03 0.  0.
         25    2    3    3    0    0 -0.30678788238E+02 -0.80041552246E-01 -0.14926643587E+03  0.19672914443E+03  0.12442143280E+03 0.  0.
         25    2    3    3    0    0  0.30678788238E+02  0.80041552246E-01 -0.34668368372E+03  0.37001067919E+03  0.12560705274E+03 0.  0.
          5    1    4    4  502    0 -0.28455332708E+01  0.56042071607E+02 -0.10730541795E+03  0.12118314062E+03  0.47000000000E+01 0.  1.
         -5    1    4    4    0  502 -0.27833254968E+02 -0.56122113159E+02 -0.41961017916E+02  0.75546003813E+02  0.47000000000E+01 0.  1.
          5    1    5    5  503    0  0.17659795151E+02 -0.42678064637E+02 -0.43851692568E+02  0.63861933160E+02  0.47000000000E+01 0.  1.
         -5    1    5    5    0  503  0.13018993088E+02  0.42758106189E+02 -0.30283199116E+03  0.30614874603E+03  0.47000000000E+01 0.  1.
<mgrwt>
<rscale>  0 0.27427633E+03</rscale>
<asrwt>0</asrwt>
<pdfrwt beam="1">  1        2 0.81745374E-01 0.27427633E+03</pdfrwt>
<pdfrwt beam="2">  1       -2 0.54453623E-02 0.27427633E+03</pdfrwt>
<totfact> 0.99253093E+03</totfact>
</mgrwt>
</event>
<event>
 9    1  0.7984035E-001  0.2753734E+03  0.7818608E-02  0.1098243E+00
         -2   -1    0    0    0  501 -0.00000000000E+00  0.00000000000E+00  0.32487612108E+03  0.32487612108E+03  0.00000000000E+00 0. -1.
          2   -1    0    0  501    0  0.00000000000E+00 -0.00000000000E+00 -0.58353421590E+02  0.58353421590E+02  0.00000000000E+00 0. -1.
         35    2    1    2    0    0  0.71054273576E-14 -0.35527136788E-14  0.26652269950E+03  0.38322954267E+03  0.27537344286E+03 0.  0.
         25    2    3    3    0    0  0.53486197756E+02 -0.19733410815E+02  0.15396081455E+03  0.20554845600E+03  0.12367721899E+03 0.  0.
         25    2    3    3    0    0 -0.53486197756E+02  0.19733410815E+02  0.11256188495E+03  0.17768108667E+03  0.12510079842E+03 0.  0.
          5    1    4    4  502    0  0.88905356861E+02 -0.29076287122E+02  0.13423747031E+03  0.16368073004E+03  0.47000000000E+01 0.  1.
         -5    1    4    4    0  502 -0.35419159105E+02  0.93428763070E+01  0.19723344237E+02  0.41867725963E+02  0.47000000000E+01 0.  1.
          5    1    5    5  503    0 -0.32512021009E+02 -0.90136796830E+01  0.13237082067E+03  0.13668358386E+03  0.47000000000E+01 0. -1.
         -5    1    5    5    0  503 -0.20974176746E+02  0.28747090498E+02 -0.19808935722E+02  0.40997502811E+02  0.47000000000E+01 0. -1.
<mgrwt>
<rscale>  0 0.27537344E+03</rscale>
<asrwt>0</asrwt>
<pdfrwt beam="1">  1        2 0.89774496E-02 0.27537344E+03</pdfrwt>
<pdfrwt beam="2">  1       -2 0.49980941E-01 0.27537344E+03</pdfrwt>
<totfact> 0.28121965E+03</totfact>
</mgrwt>
</event>
<event>
 9    1  0.7984035E-001  0.2735534E+03  0.7818608E-02  0.1099263E+00
          2   -1    0    0  501    0  0.00000000000E+00  0.00000000000E+00  0.20357037855E+04  0.20357037855E+04  0.00000000000E+00 0.  1.
         -2   -1    0    0    0  501 -0.00000000000E+00 -0.00000000000E+00 -0.91898773598E+01  0.91898773598E+01  0.00000000000E+00 0.  1.
         35    2    1    2    0    0  0.71054273576E-14 -0.71054273576E-14  0.20265139081E+04  0.20448936628E+04  0.27355341803E+03 0.  0.
         25    2    3    3    0    0 -0.37545522145E+02  0.38078988717E+02  0.11440025853E+04  0.11521076592E+04  0.12550086729E+03 0.  0.
         25    2    3    3    0    0  0.37545522145E+02 -0.38078988717E+02  0.88251132278E+03  0.89278600357E+03  0.12401990850E+03 0.  0.
          5    1    4    4  502    0 -0.12190986155E+02  0.79892873823E+02  0.53048671351E+03  0.53662811577E+03  0.47000000000E+01 0.  1.
         -5    1    4    4    0  502 -0.25354535990E+02 -0.41813885107E+02  0.61351587180E+03  0.61547954347E+03  0.47000000000E+01 0.  1.
          5    1    5    5  503    0 -0.34096137661E+02 -0.41667013249E+02  0.54681755776E+03  0.54948177228E+03  0.47000000000E+01 0.  1.
         -5    1    5    5    0  503  0.71641659806E+02  0.35880245319E+01  0.33569376502E+03  0.34330423128E+03  0.47000000000E+01 0.  1.
<mgrwt>
<rscale>  0 0.27355342E+03</rscale>
<asrwt>0</asrwt>
<pdfrwt beam="1">  1        2 0.31318484E+00 0.27355342E+03</pdfrwt>
<pdfrwt beam="2">  1       -2 0.14138289E-02 0.27355342E+03</pdfrwt>
<totfact> 0.91524356E+03</totfact>
</mgrwt>
</event>
<event>
 9    1  0.7984035E-001  0.2718983E+03  0.7818608E-02  0.1100198E+00
          2   -1    0    0  501    0  0.00000000000E+00  0.00000000000E+00  0.18419187056E+02  0.18419187056E+02  0.00000000000E+00 0. -1.
         -2   -1    0    0    0  501 -0.00000000000E+00 -0.00000000000E+00 -0.10034195933E+04  0.10034195933E+04  0.00000000000E+00 0. -1.
         35    2    1    2    0    0  0.35527136788E-14  0.00000000000E+00 -0.98500040620E+03  0.10218387803E+04  0.27189831322E+03 0.  0.
         25    2    3    3    0    0  0.29318217107E+02  0.43828874372E+02 -0.49310975562E+03  0.51147802159E+03  0.12518788841E+03 0.  0.
         25    2    3    3    0    0 -0.29318217107E+02 -0.43828874372E+02 -0.49189065058E+03  0.51036075871E+03  0.12542393642E+03 0.  0.
          5    1    4    4  502    0  0.64440984334E+02  0.39294436268E-01 -0.14371491799E+03  0.15757128437E+03  0.47000000000E+01 0. -1.
         -5    1    4    4    0  502 -0.35122767227E+02  0.43789579936E+02 -0.34939483763E+03  0.35390673722E+03  0.47000000000E+01 0. -1.
          5    1    5    5  503    0 -0.14017217046E+01 -0.22125160932E+02 -0.46534295835E+03  0.46589445849E+03  0.47000000000E+01 0. -1.
         -5    1    5    5    0  503 -0.27916495402E+02 -0.21703713440E+02 -0.26547692228E+02  0.44466300220E+02  0.47000000000E+01 0. -1.
<mgrwt>
<rscale>  0 0.27189831E+03</rscale>
<asrwt>0</asrwt>
<pdfrwt beam="1">  1        2 0.28337207E-02 0.27189831E+03</pdfrwt>
<pdfrwt beam="2">  1       -2 0.15437226E+00 0.27189831E+03</pdfrwt>
<totfact> 0.99662751E+02</totfact>
</mgrwt>
</event>
<event>
 9    1  0.7984035E-001  0.2748582E+03  0.7818608E-02  0.1098531E+00
         -2   -1    0    0    0  501 -0.00000000000E+00  0.00000000000E+00  0.26274461968E+03  0.26274461968E+03  0.00000000000E+00 0.  1.
          2   -1    0    0  501    0  0.00000000000E+00 -0.00000000000E+00 -0.71882564136E+02  0.71882564136E+02  0.00000000000E+00 0.  1.
         35    2    1    2    0    0  0.00000000000E+00  0.00000000000E+00  0.19086205555E+03  0.33462718382E+03  0.27485819599E+03 0.  0.
         25    2    3    3    0    0 -0.19791461985E+02  0.46000298796E+02  0.13040331954E+03  0.18817151531E+03  0.12607840406E+03 0.  0.
         25    2    3    3    0    0  0.19791461985E+02 -0.46000298796E+02  0.60458736003E+02  0.14645566850E+03  0.12363767476E+03 0.  0.
          5    1    4    4  502    0  0.49046779419E+02  0.33415917042E+01  0.25552856349E+02  0.55603878229E+02  0.47000000000E+01 0.  1.
         -5    1    4    4    0  502 -0.68838241404E+02  0.42658707092E+02  0.10485046319E+03  0.13256763709E+03  0.47000000000E+01 0.  1.
          5    1    5    5  503    0 -0.14478601732E+02  0.34227950310E+02 -0.42976634945E+01  0.37705999550E+02  0.47000000000E+01 0.  1.
         -5    1    5    5    0  503  0.34270063717E+02 -0.80228249106E+02  0.64756399497E+02  0.10874966895E+03  0.47000000000E+01 0.  1.
<mgrwt>
<rscale>  0 0.27485820E+03</rscale>
<asrwt>0</asrwt>
<pdfrwt beam="1">  1        2 0.11058856E-01 0.27485820E+03</pdfrwt>
<pdfrwt beam="2">  1       -2 0.40422249E-01 0.27485820E+03</pdfrwt>
<totfact> 0.32852424E+03</totfact>
</mgrwt>
</event>
<event>
 9    1  0.7984035E-001  0.2717712E+03  0.7818608E-02  0.1100270E+00
          1   -1    0    0  501    0  0.00000000000E+00  0.00000000000E+00  0.40835586703E+03  0.40835586703E+03  0.00000000000E+00 0. -1.
         -1   -1    0    0    0  501 -0.00000000000E+00 -0.00000000000E+00 -0.45217659303E+02  0.45217659303E+02  0.00000000000E+00 0. -1.
         35    2    1    2    0    0  0.00000000000E+00 -0.71054273576E-14  0.36313820772E+03  0.45357352633E+03  0.27177120134E+03 0.  0.
         25    2    3    3    0    0 -0.46692211523E+02 -0.13984740570E+02  0.22286134702E+03  0.25961486733E+03  0.12392321719E+03 0.  0.
         25    2    3    3    0    0  0.46692211523E+02  0.13984740570E+02  0.14027686071E+03  0.19395865900E+03  0.12476629419E+03 0.  0.
          5    1    4    4  502    0  0.50603534697E+01  0.37802738410E+02  0.18829058694E+02  0.42793430101E+02  0.47000000000E+01 0.  1.
         -5    1    4    4    0  502 -0.51752564993E+02 -0.51787478981E+02  0.20403228832E+03  0.21682143723E+03  0.47000000000E+01 0.  1.
          5    1    5    5  503    0 -0.10011981658E+02  0.41315997714E+02  0.30133600202E+01  0.42876821039E+02  0.47000000000E+01 0.  1.
         -5    1    5    5    0  503  0.56704193181E+02 -0.27331257143E+02  0.13726350069E+03  0.15108183796E+03  0.47000000000E+01 0.  1.
<mgrwt>
<rscale>  0 0.27177120E+03</rscale>
<asrwt>0</asrwt>
<pdfrwt beam="1">  1        1 0.62823977E-01 0.27177120E+03</pdfrwt>
<pdfrwt beam="2">  1       -1 0.69565633E-02 0.27177120E+03</pdfrwt>
<totfact> 0.62522128E+03</totfact>
</mgrwt>
</event>
<event>
 9    1  0.7984035E-001  0.2664466E+03  0.7818608E-02  0.1103331E+00
          1   -1    0    0  501    0  0.00000000000E+00  0.00000000000E+00  0.48084718910E+03  0.48084718910E+03  0.00000000000E+00 0.  1.
         -1   -1    0    0    0  501 -0.00000000000E+00 -0.00000000000E+00 -0.36910778610E+02  0.36910778610E+02  0.00000000000E+00 0.  1.
         35    2    1    2    0    0 -0.35527136788E-14 -0.17763568394E-14  0.44393641049E+03  0.51775796771E+03  0.26644657357E+03 0.  0.
         25    2    3    3    0    0  0.22240952152E+02  0.18736499445E+01  0.29969178483E+03  0.32606869578E+03  0.12652058314E+03 0.  0.
         25    2    3    3    0    0 -0.22240952152E+02 -0.18736499445E+01  0.14424462567E+03  0.19168927194E+03  0.12425817649E+03 0.  0.
          5    1    4    4  502    0  0.20391296155E+02 -0.41668016921E+02  0.26788075897E+03  0.27190847655E+03  0.47000000000E+01 0.  1.
         -5    1    4    4    0  502  0.18496559974E+01  0.43541666865E+02  0.31811025854E+02  0.54160219226E+02  0.47000000000E+01 0.  1.
          5    1    5    5  503    0 -0.72311208219E+02  0.43427450739E+01  0.10473642394E+03  0.12743460585E+03  0.47000000000E+01 0.  1.
         -5    1    5    5    0  503  0.50070256067E+02 -0.62163950184E+01  0.39508201725E+02  0.64254666081E+02  0.47000000000E+01 0.  1.
<mgrwt>
<rscale>  0 0.26644657E+03</rscale>
<asrwt>0</asrwt>
<pdfrwt beam="1">  1        1 0.73976486E-01 0.26644657E+03</pdfrwt>
<pdfrwt beam="2">  1       -1 0.56785817E-02 0.26644657E+03</pdfrwt>
<totfact> 0.68648999E+03</totfact>
</mgrwt>
</event>
<event>
 9    1  0.7984035E-001  0.2747693E+03  0.7818608E-02  0.1098581E+00
         -4   -1    0    0    0  501 -0.00000000000E+00  0.00000000000E+00  0.10489914187E+03  0.10489914187E+03  0.00000000000E+00 0.  1.
          4   -1    0    0  501    0  0.00000000000E+00 -0.00000000000E+00 -0.17993043470E+03  0.17993043470E+03  0.00000000000E+00 0.  1.
         35    2    1    2    0    0  0.14210854715E-13  0.00000000000E+00 -0.75031292822E+02  0.28482957657E+03  0.27476934470E+03 0.  0.
         25    2    3    3    0    0 -0.44419119670E+02  0.81357558173E+01 -0.73433413226E+02  0.15214638486E+03  0.12536669228E+03 0.  0.
         25    2    3    3    0    0  0.44419119670E+02 -0.81357558173E+01 -0.15978795953E+01  0.13268319171E+03  0.12475186342E+03 0.  0.
          5    1    4    4  502    0 -0.67718136709E+02  0.41825753601E+02 -0.76895674616E+02  0.11077081962E+03  0.47000000000E+01 0.  1.
         -5    1    4    4    0  502  0.23299017039E+02 -0.33689997784E+02  0.34622613893E+01  0.41375565248E+02  0.47000000000E+01 0.  1.
          5    1    5    5  503    0 -0.18343993265E+02  0.40770166489E+02 -0.22517193711E+02  0.50277455953E+02  0.47000000000E+01 0.  1.
         -5    1    5    5    0  503  0.62763112936E+02 -0.48905922307E+02  0.20919314115E+02  0.82405735754E+02  0.47000000000E+01 0.  1.
<mgrwt>
<rscale>  0 0.27476934E+03</rscale>
<asrwt>0</asrwt>
<pdfrwt beam="1">  1        4 0.27681605E-01 0.27476934E+03</pdfrwt>
<pdfrwt beam="2">  1       -4 0.16138330E-01 0.27476934E+03</pdfrwt>
<totfact> 0.76915916E+02</totfact>
</mgrwt>
</event>
<event>
 9    1  0.7984035E-001  0.2765097E+03  0.7818608E-02  0.1097611E+00
         -2   -1    0    0    0  501 -0.00000000000E+00  0.00000000000E+00  0.59895051594E+02  0.59895051594E+02  0.00000000000E+00 0. -1.
          2   -1    0    0  501    0  0.00000000000E+00 -0.00000000000E+00 -0.31913154562E+03  0.31913154562E+03  0.00000000000E+00 0. -1.
         35    2    1    2    0    0  0.00000000000E+00  0.00000000000E+00 -0.25923649403E+03  0.37902659721E+03  0.27650967715E+03 0.  0.
         25    2    3    3    0    0  0.99307660241E+01 -0.56834462769E+02 -0.12412265135E+03  0.18546177757E+03  0.12514336614E+03 0.  0.
         25    2    3    3    0    0 -0.99307660241E+01  0.56834462769E+02 -0.13511384267E+03  0.19356481964E+03  0.12602703142E+03 0.  0.
          5    1    4    4  502    0  0.27796944533E+02  0.25317956451E+02 -0.30868282084E+01  0.38016937707E+02  0.47000000000E+01 0. -1.
         -5    1    4    4    0  502 -0.17866178509E+02 -0.82152419220E+02 -0.12103582314E+03  0.14744483986E+03  0.47000000000E+01 0. -1.
          5    1    5    5  503    0 -0.36207283679E+02 -0.11335740042E+01 -0.12338309607E+03  0.12867684631E+03  0.47000000000E+01 0. -1.
         -5    1    5    5    0  503  0.26276517655E+02  0.57968036773E+02 -0.11730746609E+02  0.64887973334E+02  0.47000000000E+01 0. -1.
<mgrwt>
<rscale>  0 0.27650968E+03</rscale>
<asrwt>0</asrwt>
<pdfrwt beam="1">  1        2 0.49097161E-01 0.27650968E+03</pdfrwt>
<pdfrwt beam="2">  1       -2 0.92146232E-02 0.27650968E+03</pdfrwt>
<totfact> 0.76743996E+03</totfact>
</mgrwt>
</event>
<event>
 9    1  0.7984035E-001  0.2779307E+03  0.7818608E-02  0.1096825E+00
          2   -1    0    0  501    0  0.00000000000E+00  0.00000000000E+00  0.10304760153E+04  0.10304760153E+04  0.00000000000E+00 0.  1.
         -2   -1    0    0    0  501 -0.00000000000E+00 -0.00000000000E+00 -0.18740238016E+02  0.18740238016E+02  0.00000000000E+00 0.  1.
         35    2    1    2    0    0  0.14210854715E-13  0.00000000000E+00  0.10117357773E+04  0.10492162534E+04  0.27793068055E+03 0.  0.
         25    2    3    3    0    0 -0.39816943945E+02 -0.15992883847E+02  0.71203120840E+03  0.72425077606E+03  0.12533787748E+03 0.  0.
         25    2    3    3    0    0  0.39816943945E+02  0.15992883847E+02  0.29970456893E+03  0.32496547730E+03  0.11806172725E+03 0.  0.
          5    1    4    4  502    0  0.27044778530E+02 -0.49417250812E+02  0.35213696750E+03  0.35664550832E+03  0.47000000000E+01 0.  1.
         -5    1    4    4    0  502 -0.66861722475E+02  0.33424366964E+02  0.35989424089E+03  0.36760526773E+03  0.47000000000E+01 0.  1.
          5    1    5    5  503    0  0.69342688520E+02  0.11347079390E+02  0.28032410691E+03  0.28903435709E+03  0.47000000000E+01 0.  1.
         -5    1    5    5    0  503 -0.29525744575E+02  0.46458044576E+01  0.19380462020E+02  0.35931120214E+02  0.47000000000E+01 0.  1.
<mgrwt>
<rscale>  0 0.27793068E+03</rscale>
<asrwt>0</asrwt>
<pdfrwt beam="1">  1        2 0.15853473E+00 0.27793068E+03</pdfrwt>
<pdfrwt beam="2">  1       -2 0.28831143E-02 0.27793068E+03</pdfrwt>
<totfact> 0.11282999E+04</totfact>
</mgrwt>
</event>
<event>
 9    1  0.7984035E-001  0.2836506E+03  0.7818608E-02  0.1093712E+00
         -2   -1    0    0    0  501 -0.00000000000E+00  0.00000000000E+00  0.18779029895E+02  0.18779029895E+02  0.00000000000E+00 0. -1.
          2   -1    0    0  501    0  0.00000000000E+00 -0.00000000000E+00 -0.10711105575E+04  0.10711105575E+04  0.00000000000E+00 0. -1.
         35    2    1    2    0    0  0.00000000000E+00  0.14210854715E-13 -0.10523315276E+04  0.10898895874E+04  0.28365061030E+03 0.  0.
         25    2    3    3    0    0  0.43557502451E+02  0.54524792946E+02 -0.50471519057E+03  0.52349144519E+03  0.12014849365E+03 0.  0.
         25    2    3    3    0    0 -0.43557502451E+02 -0.54524792946E+02 -0.54761633702E+03  0.56639814219E+03  0.12670040980E+03 0.  0.
          5    1    4    4  502    0  0.80000317654E+02  0.10873139104E+02 -0.26418370098E+03  0.27628498664E+03  0.47000000000E+01 0. -1.
         -5    1    4    4    0  502 -0.36442815203E+02  0.43651653842E+02 -0.24053148959E+03  0.24720645855E+03  0.47000000000E+01 0. -1.
          5    1    5    5  503    0 -0.46354595395E+02 -0.86470293774E+02 -0.27802923346E+03  0.29486981005E+03  0.47000000000E+01 0.  1.
         -5    1    5    5    0  503  0.27970929436E+01  0.31945500828E+02 -0.26958710356E+03  0.27152833215E+03  0.47000000000E+01 0.  1.
<mgrwt>
<rscale>  0 0.28365061E+03</rscale>
<asrwt>0</asrwt>
<pdfrwt beam="1">  1        2 0.16478624E+00 0.28365061E+03</pdfrwt>
<pdfrwt beam="2">  1       -2 0.28890815E-02 0.28365061E+03</pdfrwt>
<totfact> 0.10641006E+04</totfact>
</mgrwt>
</event>
<event>
 9    1  0.7984035E-001  0.2729071E+03  0.7818608E-02  0.1099627E+00
          2   -1    0    0  501    0  0.00000000000E+00  0.00000000000E+00  0.13910659170E+04  0.13910659170E+04  0.00000000000E+00 0.  1.
         -2   -1    0    0    0  501 -0.00000000000E+00 -0.00000000000E+00 -0.13385108946E+02  0.13385108946E+02  0.00000000000E+00 0.  1.
         35    2    1    2    0    0  0.00000000000E+00  0.00000000000E+00  0.13776808081E+04  0.14044510260E+04  0.27290708199E+03 0.  0.
         25    2    3    3    0    0  0.11094680254E+02  0.52308007989E+02  0.70030686224E+03  0.71357332998E+03  0.12608717752E+03 0.  0.
         25    2    3    3    0    0 -0.11094680254E+02 -0.52308007989E+02  0.67737394584E+03  0.69087769599E+03  0.12496923093E+03 0.  0.
          5    1    4    4  502    0  0.11759126069E+02  0.92653327762E+02  0.41617090868E+03  0.42654804117E+03  0.47000000000E+01 0.  1.
         -5    1    4    4    0  502 -0.66444581487E+00 -0.40345319773E+02  0.28413595356E+03  0.28702528882E+03  0.47000000000E+01 0.  1.
          5    1    5    5  503    0  0.52878083603E+02 -0.14353118042E+02  0.39597387671E+03  0.39977431728E+03  0.47000000000E+01 0. -1.
         -5    1    5    5    0  503 -0.63972763856E+02 -0.37954889948E+02  0.28140006914E+03  0.29110337871E+03  0.47000000000E+01 0. -1.
<mgrwt>
<rscale>  0 0.27290708E+03</rscale>
<asrwt>0</asrwt>
<pdfrwt beam="1">  1        2 0.21401003E+00 0.27290708E+03</pdfrwt>
<pdfrwt beam="2">  1       -2 0.20592486E-02 0.27290708E+03</pdfrwt>
<totfact> 0.11566336E+04</totfact>
</mgrwt>
</event>
<event>
 9    1  0.7984035E-001  0.2803067E+03  0.7818608E-02  0.1095522E+00
          2   -1    0    0  501    0  0.00000000000E+00  0.00000000000E+00  0.23515327987E+03  0.23515327987E+03  0.00000000000E+00 0. -1.
         -2   -1    0    0    0  501 -0.00000000000E+00 -0.00000000000E+00 -0.83532605470E+02  0.83532605470E+02  0.00000000000E+00 0. -1.
         35    2    1    2    0    0  0.71054273576E-14 -0.71054273576E-14  0.15162067440E+03  0.31868588534E+03  0.28030673308E+03 0.  0.
         25    2    3    3    0    0 -0.42869774173E+02 -0.28547550256E+02  0.11433290938E+03  0.17741077822E+03  0.12549816691E+03 0.  0.
         25    2    3    3    0    0  0.42869774173E+02  0.28547550256E+02  0.37287765013E+02  0.14127510711E+03  0.12615664195E+03 0.  0.
          5    1    4    4  502    0  0.10522085369E+02  0.94798593109E+01 -0.21699813645E+02  0.26335412002E+02  0.47000000000E+01 0. -1.
         -5    1    4    4    0  502 -0.53391859542E+02 -0.38027409567E+02  0.13603272303E+03  0.15107536622E+03  0.47000000000E+01 0. -1.
          5    1    5    5  503    0  0.14520696997E+02  0.77695269890E+02  0.18379991446E+02  0.81285421141E+02  0.47000000000E+01 0. -1.
         -5    1    5    5    0  503  0.28349077176E+02 -0.49147719634E+02  0.18907773568E+02  0.59989685974E+02  0.47000000000E+01 0. -1.
<mgrwt>
<rscale>  0 0.28030673E+03</rscale>
<asrwt>0</asrwt>
<pdfrwt beam="1">  1        2 0.36177427E-01 0.28030673E+03</pdfrwt>
<pdfrwt beam="2">  1       -2 0.12851170E-01 0.28030673E+03</pdfrwt>
<totfact> 0.62640149E+03</totfact>
</mgrwt>
</event>
<event>
 9    1  0.7984035E-001  0.2722333E+03  0.7818608E-02  0.1100008E+00
         -2   -1    0    0    0  501 -0.00000000000E+00  0.00000000000E+00  0.38220729003E+02  0.38220729003E+02  0.00000000000E+00 0. -1.
          2   -1    0    0  501    0  0.00000000000E+00 -0.00000000000E+00 -0.48475620995E+03  0.48475620995E+03  0.00000000000E+00 0. -1.
         35    2    1    2    0    0  0.71054273576E-14  0.00000000000E+00 -0.44653548095E+03  0.52297693895E+03  0.27223325097E+03 0.  0.
         25    2    3    3    0    0 -0.43953426526E+02 -0.23845644055E+02 -0.22103723556E+03  0.25916816671E+03  0.12573846146E+03 0.  0.
         25    2    3    3    0    0  0.43953426526E+02  0.23845644055E+02 -0.22549824539E+03  0.26380877225E+03  0.12745623247E+03 0.  0.
          5    1    4    4  502    0 -0.63759368504E+02 -0.38898215474E+02 -0.22154816044E+03  0.23384611529E+03  0.47000000000E+01 0.  1.
         -5    1    4    4    0  502  0.19805941978E+02  0.15052571419E+02  0.51092488709E+00  0.25322051422E+02  0.47000000000E+01 0.  1.
          5    1    5    5  503    0 -0.29103185619E+02  0.79584924724E+01 -0.50120900028E+01  0.30944208857E+02  0.47000000000E+01 0.  1.
         -5    1    5    5    0  503  0.73056612144E+02  0.15887151582E+02 -0.22048615539E+03  0.23286456339E+03  0.47000000000E+01 0.  1.
<mgrwt>
<rscale>  0 0.27223325E+03</rscale>
<asrwt>0</asrwt>
<pdfrwt beam="1">  1        2 0.74577880E-01 0.27223325E+03</pdfrwt>
<pdfrwt beam="2">  1       -2 0.58801120E-02 0.27223325E+03</pdfrwt>
<totfact> 0.97793912E+03</totfact>
</mgrwt>
</event>
<event>
 9    1  0.7984035E-001  0.2654559E+03  0.7818608E-02  0.1103909E+00
         -2   -1    0    0    0  501 -0.00000000000E+00  0.00000000000E+00  0.32162801825E+03  0.32162801825E+03  0.00000000000E+00 0. -1.
          2   -1    0    0  501    0  0.00000000000E+00 -0.00000000000E+00 -0.54773545445E+02  0.54773545445E+02  0.00000000000E+00 0. -1.
         35    2    1    2    0    0  0.71054273576E-14 -0.35527136788E-14  0.26685447281E+03  0.37640156370E+03  0.26545588616E+03 0.  0.
         25    2    3    3    0    0 -0.44048063781E+02  0.11749485825E+02  0.17816173129E+03  0.21532237513E+03  0.11199928749E+03 0.  0.
         25    2    3    3    0    0  0.44048063781E+02 -0.11749485825E+02  0.88692741519E+02  0.16107918856E+03  0.12649830137E+03 0.  0.
          5    1    4    4  502    0 -0.62703237971E+02  0.41146175032E+02  0.15764312834E+03  0.17463719445E+03  0.47000000000E+01 0.  1.
         -5    1    4    4    0  502  0.18655174191E+02 -0.29396689207E+02  0.20518602943E+02  0.40685180682E+02  0.47000000000E+01 0.  1.
          5    1    5    5  503    0  0.56869395691E+02 -0.24912959848E+02  0.11373596228E+03  0.12966396126E+03  0.47000000000E+01 0. -1.
         -5    1    5    5    0  503 -0.12821331910E+02  0.13163474023E+02 -0.25043220760E+02  0.31415227300E+02  0.47000000000E+01 0. -1.
<mgrwt>
<rscale>  0 0.26545589E+03</rscale>
<asrwt>0</asrwt>
<pdfrwt beam="1">  1        2 0.84266995E-02 0.26545589E+03</pdfrwt>
<pdfrwt beam="2">  1       -2 0.49481233E-01 0.26545589E+03</pdfrwt>
<totfact> 0.31038209E+03</totfact>
</mgrwt>
</event>
<event>
 9    1  0.7984035E-001  0.2753333E+03  0.7818608E-02  0.1098265E+00
         -2   -1    0    0    0  501 -0.00000000000E+00  0.00000000000E+00  0.18481944482E+02  0.18481944482E+02  0.00000000000E+00 0. -1.
          2   -1    0    0  501    0  0.00000000000E+00 -0.00000000000E+00 -0.10254386865E+04  0.10254386865E+04  0.00000000000E+00 0. -1.
         35    2    1    2    0    0 -0.35527136788E-14  0.71054273576E-14 -0.10069567420E+04  0.10439206310E+04  0.27533325897E+03 0.  0.
         25    2    3    3    0    0  0.11007639847E+02 -0.39855986152E+02 -0.65258040407E+03  0.66568887324E+03  0.12478310947E+03 0.  0.
         25    2    3    3    0    0 -0.11007639847E+02  0.39855986152E+02 -0.35437633797E+03  0.37823175776E+03  0.12556673884E+03 0.  0.
          5    1    4    4  502    0 -0.20330533231E+02 -0.78432458510E+02 -0.37932056250E+03  0.38790612300E+03  0.47000000000E+01 0.  1.
         -5    1    4    4    0  502  0.31338173078E+02  0.38576472358E+02 -0.27325984158E+03  0.27778275024E+03  0.47000000000E+01 0.  1.
          5    1    5    5  503    0 -0.57407016796E+02  0.16202839687E+02 -0.85744759334E+02  0.10455788514E+03  0.47000000000E+01 0.  1.
         -5    1    5    5    0  503  0.46399376949E+02  0.23653146465E+02 -0.26863157863E+03  0.27367387262E+03  0.47000000000E+01 0.  1.
<mgrwt>
<rscale>  0 0.27533326E+03</rscale>
<asrwt>0</asrwt>
<pdfrwt beam="1">  1        2 0.15775985E+00 0.27533326E+03</pdfrwt>
<pdfrwt beam="2">  1       -2 0.28433751E-02 0.27533326E+03</pdfrwt>
<totfact> 0.11595898E+04</totfact>
</mgrwt>
</event>
<event>
 9    1  0.7984035E-001  0.2726191E+03  0.7818608E-02  0.1099790E+00
         -2   -1    0    0    0  501 -0.00000000000E+00  0.00000000000E+00  0.82717588341E+01  0.82717588341E+01  0.00000000000E+00 0. -1.
          2   -1    0    0  501    0  0.00000000000E+00 -0.00000000000E+00 -0.22462329504E+04  0.22462329504E+04  0.00000000000E+00 0. -1.
         35    2    1    2    0    0 -0.71054273576E-14 -0.10658141036E-13 -0.22379611916E+04  0.22545047092E+04  0.27261912810E+03 0.  0.
         25    2    3    3    0    0 -0.52096948353E+02 -0.55823404891E+01 -0.11998632033E+04  0.12075311226E+04  0.12535729244E+03 0.  0.
         25    2    3    3    0    0  0.52096948353E+02  0.55823404891E+01 -0.10380979883E+04  0.10469735867E+04  0.12554283490E+03 0.  0.
          5    1    4    4  502    0 -0.30185324413E+02 -0.64190261783E+02 -0.74003427006E+03  0.74344088829E+03  0.47000000000E+01 0. -1.
         -5    1    4    4    0  502 -0.21911623940E+02  0.58607921294E+02 -0.45982893323E+03  0.46409023426E+03  0.47000000000E+01 0. -1.
          5    1    5    5  503    0 -0.29206974529E+02 -0.20041453927E+02 -0.57241181214E+03  0.57352600631E+03  0.47000000000E+01 0.  1.
         -5    1    5    5    0  503  0.81303922882E+02  0.25623794416E+02 -0.46568617615E+03  0.47344758039E+03  0.47000000000E+01 0.  1.
<mgrwt>
<rscale>  0 0.27261913E+03</rscale>
<asrwt>0</asrwt>
<pdfrwt beam="1">  1        2 0.34557459E+00 0.27261913E+03</pdfrwt>
<pdfrwt beam="2">  1       -2 0.12725772E-02 0.27261913E+03</pdfrwt>
<totfact> 0.82545993E+03</totfact>
</mgrwt>
</event>
<event>
 9    1  0.7984035E-001  0.2735316E+03  0.7818608E-02  0.1099275E+00
          1   -1    0    0  501    0  0.00000000000E+00  0.00000000000E+00  0.24660570724E+04  0.24660570724E+04  0.00000000000E+00 0.  1.
         -1   -1    0    0    0  501 -0.00000000000E+00 -0.00000000000E+00 -0.75849369095E+01  0.75849369095E+01  0.00000000000E+00 0.  1.
         35    2    1    2    0    0 -0.71054273576E-14  0.00000000000E+00  0.24584721355E+04  0.24736420093E+04  0.27353162383E+03 0.  0.
         25    2    3    3    0    0  0.47852832213E+02 -0.22517808939E+01  0.94518263000E+03  0.95452789859E+03  0.12433157715E+03 0.  0.
         25    2    3    3    0    0 -0.47852832213E+02  0.22517808939E+01  0.15132895055E+04  0.15191141107E+04  0.12396608355E+03 0.  0.
          5    1    4    4  502    0 -0.15505510661E+02  0.32224481278E+02  0.63543455354E+03  0.63645738261E+03  0.47000000000E+01 0. -1.
         -5    1    4    4    0  502  0.63358342874E+02 -0.34476262172E+02  0.30974807646E+03  0.31807051598E+03  0.47000000000E+01 0. -1.
          5    1    5    5  503    0 -0.37092874519E+02 -0.51148534171E+02  0.11488791269E+04  0.11506247833E+04  0.47000000000E+01 0. -1.
         -5    1    5    5    0  503 -0.10759957694E+02  0.53400315065E+02  0.36441037863E+03  0.36848932738E+03  0.47000000000E+01 0. -1.
<mgrwt>
<rscale>  0 0.27353162E+03</rscale>
<asrwt>0</asrwt>
<pdfrwt beam="1">  1        1 0.37939276E+00 0.27353162E+03</pdfrwt>
<pdfrwt beam="2">  1       -1 0.11669153E-02 0.27353162E+03</pdfrwt>
<totfact> 0.25119433E+03</totfact>
</mgrwt>
</event>
<event>
 9    1  0.7984035E-001  0.2748067E+03  0.7818608E-02  0.1098560E+00
         -2   -1    0    0    0  501 -0.00000000000E+00  0.00000000000E+00  0.23479651114E+02  0.23479651114E+02  0.00000000000E+00 0.  1.
          2   -1    0    0  501    0  0.00000000000E+00 -0.00000000000E+00 -0.80408679412E+03  0.80408679412E+03  0.00000000000E+00 0.  1.
         35    2    1    2    0    0  0.00000000000E+00  0.00000000000E+00 -0.78060714301E+03  0.82756644524E+03  0.27480667671E+03 0.  0.
         25    2    3    3    0    0 -0.39626819522E+02  0.14439788653E+02 -0.50752560305E+03  0.52461802282E+03  0.12594856014E+03 0.  0.
         25    2    3    3    0    0  0.39626819522E+02 -0.14439788653E+02 -0.27308153997E+03  0.30294842242E+03  0.12419914191E+03 0.  0.
          5    1    4    4  502    0 -0.17094376428E+02  0.68388020839E+02 -0.33582111589E+03  0.34317204282E+03  0.47000000000E+01 0. -1.
         -5    1    4    4    0  502 -0.22532443093E+02 -0.53948232186E+02 -0.17170448716E+03  0.18144598000E+03  0.47000000000E+01 0. -1.
          5    1    5    5  503    0 -0.13901556527E+02 -0.48486623804E+02 -0.50794077682E+02  0.71737955709E+02  0.47000000000E+01 0.  1.
         -5    1    5    5    0  503  0.53528376048E+02  0.34046835151E+02 -0.22228746228E+03  0.23121046671E+03  0.47000000000E+01 0.  1.
<mgrwt>
<rscale>  0 0.27480668E+03</rscale>
<asrwt>0</asrwt>
<pdfrwt beam="1">  1        2 0.12370567E+00 0.27480668E+03</pdfrwt>
<pdfrwt beam="2">  1       -2 0.36122536E-02 0.27480668E+03</pdfrwt>
<totfact> 0.11258424E+04</totfact>
</mgrwt>
</event>
<event>
 9    1  0.7984035E-001  0.2791703E+03  0.7818608E-02  0.1096143E+00
          1   -1    0    0  501    0  0.00000000000E+00  0.00000000000E+00  0.22337943527E+03  0.22337943527E+03  0.00000000000E+00 0. -1.
         -1   -1    0    0    0  501 -0.00000000000E+00 -0.00000000000E+00 -0.87223864093E+02  0.87223864093E+02  0.00000000000E+00 0. -1.
         35    2    1    2    0    0 -0.14210854715E-13  0.00000000000E+00  0.13615557118E+03  0.31060329936E+03  0.27917032438E+03 0.  0.
         25    2    3    3    0    0 -0.46944337553E+02 -0.29187458602E+02  0.38208603105E+02  0.14228940339E+03  0.12542208099E+03 0.  0.
         25    2    3    3    0    0  0.46944337553E+02  0.29187458602E+02  0.97946968073E+02  0.16831389597E+03  0.12522092658E+03 0.  0.
          5    1    4    4  502    0 -0.64440292406E+02  0.30678218185E+02  0.35080361483E+02  0.79664459568E+02  0.47000000000E+01 0. -1.
         -5    1    4    4    0  502  0.17495954853E+02 -0.59865676787E+02  0.31282416212E+01  0.62624943825E+02  0.47000000000E+01 0. -1.
          5    1    5    5  503    0 -0.13588350060E+02 -0.40109052591E+02  0.45347355679E+02  0.62224207703E+02  0.47000000000E+01 0.  1.
         -5    1    5    5    0  503  0.60532687613E+02  0.69296511193E+02  0.52599612394E+02  0.10608968827E+03  0.47000000000E+01 0.  1.
<mgrwt>
<rscale>  0 0.27917032E+03</rscale>
<asrwt>0</asrwt>
<pdfrwt beam="1">  1        1 0.34366067E-01 0.27917032E+03</pdfrwt>
<pdfrwt beam="2">  1       -1 0.13419056E-01 0.27917032E+03</pdfrwt>
<totfact> 0.48617391E+03</totfact>
</mgrwt>
</event>
<event>
 9    1  0.7984035E-001  0.2754496E+03  0.7818608E-02  0.1098201E+00
          1   -1    0    0  501    0  0.00000000000E+00  0.00000000000E+00  0.28387140833E+02  0.28387140833E+02  0.00000000000E+00 0.  1.
         -1   -1    0    0    0  501 -0.00000000000E+00 -0.00000000000E+00 -0.66819426980E+03  0.66819426980E+03  0.00000000000E+00 0.  1.
         35    2    1    2    0    0  0.14210854715E-13  0.00000000000E+00 -0.63980712896E+03  0.69658141063E+03  0.27544963126E+03 0.  0.
         25    2    3    3    0    0 -0.38738439569E+02  0.32795955454E+02 -0.27228019521E+03  0.30426940831E+03  0.12596478371E+03 0.  0.
         25    2    3    3    0    0  0.38738439569E+02 -0.32795955454E+02 -0.36752693376E+03  0.39231200232E+03  0.12750066171E+03 0.  0.
          5    1    4    4  502    0 -0.76582883837E+01 -0.13638627881E+02  0.81745200776E+01  0.18264017355E+02  0.47000000000E+01 0.  1.
         -5    1    4    4    0  502 -0.31080151185E+02  0.46434583335E+02 -0.28045471529E+03  0.28600539095E+03  0.47000000000E+01 0.  1.
          5    1    5    5  503    0  0.80674267407E+02 -0.23824159442E+02 -0.30445495119E+03  0.31589687447E+03  0.47000000000E+01 0.  1.
         -5    1    5    5    0  503 -0.41935827839E+02 -0.89717960116E+01 -0.63071982561E+02  0.76415127850E+02  0.47000000000E+01 0.  1.
<mgrwt>
<rscale>  0 0.27544963E+03</rscale>
<asrwt>0</asrwt>
<pdfrwt beam="1">  1        1 0.43672526E-02 0.27544963E+03</pdfrwt>
<pdfrwt beam="2">  1       -1 0.10279911E+00 0.27544963E+03</pdfrwt>
<totfact> 0.19027325E+03</totfact>
</mgrwt>
</event>
<event>
 9    1  0.7984035E-001  0.2754810E+03  0.7818608E-02  0.1098183E+00
         -1   -1    0    0    0  501 -0.00000000000E+00  0.00000000000E+00  0.11629526977E+03  0.11629526977E+03  0.00000000000E+00 0.  1.
          1   -1    0    0  501    0  0.00000000000E+00 -0.00000000000E+00 -0.16314031854E+03  0.16314031854E+03  0.00000000000E+00 0.  1.
         35    2    1    2    0    0  0.88817841970E-15  0.00000000000E+00 -0.46845048776E+02  0.27943558831E+03  0.27548101463E+03 0.  0.
         25    2    3    3    0    0  0.67858391999E+01  0.52474044031E+02 -0.47977453168E+02  0.14372088102E+03  0.12471681009E+03 0.  0.
         25    2    3    3    0    0 -0.67858391999E+01 -0.52474044031E+02  0.11324043924E+01  0.13571470729E+03  0.12497050262E+03 0.  0.
          5    1    4    4  502    0  0.21217707158E+01  0.80668863008E+01 -0.84993651702E+02  0.85531207142E+02  0.47000000000E+01 0. -1.
         -5    1    4    4    0  502  0.46640684840E+01  0.44407157731E+02  0.37016198533E+02  0.58189673881E+02  0.47000000000E+01 0. -1.
          5    1    5    5  503    0 -0.36845122690E+02 -0.84019262119E+02  0.18609384524E+01  0.91882275575E+02  0.47000000000E+01 0. -1.
         -5    1    5    5    0  503  0.30059283490E+02  0.31545218087E+02 -0.72853406000E+00  0.43832431714E+02  0.47000000000E+01 0. -1.
<mgrwt>
<rscale>  0 0.27548101E+03</rscale>
<asrwt>0</asrwt>
<pdfrwt beam="1">  1        1 0.25098511E-01 0.27548101E+03</pdfrwt>
<pdfrwt beam="2">  1       -1 0.17891580E-01 0.27548101E+03</pdfrwt>
<totfact> 0.45741724E+03</totfact>
</mgrwt>
</event>
<event>
 9    1  0.7984035E-001  0.2767287E+03  0.7818608E-02  0.1097489E+00
         -1   -1    0    0    0  501 -0.00000000000E+00  0.00000000000E+00  0.12870546643E+03  0.12870546643E+03  0.00000000000E+00 0. -1.
          1   -1    0    0  501    0  0.00000000000E+00 -0.00000000000E+00 -0.14874810736E+03  0.14874810736E+03  0.00000000000E+00 0. -1.
         35    2    1    2    0    0 -0.14210854715E-13  0.71054273576E-14 -0.20042640934E+02  0.27745357380E+03  0.27672870859E+03 0.  0.
         25    2    3    3    0    0  0.51637148588E+02 -0.51103103717E+01  0.19776272328E+02  0.13689588005E+03  0.12512741762E+03 0.  0.
         25    2    3    3    0    0 -0.51637148588E+02  0.51103103717E+01 -0.39818913262E+02  0.14055769375E+03  0.12441225435E+03 0.  0.
          5    1    4    4  502    0 -0.15754499665E+02  0.35721489879E+02  0.39284994439E+02  0.55584439252E+02  0.47000000000E+01 0. -1.
         -5    1    4    4    0  502  0.67391648253E+02 -0.40831800251E+02 -0.19508722111E+02  0.81311440797E+02  0.47000000000E+01 0. -1.
          5    1    5    5  503    0  0.12177145327E+02 -0.49136306903E+02 -0.17257733052E+02  0.53689653328E+02  0.47000000000E+01 0.  1.
         -5    1    5    5    0  503 -0.63814293915E+02  0.54246617275E+02 -0.22561180210E+02  0.86868040418E+02  0.47000000000E+01 0.  1.
<mgrwt>
<rscale>  0 0.27672871E+03</rscale>
<asrwt>0</asrwt>
<pdfrwt beam="1">  1        1 0.22884324E-01 0.27672871E+03</pdfrwt>
<pdfrwt beam="2">  1       -1 0.19800841E-01 0.27672871E+03</pdfrwt>
<totfact> 0.43686462E+03</totfact>
</mgrwt>
</event>
<event>
 9    1  0.7984035E-001  0.2756707E+03  0.7818608E-02  0.1098077E+00
         -2   -1    0    0    0  501 -0.00000000000E+00  0.00000000000E+00  0.18838226795E+03  0.18838226795E+03  0.00000000000E+00 0. -1.
          2   -1    0    0  501    0  0.00000000000E+00 -0.00000000000E+00 -0.10085120556E+03  0.10085120556E+03  0.00000000000E+00 0. -1.
         35    2    1    2    0    0 -0.17763568394E-14  0.00000000000E+00  0.87531062383E+02  0.28923347351E+03  0.27567066459E+03 0.  0.
         25    2    3    3    0    0 -0.67273909027E+01  0.55599933411E+02  0.43537341495E+02  0.14450936253E+03  0.12590014048E+03 0.  0.
         25    2    3    3    0    0  0.67273909027E+01 -0.55599933411E+02  0.43993720888E+02  0.14472411098E+03  0.12598813610E+03 0.  0.
          5    1    4    4  502    0 -0.16876703547E+02  0.58344423686E+02  0.83251501089E+02  0.10315908749E+03  0.47000000000E+01 0. -1.
         -5    1    4    4    0  502  0.10149312644E+02 -0.27444902755E+01 -0.39714159595E+02  0.41350275045E+02  0.47000000000E+01 0. -1.
          5    1    5    5  503    0  0.46694519934E+02 -0.49516119584E+02 -0.18006422676E+02  0.70558809146E+02  0.47000000000E+01 0.  1.
         -5    1    5    5    0  503 -0.39967129031E+02 -0.60838138267E+01  0.62000143564E+02  0.74165301831E+02  0.47000000000E+01 0.  1.
<mgrwt>
<rscale>  0 0.27567066E+03</rscale>
<asrwt>0</asrwt>
<pdfrwt beam="1">  1        2 0.15515570E-01 0.27567066E+03</pdfrwt>
<pdfrwt beam="2">  1       -2 0.28981887E-01 0.27567066E+03</pdfrwt>
<totfact> 0.40541769E+03</totfact>
</mgrwt>
</event>
<event>
 9    1  0.7984035E-001  0.2753401E+03  0.7818608E-02  0.1098262E+00
          1   -1    0    0  501    0  0.00000000000E+00  0.00000000000E+00  0.19436435351E+04  0.19436435351E+04  0.00000000000E+00 0. -1.
         -1   -1    0    0    0  501 -0.00000000000E+00 -0.00000000000E+00 -0.97512972311E+01  0.97512972311E+01  0.00000000000E+00 0. -1.
         35    2    1    2    0    0  0.00000000000E+00  0.00000000000E+00  0.19338922379E+04  0.19533948324E+04  0.27534012292E+03 0.  0.
         25    2    3    3    0    0  0.22799550254E+02  0.51817539974E+02  0.10003511260E+04  0.10097123062E+04  0.12494674467E+03 0.  0.
         25    2    3    3    0    0 -0.22799550254E+02 -0.51817539974E+02  0.93354111191E+03  0.94368252620E+03  0.12582855673E+03 0.  0.
          5    1    4    4  502    0  0.33240089159E+02 -0.35625499210E+02  0.36780031439E+03  0.37104344892E+03  0.47000000000E+01 0. -1.
         -5    1    4    4    0  502 -0.10440538905E+02  0.87443039184E+02  0.63255081160E+03  0.63866885725E+03  0.47000000000E+01 0. -1.
          5    1    5    5  503    0 -0.27392677906E+02 -0.62599340074E+02  0.92687879634E+03  0.92940595505E+03  0.47000000000E+01 0. -1.
         -5    1    5    5    0  503  0.45931276513E+01  0.10781800101E+02  0.66623155708E+01  0.14276571150E+02  0.47000000000E+01 0. -1.
<mgrwt>
<rscale>  0 0.27534012E+03</rscale>
<asrwt>0</asrwt>
<pdfrwt beam="1">  1        1 0.29902177E+00 0.27534012E+03</pdfrwt>
<pdfrwt beam="2">  1       -1 0.15002011E-02 0.27534012E+03</pdfrwt>
<totfact> 0.38301750E+03</totfact>
</mgrwt>
</event>
<event>
 9    1  0.7984035E-001  0.2755662E+03  0.7818608E-02  0.1098136E+00
         -1   -1    0    0    0  501 -0.00000000000E+00  0.00000000000E+00  0.86218018086E+02  0.86218018086E+02  0.00000000000E+00 0.  1.
          1   -1    0    0  501    0  0.00000000000E+00 -0.00000000000E+00 -0.22018803940E+03  0.22018803940E+03  0.00000000000E+00 0.  1.
         35    2    1    2    0    0  0.88817841970E-15  0.71054273576E-14 -0.13397002131E+03  0.30640605748E+03  0.27556615440E+03 0.  0.
         25    2    3    3    0    0  0.37555339125E+01 -0.33603619279E+02 -0.15254396392E+02  0.13045805647E+03  0.12507318108E+03 0.  0.
         25    2    3    3    0    0 -0.37555339125E+01  0.33603619279E+02 -0.11871562492E+03  0.17594800101E+03  0.12538338086E+03 0.  0.
          5    1    4    4  502    0  0.15611333099E+02  0.36954250114E+02 -0.37775752390E+02  0.55303054087E+02  0.47000000000E+01 0.  1.
         -5    1    4    4    0  502 -0.11855799186E+02 -0.70557869393E+02  0.22521355998E+02  0.75155002386E+02  0.47000000000E+01 0.  1.
          5    1    5    5  503    0 -0.27753349913E+01 -0.28806679832E+01  0.25950829538E+02  0.26674637506E+02  0.47000000000E+01 0.  1.
         -5    1    5    5    0  503 -0.98019892116E+00  0.36484287262E+02 -0.14466645446E+03  0.14927336350E+03  0.47000000000E+01 0.  1.
<mgrwt>
<rscale>  0 0.27556615E+03</rscale>
<asrwt>0</asrwt>
<pdfrwt beam="1">  1        1 0.33875083E-01 0.27556615E+03</pdfrwt>
<pdfrwt beam="2">  1       -1 0.13264311E-01 0.27556615E+03</pdfrwt>
<totfact> 0.50396380E+03</totfact>
</mgrwt>
</event>
<event>
 9    1  0.7984035E-001  0.2742248E+03  0.7818608E-02  0.1098886E+00
         -2   -1    0    0    0  501 -0.00000000000E+00  0.00000000000E+00  0.31501186350E+02  0.31501186350E+02  0.00000000000E+00 0.  1.
          2   -1    0    0  501    0  0.00000000000E+00 -0.00000000000E+00 -0.59679670616E+03  0.59679670616E+03  0.00000000000E+00 0.  1.
         35    2    1    2    0    0  0.00000000000E+00 -0.35527136788E-14 -0.56529551981E+03  0.62829789251E+03  0.27422475639E+03 0.  0.
         25    2    3    3    0    0 -0.39963792652E+02 -0.30347084608E+02 -0.22475269794E+03  0.26201388943E+03  0.12497780904E+03 0.  0.
         25    2    3    3    0    0  0.39963792652E+02  0.30347084608E+02 -0.34054282187E+03  0.36628400308E+03  0.12520585898E+03 0.  0.
          5    1    4    4  502    0  0.88953389045E+00  0.28158513574E+02 -0.16883846134E+03  0.17123728912E+03  0.47000000000E+01 0.  1.
         -5    1    4    4    0  502 -0.40853326543E+02 -0.58505598182E+02 -0.55914236603E+02  0.90776600306E+02  0.47000000000E+01 0.  1.
          5    1    5    5  503    0 -0.44569187503E+02  0.16616798282E+02 -0.98283915913E+02  0.10929020353E+03  0.47000000000E+01 0. -1.
         -5    1    5    5    0  503  0.84532980155E+02  0.13730286326E+02 -0.24225890595E+03  0.25699379956E+03  0.47000000000E+01 0. -1.
<mgrwt>
<rscale>  0 0.27422476E+03</rscale>
<asrwt>0</asrwt>
<pdfrwt beam="1">  1        2 0.91814876E-01 0.27422476E+03</pdfrwt>
<pdfrwt beam="2">  1       -2 0.48463365E-02 0.27422476E+03</pdfrwt>
<totfact> 0.10375446E+04</totfact>
</mgrwt>
</event>
<event>
 9    1  0.7984035E-001  0.2681175E+03  0.7818608E-02  0.1102362E+00
          2   -1    0    0  501    0  0.00000000000E+00  0.00000000000E+00  0.44447926936E+03  0.44447926936E+03  0.00000000000E+00 0.  1.
         -2   -1    0    0    0  501 -0.00000000000E+00 -0.00000000000E+00 -0.40433260144E+02  0.40433260144E+02  0.00000000000E+00 0.  1.
         35    2    1    2    0    0  0.00000000000E+00  0.35527136788E-14  0.40404600921E+03  0.48491252950E+03  0.26811748117E+03 0.  0.
         25    2    3    3    0    0 -0.36230066926E+02 -0.30139214710E+02  0.23413950475E+03  0.26990182935E+03  0.12571674426E+03 0.  0.
         25    2    3    3    0    0  0.36230066926E+02  0.30139214710E+02  0.16990650446E+03  0.21501070015E+03  0.12304629579E+03 0.  0.
          5    1    4    4  502    0  0.38992662349E+02 -0.24381958435E+02  0.14920582173E+03  0.15620299245E+03  0.47000000000E+01 0. -1.
         -5    1    4    4    0  502 -0.75222729275E+02 -0.57572562752E+01  0.84933683025E+02  0.11369883690E+03  0.47000000000E+01 0. -1.
          5    1    5    5  503    0  0.47240044934E+02 -0.34287351873E+02  0.44622388422E+02  0.73623989923E+02  0.47000000000E+01 0. -1.
         -5    1    5    5    0  503 -0.11009978008E+02  0.64426566583E+02  0.12528411604E+03  0.14138671023E+03  0.47000000000E+01 0. -1.
<mgrwt>
<rscale>  0 0.26811748E+03</rscale>
<asrwt>0</asrwt>
<pdfrwt beam="1">  1        2 0.68381423E-01 0.26811748E+03</pdfrwt>
<pdfrwt beam="2">  1       -2 0.62205019E-02 0.26811748E+03</pdfrwt>
<totfact> 0.98671127E+03</totfact>
</mgrwt>
</event>
<event>
 9    1  0.7984035E-001  0.2834364E+03  0.7818608E-02  0.1093827E+00
          1   -1    0    0  501    0  0.00000000000E+00  0.00000000000E+00  0.99893133214E+01  0.99893133214E+01  0.00000000000E+00 0.  1.
         -1   -1    0    0    0  501 -0.00000000000E+00 -0.00000000000E+00 -0.20105537516E+04  0.20105537516E+04  0.00000000000E+00 0.  1.
         35    2    1    2    0    0  0.17763568394E-14  0.71054273576E-14 -0.20005644383E+04  0.20205430649E+04  0.28343642232E+03 0.  0.
         25    2    3    3    0    0  0.67756348328E+01  0.35804132496E+02 -0.13350706690E+04  0.13414088046E+04  0.12504417103E+03 0.  0.
         25    2    3    3    0    0 -0.67756348328E+01 -0.35804132496E+02 -0.66549376924E+03  0.67913426028E+03  0.13043596689E+03 0.  0.
          5    1    4    4  502    0  0.50345145762E+02 -0.23617760906E+02 -0.63949338594E+03  0.64192391526E+03  0.47000000000E+01 0. -1.
         -5    1    4    4    0  502 -0.43569510929E+02  0.59421893402E+02 -0.69557728308E+03  0.69948488935E+03  0.47000000000E+01 0. -1.
          5    1    5    5  503    0  0.51405356475E+01  0.49082559049E+02 -0.24725514705E+03  0.25217597120E+03  0.47000000000E+01 0.  1.
         -5    1    5    5    0  503 -0.11916170480E+02 -0.84886691545E+02 -0.41823862219E+03  0.42695828908E+03  0.47000000000E+01 0.  1.
<mgrwt>
<rscale>  0 0.28343642E+03</rscale>
<asrwt>0</asrwt>
<pdfrwt beam="1">  1        1 0.15368179E-02 0.28343642E+03</pdfrwt>
<pdfrwt beam="2">  1       -1 0.30931586E+00 0.28343642E+03</pdfrwt>
<totfact> 0.29671442E+02</totfact>
</mgrwt>
</event>
<event>
 9    1  0.7984035E-001  0.2776018E+03  0.7818608E-02  0.1097006E+00
         -1   -1    0    0    0  501 -0.00000000000E+00  0.00000000000E+00  0.13729182284E+02  0.13729182284E+02  0.00000000000E+00 0.  1.
          1   -1    0    0  501    0  0.00000000000E+00 -0.00000000000E+00 -0.14032652724E+04  0.14032652724E+04  0.00000000000E+00 0.  1.
         35    2    1    2    0    0 -0.35527136788E-14  0.00000000000E+00 -0.13895360901E+04  0.14169944547E+04  0.27760176308E+03 0.  0.
         25    2    3    3    0    0 -0.29890056071E+02  0.46769789369E+02 -0.63424402395E+03  0.64868768637E+03  0.12429563095E+03 0.  0.
         25    2    3    3    0    0  0.29890056071E+02 -0.46769789369E+02 -0.75529206614E+03  0.76830676829E+03  0.12941544105E+03 0.  0.
          5    1    4    4  502    0 -0.46389347585E+02 -0.71164857494E+01 -0.51002975727E+03  0.51220607107E+03  0.47000000000E+01 0.  1.
         -5    1    4    4    0  502  0.16499291514E+02  0.53886275119E+02 -0.12421426668E+03  0.13648161530E+03  0.47000000000E+01 0.  1.
          5    1    5    5  503    0  0.42728937794E+02 -0.56226972923E+02 -0.18974476696E+03  0.20251518758E+03  0.47000000000E+01 0.  1.
         -5    1    5    5    0  503 -0.12838881724E+02  0.94571835540E+01 -0.56554729917E+03  0.56579158071E+03  0.47000000000E+01 0.  1.
<mgrwt>
<rscale>  0 0.27760176E+03</rscale>
<asrwt>0</asrwt>
<pdfrwt beam="1">  1        1 0.21588688E+00 0.27760176E+03</pdfrwt>
<pdfrwt beam="2">  1       -1 0.21121828E-02 0.27760176E+03</pdfrwt>
<totfact> 0.52569511E+03</totfact>
</mgrwt>
</event>
<event>
 9    1  0.7984035E-001  0.2743599E+03  0.7818608E-02  0.1098810E+00
         -1   -1    0    0    0  501 -0.00000000000E+00  0.00000000000E+00  0.27333221216E+03  0.27333221216E+03  0.00000000000E+00 0. -1.
          1   -1    0    0  501    0  0.00000000000E+00 -0.00000000000E+00 -0.68847858291E+02  0.68847858291E+02  0.00000000000E+00 0. -1.
         35    2    1    2    0    0  0.00000000000E+00  0.17763568394E-14  0.20448435387E+03  0.34218007045E+03  0.27435989072E+03 0.  0.
         25    2    3    3    0    0  0.35542948315E+02 -0.45878888453E+01  0.49991951780E+02  0.13976588004E+03  0.12550281304E+03 0.  0.
         25    2    3    3    0    0 -0.35542948315E+02  0.45878888453E+01  0.15449240209E+03  0.20241419040E+03  0.12577460903E+03 0.  0.
          5    1    4    4  502    0  0.76460325792E+02 -0.25930784313E+02  0.16472881088E+02  0.82535039871E+02  0.47000000000E+01 0.  1.
         -5    1    4    4    0  502 -0.40917377476E+02  0.21342895468E+02  0.33519070693E+02  0.57230840170E+02  0.47000000000E+01 0.  1.
          5    1    5    5  503    0 -0.81532020655E+02  0.11203112835E+02  0.82674309662E+02  0.11674806897E+03  0.47000000000E+01 0.  1.
         -5    1    5    5    0  503  0.45989072339E+02 -0.66152239894E+01  0.71818092424E+02  0.85666121439E+02  0.47000000000E+01 0.  1.
<mgrwt>
<rscale>  0 0.27435989E+03</rscale>
<asrwt>0</asrwt>
<pdfrwt beam="1">  1        1 0.10591978E-01 0.27435989E+03</pdfrwt>
<pdfrwt beam="2">  1       -1 0.42051109E-01 0.27435989E+03</pdfrwt>
<totfact> 0.33345090E+03</totfact>
</mgrwt>
</event>
<event>
 9    1  0.7984035E-001  0.2882036E+03  0.7818608E-02  0.1091291E+00
         -1   -1    0    0    0  501 -0.00000000000E+00  0.00000000000E+00  0.13254454958E+02  0.13254454958E+02  0.00000000000E+00 0.  1.
          1   -1    0    0  501    0  0.00000000000E+00 -0.00000000000E+00 -0.15666678877E+04  0.15666678877E+04  0.00000000000E+00 0.  1.
         35    2    1    2    0    0  0.71054273576E-14  0.00000000000E+00 -0.15534134328E+04  0.15799223427E+04  0.28820360131E+03 0.  0.
         25    2    3    3    0    0  0.48581779003E+02 -0.42389860086E+02 -0.59895854000E+03  0.61516778183E+03  0.12459124236E+03 0.  0.
         25    2    3    3    0    0 -0.48581779003E+02  0.42389860086E+02 -0.95445489278E+03  0.96475456087E+03  0.12494050934E+03 0.  0.
          5    1    4    4  502    0  0.78262714733E+02  0.10633426147E+02 -0.35518809150E+03  0.36389393044E+03  0.47000000000E+01 0. -1.
         -5    1    4    4    0  502 -0.29680935730E+02 -0.53023286233E+02 -0.24377044850E+03  0.25127385139E+03  0.47000000000E+01 0. -1.
          5    1    5    5  503    0 -0.87572000772E+02  0.48739911610E+02 -0.71804146651E+03  0.72501729078E+03  0.47000000000E+01 0. -1.
         -5    1    5    5    0  503  0.38990221769E+02 -0.63500515236E+01 -0.23641342627E+03  0.23973727009E+03  0.47000000000E+01 0. -1.
<mgrwt>
<rscale>  0 0.28820360E+03</rscale>
<asrwt>0</asrwt>
<pdfrwt beam="1">  1        1 0.24102592E+00 0.28820360E+03</pdfrwt>
<pdfrwt beam="2">  1       -1 0.20391461E-02 0.28820360E+03</pdfrwt>
<totfact> 0.43108328E+03</totfact>
</mgrwt>
</event>
<event>
 9    1  0.7984035E-001  0.2858897E+03  0.7818608E-02  0.1092515E+00
         -2   -1    0    0    0  501 -0.00000000000E+00  0.00000000000E+00  0.25751087090E+02  0.25751087090E+02  0.00000000000E+00 0. -1.
          2   -1    0    0  501    0  0.00000000000E+00 -0.00000000000E+00 -0.79349015282E+03  0.79349015282E+03  0.00000000000E+00 0. -1.
         35    2    1    2    0    0  0.00000000000E+00  0.71054273576E-14 -0.76773906573E+03  0.81924123991E+03  0.28588972720E+03 0.  0.
         25    2    3    3    0    0  0.56159891706E+02 -0.33279135711E+02 -0.43991391642E+03  0.46187348338E+03  0.12466525770E+03 0.  0.
         25    2    3    3    0    0 -0.56159891706E+02  0.33279135711E+02 -0.32782514931E+03  0.35736775653E+03  0.12641578453E+03 0.  0.
          5    1    4    4  502    0  0.90331310296E+02 -0.48928866217E+02 -0.32342799186E+03  0.33938405308E+03  0.47000000000E+01 0.  1.
         -5    1    4    4    0  502 -0.34171418590E+02  0.15649730506E+02 -0.11648592457E+03  0.12248943030E+03  0.47000000000E+01 0.  1.
          5    1    5    5  503    0  0.62338838912E+01  0.62830941945E+02 -0.22259450296E+03  0.23142383481E+03  0.47000000000E+01 0.  1.
         -5    1    5    5    0  503 -0.62393775597E+02 -0.29551806234E+02 -0.10523064635E+03  0.12594392171E+03  0.47000000000E+01 0.  1.
<mgrwt>
<rscale>  0 0.28588973E+03</rscale>
<asrwt>0</asrwt>
<pdfrwt beam="1">  1        2 0.12207540E+00 0.28588973E+03</pdfrwt>
<pdfrwt beam="2">  1       -2 0.39617060E-02 0.28588973E+03</pdfrwt>
<totfact> 0.99806746E+03</totfact>
</mgrwt>
</event>
<event>
 9    1  0.7984035E-001  0.2874451E+03  0.7818608E-02  0.1091691E+00
          1   -1    0    0  501    0  0.00000000000E+00  0.00000000000E+00  0.38456137376E+03  0.38456137376E+03  0.00000000000E+00 0.  1.
         -1   -1    0    0    0  501 -0.00000000000E+00 -0.00000000000E+00 -0.53713580451E+02  0.53713580451E+02  0.00000000000E+00 0.  1.
         35    2    1    2    0    0  0.35527136788E-14  0.00000000000E+00  0.33084779330E+03  0.43827495421E+03  0.28744507849E+03 0.  0.
         25    2    3    3    0    0  0.10244855245E+02 -0.71216841806E+02  0.17866926906E+03  0.23004400805E+03  0.12578053235E+03 0.  0.
         25    2    3    3    0    0 -0.10244855245E+02  0.71216841806E+02  0.15217852424E+03  0.20823094615E+03  0.12257662126E+03 0.  0.
          5    1    4    4  502    0 -0.57195480554E+02 -0.38092563868E+02  0.97024524960E+02  0.11898829716E+03  0.47000000000E+01 0.  1.
         -5    1    4    4    0  502  0.67440335799E+02 -0.33124277938E+02  0.81644744104E+02  0.11105571089E+03  0.47000000000E+01 0.  1.
          5    1    5    5  503    0  0.26103808834E+02 -0.17646651306E+02  0.47159937393E+01  0.32204716035E+02  0.47000000000E+01 0. -1.
         -5    1    5    5    0  503 -0.36348664079E+02  0.88863493111E+02  0.14746253050E+03  0.17602623012E+03  0.47000000000E+01 0. -1.
<mgrwt>
<rscale>  0 0.28744508E+03</rscale>
<asrwt>0</asrwt>
<pdfrwt beam="1">  1        1 0.59163287E-01 0.28744508E+03</pdfrwt>
<pdfrwt beam="2">  1       -1 0.82636280E-02 0.28744508E+03</pdfrwt>
<totfact> 0.52025011E+03</totfact>
</mgrwt>
</event>
<event>
 9    1  0.7984035E-001  0.2742231E+03  0.7818608E-02  0.1098887E+00
         -1   -1    0    0    0  501 -0.00000000000E+00  0.00000000000E+00  0.12308914572E+03  0.12308914572E+03  0.00000000000E+00 0.  1.
          1   -1    0    0  501    0  0.00000000000E+00 -0.00000000000E+00 -0.15273140835E+03  0.15273140835E+03  0.00000000000E+00 0.  1.
         35    2    1    2    0    0  0.00000000000E+00  0.14210854715E-13 -0.29642262625E+02  0.27582055407E+03  0.27422311046E+03 0.  0.
         25    2    3    3    0    0 -0.12700507942E+02  0.47521149110E+02  0.98280395503E+01  0.13575249117E+03  0.12614509892E+03 0.  0.
         25    2    3    3    0    0  0.12700507942E+02 -0.47521149110E+02 -0.39470302175E+02  0.14006806290E+03  0.12506636229E+03 0.  0.
          5    1    4    4  502    0  0.26153783729E+02  0.75701644124E+02 -0.14826663039E+02  0.81588475064E+02  0.47000000000E+01 0. -1.
         -5    1    4    4    0  502 -0.38854291671E+02 -0.28180495014E+02  0.24654702590E+02  0.54164016102E+02  0.47000000000E+01 0. -1.
          5    1    5    5  503    0 -0.44637836224E+02  0.15498050771E+02 -0.39785266548E+01  0.47651281985E+02  0.47000000000E+01 0.  1.
         -5    1    5    5    0  503  0.57338344166E+02 -0.63019199880E+02 -0.35491775521E+02  0.92416780915E+02  0.47000000000E+01 0.  1.
<mgrwt>
<rscale>  0 0.27422311E+03</rscale>
<asrwt>0</asrwt>
<pdfrwt beam="1">  1        1 0.23497140E-01 0.27422311E+03</pdfrwt>
<pdfrwt beam="2">  1       -1 0.18936792E-01 0.27422311E+03</pdfrwt>
<totfact> 0.45391001E+03</totfact>
</mgrwt>
</event>
<event>
 9    1  0.7984035E-001  0.2770384E+03  0.7818608E-02  0.1097318E+00
         -1   -1    0    0    0  501 -0.00000000000E+00  0.00000000000E+00  0.30690328520E+02  0.30690328520E+02  0.00000000000E+00 0. -1.
          1   -1    0    0  501    0  0.00000000000E+00 -0.00000000000E+00 -0.62519925420E+03  0.62519925420E+03  0.00000000000E+00 0. -1.
         35    2    1    2    0    0  0.00000000000E+00  0.00000000000E+00 -0.59450892568E+03  0.65588958272E+03  0.27703841251E+03 0.  0.
         25    2    3    3    0    0  0.29157655648E+02  0.99455461625E+01 -0.41549990969E+03  0.43516631417E+03  0.12562031390E+03 0.  0.
         25    2    3    3    0    0 -0.29157655648E+02 -0.99455461625E+01 -0.17900901599E+03  0.22072326855E+03  0.12540115910E+03 0.  0.
          5    1    4    4  502    0 -0.16846648857E+01  0.43720456332E+02 -0.49264758334E+02  0.66056209484E+02  0.47000000000E+01 0. -1.
         -5    1    4    4    0  502  0.30842320533E+02 -0.33774910170E+02 -0.36623515136E+03  0.36911010469E+03  0.47000000000E+01 0. -1.
          5    1    5    5  503    0 -0.14343222716E+02  0.50353689178E+01 -0.19386609859E+03  0.19451796102E+03  0.47000000000E+01 0. -1.
         -5    1    5    5    0  503 -0.14814432932E+02 -0.14980915080E+02  0.14857082594E+02  0.26205307534E+02  0.47000000000E+01 0. -1.
<mgrwt>
<rscale>  0 0.27703841E+03</rscale>
<asrwt>0</asrwt>
<pdfrwt beam="1">  1        1 0.96184491E-01 0.27703841E+03</pdfrwt>
<pdfrwt beam="2">  1       -1 0.47215895E-02 0.27703841E+03</pdfrwt>
<totfact> 0.63468149E+03</totfact>
</mgrwt>
</event>
<event>
 9    1  0.7984035E-001  0.2818126E+03  0.7818608E-02  0.1094703E+00
         -2   -1    0    0    0  501 -0.00000000000E+00  0.00000000000E+00  0.24590380839E+02  0.24590380839E+02  0.00000000000E+00 0.  1.
          2   -1    0    0  501    0  0.00000000000E+00 -0.00000000000E+00 -0.80741250948E+03  0.80741250948E+03  0.00000000000E+00 0.  1.
         35    2    1    2    0    0  0.00000000000E+00  0.00000000000E+00 -0.78282212864E+03  0.83200289032E+03  0.28181256964E+03 0.  0.
         25    2    3    3    0    0  0.10234147978E+02 -0.36662749896E+02 -0.23463554862E+03  0.26858062617E+03  0.12503126434E+03 0.  0.
         25    2    3    3    0    0 -0.10234147978E+02  0.36662749896E+02 -0.54818658002E+03  0.56342226414E+03  0.12444768462E+03 0.  0.
          5    1    4    4  502    0  0.61088614878E+02  0.92888474591E+01 -0.10855932784E+03  0.12500127686E+03  0.47000000000E+01 0. -1.
         -5    1    4    4    0  502 -0.50854466900E+02 -0.45951597355E+02 -0.12607622078E+03  0.14357934931E+03  0.47000000000E+01 0. -1.
          5    1    5    5  503    0  0.34378256160E+02  0.14391497257E+02 -0.46360761083E+03  0.46512695741E+03  0.47000000000E+01 0.  1.
         -5    1    5    5    0  503 -0.44612404138E+02  0.22271252639E+02 -0.84578969183E+02  0.98295306730E+02  0.47000000000E+01 0.  1.
<mgrwt>
<rscale>  0 0.28181257E+03</rscale>
<asrwt>0</asrwt>
<pdfrwt beam="1">  1        2 0.12421730E+00 0.28181257E+03</pdfrwt>
<pdfrwt beam="2">  1       -2 0.37831358E-02 0.28181257E+03</pdfrwt>
<totfact> 0.10458046E+04</totfact>
</mgrwt>
</event>
<event>
 9    1  0.7984035E-001  0.2727050E+03  0.7818608E-02  0.1099741E+00
          1   -1    0    0  501    0  0.00000000000E+00  0.00000000000E+00  0.23869136028E+03  0.23869136028E+03  0.00000000000E+00 0.  1.
         -1   -1    0    0    0  501 -0.00000000000E+00 -0.00000000000E+00 -0.77891380428E+02  0.77891380428E+02  0.00000000000E+00 0.  1.
         35    2    1    2    0    0 -0.71054273576E-14  0.35527136788E-14  0.16079997985E+03  0.31658274070E+03  0.27270496547E+03 0.  0.
         25    2    3    3    0    0  0.28634190908E+02 -0.57964534530E+01  0.31817376255E+02  0.13278256168E+03  0.12556013497E+03 0.  0.
         25    2    3    3    0    0 -0.28634190908E+02  0.57964534530E+01  0.12898260359E+03  0.18380017902E+03  0.12764199159E+03 0.  0.
          5    1    4    4  502    0 -0.16035166038E+02  0.52192009933E+02  0.64942955612E+01  0.55185127757E+02  0.47000000000E+01 0.  1.
         -5    1    4    4    0  502  0.44669356945E+02 -0.57988463386E+02  0.25323080694E+02  0.77597433924E+02  0.47000000000E+01 0.  1.
          5    1    5    5  503    0 -0.69313836896E+00 -0.12428295530E+02 -0.23843655244E+02  0.27304813971E+02  0.47000000000E+01 0.  1.
         -5    1    5    5    0  503 -0.27941052539E+02  0.18224748983E+02  0.15282625884E+03  0.15649536505E+03  0.47000000000E+01 0.  1.
<mgrwt>
<rscale>  0 0.27270497E+03</rscale>
<asrwt>0</asrwt>
<pdfrwt beam="1">  1        1 0.36721747E-01 0.27270497E+03</pdfrwt>
<pdfrwt beam="2">  1       -1 0.11983289E-01 0.27270497E+03</pdfrwt>
<totfact> 0.53375747E+03</totfact>
</mgrwt>
</event>
<event>
 9    1  0.7984035E-001  0.2779249E+03  0.7818608E-02  0.1096828E+00
          2   -1    0    0  501    0  0.00000000000E+00  0.00000000000E+00  0.44084557917E+02  0.44084557917E+02  0.00000000000E+00 0.  1.
         -2   -1    0    0    0  501 -0.00000000000E+00 -0.00000000000E+00 -0.43803476139E+03  0.43803476139E+03  0.00000000000E+00 0.  1.
         35    2    1    2    0    0 -0.14210854715E-13 -0.35527136788E-14 -0.39395020348E+03  0.48211931931E+03  0.27792494532E+03 0.  0.
         25    2    3    3    0    0 -0.49746925738E+02  0.17934120557E+02 -0.25117220192E+03  0.28496289558E+03  0.12377393724E+03 0.  0.
         25    2    3    3    0    0  0.49746925738E+02 -0.17934120557E+02 -0.14277800156E+03  0.19715642373E+03  0.12525457432E+03 0.  0.
          5    1    4    4  502    0 -0.59266770648E+02  0.60198545973E+02 -0.12066254860E+03  0.14737013156E+03  0.47000000000E+01 0.  1.
         -5    1    4    4    0  502  0.95198449096E+01 -0.42264425416E+02 -0.13050965332E+03  0.13759276402E+03  0.47000000000E+01 0.  1.
          5    1    5    5  503    0 -0.37934976246E+02  0.10382026244E+01 -0.76480718709E+02  0.85507488688E+02  0.47000000000E+01 0.  1.
         -5    1    5    5    0  503  0.87681901985E+02 -0.18972323181E+02 -0.66297282848E+02  0.11164893504E+03  0.47000000000E+01 0.  1.
<mgrwt>
<rscale>  0 0.27792495E+03</rscale>
<asrwt>0</asrwt>
<pdfrwt beam="1">  1        2 0.67822400E-02 0.27792495E+03</pdfrwt>
<pdfrwt beam="2">  1       -2 0.67389960E-01 0.27792495E+03</pdfrwt>
<totfact> 0.21739124E+03</totfact>
</mgrwt>
</event>
<event>
 9    1  0.7984035E-001  0.2845384E+03  0.7818608E-02  0.1093236E+00
         -3   -1    0    0    0  501 -0.00000000000E+00  0.00000000000E+00  0.76709002803E+02  0.76709002803E+02  0.00000000000E+00 0.  1.
          3   -1    0    0  501    0  0.00000000000E+00 -0.00000000000E+00 -0.26386109912E+03  0.26386109912E+03  0.00000000000E+00 0.  1.
         35    2    1    2    0    0  0.00000000000E+00  0.00000000000E+00 -0.18715209632E+03  0.34057010192E+03  0.28453837556E+03 0.  0.
         25    2    3    3    0    0 -0.35267778632E+02 -0.46765204336E+02 -0.54841553767E+02  0.14801746830E+03  0.12438156759E+03 0.  0.
         25    2    3    3    0    0  0.35267778632E+02  0.46765204336E+02 -0.13231054255E+03  0.19255263363E+03  0.12704186908E+03 0.  0.
          5    1    4    4  502    0  0.29525233873E+02  0.14598060075E+02 -0.47986805058E+02  0.58392347554E+02  0.47000000000E+01 0.  1.
         -5    1    4    4    0  502 -0.64793012504E+02 -0.61363264411E+02 -0.68547487097E+01  0.89625120744E+02  0.47000000000E+01 0.  1.
          5    1    5    5  503    0  0.44104572214E+02 -0.11175817128E+02 -0.12523816851E+03  0.13332967048E+03  0.47000000000E+01 0. -1.
         -5    1    5    5    0  503 -0.88367935823E+01  0.57941021465E+02 -0.70723740418E+01  0.59222963146E+02  0.47000000000E+01 0. -1.
<mgrwt>
<rscale>  0 0.28453838E+03</rscale>
<asrwt>0</asrwt>
<pdfrwt beam="1">  1        3 0.40594016E-01 0.28453838E+03</pdfrwt>
<pdfrwt beam="2">  1       -3 0.11801385E-01 0.28453838E+03</pdfrwt>
<totfact> 0.86064051E+02</totfact>
</mgrwt>
</event>
<event>
 8    1  0.7984035E-001  0.4906054E+03  0.7818608E-02  0.1016261E+00
          2   -1    0    0  501    0  0.00000000000E+00  0.00000000000E+00  0.51143973369E+03  0.51143973369E+03  0.00000000000E+00 0.  1.
         -2   -1    0    0    0  501 -0.00000000000E+00 -0.00000000000E+00 -0.11765492995E+03  0.11765492995E+03  0.00000000000E+00 0.  1.
         25    2    1    2    0    0  0.16267953849E+03  0.99012989813E+02  0.79748000230E+02  0.24108642368E+03  0.12447777210E+03 0.  0.
         25    2    1    2    0    0 -0.16267953849E+03 -0.99012989813E+02  0.31403680351E+03  0.38800823997E+03  0.12515221103E+03 0.  0.
          5    1    3    3  502    0  0.16033312604E+03  0.41917259379E+02  0.37800316378E+02  0.17004329407E+03  0.47000000000E+01 0.  1.
         -5    1    3    3    0  502  0.23464124586E+01  0.57095730434E+02  0.41947683852E+02  0.71043129617E+02  0.47000000000E+01 0.  1.
          5    1    4    4  503    0 -0.11910154888E+03 -0.43893699816E+02  0.28464311538E+03  0.31169797715E+03  0.47000000000E+01 0. -1.
         -5    1    4    4    0  503 -0.43577989617E+02 -0.55119289997E+02  0.29393688133E+02  0.76310262815E+02  0.47000000000E+01 0. -1.
<mgrwt>
<rscale>  0 0.49060537E+03</rscale>
<asrwt>0</asrwt>
<pdfrwt beam="1">  1        2 0.78683035E-01 0.49060537E+03</pdfrwt>
<pdfrwt beam="2">  1       -2 0.18100759E-01 0.49060537E+03</pdfrwt>
<totfact> 0.15210814E+03</totfact>
</mgrwt>
</event>
<event>
 9    1  0.7984035E-001  0.2749726E+03  0.7818608E-02  0.1098467E+00
          4   -1    0    0  501    0  0.00000000000E+00  0.00000000000E+00  0.88056973657E+03  0.88056973657E+03  0.00000000000E+00 0. -1.
         -4   -1    0    0    0  501 -0.00000000000E+00 -0.00000000000E+00 -0.21466197453E+02  0.21466197453E+02  0.00000000000E+00 0. -1.
         35    2    1    2    0    0  0.71054273576E-14  0.00000000000E+00  0.85910353911E+03  0.90203593402E+03  0.27497260835E+03 0.  0.
         25    2    3    3    0    0  0.18087805650E+02 -0.50203034855E+02  0.50492672503E+03  0.52237339415E+03  0.12278213162E+03 0.  0.
         25    2    3    3    0    0 -0.18087805650E+02  0.50203034855E+02  0.35417681408E+03  0.37966253986E+03  0.12591630205E+03 0.  0.
          5    1    4    4  502    0  0.47702995979E+02 -0.65623626568E+02  0.45452573770E+03  0.46173344304E+03  0.47000000000E+01 0. -1.
         -5    1    4    4    0  502 -0.29615190328E+02  0.15420591713E+02  0.50400987328E+02  0.60639951110E+02  0.47000000000E+01 0. -1.
          5    1    5    5  503    0  0.20044927413E+02 -0.28174726170E+02  0.37710599218E+02  0.51378921778E+02  0.47000000000E+01 0.  1.
         -5    1    5    5    0  503 -0.38132733063E+02  0.78377761025E+02  0.31646621486E+03  0.32828361809E+03  0.47000000000E+01 0.  1.
<mgrwt>
<rscale>  0 0.27497261E+03</rscale>
<asrwt>0</asrwt>
<pdfrwt beam="1">  1        4 0.13547224E+00 0.27497261E+03</pdfrwt>
<pdfrwt beam="2">  1       -4 0.33024926E-02 0.27497261E+03</pdfrwt>
<totfact> 0.35576128E+02</totfact>
</mgrwt>
</event>
<event>
 9    1  0.7984035E-001  0.2786094E+03  0.7818608E-02  0.1096451E+00
          1   -1    0    0  501    0  0.00000000000E+00  0.00000000000E+00  0.52851409574E+02  0.52851409574E+02  0.00000000000E+00 0. -1.
         -1   -1    0    0    0  501 -0.00000000000E+00 -0.00000000000E+00 -0.36717659144E+03  0.36717659144E+03  0.00000000000E+00 0. -1.
         35    2    1    2    0    0  0.35527136788E-14  0.71054273576E-14 -0.31432518186E+03  0.42002800101E+03  0.27860940702E+03 0.  0.
         25    2    3    3    0    0  0.27019611791E+02  0.23884862209E+02 -0.83228151491E+02  0.15463579110E+03  0.12523879839E+03 0.  0.
         25    2    3    3    0    0 -0.27019611791E+02 -0.23884862209E+02 -0.23109703037E+03  0.26539220992E+03  0.12540590725E+03 0.  0.
          5    1    4    4  502    0  0.20344883717E+02  0.15182100552E+02 -0.11648057968E+03  0.11930727519E+03  0.47000000000E+01 0. -1.
         -5    1    4    4    0  502  0.66747280735E+01  0.87027616565E+01  0.33252428192E+02  0.35328515904E+02  0.47000000000E+01 0. -1.
          5    1    5    5  503    0 -0.41091284518E+02  0.11907546589E+02 -0.22127433584E+03  0.22542117254E+03  0.47000000000E+01 0.  1.
         -5    1    5    5    0  503  0.14071672727E+02 -0.35792408798E+02 -0.98226945353E+01  0.39971037375E+02  0.47000000000E+01 0.  1.
<mgrwt>
<rscale>  0 0.27860941E+03</rscale>
<asrwt>0</asrwt>
<pdfrwt beam="1">  1        1 0.81309861E-02 0.27860941E+03</pdfrwt>
<pdfrwt beam="2">  1       -1 0.56488707E-01 0.27860941E+03</pdfrwt>
<totfact> 0.27679766E+03</totfact>
</mgrwt>
</event>
<event>
 9    1  0.7984035E-001  0.2819824E+03  0.7818608E-02  0.1094611E+00
         -1   -1    0    0    0  501 -0.00000000000E+00  0.00000000000E+00  0.94121351516E+01  0.94121351516E+01  0.00000000000E+00 0.  1.
          1   -1    0    0  501    0  0.00000000000E+00 -0.00000000000E+00 -0.21120100026E+04  0.21120100026E+04  0.00000000000E+00 0.  1.
         35    2    1    2    0    0 -0.71054273576E-14  0.00000000000E+00 -0.21025978674E+04  0.21214221377E+04  0.28198243623E+03 0.  0.
         25    2    3    3    0    0  0.58475462167E+02 -0.27524716672E+02 -0.10826057053E+04  0.10918101268E+04  0.12584613658E+03 0.  0.
         25    2    3    3    0    0 -0.58475462167E+02  0.27524716672E+02 -0.10199921621E+04  0.10296120109E+04  0.12465910550E+03 0.  0.
          5    1    4    4  502    0  0.62907313203E+02 -0.68015721222E+02 -0.56322499991E+03  0.57081341866E+03  0.47000000000E+01 0.  1.
         -5    1    4    4    0  502 -0.44318510361E+01  0.40491004551E+02 -0.51938070536E+03  0.52099670810E+03  0.47000000000E+01 0.  1.
          5    1    5    5  503    0 -0.81461841587E+00  0.68969207159E+02 -0.48157127707E+03  0.48650837612E+03  0.47000000000E+01 0. -1.
         -5    1    5    5    0  503 -0.57660843751E+02 -0.41444490487E+02 -0.53842088506E+03  0.54310363483E+03  0.47000000000E+01 0. -1.
<mgrwt>
<rscale>  0 0.28198244E+03</rscale>
<asrwt>0</asrwt>
<pdfrwt beam="1">  1        1 0.32492440E+00 0.28198244E+03</pdfrwt>
<pdfrwt beam="2">  1       -1 0.14480218E-02 0.28198244E+03</pdfrwt>
<totfact> 0.31340085E+03</totfact>
</mgrwt>
</event>
<event>
 9    1  0.7984035E-001  0.2773938E+03  0.7818608E-02  0.1097121E+00
          1   -1    0    0  501    0  0.00000000000E+00  0.00000000000E+00  0.81426819605E+02  0.81426819605E+02  0.00000000000E+00 0.  1.
         -1   -1    0    0    0  501 -0.00000000000E+00 -0.00000000000E+00 -0.23624688393E+03  0.23624688393E+03  0.00000000000E+00 0.  1.
         35    2    1    2    0    0  0.71054273576E-14  0.00000000000E+00 -0.15482006432E+03  0.31767370353E+03  0.27739381680E+03 0.  0.
         25    2    3    3    0    0  0.78889626756E+01  0.29441153219E+02 -0.13601343385E+03  0.18730716751E+03  0.12512115561E+03 0.  0.
         25    2    3    3    0    0 -0.78889626756E+01 -0.29441153219E+02 -0.18806630479E+02  0.13036653602E+03  0.12535041735E+03 0.  0.
          5    1    4    4  502    0  0.64222258796E+02  0.12182933453E+00 -0.78174126495E+02  0.10128078505E+03  0.47000000000E+01 0. -1.
         -5    1    4    4    0  502 -0.56333296120E+02  0.29319323884E+02 -0.57839307350E+02  0.86026382462E+02  0.47000000000E+01 0. -1.
          5    1    5    5  503    0  0.24642721522E+02  0.42797551140E+02 -0.58806431856E+01  0.49955641041E+02  0.47000000000E+01 0.  1.
         -5    1    5    5    0  503 -0.32531684197E+02 -0.72238704358E+02 -0.12925987293E+02  0.80410894980E+02  0.47000000000E+01 0.  1.
<mgrwt>
<rscale>  0 0.27739382E+03</rscale>
<asrwt>0</asrwt>
<pdfrwt beam="1">  1        1 0.12527203E-01 0.27739382E+03</pdfrwt>
<pdfrwt beam="2">  1       -1 0.36345674E-01 0.27739382E+03</pdfrwt>
<totfact> 0.34513493E+03</totfact>
</mgrwt>
</event>
<event>
 9    1  0.7984035E-001  0.2801162E+03  0.7818608E-02  0.1095625E+00
          1   -1    0    0  501    0  0.00000000000E+00  0.00000000000E+00  0.19247525174E+04  0.19247525174E+04  0.00000000000E+00 0.  1.
         -1   -1    0    0    0  501 -0.00000000000E+00 -0.00000000000E+00 -0.10191581766E+02  0.10191581766E+02  0.00000000000E+00 0.  1.
         35    2    1    2    0    0  0.71054273576E-14  0.14210854715E-13  0.19145609356E+04  0.19349440992E+04  0.28011620918E+03 0.  0.
         25    2    3    3    0    0  0.21005176524E+02 -0.53577431977E+02  0.76600739937E+03  0.77821592277E+03  0.12466325807E+03 0.  0.
         25    2    3    3    0    0 -0.21005176524E+02  0.53577431977E+02  0.11485535363E+04  0.11567281764E+04  0.12463181671E+03 0.  0.
          5    1    4    4  502    0  0.59872149461E+02  0.39090287543E+01  0.48543086893E+03  0.48914739424E+03  0.47000000000E+01 0. -1.
         -5    1    4    4    0  502 -0.38866972937E+02 -0.57486460731E+02  0.28057653044E+03  0.28906852853E+03  0.47000000000E+01 0. -1.
          5    1    5    5  503    0 -0.30825936941E+02 -0.98032953759E+01  0.82539606519E+02  0.88776233491E+02  0.47000000000E+01 0. -1.
         -5    1    5    5    0  503  0.98207604170E+01  0.63380727352E+02  0.10660139297E+04  0.10679519429E+04  0.47000000000E+01 0. -1.
<mgrwt>
<rscale>  0 0.28011621E+03</rscale>
<asrwt>0</asrwt>
<pdfrwt beam="1">  1        1 0.29611548E+00 0.28011621E+03</pdfrwt>
<pdfrwt beam="2">  1       -1 0.15679372E-02 0.28011621E+03</pdfrwt>
<totfact> 0.36942539E+03</totfact>
</mgrwt>
</event>
<event>
 9    1  0.7984035E-001  0.2745805E+03  0.7818608E-02  0.1098686E+00
          2   -1    0    0  501    0  0.00000000000E+00  0.00000000000E+00  0.15298759048E+03  0.15298759048E+03  0.00000000000E+00 0.  1.
         -2   -1    0    0    0  501 -0.00000000000E+00 -0.00000000000E+00 -0.12320353130E+03  0.12320353130E+03  0.00000000000E+00 0.  1.
         35    2    1    2    0    0  0.00000000000E+00 -0.71054273576E-14  0.29784059185E+02  0.27619112178E+03  0.27458049014E+03 0.  0.
         25    2    3    3    0    0  0.31654890711E+02  0.49512074348E+02  0.33077666652E+02  0.14144265218E+03  0.12433187127E+03 0.  0.
         25    2    3    3    0    0 -0.31654890711E+02 -0.49512074348E+02 -0.32936074669E+01  0.13474846960E+03  0.12121396205E+03 0.  0.
          5    1    4    4  502    0  0.76730652188E+01  0.35996312240E+02  0.79236356221E+02  0.87493431593E+02  0.47000000000E+01 0.  1.
         -5    1    4    4    0  502  0.23981825492E+02  0.13515762107E+02 -0.46158689570E+02  0.53949220588E+02  0.47000000000E+01 0.  1.
          5    1    5    5  503    0 -0.10444698328E+02  0.39230983776E+02 -0.12961529519E+02  0.42874853454E+02  0.47000000000E+01 0. -1.
         -5    1    5    5    0  503 -0.21210192384E+02 -0.88743058124E+02  0.96679220526E+01  0.91873616142E+02  0.47000000000E+01 0. -1.
<mgrwt>
<rscale>  0 0.27458049E+03</rscale>
<asrwt>0</asrwt>
<pdfrwt beam="1">  1        2 0.23536553E-01 0.27458049E+03</pdfrwt>
<pdfrwt beam="2">  1       -2 0.18954389E-01 0.27458049E+03</pdfrwt>
<totfact> 0.52725553E+03</totfact>
</mgrwt>
</event>
<event>
 9    1  0.7984035E-001  0.2765385E+03  0.7818608E-02  0.1097595E+00
          1   -1    0    0  501    0  0.00000000000E+00  0.00000000000E+00  0.36832578547E+03  0.36832578547E+03  0.00000000000E+00 0.  1.
         -1   -1    0    0    0  501 -0.00000000000E+00 -0.00000000000E+00 -0.51906163920E+02  0.51906163920E+02  0.00000000000E+00 0.  1.
         35    2    1    2    0    0  0.53290705182E-14 -0.71054273576E-14  0.31641962155E+03  0.42023194939E+03  0.27653845010E+03 0.  0.
         25    2    3    3    0    0  0.67557901523E+01  0.33319330719E+02  0.21212769046E+03  0.24831120933E+03  0.12451699130E+03 0.  0.
         25    2    3    3    0    0 -0.67557901523E+01 -0.33319330719E+02  0.10429193109E+03  0.17192074005E+03  0.13237868208E+03 0.  0.
          5    1    4    4  502    0  0.16238797908E+02  0.49733439335E+02  0.21617386541E+02  0.56802420252E+02  0.47000000000E+01 0.  1.
         -5    1    4    4    0  502 -0.94830077562E+01 -0.16414108617E+02  0.19051030392E+03  0.19150878908E+03  0.47000000000E+01 0.  1.
          5    1    5    5  503    0  0.31240122718E+02 -0.97680273302E+01 -0.20754435547E+02  0.39040955678E+02  0.47000000000E+01 0. -1.
         -5    1    5    5    0  503 -0.37995912870E+02 -0.23551303389E+02  0.12504636664E+03  0.13287978438E+03  0.47000000000E+01 0. -1.
<mgrwt>
<rscale>  0 0.27653845E+03</rscale>
<asrwt>0</asrwt>
<pdfrwt beam="1">  1        1 0.56665504E-01 0.27653845E+03</pdfrwt>
<pdfrwt beam="2">  1       -1 0.79855639E-02 0.27653845E+03</pdfrwt>
<totfact> 0.57858295E+03</totfact>
</mgrwt>
</event>
<event>
 9    1  0.7984035E-001  0.2752268E+03  0.7818608E-02  0.1098325E+00
         -1   -1    0    0    0  501 -0.00000000000E+00  0.00000000000E+00  0.59820343371E+02  0.59820343371E+02  0.00000000000E+00 0.  1.
          1   -1    0    0  501    0  0.00000000000E+00 -0.00000000000E+00 -0.31657208172E+03  0.31657208172E+03  0.00000000000E+00 0.  1.
         35    2    1    2    0    0  0.00000000000E+00 -0.71054273576E-14 -0.25675173835E+03  0.37639242509E+03  0.27522682013E+03 0.  0.
         25    2    3    3    0    0 -0.42151184437E+02 -0.35581481494E+02 -0.14266032574E+03  0.19793643741E+03  0.12563479033E+03 0.  0.
         25    2    3    3    0    0  0.42151184437E+02  0.35581481494E+02 -0.11409141261E+03  0.17845598768E+03  0.12564603031E+03 0.  0.
          5    1    4    4  502    0 -0.32933012686E+02  0.29089169120E+02 -0.37365769350E+01  0.44348789069E+02  0.47000000000E+01 0. -1.
         -5    1    4    4    0  502 -0.92181717512E+01 -0.64670650613E+02 -0.13892374881E+03  0.15358764835E+03  0.47000000000E+01 0. -1.
          5    1    5    5  503    0 -0.82039258788E+01  0.73288031367E+02 -0.56246125581E+02  0.92866337197E+02  0.47000000000E+01 0. -1.
         -5    1    5    5    0  503  0.50355110316E+02 -0.37706549873E+02 -0.57845287026E+02  0.85589650481E+02  0.47000000000E+01 0. -1.
<mgrwt>
<rscale>  0 0.27522682E+03</rscale>
<asrwt>0</asrwt>
<pdfrwt beam="1">  1        1 0.48703399E-01 0.27522682E+03</pdfrwt>
<pdfrwt beam="2">  1       -1 0.92031295E-02 0.27522682E+03</pdfrwt>
<totfact> 0.56377842E+03</totfact>
</mgrwt>
</event>
<event>
 9    1  0.7984035E-001  0.2705605E+03  0.7818608E-02  0.1100959E+00
         -3   -1    0    0    0  501 -0.00000000000E+00  0.00000000000E+00  0.58887023256E+03  0.58887023256E+03  0.00000000000E+00 0. -1.
          3   -1    0    0  501    0  0.00000000000E+00 -0.00000000000E+00 -0.31077724657E+02  0.31077724657E+02  0.00000000000E+00 0. -1.
         35    2    1    2    0    0 -0.71054273576E-14  0.10658141036E-13  0.55779250791E+03  0.61994795722E+03  0.27056050670E+03 0.  0.
         25    2    3    3    0    0  0.44042126899E+02 -0.15212607374E+02  0.33391000472E+03  0.35943136384E+03  0.12459487026E+03 0.  0.
         25    2    3    3    0    0 -0.44042126899E+02  0.15212607374E+02  0.22388250319E+03  0.26051659338E+03  0.12479738710E+03 0.  0.
          5    1    4    4  502    0 -0.27967255386E+01 -0.59056996609E+02  0.22735261358E+03  0.23496138284E+03  0.47000000000E+01 0. -1.
         -5    1    4    4    0  502  0.46838852438E+02  0.43844389235E+02  0.10655739114E+03  0.12446998100E+03  0.47000000000E+01 0. -1.
          5    1    5    5  503    0 -0.81330178894E+02  0.26232189030E+02  0.10564955336E+03  0.13596559809E+03  0.47000000000E+01 0.  1.
         -5    1    5    5    0  503  0.37288051994E+02 -0.11019581656E+02  0.11823294983E+03  0.12455099529E+03  0.47000000000E+01 0.  1.
<mgrwt>
<rscale>  0 0.27056051E+03</rscale>
<asrwt>0</asrwt>
<pdfrwt beam="1">  1        3 0.47811888E-02 0.27056051E+03</pdfrwt>
<pdfrwt beam="2">  1       -3 0.90595412E-01 0.27056051E+03</pdfrwt>
<totfact> 0.70236394E+02</totfact>
</mgrwt>
</event>
<event>
 9    1  0.7984035E-001  0.2790084E+03  0.7818608E-02  0.1096232E+00
          4   -1    0    0  501    0  0.00000000000E+00  0.00000000000E+00  0.63299912330E+02  0.63299912330E+02  0.00000000000E+00 0. -1.
         -4   -1    0    0    0  501 -0.00000000000E+00 -0.00000000000E+00 -0.30744786549E+03  0.30744786549E+03  0.00000000000E+00 0. -1.
         35    2    1    2    0    0  0.71054273576E-14  0.00000000000E+00 -0.24414795316E+03  0.37074777782E+03  0.27900840798E+03 0.  0.
         25    2    3    3    0    0 -0.39375763318E+02  0.33999104422E+02 -0.74628916769E+02  0.15360838741E+03  0.12377266106E+03 0.  0.
         25    2    3    3    0    0  0.39375763318E+02 -0.33999104422E+02 -0.16951903639E+03  0.21713939041E+03  0.12532526214E+03 0.  0.
          5    1    4    4  502    0  0.34044743768E+02  0.12993956531E+02  0.11408350520E+02  0.38472430988E+02  0.47000000000E+01 0.  1.
         -5    1    4    4    0  502 -0.73420507086E+02  0.21005147891E+02 -0.86037267289E+02  0.11513595642E+03  0.47000000000E+01 0.  1.
          5    1    5    5  503    0  0.36961431612E+02  0.40876431941E+02 -0.10269466417E+03  0.11664181996E+03  0.47000000000E+01 0.  1.
         -5    1    5    5    0  503  0.24143317062E+01 -0.74875536363E+02 -0.66824372221E+02  0.10049757045E+03  0.47000000000E+01 0.  1.
<mgrwt>
<rscale>  0 0.27900841E+03</rscale>
<asrwt>0</asrwt>
<pdfrwt beam="1">  1        4 0.97384478E-02 0.27900841E+03</pdfrwt>
<pdfrwt beam="2">  1       -4 0.47299673E-01 0.27900841E+03</pdfrwt>
<totfact> 0.64757469E+02</totfact>
</mgrwt>
</event>
<event>
 9    1  0.7984035E-001  0.2728983E+03  0.7818608E-02  0.1099632E+00
          2   -1    0    0  501    0  0.00000000000E+00  0.00000000000E+00  0.54882756554E+03  0.54882756554E+03  0.00000000000E+00 0.  1.
         -2   -1    0    0    0  501 -0.00000000000E+00 -0.00000000000E+00 -0.33923902222E+02  0.33923902222E+02  0.00000000000E+00 0.  1.
         35    2    1    2    0    0  0.00000000000E+00  0.00000000000E+00  0.51490366332E+03  0.58275146776E+03  0.27289831564E+03 0.  0.
         25    2    3    3    0    0 -0.28171880800E+02 -0.43833624441E+02  0.30010127700E+03  0.32886254574E+03  0.12399498390E+03 0.  0.
         25    2    3    3    0    0  0.28171880800E+02  0.43833624441E+02  0.21480238631E+03  0.25388892202E+03  0.12491788527E+03 0.  0.
          5    1    4    4  502    0 -0.28570761419E+02  0.40298654111E+02  0.12671495479E+03  0.13608467841E+03  0.47000000000E+01 0. -1.
         -5    1    4    4    0  502  0.39888061954E+00 -0.84132278552E+02  0.17338632221E+03  0.19277786733E+03  0.47000000000E+01 0. -1.
          5    1    5    5  503    0  0.22777551645E+02  0.65433003790E+02  0.21987180876E+03  0.23057752955E+03  0.47000000000E+01 0.  1.
         -5    1    5    5    0  503  0.53943291548E+01 -0.21599379350E+02 -0.50694224454E+01  0.23311392478E+02  0.47000000000E+01 0.  1.
<mgrwt>
<rscale>  0 0.27289832E+03</rscale>
<asrwt>0</asrwt>
<pdfrwt beam="1">  1        2 0.84435004E-01 0.27289832E+03</pdfrwt>
<pdfrwt beam="2">  1       -2 0.52190623E-02 0.27289832E+03</pdfrwt>
<totfact> 0.10204940E+04</totfact>
</mgrwt>
</event>
<event>
 9    1  0.7984035E-001  0.2747903E+03  0.7818608E-02  0.1098569E+00
         -2   -1    0    0    0  501 -0.00000000000E+00  0.00000000000E+00  0.42431713674E+02  0.42431713674E+02  0.00000000000E+00 0.  1.
          2   -1    0    0  501    0  0.00000000000E+00 -0.00000000000E+00 -0.44488946352E+03  0.44488946352E+03  0.00000000000E+00 0.  1.
         35    2    1    2    0    0  0.00000000000E+00 -0.88817841970E-15 -0.40245774984E+03  0.48732117719E+03  0.27479026426E+03 0.  0.
         25    2    3    3    0    0  0.18247273583E+02  0.11365680626E+01 -0.29528910127E+03  0.32137894901E+03  0.12551701380E+03 0.  0.
         25    2    3    3    0    0 -0.18247273583E+02 -0.11365680626E+01 -0.10716864857E+03  0.16594222819E+03  0.12536925093E+03 0.  0.
          5    1    4    4  502    0 -0.54035307113E+02  0.33739135383E+01 -0.12323261120E+03  0.13468319929E+03  0.47000000000E+01 0. -1.
         -5    1    4    4    0  502  0.72282580696E+02 -0.22373454757E+01 -0.17205649007E+03  0.18669574972E+03  0.47000000000E+01 0. -1.
          5    1    5    5  503    0 -0.70288440598E+02  0.14141208345E+02 -0.54366828429E+02  0.90101502143E+02  0.47000000000E+01 0.  1.
         -5    1    5    5    0  503  0.52041167015E+02 -0.15277776407E+02 -0.52801820142E+02  0.75840726042E+02  0.47000000000E+01 0.  1.
<mgrwt>
<rscale>  0 0.27479026E+03</rscale>
<asrwt>0</asrwt>
<pdfrwt beam="1">  1        2 0.68444537E-01 0.27479026E+03</pdfrwt>
<pdfrwt beam="2">  1       -2 0.65279556E-02 0.27479026E+03</pdfrwt>
<totfact> 0.91605327E+03</totfact>
</mgrwt>
</event>
<event>
 9    1  0.7984035E-001  0.2968046E+03  0.7818608E-02  0.1086849E+00
          1   -1    0    0  501    0  0.00000000000E+00  0.00000000000E+00  0.81318339655E+02  0.81318339655E+02  0.00000000000E+00 0. -1.
         -1   -1    0    0    0  501 -0.00000000000E+00 -0.00000000000E+00 -0.27082752605E+03  0.27082752605E+03  0.00000000000E+00 0. -1.
         35    2    1    2    0    0  0.71054273576E-14 -0.35527136788E-14 -0.18950918640E+03  0.35214586571E+03  0.29680461419E+03 0.  0.
         25    2    3    3    0    0 -0.44527200105E+02  0.50951591366E+01 -0.18586680820E+02  0.13288654550E+03  0.12371231578E+03 0.  0.
         25    2    3    3    0    0  0.44527200105E+02 -0.50951591366E+01 -0.17092250558E+03  0.21925932021E+03  0.12981338294E+03 0.  0.
          5    1    4    4  502    0 -0.70242184943E+02 -0.35708669317E+02  0.47910963634E+01  0.79082983089E+02  0.47000000000E+01 0. -1.
         -5    1    4    4    0  502  0.25714984838E+02  0.40803828454E+02 -0.23377777184E+02  0.53803562408E+02  0.47000000000E+01 0. -1.
          5    1    5    5  503    0 -0.17461386810E+01 -0.27961758023E+02 -0.16461527098E+03  0.16704845510E+03  0.47000000000E+01 0. -1.
         -5    1    5    5    0  503  0.46273338786E+02  0.22866598887E+02 -0.63072345973E+01  0.52210865108E+02  0.47000000000E+01 0. -1.
<mgrwt>
<rscale>  0 0.29680461E+03</rscale>
<asrwt>0</asrwt>
<pdfrwt beam="1">  1        1 0.12510514E-01 0.29680461E+03</pdfrwt>
<pdfrwt beam="2">  1       -1 0.41665773E-01 0.29680461E+03</pdfrwt>
<totfact> 0.27194649E+03</totfact>
</mgrwt>
</event>
<event>
 9    1  0.7984035E-001  0.2768241E+03  0.7818608E-02  0.1097436E+00
          2   -1    0    0  501    0  0.00000000000E+00  0.00000000000E+00  0.61026318231E+03  0.61026318231E+03  0.00000000000E+00 0. -1.
         -2   -1    0    0    0  501 -0.00000000000E+00 -0.00000000000E+00 -0.31392837607E+02  0.31392837607E+02  0.00000000000E+00 0. -1.
         35    2    1    2    0    0  0.35527136788E-14  0.35527136788E-14  0.57887034470E+03  0.64165601992E+03  0.27682408118E+03 0.  0.
         25    2    3    3    0    0 -0.26116240013E+02 -0.11595804850E+02  0.16862954028E+03  0.21190103882E+03  0.12509839213E+03 0.  0.
         25    2    3    3    0    0  0.26116240013E+02  0.11595804850E+02  0.41024080442E+03  0.42975498110E+03  0.12480106363E+03 0.  0.
          5    1    4    4  502    0  0.32418392545E+02 -0.44834347610E+02  0.10683848625E+03  0.12040607561E+03  0.47000000000E+01 0.  1.
         -5    1    4    4    0  502 -0.58534632558E+02  0.33238542760E+02  0.61791054034E+02  0.91494963206E+02  0.47000000000E+01 0.  1.
          5    1    5    5  503    0  0.37619169553E+02 -0.25584376935E+02  0.37263768215E+03  0.37543400808E+03  0.47000000000E+01 0. -1.
         -5    1    5    5    0  503 -0.11502929540E+02  0.37180181785E+02  0.37603122269E+02  0.54320973021E+02  0.47000000000E+01 0. -1.
<mgrwt>
<rscale>  0 0.27682408E+03</rscale>
<asrwt>0</asrwt>
<pdfrwt beam="1">  1        2 0.93886635E-01 0.27682408E+03</pdfrwt>
<pdfrwt beam="2">  1       -2 0.48296678E-02 0.27682408E+03</pdfrwt>
<totfact> 0.10166180E+04</totfact>
</mgrwt>
</event>
<event>
 9    1  0.7984035E-001  0.2736731E+03  0.7818608E-02  0.1099196E+00
         -1   -1    0    0    0  501 -0.00000000000E+00  0.00000000000E+00  0.27568628511E+03  0.27568628511E+03  0.00000000000E+00 0. -1.
          1   -1    0    0  501    0  0.00000000000E+00 -0.00000000000E+00 -0.67918637335E+02  0.67918637335E+02  0.00000000000E+00 0. -1.
         35    2    1    2    0    0  0.71054273576E-14  0.00000000000E+00  0.20776764778E+03  0.34360492245E+03  0.27367306639E+03 0.  0.
         25    2    3    3    0    0 -0.43868727414E+02  0.13634507771E+02  0.14757307711E+03  0.19856247787E+03  0.12465504196E+03 0.  0.
         25    2    3    3    0    0  0.43868727414E+02 -0.13634507771E+02  0.60194570673E+02  0.14504244458E+03  0.12370755573E+03 0.  0.
          5    1    4    4  502    0  0.13696541996E+02  0.36255564107E+02  0.60975339977E+00  0.39045140422E+02  0.47000000000E+01 0. -1.
         -5    1    4    4    0  502 -0.57565269410E+02 -0.22621056337E+02  0.14696332371E+03  0.15951733745E+03  0.47000000000E+01 0. -1.
          5    1    5    5  503    0  0.38271873208E+02 -0.66164047058E+02  0.48767810271E+02  0.90789904288E+02  0.47000000000E+01 0. -1.
         -5    1    5    5    0  503  0.55968542055E+01  0.52529539287E+02  0.11426760401E+02  0.54252540290E+02  0.47000000000E+01 0. -1.
<mgrwt>
<rscale>  0 0.27367307E+03</rscale>
<asrwt>0</asrwt>
<pdfrwt beam="1">  1        1 0.10449021E-01 0.27367307E+03</pdfrwt>
<pdfrwt beam="2">  1       -1 0.42413274E-01 0.27367307E+03</pdfrwt>
<totfact> 0.33437748E+03</totfact>
</mgrwt>
</event>
<event>
 9    1  0.7984035E-001  0.2756997E+03  0.7818608E-02  0.1098061E+00
          2   -1    0    0  501    0  0.00000000000E+00  0.00000000000E+00  0.84632355314E+03  0.84632355314E+03  0.00000000000E+00 0. -1.
         -2   -1    0    0    0  501 -0.00000000000E+00 -0.00000000000E+00 -0.22453095575E+02  0.22453095575E+02  0.00000000000E+00 0. -1.
         35    2    1    2    0    0  0.00000000000E+00 -0.17763568394E-14  0.82387045756E+03  0.86877664871E+03  0.27569971800E+03 0.  0.
         25    2    3    3    0    0 -0.57510843675E+02 -0.99523047801E+01  0.37761853865E+03  0.40183077885E+03  0.12436104128E+03 0.  0.
         25    2    3    3    0    0  0.57510843675E+02  0.99523047801E+01  0.44625191891E+03  0.46694586986E+03  0.12446334697E+03 0.  0.
          5    1    4    4  502    0 -0.38336404137E+02  0.81903554970E+01  0.21990258649E+02  0.45193177370E+02  0.47000000000E+01 0.  1.
         -5    1    4    4    0  502 -0.19174439538E+02 -0.18142660277E+02  0.35562828000E+03  0.35663760148E+03  0.47000000000E+01 0.  1.
          5    1    5    5  503    0 -0.20183815574E+00 -0.48973273633E+02  0.10682711749E+03  0.11761184167E+03  0.47000000000E+01 0. -1.
         -5    1    5    5    0  503  0.57712681830E+02  0.58925578413E+02  0.33942480141E+03  0.34933402819E+03  0.47000000000E+01 0. -1.
<mgrwt>
<rscale>  0 0.27569972E+03</rscale>
<asrwt>0</asrwt>
<pdfrwt beam="1">  1        2 0.13020360E+00 0.27569972E+03</pdfrwt>
<pdfrwt beam="2">  1       -2 0.34543230E-02 0.27569972E+03</pdfrwt>
<totfact> 0.11270223E+04</totfact>
</mgrwt>
</event>
<event>
 9    1  0.7984035E-001  0.2778781E+03  0.7818608E-02  0.1096854E+00
          2   -1    0    0  501    0  0.00000000000E+00  0.00000000000E+00  0.52750639614E+03  0.52750639614E+03  0.00000000000E+00 0.  1.
         -2   -1    0    0    0  501 -0.00000000000E+00 -0.00000000000E+00 -0.36594923160E+02  0.36594923160E+02  0.00000000000E+00 0.  1.
         35    2    1    2    0    0  0.00000000000E+00  0.00000000000E+00  0.49091147298E+03  0.56410131930E+03  0.27787807422E+03 0.  0.
         25    2    3    3    0    0 -0.22684377449E+02 -0.51704226479E+02  0.29919035423E+03  0.32951789418E+03  0.12601296166E+03 0.  0.
         25    2    3    3    0    0  0.22684377449E+02  0.51704226479E+02  0.19172111875E+03  0.23458342512E+03  0.12281892341E+03 0.  0.
          5    1    4    4  502    0 -0.19987515450E+02  0.18434566182E+02  0.63082754598E+01  0.28305800527E+02  0.47000000000E+01 0. -1.
         -5    1    4    4    0  502 -0.26968619996E+01 -0.70138792661E+02  0.29288207877E+03  0.30121209366E+03  0.47000000000E+01 0. -1.
          5    1    5    5  503    0 -0.69844393148E+01  0.38458185068E+02 -0.70673090018E+00  0.39375168061E+02  0.47000000000E+01 0. -1.
         -5    1    5    5    0  503  0.29668816764E+02  0.13246041411E+02  0.19242784965E+03  0.19520825706E+03  0.47000000000E+01 0. -1.
<mgrwt>
<rscale>  0 0.27787807E+03</rscale>
<asrwt>0</asrwt>
<pdfrwt beam="1">  1        2 0.81154824E-01 0.27787807E+03</pdfrwt>
<pdfrwt beam="2">  1       -2 0.56299886E-02 0.27787807E+03</pdfrwt>
<totfact> 0.95147899E+03</totfact>
</mgrwt>
</event>
<event>
 9    1  0.7984035E-001  0.2722300E+03  0.7818608E-02  0.1100010E+00
         -2   -1    0    0    0  501 -0.00000000000E+00  0.00000000000E+00  0.56508822995E+01  0.56508822995E+01  0.00000000000E+00 0. -1.
          2   -1    0    0  501    0  0.00000000000E+00 -0.00000000000E+00 -0.32786557344E+04  0.32786557344E+04  0.00000000000E+00 0. -1.
         35    2    1    2    0    0  0.00000000000E+00 -0.71054273576E-14 -0.32730048521E+04  0.32843066167E+04  0.27223003255E+03 0.  0.
         25    2    3    3    0    0 -0.12785029964E+02  0.41528632852E+02 -0.20404045195E+04  0.20446839899E+04  0.12487566305E+03 0.  0.
         25    2    3    3    0    0  0.12785029964E+02 -0.41528632852E+02 -0.12326003326E+04  0.12396226267E+04  0.12438887605E+03 0.  0.
          5    1    4    4  502    0 -0.53839488465E+02  0.19307729121E+02 -0.45766362935E+03  0.46124783636E+03  0.47000000000E+01 0. -1.
         -5    1    4    4    0  502  0.41054458500E+02  0.22220903731E+02 -0.15827408901E+04  0.15834361536E+04  0.47000000000E+01 0. -1.
          5    1    5    5  503    0  0.23280616677E+02 -0.74665593492E+02 -0.49267581847E+03  0.49886720685E+03  0.47000000000E+01 0. -1.
         -5    1    5    5    0  503 -0.10495586713E+02  0.33136960640E+02 -0.73992451412E+03  0.74075541989E+03  0.47000000000E+01 0. -1.
<mgrwt>
<rscale>  0 0.27223003E+03</rscale>
<asrwt>0</asrwt>
<pdfrwt beam="1">  1        2 0.50440853E+00 0.27223003E+03</pdfrwt>
<pdfrwt beam="2">  1       -2 0.86936658E-03 0.27223003E+03</pdfrwt>
<totfact> 0.36817868E+03</totfact>
</mgrwt>
</event>
<event>
 9    1  0.7984035E-001  0.2741001E+03  0.7818608E-02  0.1098956E+00
          1   -1    0    0  501    0  0.00000000000E+00  0.00000000000E+00  0.29864078662E+03  0.29864078662E+03  0.00000000000E+00 0. -1.
         -1   -1    0    0    0  501 -0.00000000000E+00 -0.00000000000E+00 -0.62894004407E+02  0.62894004407E+02  0.00000000000E+00 0. -1.
         35    2    1    2    0    0  0.71054273576E-14  0.00000000000E+00  0.23574678221E+03  0.36153479102E+03  0.27410009084E+03 0.  0.
         25    2    3    3    0    0 -0.35734298278E+02 -0.37096953695E+02  0.88228169159E+02  0.16168623262E+03  0.12532000615E+03 0.  0.
         25    2    3    3    0    0  0.35734298278E+02  0.37096953695E+02  0.14751861305E+03  0.19984855840E+03  0.12459767675E+03 0.  0.
          5    1    4    4  502    0 -0.40589697644E+02 -0.76284006448E+02  0.30844245852E+02  0.91870728183E+02  0.47000000000E+01 0.  1.
         -5    1    4    4    0  502  0.48553993663E+01  0.39187052752E+02  0.57383923307E+02  0.69815504442E+02  0.47000000000E+01 0.  1.
          5    1    5    5  503    0 -0.12531285061E+02  0.37372666475E+02 -0.48097611223E+01  0.39987161775E+02  0.47000000000E+01 0.  1.
         -5    1    5    5    0  503  0.48265583339E+02 -0.27571277985E+00  0.15232837417E+03  0.15986139662E+03  0.47000000000E+01 0.  1.
<mgrwt>
<rscale>  0 0.27410009E+03</rscale>
<asrwt>0</asrwt>
<pdfrwt beam="1">  1        1 0.45944736E-01 0.27410009E+03</pdfrwt>
<pdfrwt beam="2">  1       -1 0.96760008E-02 0.27410009E+03</pdfrwt>
<totfact> 0.56157240E+03</totfact>
</mgrwt>
</event>
<event>
 9    1  0.7984035E-001  0.2782891E+03  0.7818608E-02  0.1096627E+00
         -2   -1    0    0    0  501 -0.00000000000E+00  0.00000000000E+00  0.81105815095E+01  0.81105815095E+01  0.00000000000E+00 0. -1.
          2   -1    0    0  501    0  0.00000000000E+00 -0.00000000000E+00 -0.23871539617E+04  0.23871539617E+04  0.00000000000E+00 0. -1.
         35    2    1    2    0    0  0.00000000000E+00  0.00000000000E+00 -0.23790433802E+04  0.23952645432E+04  0.27828910710E+03 0.  0.
         25    2    3    3    0    0 -0.49140383984E+02 -0.36296117597E+02 -0.11550074614E+04  0.11632389298E+04  0.12389667622E+03 0.  0.
         25    2    3    3    0    0  0.49140383984E+02  0.36296117597E+02 -0.12240359188E+04  0.12320256134E+04  0.12605949454E+03 0.  0.
          5    1    4    4  502    0 -0.78096198649E+02  0.13789299731E+02 -0.61075991650E+03  0.61590496559E+03  0.47000000000E+01 0. -1.
         -5    1    4    4    0  502  0.28955814666E+02 -0.50085417328E+02 -0.54424754489E+03  0.54733396418E+03  0.47000000000E+01 0. -1.
          5    1    5    5  503    0  0.19132775434E+02 -0.36928331192E+02 -0.76883174399E+03  0.76997019768E+03  0.47000000000E+01 0. -1.
         -5    1    5    5    0  503  0.30007608550E+02  0.73224448788E+02 -0.45520417478E+03  0.46205541573E+03  0.47000000000E+01 0. -1.
<mgrwt>
<rscale>  0 0.27828911E+03</rscale>
<asrwt>0</asrwt>
<pdfrwt beam="1">  1        2 0.36725458E+00 0.27828911E+03</pdfrwt>
<pdfrwt beam="2">  1       -2 0.12477813E-02 0.27828911E+03</pdfrwt>
<totfact> 0.71357265E+03</totfact>
</mgrwt>
</event>
<event>
 9    1  0.7984035E-001  0.2737286E+03  0.7818608E-02  0.1099164E+00
         -2   -1    0    0    0  501 -0.00000000000E+00  0.00000000000E+00  0.68313306807E+02  0.68313306807E+02  0.00000000000E+00 0.  1.
          2   -1    0    0  501    0  0.00000000000E+00 -0.00000000000E+00 -0.27420478397E+03  0.27420478397E+03  0.00000000000E+00 0.  1.
         35    2    1    2    0    0  0.35527136788E-14  0.00000000000E+00 -0.20589147716E+03  0.34251809077E+03  0.27372859211E+03 0.  0.
         25    2    3    3    0    0  0.24589681978E+02 -0.28958272968E+02 -0.15344494554E+03  0.20101659825E+03  0.12417361808E+03 0.  0.
         25    2    3    3    0    0 -0.24589681978E+02  0.28958272968E+02 -0.52446531615E+02  0.14150149252E+03  0.12581255770E+03 0.  0.
          5    1    4    4  502    0 -0.18525677950E+02  0.40320146849E+02 -0.77596132499E+02  0.89510696368E+02  0.47000000000E+01 0.  1.
         -5    1    4    4    0  502  0.43115359928E+02 -0.69278419818E+02 -0.75848813045E+02  0.11150590188E+03  0.47000000000E+01 0.  1.
          5    1    5    5  503    0  0.92955649463E+01 -0.46964079405E+02 -0.20974602310E+02  0.52479102737E+02  0.47000000000E+01 0.  1.
         -5    1    5    5    0  503 -0.33885246924E+02  0.75922352374E+02 -0.31471929305E+02  0.89022389786E+02  0.47000000000E+01 0.  1.
<mgrwt>
<rscale>  0 0.27372859E+03</rscale>
<asrwt>0</asrwt>
<pdfrwt beam="1">  1        2 0.42185351E-01 0.27372859E+03</pdfrwt>
<pdfrwt beam="2">  1       -2 0.10509740E-01 0.27372859E+03</pdfrwt>
<totfact> 0.73297634E+03</totfact>
</mgrwt>
</event>
<event>
 9    1  0.7984035E-001  0.2747108E+03  0.7818608E-02  0.1098613E+00
          2   -1    0    0  501    0  0.00000000000E+00  0.00000000000E+00  0.96337615025E+03  0.96337615025E+03  0.00000000000E+00 0. -1.
         -2   -1    0    0    0  501 -0.00000000000E+00 -0.00000000000E+00 -0.19583744663E+02  0.19583744663E+02  0.00000000000E+00 0. -1.
         35    2    1    2    0    0  0.35527136788E-14  0.71054273576E-14  0.94379240559E+03  0.98295989492E+03  0.27471084828E+03 0.  0.
         25    2    3    3    0    0 -0.19343954083E+02 -0.43116524945E+02  0.58455421911E+03  0.59960177075E+03  0.12484160013E+03 0.  0.
         25    2    3    3    0    0  0.19343954083E+02  0.43116524945E+02  0.35923818648E+03  0.38335812416E+03  0.12521243331E+03 0.  0.
          5    1    4    4  502    0 -0.36371631773E+02 -0.66350825345E+02  0.54604034791E+03  0.55127804162E+03  0.47000000000E+01 0. -1.
         -5    1    4    4    0  502  0.17027677690E+02  0.23234300400E+02  0.38513871202E+02  0.48323729136E+02  0.47000000000E+01 0. -1.
          5    1    5    5  503    0 -0.38029758636E+02 -0.24121559952E+02  0.11718257985E+03  0.12562626802E+03  0.47000000000E+01 0.  1.
         -5    1    5    5    0  503  0.57373712719E+02  0.67238084897E+02  0.24205560663E+03  0.25773185614E+03  0.47000000000E+01 0.  1.
<mgrwt>
<rscale>  0 0.27471085E+03</rscale>
<asrwt>0</asrwt>
<pdfrwt beam="1">  1        2 0.14821168E+00 0.27471085E+03</pdfrwt>
<pdfrwt beam="2">  1       -2 0.30128845E-02 0.27471085E+03</pdfrwt>
<totfact> 0.11614579E+04</totfact>
</mgrwt>
</event>
<event>
 9    1  0.7984035E-001  0.2775524E+03  0.7818608E-02  0.1097033E+00
         -1   -1    0    0    0  501 -0.00000000000E+00  0.00000000000E+00  0.44267777277E+02  0.44267777277E+02  0.00000000000E+00 0. -1.
          1   -1    0    0  501    0  0.00000000000E+00 -0.00000000000E+00 -0.43505307389E+03  0.43505307389E+03  0.00000000000E+00 0. -1.
         35    2    1    2    0    0  0.00000000000E+00  0.71054273576E-14 -0.39078529661E+03  0.47932085117E+03  0.27755239202E+03 0.  0.
         25    2    3    3    0    0 -0.29172963175E+02 -0.53788260191E+01 -0.28912434958E+03  0.31643342873E+03  0.12512886059E+03 0.  0.
         25    2    3    3    0    0  0.29172963175E+02  0.53788260191E+01 -0.10166094703E+03  0.16288742243E+03  0.12376336568E+03 0.  0.
          5    1    4    4  502    0 -0.31906646508E+02 -0.37786074778E+02 -0.27698176929E+03  0.28140151396E+03  0.47000000000E+01 0.  1.
         -5    1    4    4    0  502  0.27336833338E+01  0.32407248759E+02 -0.12142580284E+02  0.35031914773E+02  0.47000000000E+01 0.  1.
          5    1    5    5  503    0  0.11040083427E+02 -0.57256209311E+02 -0.29504791042E+02  0.65519307392E+02  0.47000000000E+01 0.  1.
         -5    1    5    5    0  503  0.18132879747E+02  0.62635035330E+02 -0.72156155992E+02  0.97368115039E+02  0.47000000000E+01 0.  1.
<mgrwt>
<rscale>  0 0.27755239E+03</rscale>
<asrwt>0</asrwt>
<pdfrwt beam="1">  1        1 0.66931244E-01 0.27755239E+03</pdfrwt>
<pdfrwt beam="2">  1       -1 0.68104271E-02 0.27755239E+03</pdfrwt>
<totfact> 0.59538349E+03</totfact>
</mgrwt>
</event>
<event>
 9    1  0.7984035E-001  0.2749552E+03  0.7818608E-02  0.1098477E+00
         -2   -1    0    0    0  501 -0.00000000000E+00  0.00000000000E+00  0.39328215774E+03  0.39328215774E+03  0.00000000000E+00 0. -1.
          2   -1    0    0  501    0  0.00000000000E+00 -0.00000000000E+00 -0.48057342039E+02  0.48057342039E+02  0.00000000000E+00 0. -1.
         35    2    1    2    0    0 -0.71054273576E-14 -0.71054273576E-14  0.34522481570E+03  0.44133949978E+03  0.27495523397E+03 0.  0.
         25    2    3    3    0    0 -0.97799781977E+01 -0.55809099422E+02  0.15963805511E+03  0.21044450135E+03  0.12486903522E+03 0.  0.
         25    2    3    3    0    0  0.97799781977E+01  0.55809099422E+02  0.18558676059E+03  0.23089499842E+03  0.12513892696E+03 0.  0.
          5    1    4    4  502    0 -0.56715726434E+02 -0.32468185458E+02  0.13945093839E+03  0.15407631521E+03  0.47000000000E+01 0.  1.
         -5    1    4    4    0  502  0.46935748237E+02 -0.23340913964E+02  0.20187116725E+02  0.56368186141E+02  0.47000000000E+01 0.  1.
          5    1    5    5  503    0 -0.39024165313E+02 -0.14054720323E+02  0.10707918655E+03  0.11492807679E+03  0.47000000000E+01 0.  1.
         -5    1    5    5    0  503  0.48804143511E+02  0.69863819745E+02  0.78507574037E+02  0.11596692164E+03  0.47000000000E+01 0.  1.
<mgrwt>
<rscale>  0 0.27495523E+03</rscale>
<asrwt>0</asrwt>
<pdfrwt beam="1">  1        2 0.73934375E-02 0.27495523E+03</pdfrwt>
<pdfrwt beam="2">  1       -2 0.60504945E-01 0.27495523E+03</pdfrwt>
<totfact> 0.24387670E+03</totfact>
</mgrwt>
</event>
<event>
 9    1  0.7984035E-001  0.2783197E+03  0.7818608E-02  0.1096610E+00
          1   -1    0    0  501    0  0.00000000000E+00  0.00000000000E+00  0.61787977327E+03  0.61787977327E+03  0.00000000000E+00 0.  1.
         -1   -1    0    0    0  501 -0.00000000000E+00 -0.00000000000E+00 -0.31341799891E+02  0.31341799891E+02  0.00000000000E+00 0.  1.
         35    2    1    2    0    0  0.71054273576E-14  0.71054273576E-14  0.58653797338E+03  0.64922157316E+03  0.27831970258E+03 0.  0.
         25    2    3    3    0    0 -0.30025728953E+02 -0.27656599497E+02  0.39699478919E+03  0.41837120017E+03  0.12555144996E+03 0.  0.
         25    2    3    3    0    0  0.30025728953E+02  0.27656599497E+02  0.18954318419E+03  0.23085037300E+03  0.12529502842E+03 0.  0.
          5    1    4    4  502    0  0.41785727491E+02  0.58462539183E+01  0.22461535928E+03  0.22859215938E+03  0.47000000000E+01 0.  1.
         -5    1    4    4    0  502 -0.71811456444E+02 -0.33502853416E+02  0.17237942991E+03  0.18977904078E+03  0.47000000000E+01 0.  1.
          5    1    5    5  503    0 -0.35080606508E+02 -0.51465302446E+01  0.13506255851E+03  0.13971800327E+03  0.47000000000E+01 0.  1.
         -5    1    5    5    0  503  0.65106335461E+02  0.32803129742E+02  0.54480625683E+02  0.91132369732E+02  0.47000000000E+01 0.  1.
<mgrwt>
<rscale>  0 0.27831970E+03</rscale>
<asrwt>0</asrwt>
<pdfrwt beam="1">  1        1 0.95058418E-01 0.27831970E+03</pdfrwt>
<pdfrwt beam="2">  1       -1 0.48218158E-02 0.27831970E+03</pdfrwt>
<totfact> 0.62537726E+03</totfact>
</mgrwt>
</event>
<event>
 9    1  0.7984035E-001  0.2754119E+03  0.7818608E-02  0.1098222E+00
          2   -1    0    0  501    0  0.00000000000E+00  0.00000000000E+00  0.11988253958E+03  0.11988253958E+03  0.00000000000E+00 0. -1.
         -2   -1    0    0    0  501 -0.00000000000E+00 -0.00000000000E+00 -0.15817921293E+03  0.15817921293E+03  0.00000000000E+00 0. -1.
         35    2    1    2    0    0  0.00000000000E+00  0.00000000000E+00 -0.38296673347E+02  0.27806175252E+03  0.27541187887E+03 0.  0.
         25    2    3    3    0    0 -0.20622724721E+02 -0.54051247341E+02 -0.10089312239E+02  0.13767833548E+03  0.12452588376E+03 0.  0.
         25    2    3    3    0    0  0.20622724721E+02  0.54051247341E+02 -0.28207361108E+02  0.14038341704E+03  0.12475982704E+03 0.  0.
          5    1    4    4  502    0 -0.39877438580E+02 -0.80795577073E+02  0.20441062105E+02  0.92509796250E+02  0.47000000000E+01 0.  1.
         -5    1    4    4    0  502  0.19254713859E+02  0.26744329732E+02 -0.30530374344E+02  0.45168539230E+02  0.47000000000E+01 0.  1.
          5    1    5    5  503    0 -0.48200129946E+02  0.18631254462E+02 -0.34925121755E+02  0.62547824097E+02  0.47000000000E+01 0.  1.
         -5    1    5    5    0  503  0.68822854667E+02  0.35419992879E+02  0.67177606471E+01  0.77835592939E+02  0.47000000000E+01 0.  1.
<mgrwt>
<rscale>  0 0.27541188E+03</rscale>
<asrwt>0</asrwt>
<pdfrwt beam="1">  1        2 0.18443468E-01 0.27541188E+03</pdfrwt>
<pdfrwt beam="2">  1       -2 0.24335263E-01 0.27541188E+03</pdfrwt>
<totfact> 0.45219455E+03</totfact>
</mgrwt>
</event>
<event>
 9    1  0.7984035E-001  0.2771818E+03  0.7818608E-02  0.1097238E+00
          1   -1    0    0  501    0  0.00000000000E+00  0.00000000000E+00  0.98075720259E+03  0.98075720259E+03  0.00000000000E+00 0.  1.
         -1   -1    0    0    0  501 -0.00000000000E+00 -0.00000000000E+00 -0.19584299428E+02  0.19584299428E+02  0.00000000000E+00 0.  1.
         35    2    1    2    0    0  0.10658141036E-13  0.00000000000E+00  0.96117290317E+03  0.10003415020E+04  0.27718183722E+03 0.  0.
         25    2    3    3    0    0  0.30290374464E+02  0.40152132260E+02  0.36542864140E+03  0.38960167023E+03  0.12538607968E+03 0.  0.
         25    2    3    3    0    0 -0.30290374464E+02 -0.40152132260E+02  0.59574426177E+03  0.61073983180E+03  0.12474861203E+03 0.  0.
          5    1    4    4  502    0  0.40669603012E+01  0.37072597509E+02  0.36035131995E+03  0.36230661247E+03  0.47000000000E+01 0. -1.
         -5    1    4    4    0  502  0.26223414162E+02  0.30795347508E+01  0.50773214487E+01  0.27295057752E+02  0.47000000000E+01 0. -1.
          5    1    5    5  503    0  0.45318932797E+02 -0.35017789996E+02  0.21848920987E+03  0.22591962313E+03  0.47000000000E+01 0.  1.
         -5    1    5    5    0  503 -0.75609307261E+02 -0.51343422633E+01  0.37725505190E+03  0.38482020867E+03  0.47000000000E+01 0.  1.
<mgrwt>
<rscale>  0 0.27718184E+03</rscale>
<asrwt>0</asrwt>
<pdfrwt beam="1">  1        1 0.15088569E+00 0.27718184E+03</pdfrwt>
<pdfrwt beam="2">  1       -1 0.30129699E-02 0.27718184E+03</pdfrwt>
<totfact> 0.61943391E+03</totfact>
</mgrwt>
</event>
<event>
 9    1  0.7984035E-001  0.2749723E+03  0.7818608E-02  0.1098467E+00
          2   -1    0    0  501    0  0.00000000000E+00  0.00000000000E+00  0.24514957099E+03  0.24514957099E+03  0.00000000000E+00 0. -1.
         -2   -1    0    0    0  501 -0.00000000000E+00 -0.00000000000E+00 -0.77105737429E+02  0.77105737429E+02  0.00000000000E+00 0. -1.
         35    2    1    2    0    0  0.00000000000E+00  0.00000000000E+00  0.16804383356E+03  0.32225530842E+03  0.27497227825E+03 0.  0.
         25    2    3    3    0    0  0.92326492900E+01 -0.41601636449E+02  0.13670211859E+03  0.19097529493E+03  0.12636516956E+03 0.  0.
         25    2    3    3    0    0 -0.92326492900E+01  0.41601636449E+02  0.31341714973E+02  0.13128001349E+03  0.12015074231E+03 0.  0.
          5    1    4    4  502    0  0.39671882190E+02 -0.48439497935E+02  0.14529067900E+03  0.15827733446E+03  0.47000000000E+01 0. -1.
         -5    1    4    4    0  502 -0.30439232900E+02  0.68378614868E+01 -0.85885604127E+01  0.32697960475E+02  0.47000000000E+01 0. -1.
          5    1    5    5  503    0 -0.85664695557E+01 -0.41687935243E+02  0.19389958751E+02  0.47003498229E+02  0.47000000000E+01 0.  1.
         -5    1    5    5    0  503 -0.66617973434E+00  0.83289571691E+02  0.11951756222E+02  0.84276515262E+02  0.47000000000E+01 0.  1.
<mgrwt>
<rscale>  0 0.27497228E+03</rscale>
<asrwt>0</asrwt>
<pdfrwt beam="1">  1        2 0.37715318E-01 0.27497228E+03</pdfrwt>
<pdfrwt beam="2">  1       -2 0.11862421E-01 0.27497228E+03</pdfrwt>
<totfact> 0.68119263E+03</totfact>
</mgrwt>
</event>
<event>
 9    1  0.7984035E-001  0.2760041E+03  0.7818608E-02  0.1097892E+00
          1   -1    0    0  501    0  0.00000000000E+00  0.00000000000E+00  0.19653447141E+02  0.19653447141E+02  0.00000000000E+00 0. -1.
         -1   -1    0    0    0  501 -0.00000000000E+00 -0.00000000000E+00 -0.96901919443E+03  0.96901919443E+03  0.00000000000E+00 0. -1.
         35    2    1    2    0    0 -0.35527136788E-14  0.00000000000E+00 -0.94936574729E+03  0.98867264157E+03  0.27600411241E+03 0.  0.
         25    2    3    3    0    0 -0.56171601181E+01 -0.26324830534E+01 -0.68801282565E+03  0.69902840094E+03  0.12345272214E+03 0.  0.
         25    2    3    3    0    0  0.56171601181E+01  0.26324830534E+01 -0.26135292164E+03  0.28964424063E+03  0.12469945480E+03 0.  0.
          5    1    4    4  502    0 -0.10876098064E+02  0.37996966320E+02 -0.77485360427E+02  0.87109873373E+02  0.47000000000E+01 0. -1.
         -5    1    4    4    0  502  0.52589379464E+01 -0.40629449374E+02 -0.61052746523E+03  0.61191852757E+03  0.47000000000E+01 0. -1.
          5    1    5    5  503    0  0.50493178831E+02  0.24637352356E+02 -0.21153541960E+03  0.21891981177E+03  0.47000000000E+01 0.  1.
         -5    1    5    5    0  503 -0.44876018713E+02 -0.22004869303E+02 -0.49817502033E+02  0.70724428858E+02  0.47000000000E+01 0.  1.
<mgrwt>
<rscale>  0 0.27600411E+03</rscale>
<asrwt>0</asrwt>
<pdfrwt beam="1">  1        1 0.30236071E-02 0.27600411E+03</pdfrwt>
<pdfrwt beam="2">  1       -1 0.14907989E+00 0.27600411E+03</pdfrwt>
<totfact> 0.12949229E+03</totfact>
</mgrwt>
</event>
<event>
 9    1  0.7984035E-001  0.2731680E+03  0.7818608E-02  0.1099480E+00
          1   -1    0    0  501    0  0.00000000000E+00  0.00000000000E+00  0.17864620313E+03  0.17864620313E+03  0.00000000000E+00 0.  1.
         -1   -1    0    0    0  501 -0.00000000000E+00 -0.00000000000E+00 -0.10442532269E+03  0.10442532269E+03  0.00000000000E+00 0.  1.
         35    2    1    2    0    0 -0.35527136788E-14  0.00000000000E+00  0.74220880447E+02  0.28307152582E+03  0.27316798794E+03 0.  0.
         25    2    3    3    0    0  0.18474722989E+02 -0.20252148491E+02 -0.12582484044E+02  0.12851447370E+03  0.12492472188E+03 0.  0.
         25    2    3    3    0    0 -0.18474722989E+02  0.20252148491E+02  0.86803364492E+02  0.15455705212E+03  0.12490633837E+03 0.  0.
          5    1    4    4  502    0 -0.47466891464E+02 -0.28073787095E+02  0.13578249818E+02  0.56988614435E+02  0.47000000000E+01 0. -1.
         -5    1    4    4    0  502  0.65941614454E+02  0.78216386033E+01 -0.26160733863E+02  0.71525859264E+02  0.47000000000E+01 0. -1.
          5    1    5    5  503    0  0.55991475422E+01  0.57310892657E+02  0.83500598113E+00  0.57781278156E+02  0.47000000000E+01 0.  1.
         -5    1    5    5    0  503 -0.24073870532E+02 -0.37058744165E+02  0.85968358510E+02  0.96775773965E+02  0.47000000000E+01 0.  1.
<mgrwt>
<rscale>  0 0.27316799E+03</rscale>
<asrwt>0</asrwt>
<pdfrwt beam="1">  1        1 0.27484031E-01 0.27316799E+03</pdfrwt>
<pdfrwt beam="2">  1       -1 0.16065434E-01 0.27316799E+03</pdfrwt>
<totfact> 0.48420784E+03</totfact>
</mgrwt>
</event>
<event>
 9    1  0.7984035E-001  0.2703344E+03  0.7818608E-02  0.1101088E+00
          1   -1    0    0  501    0  0.00000000000E+00  0.00000000000E+00  0.14226800545E+03  0.14226800545E+03  0.00000000000E+00 0.  1.
         -1   -1    0    0    0  501 -0.00000000000E+00 -0.00000000000E+00 -0.12842078231E+03  0.12842078231E+03  0.00000000000E+00 0.  1.
         35    2    1    2    0    0 -0.35527136788E-14  0.00000000000E+00  0.13847223134E+02  0.27068878776E+03  0.27033437486E+03 0.  0.
         25    2    3    3    0    0 -0.17469648890E+02  0.11016781587E+02 -0.38914124150E+02  0.13275051500E+03  0.12522712193E+03 0.  0.
         25    2    3    3    0    0  0.17469648890E+02 -0.11016781587E+02  0.52761347284E+02  0.13793827276E+03  0.12576426048E+03 0.  0.
          5    1    4    4  502    0 -0.17541355839E+02 -0.18673043713E+02  0.40322376861E+02  0.48003810285E+02  0.47000000000E+01 0.  1.
         -5    1    4    4    0  502  0.71706948501E-01  0.29689825300E+02 -0.79236501011E+02  0.84746704719E+02  0.47000000000E+01 0.  1.
          5    1    5    5  503    0  0.26911621146E+02 -0.19967834588E+01  0.92171695391E+02  0.96155779484E+02  0.47000000000E+01 0. -1.
         -5    1    5    5    0  503 -0.94419722553E+01 -0.90199981283E+01 -0.39410348107E+02  0.41782493274E+02  0.47000000000E+01 0. -1.
<mgrwt>
<rscale>  0 0.27033437E+03</rscale>
<asrwt>0</asrwt>
<pdfrwt beam="1">  1        1 0.21887385E-01 0.27033437E+03</pdfrwt>
<pdfrwt beam="2">  1       -1 0.19757044E-01 0.27033437E+03</pdfrwt>
<totfact> 0.46382296E+03</totfact>
</mgrwt>
</event>
<event>
 9    1  0.7984035E-001  0.2946889E+03  0.7818608E-02  0.1087926E+00
          2   -1    0    0  501    0  0.00000000000E+00  0.00000000000E+00  0.69843880780E+03  0.69843880780E+03  0.00000000000E+00 0.  1.
         -2   -1    0    0    0  501 -0.00000000000E+00 -0.00000000000E+00 -0.31084173176E+02  0.31084173176E+02  0.00000000000E+00 0.  1.
         35    2    1    2    0    0  0.00000000000E+00  0.71054273576E-14  0.66735463462E+03  0.72952298098E+03  0.29468894010E+03 0.  0.
         25    2    3    3    0    0 -0.28310234520E+02 -0.39863059970E+02  0.19069880024E+03  0.23450239948E+03  0.12741589390E+03 0.  0.
         25    2    3    3    0    0  0.28310234520E+02  0.39863059970E+02  0.47665583438E+03  0.49502058150E+03  0.12431435447E+03 0.  0.
          5    1    4    4  502    0 -0.35837439527E+02 -0.59845899321E+02  0.19914673595E+03  0.21106246984E+03  0.47000000000E+01 0. -1.
         -5    1    4    4    0  502  0.75272050075E+01  0.19982839351E+02 -0.84479357038E+01  0.23439929638E+02  0.47000000000E+01 0. -1.
          5    1    5    5  503    0  0.33874909645E+01 -0.38326429520E+02  0.68836719776E+02  0.78999837242E+02  0.47000000000E+01 0. -1.
         -5    1    5    5    0  503  0.24922743555E+02  0.78189489490E+02  0.40781911460E+03  0.41602074425E+03  0.47000000000E+01 0. -1.
<mgrwt>
<rscale>  0 0.29468894E+03</rscale>
<asrwt>0</asrwt>
<pdfrwt beam="1">  1        2 0.10745211E+00 0.29468894E+03</pdfrwt>
<pdfrwt beam="2">  1       -2 0.47821810E-02 0.29468894E+03</pdfrwt>
<totfact> 0.88063769E+03</totfact>
</mgrwt>
</event>
<event>
 9    1  0.7984035E-001  0.2840821E+03  0.7818608E-02  0.1093480E+00
         -2   -1    0    0    0  501 -0.00000000000E+00  0.00000000000E+00  0.23837115459E+03  0.23837115459E+03  0.00000000000E+00 0. -1.
          2   -1    0    0  501    0  0.00000000000E+00 -0.00000000000E+00 -0.84639669075E+02  0.84639669075E+02  0.00000000000E+00 0. -1.
         35    2    1    2    0    0  0.00000000000E+00  0.00000000000E+00  0.15373148552E+03  0.32301082367E+03  0.28408207013E+03 0.  0.
         25    2    3    3    0    0 -0.35159562121E+01  0.57849088023E+02  0.29922537111E+02  0.14105355621E+03  0.12506745604E+03 0.  0.
         25    2    3    3    0    0  0.35159562121E+01 -0.57849088023E+02  0.12380894841E+03  0.18195726746E+03  0.12008710398E+03 0.  0.
          5    1    4    4  502    0  0.58226149014E+02  0.46353780475E+02  0.20789205981E+02  0.77416009188E+02  0.47000000000E+01 0. -1.
         -5    1    4    4    0  502 -0.61742105226E+02  0.11495307549E+02  0.91333311300E+01  0.63637547022E+02  0.47000000000E+01 0. -1.
          5    1    5    5  503    0  0.36969185306E+02 -0.77640460381E+02  0.53223129685E+02  0.10124007746E+03  0.47000000000E+01 0. -1.
         -5    1    5    5    0  503 -0.33453229094E+02  0.19791372358E+02  0.70585818721E+02  0.80717189998E+02  0.47000000000E+01 0. -1.
<mgrwt>
<rscale>  0 0.28408207E+03</rscale>
<asrwt>0</asrwt>
<pdfrwt beam="1">  1        2 0.13021488E-01 0.28408207E+03</pdfrwt>
<pdfrwt beam="2">  1       -2 0.36672485E-01 0.28408207E+03</pdfrwt>
<totfact> 0.32418552E+03</totfact>
</mgrwt>
</event>
<event>
 9    1  0.7984035E-001  0.2739923E+03  0.7818608E-02  0.1099016E+00
         -2   -1    0    0    0  501 -0.00000000000E+00  0.00000000000E+00  0.83562806870E+01  0.83562806870E+01  0.00000000000E+00 0. -1.
          2   -1    0    0  501    0  0.00000000000E+00 -0.00000000000E+00 -0.22459685087E+04  0.22459685087E+04  0.00000000000E+00 0. -1.
         35    2    1    2    0    0  0.00000000000E+00  0.71054273576E-14 -0.22376122280E+04  0.22543247894E+04  0.27399228655E+03 0.  0.
         25    2    3    3    0    0  0.31681709039E+02 -0.20297851306E+02 -0.14645061397E+04  0.14703215479E+04  0.12510590622E+03 0.  0.
         25    2    3    3    0    0 -0.31681709039E+02  0.20297851306E+02 -0.77310608834E+03  0.78400324143E+03  0.12470896239E+03 0.  0.
          5    1    4    4  502    0  0.38236314520E+02 -0.99862315291E+01 -0.13482580749E+03  0.14057677238E+03  0.47000000000E+01 0. -1.
         -5    1    4    4    0  502 -0.65546054806E+01 -0.10311619776E+02 -0.13296803322E+04  0.13297447756E+04  0.47000000000E+01 0. -1.
          5    1    5    5  503    0  0.17747064159E+02  0.50267330604E+02 -0.57767435833E+03  0.58014784072E+03  0.47000000000E+01 0.  1.
         -5    1    5    5    0  503 -0.49428773198E+02 -0.29969479299E+02 -0.19543173000E+03  0.20385540072E+03  0.47000000000E+01 0.  1.
<mgrwt>
<rscale>  0 0.27399229E+03</rscale>
<asrwt>0</asrwt>
<pdfrwt beam="1">  1        2 0.34553394E+00 0.27399229E+03</pdfrwt>
<pdfrwt beam="2">  1       -2 0.12855804E-02 0.27399229E+03</pdfrwt>
<totfact> 0.81358897E+03</totfact>
</mgrwt>
</event>
<event>
 9    1  0.7984035E-001  0.2745023E+03  0.7818608E-02  0.1098730E+00
         -2   -1    0    0    0  501 -0.00000000000E+00  0.00000000000E+00  0.21371610212E+02  0.21371610212E+02  0.00000000000E+00 0. -1.
          2   -1    0    0  501    0  0.00000000000E+00 -0.00000000000E+00 -0.88144387682E+03  0.88144387682E+03  0.00000000000E+00 0. -1.
         35    2    1    2    0    0 -0.71054273576E-14  0.35527136788E-14 -0.86007226661E+03  0.90281548704E+03  0.27450227656E+03 0.  0.
         25    2    3    3    0    0 -0.47178152537E+02 -0.13726803642E+02 -0.45420238338E+03  0.47518298047E+03  0.13070905341E+03 0.  0.
         25    2    3    3    0    0  0.47178152537E+02  0.13726803642E+02 -0.40586988323E+03  0.42763250657E+03  0.12539934348E+03 0.  0.
          5    1    4    4  502    0 -0.62615938766E+02 -0.61381774230E+02 -0.25378849968E+03  0.26855012673E+03  0.47000000000E+01 0. -1.
         -5    1    4    4    0  502  0.15437786229E+02  0.47654970588E+02 -0.20041388370E+03  0.20663285374E+03  0.47000000000E+01 0. -1.
          5    1    5    5  503    0  0.13114287786E+02  0.39856861144E+02 -0.36691875585E+02  0.55936907837E+02  0.47000000000E+01 0.  1.
         -5    1    5    5    0  503  0.34063864751E+02 -0.26130057502E+02 -0.36917800765E+03  0.37169559873E+03  0.47000000000E+01 0.  1.
<mgrwt>
<rscale>  0 0.27450228E+03</rscale>
<asrwt>0</asrwt>
<pdfrwt beam="1">  1        2 0.13560672E+00 0.27450228E+03</pdfrwt>
<pdfrwt beam="2">  1       -2 0.32879407E-02 0.27450228E+03</pdfrwt>
<totfact> 0.11500019E+04</totfact>
</mgrwt>
</event>
<event>
 9    1  0.7984035E-001  0.2695295E+03  0.7818608E-02  0.1101549E+00
          2   -1    0    0  501    0  0.00000000000E+00  0.00000000000E+00  0.30045886125E+03  0.30045886125E+03  0.00000000000E+00 0.  1.
         -2   -1    0    0    0  501 -0.00000000000E+00 -0.00000000000E+00 -0.60446016598E+02  0.60446016598E+02  0.00000000000E+00 0.  1.
         35    2    1    2    0    0 -0.71054273576E-14  0.71054273576E-14  0.24001284465E+03  0.36090487785E+03  0.26952952576E+03 0.  0.
         25    2    3    3    0    0  0.44656718417E+02 -0.62610899525E+01  0.88490977988E+02  0.15946719957E+03  0.12476261783E+03 0.  0.
         25    2    3    3    0    0 -0.44656718417E+02  0.62610899525E+01  0.15152186667E+03  0.20143767828E+03  0.12483925025E+03 0.  0.
          5    1    4    4  502    0  0.17838471597E+02 -0.53196439890E+02  0.88870372833E+02  0.10520506382E+03  0.47000000000E+01 0.  1.
         -5    1    4    4    0  502  0.26818246819E+02  0.46935349937E+02 -0.37939484442E+00  0.54262135755E+02  0.47000000000E+01 0.  1.
          5    1    5    5  503    0 -0.70727307319E+02 -0.38308464175E+02  0.85368543283E+02  0.11738725915E+03  0.47000000000E+01 0. -1.
         -5    1    5    5    0  503  0.26070588903E+02  0.44569554127E+02  0.66153323382E+02  0.84050419127E+02  0.47000000000E+01 0. -1.
<mgrwt>
<rscale>  0 0.26952953E+03</rscale>
<asrwt>0</asrwt>
<pdfrwt beam="1">  1        2 0.46224439E-01 0.26952953E+03</pdfrwt>
<pdfrwt beam="2">  1       -2 0.92993873E-02 0.26952953E+03</pdfrwt>
<totfact> 0.80629088E+03</totfact>
</mgrwt>
</event>
<event>
 9    1  0.7984035E-001  0.2691443E+03  0.7818608E-02  0.1101770E+00
          2   -1    0    0  501    0  0.00000000000E+00  0.00000000000E+00  0.24881845885E+03  0.24881845885E+03  0.00000000000E+00 0.  1.
         -2   -1    0    0    0  501 -0.00000000000E+00 -0.00000000000E+00 -0.72782619978E+02  0.72782619978E+02  0.00000000000E+00 0.  1.
         35    2    1    2    0    0  0.35527136788E-14  0.00000000000E+00  0.17603583887E+03  0.32160107883E+03  0.26914426863E+03 0.  0.
         25    2    3    3    0    0  0.12834417081E+02  0.30072857483E+02  0.43950315804E+02  0.13693209482E+03  0.12549768649E+03 0.  0.
         25    2    3    3    0    0 -0.12834417081E+02 -0.30072857483E+02  0.13208552307E+03  0.18466898401E+03  0.12484770415E+03 0.  0.
          5    1    4    4  502    0  0.36448582765E+02  0.64352758204E+02  0.56514939862E+02  0.93197666825E+02  0.47000000000E+01 0. -1.
         -5    1    4    4    0  502 -0.23614165684E+02 -0.34279900720E+02 -0.12564624057E+02  0.43734427995E+02  0.47000000000E+01 0. -1.
          5    1    5    5  503    0  0.29759326233E+02 -0.65519789977E+02  0.87515912102E+02  0.11340011132E+03  0.47000000000E+01 0.  1.
         -5    1    5    5    0  503 -0.42593743315E+02  0.35446932493E+02  0.44569610966E+02  0.71268872689E+02  0.47000000000E+01 0.  1.
<mgrwt>
<rscale>  0 0.26914427E+03</rscale>
<asrwt>0</asrwt>
<pdfrwt beam="1">  1        2 0.38279762E-01 0.26914427E+03</pdfrwt>
<pdfrwt beam="2">  1       -2 0.11197326E-01 0.26914427E+03</pdfrwt>
<totfact> 0.73492831E+03</totfact>
</mgrwt>
</event>
<event>
 9    1  0.7984035E-001  0.2751470E+03  0.7818608E-02  0.1098369E+00
          2   -1    0    0  501    0  0.00000000000E+00  0.00000000000E+00  0.27332207775E+03  0.27332207775E+03  0.00000000000E+00 0.  1.
         -2   -1    0    0    0  501 -0.00000000000E+00 -0.00000000000E+00 -0.69246018035E+02  0.69246018035E+02  0.00000000000E+00 0.  1.
         35    2    1    2    0    0 -0.35527136788E-14  0.00000000000E+00  0.20407605971E+03  0.34256809578E+03  0.27514698272E+03 0.  0.
         25    2    3    3    0    0 -0.16055466801E+02 -0.52729961389E+02  0.76989662080E+02  0.15492097372E+03  0.12261677368E+03 0.  0.
         25    2    3    3    0    0  0.16055466801E+02  0.52729961389E+02  0.12708639763E+03  0.18764712207E+03  0.12657907850E+03 0.  0.
          5    1    4    4  502    0 -0.36746058391E+02 -0.86639420731E+02  0.50051379279E+02  0.10669532604E+03  0.47000000000E+01 0.  1.
         -5    1    4    4    0  502  0.20690591590E+02  0.33909459342E+02  0.26938282801E+02  0.48225647673E+02  0.47000000000E+01 0.  1.
          5    1    5    5  503    0  0.14622801025E+02 -0.31528524083E+02  0.87809568647E+02  0.94554135217E+02  0.47000000000E+01 0.  1.
         -5    1    5    5    0  503  0.14326657764E+01  0.84258485472E+02  0.39276828986E+02  0.93092986849E+02  0.47000000000E+01 0.  1.
<mgrwt>
<rscale>  0 0.27514698E+03</rscale>
<asrwt>0</asrwt>
<pdfrwt beam="1">  1        2 0.42049550E-01 0.27514698E+03</pdfrwt>
<pdfrwt beam="2">  1       -2 0.10653234E-01 0.27514698E+03</pdfrwt>
<totfact> 0.71990970E+03</totfact>
</mgrwt>
</event>
<event>
 9    1  0.7984035E-001  0.3014012E+03  0.7818608E-02  0.1084542E+00
          2   -1    0    0  501    0  0.00000000000E+00  0.00000000000E+00  0.15496603437E+02  0.15496603437E+02  0.00000000000E+00 0.  1.
         -2   -1    0    0    0  501 -0.00000000000E+00 -0.00000000000E+00 -0.14655257217E+04  0.14655257217E+04  0.00000000000E+00 0.  1.
         35    2    1    2    0    0  0.17763568394E-14  0.00000000000E+00 -0.14500291183E+04  0.14810223252E+04  0.30140120064E+03 0.  0.
         25    2    3    3    0    0  0.83785504083E+00 -0.65328710286E+02 -0.98956233890E+03  0.99954685386E+03  0.12486692158E+03 0.  0.
         25    2    3    3    0    0 -0.83785504083E+00  0.65328710286E+02 -0.46046677939E+03  0.48147547131E+03  0.12458102647E+03 0.  0.
          5    1    4    4  502    0  0.15637285503E+02  0.35379530142E+02 -0.28724943579E+03  0.28988025841E+03  0.47000000000E+01 0. -1.
         -5    1    4    4    0  502 -0.14799430462E+02 -0.10070824043E+03 -0.70231290311E+03  0.70966659545E+03  0.47000000000E+01 0. -1.
          5    1    5    5  503    0 -0.52891155957E+02  0.57945154851E+02 -0.18509509188E+03  0.20109052287E+03  0.47000000000E+01 0. -1.
         -5    1    5    5    0  503  0.52053300916E+02  0.73835554354E+01 -0.27537168751E+03  0.28038494844E+03  0.47000000000E+01 0. -1.
<mgrwt>
<rscale>  0 0.30140120E+03</rscale>
<asrwt>0</asrwt>
<pdfrwt beam="1">  1        2 0.23840925E-02 0.30140120E+03</pdfrwt>
<pdfrwt beam="2">  1       -2 0.22546552E+00 0.30140120E+03</pdfrwt>
<totfact> 0.43165178E+02</totfact>
</mgrwt>
</event>
<event>
 9    1  0.7984035E-001  0.2860349E+03  0.7818608E-02  0.1092438E+00
         -1   -1    0    0    0  501 -0.00000000000E+00  0.00000000000E+00  0.66098648595E+01  0.66098648595E+01  0.00000000000E+00 0.  1.
          1   -1    0    0  501    0  0.00000000000E+00 -0.00000000000E+00 -0.30944635155E+04  0.30944635155E+04  0.00000000000E+00 0.  1.
         35    2    1    2    0    0 -0.71054273576E-14  0.35527136788E-14 -0.30878536506E+04  0.31010733803E+04  0.28603486256E+03 0.  0.
         25    2    3    3    0    0  0.12641736580E+02  0.28560958387E+02 -0.80795816980E+03  0.81747896269E+03  0.12041556564E+03 0.  0.
         25    2    3    3    0    0 -0.12641736580E+02 -0.28560958387E+02 -0.22798954808E+04  0.22835944176E+04  0.12611311987E+03 0.  0.
          5    1    4    4  502    0 -0.51046716275E+02  0.28740397270E+02 -0.31905232824E+03  0.32441987583E+03  0.47000000000E+01 0.  1.
         -5    1    4    4    0  502  0.63688452855E+02 -0.17943888295E+00 -0.48890584156E+03  0.49305908686E+03  0.47000000000E+01 0.  1.
          5    1    5    5  503    0 -0.51992434112E+02  0.24701305918E+02 -0.14036229995E+04  0.14048106572E+04  0.47000000000E+01 0.  1.
         -5    1    5    5    0  503  0.39350697531E+02 -0.53262264305E+02 -0.87627248128E+03  0.87878376046E+03  0.47000000000E+01 0.  1.
<mgrwt>
<rscale>  0 0.28603486E+03</rscale>
<asrwt>0</asrwt>
<pdfrwt beam="1">  1        1 0.47607170E+00 0.28603486E+03</pdfrwt>
<pdfrwt beam="2">  1       -1 0.10169015E-02 0.28603486E+03</pdfrwt>
<totfact> 0.11384288E+03</totfact>
</mgrwt>
</event>
<event>
 9    1  0.7984035E-001  0.2744941E+03  0.7818608E-02  0.1098735E+00
         -2   -1    0    0    0  501 -0.00000000000E+00  0.00000000000E+00  0.68542995842E+02  0.68542995842E+02  0.00000000000E+00 0. -1.
          2   -1    0    0  501    0  0.00000000000E+00 -0.00000000000E+00 -0.27481657014E+03  0.27481657014E+03  0.00000000000E+00 0. -1.
         35    2    1    2    0    0  0.00000000000E+00  0.00000000000E+00 -0.20627357430E+03  0.34335956598E+03  0.27449408755E+03 0.  0.
         25    2    3    3    0    0  0.37273221936E+02 -0.37207771611E+02 -0.79553389236E+02  0.15746771680E+03  0.12527421424E+03 0.  0.
         25    2    3    3    0    0 -0.37273221936E+02  0.37207771611E+02 -0.12672018506E+03  0.18589184919E+03  0.12539562572E+03 0.  0.
          5    1    4    4  502    0  0.18163339581E+02 -0.31241688021E+02  0.29255633490E+02  0.46732558950E+02  0.47000000000E+01 0. -1.
         -5    1    4    4    0  502  0.19109882355E+02 -0.59660835901E+01 -0.10880902273E+03  0.11073515785E+03  0.47000000000E+01 0. -1.
          5    1    5    5  503    0 -0.29698896796E+02 -0.38939259830E+02 -0.17024001299E+02  0.52059552891E+02  0.47000000000E+01 0.  1.
         -5    1    5    5    0  503 -0.75743251402E+01  0.76147031442E+02 -0.10969618376E+03  0.13383229629E+03  0.47000000000E+01 0.  1.
<mgrwt>
<rscale>  0 0.27449409E+03</rscale>
<asrwt>0</asrwt>
<pdfrwt beam="1">  1        2 0.42279473E-01 0.27449409E+03</pdfrwt>
<pdfrwt beam="2">  1       -2 0.10545076E-01 0.27449409E+03</pdfrwt>
<totfact> 0.72739140E+03</totfact>
</mgrwt>
</event>
<event>
 9    1  0.7984035E-001  0.2741731E+03  0.7818608E-02  0.1098915E+00
         -4   -1    0    0    0  501 -0.00000000000E+00  0.00000000000E+00  0.10075103317E+03  0.10075103317E+03  0.00000000000E+00 0. -1.
          4   -1    0    0  501    0  0.00000000000E+00 -0.00000000000E+00 -0.18652641103E+03  0.18652641103E+03  0.00000000000E+00 0. -1.
         35    2    1    2    0    0  0.14210854715E-13  0.00000000000E+00 -0.85775377860E+02  0.28727744420E+03  0.27417314693E+03 0.  0.
         25    2    3    3    0    0 -0.48686016987E+02 -0.99419102458E+01 -0.80874242545E+02  0.15713701772E+03  0.12522870838E+03 0.  0.
         25    2    3    3    0    0  0.48686016987E+02  0.99419102458E+01 -0.49011353154E+01  0.13014042647E+03  0.12018044619E+03 0.  0.
          5    1    4    4  502    0 -0.47629069960E+00 -0.18818910128E+02  0.30051812687E+02  0.35771212965E+02  0.47000000000E+01 0.  1.
         -5    1    4    4    0  502 -0.48209726287E+02  0.88769998818E+01 -0.11092605523E+03  0.12136580476E+03  0.47000000000E+01 0.  1.
          5    1    5    5  503    0 -0.24894809081E+02 -0.34407418788E+02 -0.10224674524E+02  0.43934678285E+02  0.47000000000E+01 0. -1.
         -5    1    5    5    0  503  0.73580826068E+02  0.44349329034E+02  0.53235392090E+01  0.86205748187E+02  0.47000000000E+01 0. -1.
<mgrwt>
<rscale>  0 0.27417315E+03</rscale>
<asrwt>0</asrwt>
<pdfrwt beam="1">  1        4 0.28696371E-01 0.27417315E+03</pdfrwt>
<pdfrwt beam="2">  1       -4 0.15500159E-01 0.27417315E+03</pdfrwt>
<totfact> 0.77148898E+02</totfact>
</mgrwt>
</event>
<event>
 9    1  0.7984035E-001  0.2728195E+03  0.7818608E-02  0.1099677E+00
         -3   -1    0    0    0  501 -0.00000000000E+00  0.00000000000E+00  0.35980709642E+02  0.35980709642E+02  0.00000000000E+00 0. -1.
          3   -1    0    0  501    0  0.00000000000E+00 -0.00000000000E+00 -0.51715548713E+03  0.51715548713E+03  0.00000000000E+00 0. -1.
         35    2    1    2    0    0  0.71054273576E-14  0.00000000000E+00 -0.48117477749E+03  0.55313619677E+03  0.27281951120E+03 0.  0.
         25    2    3    3    0    0  0.35215941660E+02  0.24981066670E+02 -0.26859879800E+03  0.29907324327E+03  0.12423877944E+03 0.  0.
         25    2    3    3    0    0 -0.35215941660E+02 -0.24981066670E+02 -0.21257597949E+03  0.25406295350E+03  0.13226950157E+03 0.  0.
          5    1    4    4  502    0 -0.37700717263E+02 -0.24881631481E+01 -0.31373722457E+02  0.49334931831E+02  0.47000000000E+01 0. -1.
         -5    1    4    4    0  502  0.72916658923E+02  0.27469229819E+02 -0.23722507554E+03  0.24973831144E+03  0.47000000000E+01 0. -1.
          5    1    5    5  503    0 -0.46141958775E+01 -0.28186671409E+02 -0.22013682349E+03  0.22203173266E+03  0.47000000000E+01 0. -1.
         -5    1    5    5    0  503 -0.30601745782E+02  0.32056047388E+01  0.75608440052E+01  0.32031220844E+02  0.47000000000E+01 0. -1.
<mgrwt>
<rscale>  0 0.27281951E+03</rscale>
<asrwt>0</asrwt>
<pdfrwt beam="1">  1        3 0.79562375E-01 0.27281951E+03</pdfrwt>
<pdfrwt beam="2">  1       -3 0.55354944E-02 0.27281951E+03</pdfrwt>
<totfact> 0.74294842E+02</totfact>
</mgrwt>
</event>
<event>
 9    1  0.7984035E-001  0.2755033E+03  0.7818608E-02  0.1098171E+00
         -1   -1    0    0    0  501 -0.00000000000E+00  0.00000000000E+00  0.19373732044E+02  0.19373732044E+02  0.00000000000E+00 0. -1.
          1   -1    0    0  501    0  0.00000000000E+00 -0.00000000000E+00 -0.97944530940E+03  0.97944530940E+03  0.00000000000E+00 0. -1.
         35    2    1    2    0    0  0.88817841970E-15  0.00000000000E+00 -0.96007157736E+03  0.99881904145E+03  0.27550325570E+03 0.  0.
         25    2    3    3    0    0 -0.67105553892E+00 -0.50365077113E+02 -0.57703926975E+03  0.59262522194E+03  0.12527267674E+03 0.  0.
         25    2    3    3    0    0  0.67105553892E+00  0.50365077113E+02 -0.38303230761E+03  0.40619381951E+03  0.12546943462E+03 0.  0.
          5    1    4    4  502    0 -0.44511587907E+01 -0.59832231461E+02 -0.57821511498E+03  0.58133855707E+03  0.47000000000E+01 0.  1.
         -5    1    4    4    0  502  0.37801032518E+01  0.94671543482E+01  0.11758452299E+01  0.11286664877E+02  0.47000000000E+01 0.  1.
          5    1    5    5  503    0  0.24756303943E+02  0.61604472050E+02 -0.37050749638E+03  0.37643841520E+03  0.47000000000E+01 0.  1.
         -5    1    5    5    0  503 -0.24085248404E+02 -0.11239394937E+02 -0.12524811224E+02  0.29755404306E+02  0.47000000000E+01 0.  1.
<mgrwt>
<rscale>  0 0.27550326E+03</rscale>
<asrwt>0</asrwt>
<pdfrwt beam="1">  1        1 0.15068392E+00 0.27550326E+03</pdfrwt>
<pdfrwt beam="2">  1       -1 0.29805736E-02 0.27550326E+03</pdfrwt>
<totfact> 0.63075218E+03</totfact>
</mgrwt>
</event>
<event>
 9    1  0.7984035E-001  0.2743152E+03  0.7818608E-02  0.1098835E+00
          3   -1    0    0  501    0  0.00000000000E+00  0.00000000000E+00  0.56892218796E+03  0.56892218796E+03  0.00000000000E+00 0.  1.
         -3   -1    0    0    0  501 -0.00000000000E+00 -0.00000000000E+00 -0.33066402564E+02  0.33066402564E+02  0.00000000000E+00 0.  1.
         35    2    1    2    0    0  0.00000000000E+00  0.00000000000E+00  0.53585578539E+03  0.60198859052E+03  0.27431522083E+03 0.  0.
         25    2    3    3    0    0  0.50420118682E+02  0.24775884497E+01  0.18779874747E+03  0.22947617429E+03  0.12183028442E+03 0.  0.
         25    2    3    3    0    0 -0.50420118682E+02 -0.24775884497E+01  0.34805703792E+03  0.37251241623E+03  0.12277406806E+03 0.  0.
          5    1    4    4  502    0 -0.11411727575E+02  0.12560084506E+02 -0.11151002528E+02  0.20842699116E+02  0.47000000000E+01 0. -1.
         -5    1    4    4    0  502  0.61831846258E+02 -0.10082496056E+02  0.19894975000E+03  0.20863347517E+03  0.47000000000E+01 0. -1.
          5    1    5    5  503    0 -0.65468765074E+02  0.46150263517E+02  0.23802785224E+03  0.25118788678E+03  0.47000000000E+01 0. -1.
         -5    1    5    5    0  503  0.15048646391E+02 -0.48627851966E+02  0.11002918568E+03  0.12132452945E+03  0.47000000000E+01 0. -1.
<mgrwt>
<rscale>  0 0.27431522E+03</rscale>
<asrwt>0</asrwt>
<pdfrwt beam="1">  1        3 0.87526484E-01 0.27431522E+03</pdfrwt>
<pdfrwt beam="2">  1       -3 0.50871393E-02 0.27431522E+03</pdfrwt>
<totfact> 0.68931041E+02</totfact>
</mgrwt>
</event>
<event>
 9    1  0.7984035E-001  0.2904414E+03  0.7818608E-02  0.1090119E+00
         -2   -1    0    0    0  501 -0.00000000000E+00  0.00000000000E+00  0.19438455526E+02  0.19438455526E+02  0.00000000000E+00 0. -1.
          2   -1    0    0  501    0  0.00000000000E+00 -0.00000000000E+00 -0.10849136590E+04  0.10849136590E+04  0.00000000000E+00 0. -1.
         35    2    1    2    0    0  0.00000000000E+00  0.00000000000E+00 -0.10654752034E+04  0.11043521145E+04  0.29044136007E+03 0.  0.
         25    2    3    3    0    0  0.34998885384E+02 -0.16347146756E+02 -0.29602892057E+03  0.32366515073E+03  0.12503542219E+03 0.  0.
         25    2    3    3    0    0 -0.34998885384E+02  0.16347146756E+02 -0.76944628287E+03  0.78068696376E+03  0.12622361891E+03 0.  0.
          5    1    4    4  502    0 -0.34555070071E+02 -0.43727531142E+02 -0.12266453068E+03  0.13481404576E+03  0.47000000000E+01 0. -1.
         -5    1    4    4    0  502  0.69553955455E+02  0.27380384386E+02 -0.17336438989E+03  0.18885110497E+03  0.47000000000E+01 0. -1.
          5    1    5    5  503    0  0.33234259591E+02 -0.22020785910E+02 -0.44872839208E+03  0.45052046666E+03  0.47000000000E+01 0. -1.
         -5    1    5    5    0  503 -0.68233144975E+02  0.38367932666E+02 -0.32071789079E+03  0.33016649710E+03  0.47000000000E+01 0. -1.
<mgrwt>
<rscale>  0 0.29044136E+03</rscale>
<asrwt>0</asrwt>
<pdfrwt beam="1">  1        2 0.16690977E+00 0.29044136E+03</pdfrwt>
<pdfrwt beam="2">  1       -2 0.29905320E-02 0.29044136E+03</pdfrwt>
<totfact> 0.99251613E+03</totfact>
</mgrwt>
</event>
<event>
 9    1  0.7984035E-001  0.2791185E+03  0.7818608E-02  0.1096171E+00
         -2   -1    0    0    0  501 -0.00000000000E+00  0.00000000000E+00  0.40235822450E+03  0.40235822450E+03  0.00000000000E+00 0. -1.
          2   -1    0    0  501    0  0.00000000000E+00 -0.00000000000E+00 -0.48406568251E+02  0.48406568251E+02  0.00000000000E+00 0. -1.
         35    2    1    2    0    0  0.14210854715E-13  0.00000000000E+00  0.35395165625E+03  0.45076479275E+03  0.27911847560E+03 0.  0.
         25    2    3    3    0    0 -0.46372134898E+02 -0.41438505259E+02  0.17575201396E+03  0.22415768248E+03  0.12446032136E+03 0.  0.
         25    2    3    3    0    0  0.46372134898E+02  0.41438505259E+02  0.17819964230E+03  0.22660711027E+03  0.12541190254E+03 0.  0.
          5    1    4    4  502    0  0.27146970040E+02 -0.55606029329E+02  0.98925582788E+02  0.11677906238E+03  0.47000000000E+01 0. -1.
         -5    1    4    4    0  502 -0.73519104938E+02  0.14167524070E+02  0.76826431169E+02  0.10737862010E+03  0.47000000000E+01 0. -1.
          5    1    5    5  503    0 -0.33554739112E+02  0.40378543741E+02  0.37398680156E+02  0.64630477245E+02  0.47000000000E+01 0. -1.
         -5    1    5    5    0  503  0.79926874010E+02  0.10599615180E+01  0.14080096214E+03  0.16197663303E+03  0.47000000000E+01 0. -1.
<mgrwt>
<rscale>  0 0.27911848E+03</rscale>
<asrwt>0</asrwt>
<pdfrwt beam="1">  1        2 0.74471646E-02 0.27911848E+03</pdfrwt>
<pdfrwt beam="2">  1       -2 0.61901263E-01 0.27911848E+03</pdfrwt>
<totfact> 0.23052569E+03</totfact>
</mgrwt>
</event>
<event>
 9    1  0.7984035E-001  0.2756220E+03  0.7818608E-02  0.1098104E+00
         -2   -1    0    0    0  501 -0.00000000000E+00  0.00000000000E+00  0.49352774739E+02  0.49352774739E+02  0.00000000000E+00 0. -1.
          2   -1    0    0  501    0  0.00000000000E+00 -0.00000000000E+00 -0.38481872338E+03  0.38481872338E+03  0.00000000000E+00 0. -1.
         35    2    1    2    0    0  0.00000000000E+00  0.00000000000E+00 -0.33546594864E+03  0.43417149811E+03  0.27562200036E+03 0.  0.
         25    2    3    3    0    0 -0.69704136684E+01 -0.19030068689E+02 -0.92747041038E+02  0.15623631703E+03  0.12408482163E+03 0.  0.
         25    2    3    3    0    0  0.69704136684E+01  0.19030068689E+02 -0.24271890760E+03  0.27793518108E+03  0.13388340672E+03 0.  0.
          5    1    4    4  502    0 -0.69168462599E+01  0.46608108225E+02 -0.65686769025E+01  0.47805815867E+02  0.47000000000E+01 0.  1.
         -5    1    4    4    0  502 -0.53567408551E-01 -0.65638176915E+02 -0.86178364135E+02  0.10843050117E+03  0.47000000000E+01 0.  1.
          5    1    5    5  503    0  0.77821667038E+00  0.75057125496E+02 -0.16930640037E+03  0.18525907512E+03  0.47000000000E+01 0. -1.
         -5    1    5    5    0  503  0.61921969980E+01 -0.56027056806E+02 -0.73412507234E+02  0.92676105963E+02  0.47000000000E+01 0. -1.
<mgrwt>
<rscale>  0 0.27562200E+03</rscale>
<asrwt>0</asrwt>
<pdfrwt beam="1">  1        2 0.59202883E-01 0.27562200E+03</pdfrwt>
<pdfrwt beam="2">  1       -2 0.75927342E-02 0.27562200E+03</pdfrwt>
<totfact> 0.84923308E+03</totfact>
</mgrwt>
</event>
<event>
 9    1  0.7984035E-001  0.2776773E+03  0.7818608E-02  0.1096964E+00
         -2   -1    0    0    0  501 -0.00000000000E+00  0.00000000000E+00  0.10719525910E+02  0.10719525910E+02  0.00000000000E+00 0. -1.
          2   -1    0    0  501    0  0.00000000000E+00 -0.00000000000E+00 -0.17982300143E+04  0.17982300143E+04  0.00000000000E+00 0. -1.
         35    2    1    2    0    0 -0.71054273576E-14 -0.35527136788E-14 -0.17875104884E+04  0.18089495402E+04  0.27767731799E+03 0.  0.
         25    2    3    3    0    0 -0.51900990948E+02  0.15173092993E+02 -0.10749968918E+04  0.10836130516E+04  0.12519981146E+03 0.  0.
         25    2    3    3    0    0  0.51900990948E+02 -0.15173092993E+02 -0.71251359666E+03  0.72533648860E+03  0.12455304352E+03 0.  0.
          5    1    4    4  502    0  0.26876113316E+02  0.43916042002E+02 -0.35808255906E+03  0.36179573425E+03  0.47000000000E+01 0.  1.
         -5    1    4    4    0  502 -0.78777104265E+02 -0.28742949010E+02 -0.71691433269E+03  0.72181731739E+03  0.47000000000E+01 0.  1.
          5    1    5    5  503    0  0.84854410935E+02 -0.39536979339E+02 -0.45682329712E+03  0.46634006752E+03  0.47000000000E+01 0. -1.
         -5    1    5    5    0  503 -0.32953419987E+02  0.24363886346E+02 -0.25569029955E+03  0.25899642108E+03  0.47000000000E+01 0. -1.
<mgrwt>
<rscale>  0 0.27767732E+03</rscale>
<asrwt>0</asrwt>
<pdfrwt beam="1">  1        2 0.27665065E+00 0.27767732E+03</pdfrwt>
<pdfrwt beam="2">  1       -2 0.16491586E-02 0.27767732E+03</pdfrwt>
<totfact> 0.97392484E+03</totfact>
</mgrwt>
</event>
<event>
 9    1  0.7984035E-001  0.2735187E+03  0.7818608E-02  0.1099283E+00
         -2   -1    0    0    0  501 -0.00000000000E+00  0.00000000000E+00  0.13951473491E+02  0.13951473491E+02  0.00000000000E+00 0.  1.
          2   -1    0    0  501    0  0.00000000000E+00 -0.00000000000E+00 -0.13405834810E+04  0.13405834810E+04  0.00000000000E+00 0.  1.
         35    2    1    2    0    0 -0.35527136788E-14 -0.35527136788E-14 -0.13266320076E+04  0.13545349545E+04  0.27351866407E+03 0.  0.
         25    2    3    3    0    0  0.56307967696E+01  0.52233213714E+01 -0.93479882064E+03  0.94318264375E+03  0.12524246661E+03 0.  0.
         25    2    3    3    0    0 -0.56307967696E+01 -0.52233213714E+01 -0.39183318692E+03  0.41135231079E+03  0.12497395034E+03 0.  0.
          5    1    4    4  502    0 -0.17433036272E+02  0.16704116463E+02 -0.33796995992E+02  0.41800301417E+02  0.47000000000E+01 0.  1.
         -5    1    4    4    0  502  0.23063833042E+02 -0.11480795092E+02 -0.90100182465E+03  0.90138234233E+03  0.47000000000E+01 0.  1.
          5    1    5    5  503    0 -0.52084401572E+02  0.30121160124E+02 -0.13416647512E+03  0.14711492861E+03  0.47000000000E+01 0.  1.
         -5    1    5    5    0  503  0.46453604802E+02 -0.35344481495E+02 -0.25766671180E+03  0.26423738218E+03  0.47000000000E+01 0.  1.
<mgrwt>
<rscale>  0 0.27351866E+03</rscale>
<asrwt>0</asrwt>
<pdfrwt beam="1">  1        2 0.20624359E+00 0.27351866E+03</pdfrwt>
<pdfrwt beam="2">  1       -2 0.21463808E-02 0.27351866E+03</pdfrwt>
<totfact> 0.11595421E+04</totfact>
</mgrwt>
</event>
<event>
 9    1  0.7984035E-001  0.2712254E+03  0.7818608E-02  0.1100580E+00
          2   -1    0    0  501    0  0.00000000000E+00  0.00000000000E+00  0.10917348303E+04  0.10917348303E+04  0.00000000000E+00 0. -1.
         -2   -1    0    0    0  501 -0.00000000000E+00 -0.00000000000E+00 -0.16845488347E+02  0.16845488347E+02  0.00000000000E+00 0. -1.
         35    2    1    2    0    0  0.00000000000E+00 -0.71054273576E-14  0.10748893419E+04  0.11085803186E+04  0.27122541445E+03 0.  0.
         25    2    3    3    0    0  0.36856246282E+02 -0.33736860401E+02  0.45101974556E+03  0.47037966593E+03  0.12386145723E+03 0.  0.
         25    2    3    3    0    0 -0.36856246282E+02  0.33736860401E+02  0.62386959634E+03  0.63820065267E+03  0.12486088736E+03 0.  0.
          5    1    4    4  502    0 -0.13777575814E+02  0.40702458587E+02  0.15788562292E+03  0.16369627869E+03  0.47000000000E+01 0.  1.
         -5    1    4    4    0  502  0.50633822096E+02 -0.74439318988E+02  0.29313412264E+03  0.30668338724E+03  0.47000000000E+01 0.  1.
          5    1    5    5  503    0 -0.72968313675E+02 -0.13997493808E+02  0.34615106919E+03  0.35406631771E+03  0.47000000000E+01 0. -1.
         -5    1    5    5    0  503  0.36112067393E+02  0.47734354210E+02  0.27771852715E+03  0.28413433496E+03  0.47000000000E+01 0. -1.
<mgrwt>
<rscale>  0 0.27122541E+03</rscale>
<asrwt>0</asrwt>
<pdfrwt beam="1">  1        2 0.16795915E+00 0.27122541E+03</pdfrwt>
<pdfrwt beam="2">  1       -2 0.25916144E-02 0.27122541E+03</pdfrwt>
<totfact> 0.12140803E+04</totfact>
</mgrwt>
</event>
<event>
 9    1  0.7984035E-001  0.2725501E+03  0.7818608E-02  0.1099829E+00
         -2   -1    0    0    0  501 -0.00000000000E+00  0.00000000000E+00  0.51915991440E+02  0.51915991440E+02  0.00000000000E+00 0.  1.
          2   -1    0    0  501    0  0.00000000000E+00 -0.00000000000E+00 -0.35771040115E+03  0.35771040115E+03  0.00000000000E+00 0.  1.
         35    2    1    2    0    0  0.14210854715E-13  0.71054273576E-14 -0.30579440971E+03  0.40962639259E+03  0.27255010640E+03 0.  0.
         25    2    3    3    0    0  0.34217071919E+02  0.40266328555E+02 -0.15259704067E+03  0.20471731529E+03  0.12582184679E+03 0.  0.
         25    2    3    3    0    0 -0.34217071919E+02 -0.40266328555E+02 -0.15319736903E+03  0.20490907730E+03  0.12540379123E+03 0.  0.
          5    1    4    4  502    0  0.73042096901E+02  0.41007792532E+02 -0.57005006956E+02  0.10143198601E+03  0.47000000000E+01 0. -1.
         -5    1    4    4    0  502 -0.38825024982E+02 -0.74146397696E+00 -0.95592033718E+02  0.10328532928E+03  0.47000000000E+01 0. -1.
          5    1    5    5  503    0 -0.80785387601E+02 -0.36707025580E+02 -0.10643583466E+03  0.13865194365E+03  0.47000000000E+01 0.  1.
         -5    1    5    5    0  503  0.46568315682E+02 -0.35593029749E+01 -0.46761534370E+02  0.66257133652E+02  0.47000000000E+01 0.  1.
<mgrwt>
<rscale>  0 0.27255011E+03</rscale>
<asrwt>0</asrwt>
<pdfrwt beam="1">  1        2 0.55032369E-01 0.27255011E+03</pdfrwt>
<pdfrwt beam="2">  1       -2 0.79870756E-02 0.27255011E+03</pdfrwt>
<totfact> 0.84892851E+03</totfact>
</mgrwt>
</event>
<event>
 9    1  0.7984035E-001  0.2762065E+03  0.7818608E-02  0.1097779E+00
         -2   -1    0    0    0  501 -0.00000000000E+00  0.00000000000E+00  0.15539979971E+02  0.15539979971E+02  0.00000000000E+00 0. -1.
          2   -1    0    0  501    0  0.00000000000E+00 -0.00000000000E+00 -0.12273185610E+04  0.12273185610E+04  0.00000000000E+00 0. -1.
         35    2    1    2    0    0 -0.35527136788E-14  0.00000000000E+00 -0.12117785810E+04  0.12428585410E+04  0.27620648693E+03 0.  0.
         25    2    3    3    0    0  0.76521800945E+00  0.25802207494E+01 -0.87439117883E+03  0.88311421531E+03  0.12378828930E+03 0.  0.
         25    2    3    3    0    0 -0.76521800945E+00 -0.25802207494E+01 -0.33738740222E+03  0.35974432568E+03  0.12481377162E+03 0.  0.
          5    1    4    4  502    0 -0.53751039462E+02 -0.23536313340E+02 -0.54678516930E+03  0.54994476419E+03  0.47000000000E+01 0. -1.
         -5    1    4    4    0  502  0.54516257472E+02  0.26116534090E+02 -0.32760600952E+03  0.33316945112E+03  0.47000000000E+01 0. -1.
          5    1    5    5  503    0 -0.28154023492E+02 -0.48627682865E+02 -0.87207266538E+02  0.10384843724E+03  0.47000000000E+01 0.  1.
         -5    1    5    5    0  503  0.27388805483E+02  0.46047462116E+02 -0.25018013568E+03  0.25589588845E+03  0.47000000000E+01 0.  1.
<mgrwt>
<rscale>  0 0.27620649E+03</rscale>
<asrwt>0</asrwt>
<pdfrwt beam="1">  1        2 0.18881828E+00 0.27620649E+03</pdfrwt>
<pdfrwt beam="2">  1       -2 0.23907656E-02 0.27620649E+03</pdfrwt>
<totfact> 0.11435598E+04</totfact>
</mgrwt>
</event>
<event>
 9    1  0.7984035E-001  0.2713234E+03  0.7818608E-02  0.1100525E+00
         -1   -1    0    0    0  501 -0.00000000000E+00  0.00000000000E+00  0.36347296698E+02  0.36347296698E+02  0.00000000000E+00 0. -1.
          1   -1    0    0  501    0  0.00000000000E+00 -0.00000000000E+00 -0.50634025471E+03  0.50634025471E+03  0.00000000000E+00 0. -1.
         35    2    1    2    0    0  0.71054273576E-14  0.35527136788E-14 -0.46999295801E+03  0.54268755141E+03  0.27132341932E+03 0.  0.
         25    2    3    3    0    0 -0.41898116470E+02  0.30690170181E+02 -0.20569000889E+03  0.24517617466E+03  0.12290499646E+03 0.  0.
         25    2    3    3    0    0  0.41898116470E+02 -0.30690170181E+02 -0.26430294912E+03  0.29751137675E+03  0.12633143579E+03 0.  0.
          5    1    4    4  502    0 -0.26933217997E+02 -0.27307955013E+02 -0.92228631895E+01  0.39727494813E+02  0.47000000000E+01 0. -1.
         -5    1    4    4    0  502 -0.14964898472E+02  0.57998125195E+02 -0.19646714570E+03  0.20544867985E+03  0.47000000000E+01 0. -1.
          5    1    5    5  503    0 -0.76773318449E+01 -0.60112096338E+02 -0.60891842455E+02  0.86036690011E+02  0.47000000000E+01 0. -1.
         -5    1    5    5    0  503  0.49575448315E+02  0.29421926156E+02 -0.20341110667E+03  0.21147468674E+03  0.47000000000E+01 0. -1.
<mgrwt>
<rscale>  0 0.27132342E+03</rscale>
<asrwt>0</asrwt>
<pdfrwt beam="1">  1        1 0.77898498E-01 0.27132342E+03</pdfrwt>
<pdfrwt beam="2">  1       -1 0.55918920E-02 0.27132342E+03</pdfrwt>
<totfact> 0.65648699E+03</totfact>
</mgrwt>
</event>
<event>
 9    1  0.7984035E-001  0.2563410E+03  0.7818608E-02  0.1109362E+00
         -2   -1    0    0    0  501 -0.00000000000E+00  0.00000000000E+00  0.32466583068E+02  0.32466583068E+02  0.00000000000E+00 0. -1.
          2   -1    0    0  501    0  0.00000000000E+00 -0.00000000000E+00 -0.50598735302E+03  0.50598735302E+03  0.00000000000E+00 0. -1.
         35    2    1    2    0    0  0.71054273576E-14  0.35527136788E-14 -0.47352076995E+03  0.53845393609E+03  0.25634102620E+03 0.  0.
         25    2    3    3    0    0 -0.45993206662E+01  0.24339624112E+02 -0.29623495090E+03  0.32134580026E+03  0.12204264072E+03 0.  0.
         25    2    3    3    0    0  0.45993206662E+01 -0.24339624112E+02 -0.17728581905E+03  0.21710813583E+03  0.12284994895E+03 0.  0.
          5    1    4    4  502    0 -0.42172355106E+02  0.28367107806E+02 -0.47538597490E+02  0.69751047245E+02  0.47000000000E+01 0. -1.
         -5    1    4    4    0  502  0.37573034440E+02 -0.40274836937E+01 -0.24869635341E+03  0.25159475301E+03  0.47000000000E+01 0. -1.
          5    1    5    5  503    0  0.40178747123E+02  0.27675430353E+02 -0.31628435612E+02  0.58332744705E+02  0.47000000000E+01 0.  1.
         -5    1    5    5    0  503 -0.35579426457E+02 -0.52015054465E+02 -0.14565738344E+03  0.15877539113E+03  0.47000000000E+01 0.  1.
<mgrwt>
<rscale>  0 0.25634103E+03</rscale>
<asrwt>0</asrwt>
<pdfrwt beam="1">  1        2 0.77844200E-01 0.25634103E+03</pdfrwt>
<pdfrwt beam="2">  1       -2 0.49948595E-02 0.25634103E+03</pdfrwt>
<totfact> 0.11925688E+04</totfact>
</mgrwt>
</event>
<event>
 9    1  0.7984035E-001  0.2740787E+03  0.7818608E-02  0.1098968E+00
          2   -1    0    0  501    0  0.00000000000E+00  0.00000000000E+00  0.87268972765E+03  0.87268972765E+03  0.00000000000E+00 0. -1.
         -2   -1    0    0    0  501 -0.00000000000E+00 -0.00000000000E+00 -0.21519424698E+02  0.21519424698E+02  0.00000000000E+00 0. -1.
         35    2    1    2    0    0  0.00000000000E+00  0.35527136788E-14  0.85117030295E+03  0.89420915234E+03  0.27407868125E+03 0.  0.
         25    2    3    3    0    0 -0.91961162667E+01  0.30401801645E+02  0.57488721056E+03  0.58929572351E+03  0.12555997287E+03 0.  0.
         25    2    3    3    0    0  0.91961162667E+01 -0.30401801645E+02  0.27628309239E+03  0.30491342884E+03  0.12502405306E+03 0.  0.
          5    1    4    4  502    0  0.13406810957E+02  0.66253902420E+02  0.18383247525E+03  0.19592292138E+03  0.47000000000E+01 0.  1.
         -5    1    4    4    0  502 -0.22602927224E+02 -0.35852100775E+02  0.39105473531E+03  0.39337280213E+03  0.47000000000E+01 0.  1.
          5    1    5    5  503    0  0.46584635907E+02 -0.46407730042E+02  0.24407693176E+03  0.25282295055E+03  0.47000000000E+01 0.  1.
         -5    1    5    5    0  503 -0.37388519641E+02  0.16005928397E+02  0.32206160633E+02  0.52090478281E+02  0.47000000000E+01 0.  1.
<mgrwt>
<rscale>  0 0.27407868E+03</rscale>
<asrwt>0</asrwt>
<pdfrwt beam="1">  1        2 0.13425993E+00 0.27407868E+03</pdfrwt>
<pdfrwt beam="2">  1       -2 0.33106814E-02 0.27407868E+03</pdfrwt>
<totfact> 0.11532967E+04</totfact>
</mgrwt>
</event>
<event>
 9    1  0.7984035E-001  0.2733017E+03  0.7818608E-02  0.1099405E+00
         -2   -1    0    0    0  501 -0.00000000000E+00  0.00000000000E+00  0.38394490755E+02  0.38394490755E+02  0.00000000000E+00 0. -1.
          2   -1    0    0  501    0  0.00000000000E+00 -0.00000000000E+00 -0.48635750381E+03  0.48635750381E+03  0.00000000000E+00 0. -1.
         35    2    1    2    0    0  0.00000000000E+00  0.00000000000E+00 -0.44796301306E+03  0.52475199456E+03  0.27330165520E+03 0.  0.
         25    2    3    3    0    0 -0.35945488713E+02  0.21446441370E+02 -0.20349533703E+03  0.24702198784E+03  0.13363189095E+03 0.  0.
         25    2    3    3    0    0  0.35945488713E+02 -0.21446441370E+02 -0.24446767602E+03  0.27773000672E+03  0.12496993241E+03 0.  0.
          5    1    4    4  502    0  0.41261505131E+02 -0.14811221384E+02 -0.29100052257E+02  0.52827901018E+02  0.47000000000E+01 0.  1.
         -5    1    4    4    0  502 -0.77206993844E+02  0.36257662754E+02 -0.17439528477E+03  0.19419408683E+03  0.47000000000E+01 0.  1.
          5    1    5    5  503    0  0.45538848591E+02 -0.17023100375E+02 -0.19702071404E+02  0.52667203219E+02  0.47000000000E+01 0.  1.
         -5    1    5    5    0  503 -0.95933598780E+01 -0.44233409947E+01 -0.22476560462E+03  0.22506280350E+03  0.47000000000E+01 0.  1.
<mgrwt>
<rscale>  0 0.27330166E+03</rscale>
<asrwt>0</asrwt>
<pdfrwt beam="1">  1        2 0.74824229E-01 0.27330166E+03</pdfrwt>
<pdfrwt beam="2">  1       -2 0.59068449E-02 0.27330166E+03</pdfrwt>
<totfact> 0.96775564E+03</totfact>
</mgrwt>
</event>
<event>
 9    1  0.7984035E-001  0.2788057E+03  0.7818608E-02  0.1096343E+00
          1   -1    0    0  501    0  0.00000000000E+00  0.00000000000E+00  0.18963669958E+04  0.18963669958E+04  0.00000000000E+00 0.  1.
         -1   -1    0    0    0  501 -0.00000000000E+00 -0.00000000000E+00 -0.10247574107E+02  0.10247574107E+02  0.00000000000E+00 0.  1.
         35    2    1    2    0    0  0.00000000000E+00  0.35527136788E-14  0.18861194217E+04  0.19066145699E+04  0.27880574832E+03 0.  0.
         25    2    3    3    0    0  0.60002452774E+02  0.14281303067E+02  0.91132512851E+03  0.92188653844E+03  0.12472790367E+03 0.  0.
         25    2    3    3    0    0 -0.60002452774E+02 -0.14281303067E+02  0.97479429320E+03  0.98472803148E+03  0.12514444443E+03 0.  0.
          5    1    4    4  502    0  0.25375407417E+02  0.68502991168E+02  0.54975326292E+03  0.55460554558E+03  0.47000000000E+01 0.  1.
         -5    1    4    4    0  502  0.34627045357E+02 -0.54221688101E+02  0.36157186559E+03  0.36728099286E+03  0.47000000000E+01 0.  1.
          5    1    5    5  503    0  0.33363281494E+02 -0.25749104298E+01  0.11719699429E+03  0.12197116129E+03  0.47000000000E+01 0. -1.
         -5    1    5    5    0  503 -0.93365734268E+02 -0.11706392637E+02  0.85759729891E+03  0.86275687019E+03  0.47000000000E+01 0. -1.
<mgrwt>
<rscale>  0 0.27880575E+03</rscale>
<asrwt>0</asrwt>
<pdfrwt beam="1">  1        1 0.29174849E+00 0.27880575E+03</pdfrwt>
<pdfrwt beam="2">  1       -1 0.15765514E-02 0.27880575E+03</pdfrwt>
<totfact> 0.38238352E+03</totfact>
</mgrwt>
</event>
<event>
 9    1  0.7984035E-001  0.2761943E+03  0.7818608E-02  0.1097786E+00
          1   -1    0    0  501    0  0.00000000000E+00  0.00000000000E+00  0.59405605161E+03  0.59405605161E+03  0.00000000000E+00 0. -1.
         -1   -1    0    0    0  501 -0.00000000000E+00 -0.00000000000E+00 -0.32102744209E+02  0.32102744209E+02  0.00000000000E+00 0. -1.
         35    2    1    2    0    0 -0.62172489379E-14  0.00000000000E+00  0.56195330740E+03  0.62615879582E+03  0.27619434803E+03 0.  0.
         25    2    3    3    0    0 -0.48653232132E+01  0.61964002724E+02  0.30694140090E+03  0.33546254774E+03  0.12024511776E+03 0.  0.
         25    2    3    3    0    0  0.48653232132E+01 -0.61964002724E+02  0.25501190650E+03  0.29069624808E+03  0.12494009439E+03 0.  0.
          5    1    4    4  502    0  0.68322694599E+01 -0.35759122626E+02  0.77201972027E+02  0.85484672555E+02  0.47000000000E+01 0.  1.
         -5    1    4    4    0  502 -0.11697592673E+02  0.97723125350E+02  0.22973942887E+03  0.24997787519E+03  0.47000000000E+01 0.  1.
          5    1    5    5  503    0  0.51324946272E+02 -0.69358827567E+02  0.12176921168E+03  0.14931419218E+03  0.47000000000E+01 0. -1.
         -5    1    5    5    0  503 -0.46459623059E+02  0.73948248429E+01  0.13324269482E+03  0.14138205591E+03  0.47000000000E+01 0. -1.
<mgrwt>
<rscale>  0 0.27619435E+03</rscale>
<asrwt>0</asrwt>
<pdfrwt beam="1">  1        1 0.91393230E-01 0.27619435E+03</pdfrwt>
<pdfrwt beam="2">  1       -1 0.49388842E-02 0.27619435E+03</pdfrwt>
<totfact> 0.63714539E+03</totfact>
</mgrwt>
</event>
<event>
 9    1  0.7984035E-001  0.2741718E+03  0.7818608E-02  0.1098915E+00
          2   -1    0    0  501    0  0.00000000000E+00  0.00000000000E+00  0.52778946000E+03  0.52778946000E+03  0.00000000000E+00 0.  1.
         -2   -1    0    0    0  501 -0.00000000000E+00 -0.00000000000E+00 -0.35606127527E+02  0.35606127527E+02  0.00000000000E+00 0.  1.
         35    2    1    2    0    0  0.35527136788E-14  0.00000000000E+00  0.49218333248E+03  0.56339558753E+03  0.27417176237E+03 0.  0.
         25    2    3    3    0    0 -0.21199273153E+01 -0.56549563636E+02  0.25298866183E+03  0.28767491600E+03  0.12470463921E+03 0.  0.
         25    2    3    3    0    0  0.21199273153E+01  0.56549563636E+02  0.23919467065E+03  0.27572067154E+03  0.12492177954E+03 0.  0.
          5    1    4    4  502    0 -0.32108988563E+02 -0.87515305061E+02  0.18055026975E+03  0.20324961420E+03  0.47000000000E+01 0.  1.
         -5    1    4    4    0  502  0.29989061247E+02  0.30965741424E+02  0.72438392073E+02  0.84425301792E+02  0.47000000000E+01 0.  1.
          5    1    5    5  503    0 -0.52354996308E+02  0.53549984510E+02  0.18035340942E+03  0.19534095518E+03  0.47000000000E+01 0.  1.
         -5    1    5    5    0  503  0.54474923623E+02  0.29995791267E+01  0.58841261230E+02  0.80379716358E+02  0.47000000000E+01 0.  1.
<mgrwt>
<rscale>  0 0.27417176E+03</rscale>
<asrwt>0</asrwt>
<pdfrwt beam="1">  1        2 0.81198373E-01 0.27417176E+03</pdfrwt>
<pdfrwt beam="2">  1       -2 0.54778662E-02 0.27417176E+03</pdfrwt>
<totfact> 0.99103487E+03</totfact>
</mgrwt>
</event>
<event>
 9    1  0.7984035E-001  0.2773859E+03  0.7818608E-02  0.1097125E+00
          3   -1    0    0  501    0  0.00000000000E+00  0.00000000000E+00  0.14565588983E+03  0.14565588983E+03  0.00000000000E+00 0.  1.
         -3   -1    0    0    0  501 -0.00000000000E+00 -0.00000000000E+00 -0.13206286840E+03  0.13206286840E+03  0.00000000000E+00 0.  1.
         35    2    1    2    0    0  0.00000000000E+00 -0.35527136788E-14  0.13593021429E+02  0.27771875822E+03  0.27738590166E+03 0.  0.
         25    2    3    3    0    0 -0.59028932447E+02  0.11202205261E+02 -0.85273378445E+01  0.13742239770E+03  0.12329758971E+03 0.  0.
         25    2    3    3    0    0  0.59028932447E+02 -0.11202205261E+02  0.22120359274E+02  0.14029636053E+03  0.12483530836E+03 0.  0.
          5    1    4    4  502    0 -0.22980377078E+02  0.14724756449E+02  0.56453247214E+02  0.62880643318E+02  0.47000000000E+01 0. -1.
         -5    1    4    4    0  502 -0.36048555370E+02 -0.35225511878E+01 -0.64980585059E+02  0.74541754378E+02  0.47000000000E+01 0. -1.
          5    1    5    5  503    0  0.52436362255E+02  0.52339518291E+02  0.16067162116E+02  0.75955519614E+02  0.47000000000E+01 0. -1.
         -5    1    5    5    0  503  0.65925701925E+01 -0.63541723552E+02  0.60531971584E+01  0.64340840914E+02  0.47000000000E+01 0. -1.
<mgrwt>
<rscale>  0 0.27738590E+03</rscale>
<asrwt>0</asrwt>
<pdfrwt beam="1">  1        3 0.22408598E-01 0.27738590E+03</pdfrwt>
<pdfrwt beam="2">  1       -3 0.20317364E-01 0.27738590E+03</pdfrwt>
<totfact> 0.10174043E+03</totfact>
</mgrwt>
</event>
<event>
 9    1  0.7984035E-001  0.2772352E+03  0.7818608E-02  0.1097209E+00
         -1   -1    0    0    0  501 -0.00000000000E+00  0.00000000000E+00  0.11849406705E+03  0.11849406705E+03  0.00000000000E+00 0. -1.
          1   -1    0    0  501    0  0.00000000000E+00 -0.00000000000E+00 -0.16215866730E+03  0.16215866730E+03  0.00000000000E+00 0. -1.
         35    2    1    2    0    0  0.00000000000E+00  0.00000000000E+00 -0.43664600255E+02  0.28065273435E+03  0.27723520697E+03 0.  0.
         25    2    3    3    0    0  0.27834171905E+02 -0.43565863837E+02 -0.51866389399E+02  0.14515510881E+03  0.12532819973E+03 0.  0.
         25    2    3    3    0    0 -0.27834171905E+02  0.43565863837E+02  0.82017891436E+01  0.13549762554E+03  0.12497844440E+03 0.  0.
          5    1    4    4  502    0  0.93956828720E+01 -0.70674987377E+02  0.12716814993E+02  0.72574376201E+02  0.47000000000E+01 0. -1.
         -5    1    4    4    0  502  0.18438489033E+02  0.27109123541E+02 -0.64583204391E+02  0.72580732612E+02  0.47000000000E+01 0. -1.
          5    1    5    5  503    0 -0.52731674869E+02 -0.27557846048E+02  0.15625057458E+01  0.59704236345E+02  0.47000000000E+01 0.  1.
         -5    1    5    5    0  503  0.24897502964E+02  0.71123709884E+02  0.66392833978E+01  0.75793389194E+02  0.47000000000E+01 0.  1.
<mgrwt>
<rscale>  0 0.27723521E+03</rscale>
<asrwt>0</asrwt>
<pdfrwt beam="1">  1        1 0.24947487E-01 0.27723521E+03</pdfrwt>
<pdfrwt beam="2">  1       -1 0.18229857E-01 0.27723521E+03</pdfrwt>
<totfact> 0.44733483E+03</totfact>
</mgrwt>
</event>
<event>
 9    1  0.7984035E-001  0.2790716E+03  0.7818608E-02  0.1096197E+00
          1   -1    0    0  501    0  0.00000000000E+00  0.00000000000E+00  0.69011456493E+02  0.69011456493E+02  0.00000000000E+00 0.  1.
         -1   -1    0    0    0  501 -0.00000000000E+00 -0.00000000000E+00 -0.28213046890E+03  0.28213046890E+03  0.00000000000E+00 0.  1.
         35    2    1    2    0    0  0.00000000000E+00  0.71054273576E-14 -0.21311901241E+03  0.35114192539E+03  0.27907156487E+03 0.  0.
         25    2    3    3    0    0 -0.53108983089E+02 -0.15036743492E+02 -0.14241132874E+03  0.19763507712E+03  0.12542714783E+03 0.  0.
         25    2    3    3    0    0  0.53108983089E+02  0.15036743492E+02 -0.70707683665E+02  0.15350684828E+03  0.12457169903E+03 0.  0.
          5    1    4    4  502    0  0.89211808899E+01 -0.59154389929E+02 -0.73148891206E+02  0.94613316193E+02  0.47000000000E+01 0. -1.
         -5    1    4    4    0  502 -0.62030163979E+02  0.44117646437E+02 -0.69262437537E+02  0.10302176092E+03  0.47000000000E+01 0. -1.
          5    1    5    5  503    0  0.13111605402E+02 -0.53137954482E+02 -0.15832641305E+02  0.57169213161E+02  0.47000000000E+01 0. -1.
         -5    1    5    5    0  503  0.39997377687E+02  0.68174697974E+02 -0.54875042360E+02  0.96337635116E+02  0.47000000000E+01 0. -1.
<mgrwt>
<rscale>  0 0.27907156E+03</rscale>
<asrwt>0</asrwt>
<pdfrwt beam="1">  1        1 0.10617147E-01 0.27907156E+03</pdfrwt>
<pdfrwt beam="2">  1       -1 0.43404687E-01 0.27907156E+03</pdfrwt>
<totfact> 0.31415158E+03</totfact>
</mgrwt>
</event>
<event>
 9    1  0.7984035E-001  0.2751240E+03  0.7818608E-02  0.1098382E+00
         -1   -1    0    0    0  501 -0.00000000000E+00  0.00000000000E+00  0.19186348101E+03  0.19186348101E+03  0.00000000000E+00 0. -1.
          1   -1    0    0  501    0  0.00000000000E+00 -0.00000000000E+00 -0.98628989650E+02  0.98628989650E+02  0.00000000000E+00 0. -1.
         35    2    1    2    0    0  0.71054273576E-14 -0.88817841970E-15  0.93234491360E+02  0.29049247066E+03  0.27512398138E+03 0.  0.
         25    2    3    3    0    0  0.34125123586E+02  0.64908476147E+01  0.90264907847E+02  0.16084144921E+03  0.12851289054E+03 0.  0.
         25    2    3    3    0    0 -0.34125123586E+02 -0.64908476147E+01  0.29695835128E+01  0.12965102145E+03  0.12487559319E+03 0.  0.
          5    1    4    4  502    0  0.40044167447E+02  0.92042292361E+00 -0.23508644877E+02  0.46681140826E+02  0.47000000000E+01 0.  1.
         -5    1    4    4    0  502 -0.59190438607E+01  0.55704246911E+01  0.11377355272E+03  0.11416030839E+03  0.47000000000E+01 0.  1.
          5    1    5    5  503    0  0.27441697524E+02 -0.25054329793E+02 -0.37922667446E+02  0.53300890336E+02  0.47000000000E+01 0.  1.
         -5    1    5    5    0  503 -0.61566821110E+02  0.18563482178E+02  0.40892250959E+02  0.76350131111E+02  0.47000000000E+01 0.  1.
<mgrwt>
<rscale>  0 0.27512398E+03</rscale>
<asrwt>0</asrwt>
<pdfrwt beam="1">  1        1 0.15173691E-01 0.27512398E+03</pdfrwt>
<pdfrwt beam="2">  1       -1 0.29517459E-01 0.27512398E+03</pdfrwt>
<totfact> 0.38345018E+03</totfact>
</mgrwt>
</event>
<event>
 9    1  0.7984035E-001  0.2752310E+03  0.7818608E-02  0.1098323E+00
          1   -1    0    0  501    0  0.00000000000E+00  0.00000000000E+00  0.52882776614E+03  0.52882776614E+03  0.00000000000E+00 0.  1.
         -1   -1    0    0    0  501 -0.00000000000E+00 -0.00000000000E+00 -0.35811342770E+02  0.35811342770E+02  0.00000000000E+00 0.  1.
         35    2    1    2    0    0  0.00000000000E+00 -0.35527136788E-14  0.49301642337E+03  0.56463910891E+03  0.27523104766E+03 0.  0.
         25    2    3    3    0    0  0.35923339638E+02 -0.25072587609E+02  0.17007385008E+03  0.21524825509E+03  0.12444908942E+03 0.  0.
         25    2    3    3    0    0 -0.35923339638E+02  0.25072587609E+02  0.32294257328E+03  0.34939085381E+03  0.12594817232E+03 0.  0.
          5    1    4    4  502    0 -0.42414588940E+02 -0.29563409521E+02  0.83401142902E+02  0.98238654179E+02  0.47000000000E+01 0. -1.
         -5    1    4    4    0  502  0.78337928578E+02  0.44908219120E+01  0.86672707182E+02  0.11700960091E+03  0.47000000000E+01 0. -1.
          5    1    5    5  503    0 -0.41186852549E+02  0.71450422109E+02  0.24351491014E+03  0.25714416405E+03  0.47000000000E+01 0.  1.
         -5    1    5    5    0  503  0.52635129109E+01 -0.46377834500E+02  0.79427663141E+02  0.92246689768E+02  0.47000000000E+01 0.  1.
<mgrwt>
<rscale>  0 0.27523105E+03</rscale>
<asrwt>0</asrwt>
<pdfrwt beam="1">  1        1 0.81358112E-01 0.27523105E+03</pdfrwt>
<pdfrwt beam="2">  1       -1 0.55094377E-02 0.27523105E+03</pdfrwt>
<totfact> 0.63367641E+03</totfact>
</mgrwt>
</event>
<event>
 9    1  0.7984035E-001  0.2719166E+03  0.7818608E-02  0.1100188E+00
         -2   -1    0    0    0  501 -0.00000000000E+00  0.00000000000E+00  0.14785256180E+03  0.14785256180E+03  0.00000000000E+00 0. -1.
          2   -1    0    0  501    0  0.00000000000E+00 -0.00000000000E+00 -0.12502091968E+03  0.12502091968E+03  0.00000000000E+00 0. -1.
         35    2    1    2    0    0  0.00000000000E+00  0.00000000000E+00  0.22831642127E+02  0.27287348148E+03  0.27191662879E+03 0.  0.
         25    2    3    3    0    0  0.36531665781E+02 -0.31624138231E+02 -0.16095209357E+02  0.13675407855E+03  0.12691719156E+03 0.  0.
         25    2    3    3    0    0 -0.36531665781E+02  0.31624138231E+02  0.38926851485E+02  0.13611940293E+03  0.12115503854E+03 0.  0.
          5    1    4    4  502    0 -0.43442526200E+02  0.69199339488E+00  0.13011948132E+02  0.45597507955E+02  0.47000000000E+01 0.  1.
         -5    1    4    4    0  502  0.79974191982E+02 -0.32316131626E+02 -0.29107157489E+02  0.91156570600E+02  0.47000000000E+01 0.  1.
          5    1    5    5  503    0  0.23507229310E+01  0.72615925112E+02  0.29919975760E+02  0.78713997660E+02  0.47000000000E+01 0. -1.
         -5    1    5    5    0  503 -0.38882388712E+02 -0.40991786881E+02  0.90068757251E+01  0.57405405268E+02  0.47000000000E+01 0. -1.
<mgrwt>
<rscale>  0 0.27191663E+03</rscale>
<asrwt>0</asrwt>
<pdfrwt beam="1">  1        2 0.19233988E-01 0.27191663E+03</pdfrwt>
<pdfrwt beam="2">  1       -2 0.22746548E-01 0.27191663E+03</pdfrwt>
<totfact> 0.48460873E+03</totfact>
</mgrwt>
</event>
<event>
 9    1  0.7984035E-001  0.2708710E+03  0.7818608E-02  0.1100782E+00
         -2   -1    0    0    0  501 -0.00000000000E+00  0.00000000000E+00  0.30256923580E+02  0.30256923580E+02  0.00000000000E+00 0.  1.
          2   -1    0    0  501    0  0.00000000000E+00 -0.00000000000E+00 -0.60623401016E+03  0.60623401016E+03  0.00000000000E+00 0.  1.
         35    2    1    2    0    0 -0.35527136788E-14 -0.35527136788E-14 -0.57597708658E+03  0.63649093374E+03  0.27087101076E+03 0.  0.
         25    2    3    3    0    0 -0.84028658520E+01 -0.87518200690E+01 -0.16642885971E+03  0.20841429574E+03  0.12486292810E+03 0.  0.
         25    2    3    3    0    0  0.84028658520E+01  0.87518200690E+01 -0.40954822687E+03  0.42807663800E+03  0.12398651282E+03 0.  0.
          5    1    4    4  502    0  0.37590591812E+02  0.17637486117E+02 -0.97103316712E+01  0.42901212693E+02  0.47000000000E+01 0. -1.
         -5    1    4    4    0  502 -0.45993457664E+02 -0.26389306186E+02 -0.15671852803E+03  0.16551308304E+03  0.47000000000E+01 0. -1.
          5    1    5    5  503    0 -0.14714535880E+02 -0.54045042254E+02 -0.21766706376E+03  0.22480752835E+03  0.47000000000E+01 0. -1.
         -5    1    5    5    0  503  0.23117401732E+02  0.62796862323E+02 -0.19188116312E+03  0.20326910965E+03  0.47000000000E+01 0. -1.
<mgrwt>
<rscale>  0 0.27087101E+03</rscale>
<asrwt>0</asrwt>
<pdfrwt beam="1">  1        2 0.93266767E-01 0.27087101E+03</pdfrwt>
<pdfrwt beam="2">  1       -2 0.46549115E-02 0.27087101E+03</pdfrwt>
<totfact> 0.10824575E+04</totfact>
</mgrwt>
</event>
<event>
 9    1  0.7984035E-001  0.2753024E+03  0.7818608E-02  0.1098283E+00
         -2   -1    0    0    0  501 -0.00000000000E+00  0.00000000000E+00  0.48380126565E+02  0.48380126565E+02  0.00000000000E+00 0. -1.
          2   -1    0    0  501    0  0.00000000000E+00 -0.00000000000E+00 -0.39164541902E+03  0.39164541902E+03  0.00000000000E+00 0. -1.
         35    2    1    2    0    0  0.26645352591E-14  0.00000000000E+00 -0.34326529245E+03  0.44002554559E+03  0.27530241511E+03 0.  0.
         25    2    3    3    0    0 -0.37836080474E+01  0.54262576796E+02 -0.20102664115E+03  0.24292030340E+03  0.12505926765E+03 0.  0.
         25    2    3    3    0    0  0.37836080474E+01 -0.54262576796E+02 -0.14223865131E+03  0.19710524218E+03  0.12513952069E+03 0.  0.
          5    1    4    4  502    0 -0.20585755378E+01 -0.30187358913E+02 -0.72283289046E+01  0.31461931126E+02  0.47000000000E+01 0. -1.
         -5    1    4    4    0  502 -0.17250325096E+01  0.84449935710E+02 -0.19379831224E+03  0.21145837228E+03  0.47000000000E+01 0. -1.
          5    1    5    5  503    0 -0.49191103448E+02 -0.13652426194E+02 -0.15118827245E+02  0.53449250104E+02  0.47000000000E+01 0.  1.
         -5    1    5    5    0  503  0.52974711496E+02 -0.40610150603E+02 -0.12711982406E+03  0.14365599208E+03  0.47000000000E+01 0.  1.
<mgrwt>
<rscale>  0 0.27530242E+03</rscale>
<asrwt>0</asrwt>
<pdfrwt beam="1">  1        2 0.60253140E-01 0.27530242E+03</pdfrwt>
<pdfrwt beam="2">  1       -2 0.74430965E-02 0.27530242E+03</pdfrwt>
<totfact> 0.85936057E+03</totfact>
</mgrwt>
</event>
<event>
 9    1  0.7984035E-001  0.2720767E+03  0.7818608E-02  0.1100097E+00
         -4   -1    0    0    0  501 -0.00000000000E+00  0.00000000000E+00  0.32734737404E+03  0.32734737404E+03  0.00000000000E+00 0.  1.
          4   -1    0    0  501    0  0.00000000000E+00 -0.00000000000E+00 -0.56534545604E+02  0.56534545604E+02  0.00000000000E+00 0.  1.
         35    2    1    2    0    0  0.00000000000E+00  0.71054273576E-14  0.27081282844E+03  0.38388191965E+03  0.27207671746E+03 0.  0.
         25    2    3    3    0    0 -0.10620227905E+02  0.46995910324E+02  0.17008222656E+03  0.21632867536E+03  0.12469453543E+03 0.  0.
         25    2    3    3    0    0  0.10620227905E+02 -0.46995910324E+02  0.10073060188E+03  0.16755324428E+03  0.12492409970E+03 0.  0.
          5    1    4    4  502    0 -0.66909887846E+02  0.22568142459E+02  0.10625096612E+03  0.12766210067E+03  0.47000000000E+01 0.  1.
         -5    1    4    4    0  502  0.56289659941E+02  0.24427767865E+02  0.63831260434E+02  0.88666574693E+02  0.47000000000E+01 0.  1.
          5    1    5    5  503    0 -0.34170070873E+02  0.29260164868E+02  0.31010810673E+02  0.54840781998E+02  0.47000000000E+01 0.  1.
         -5    1    5    5    0  503  0.44790298778E+02 -0.76256075192E+02  0.69719791208E+02  0.11271246229E+03  0.47000000000E+01 0.  1.
<mgrwt>
<rscale>  0 0.27207672E+03</rscale>
<asrwt>0</asrwt>
<pdfrwt beam="1">  1        4 0.86976226E-02 0.27207672E+03</pdfrwt>
<pdfrwt beam="2">  1       -4 0.50361133E-01 0.27207672E+03</pdfrwt>
<totfact> 0.68687410E+02</totfact>
</mgrwt>
</event>
<event>
 9    1  0.7984035E-001  0.2768077E+03  0.7818608E-02  0.1097445E+00
         -2   -1    0    0    0  501 -0.00000000000E+00  0.00000000000E+00  0.14456004390E+02  0.14456004390E+02  0.00000000000E+00 0. -1.
          2   -1    0    0  501    0  0.00000000000E+00 -0.00000000000E+00 -0.13250978690E+04  0.13250978690E+04  0.00000000000E+00 0. -1.
         35    2    1    2    0    0 -0.71054273576E-14  0.00000000000E+00 -0.13106418646E+04  0.13395538734E+04  0.27680766327E+03 0.  0.
         25    2    3    3    0    0  0.42998040091E+02 -0.31696368303E+02 -0.52693605757E+03  0.54414646248E+03  0.12482096239E+03 0.  0.
         25    2    3    3    0    0 -0.42998040091E+02  0.31696368303E+02 -0.78370580705E+03  0.79540741092E+03  0.12499866447E+03 0.  0.
          5    1    4    4  502    0  0.43943590856E+02 -0.62995701068E+02 -0.48766947043E+03  0.49370345342E+03  0.47000000000E+01 0.  1.
         -5    1    4    4    0  502 -0.94555076570E+00  0.31299332764E+02 -0.39266587138E+02  0.50443009062E+02  0.47000000000E+01 0.  1.
          5    1    5    5  503    0 -0.30453978350E+02 -0.38575613998E+02 -0.51433609439E+03  0.51670032977E+03  0.47000000000E+01 0. -1.
         -5    1    5    5    0  503 -0.12544061741E+02  0.70271982301E+02 -0.26936971266E+03  0.27870708115E+03  0.47000000000E+01 0. -1.
<mgrwt>
<rscale>  0 0.27680766E+03</rscale>
<asrwt>0</asrwt>
<pdfrwt beam="1">  1        2 0.20386124E+00 0.27680766E+03</pdfrwt>
<pdfrwt beam="2">  1       -2 0.22240004E-02 0.27680766E+03</pdfrwt>
<totfact> 0.11224841E+04</totfact>
</mgrwt>
</event>
<event>
 9    1  0.7984035E-001  0.2778158E+03  0.7818608E-02  0.1096888E+00
          2   -1    0    0  501    0  0.00000000000E+00  0.00000000000E+00  0.89240489440E+03  0.89240489440E+03  0.00000000000E+00 0. -1.
         -2   -1    0    0    0  501 -0.00000000000E+00 -0.00000000000E+00 -0.21621803006E+02  0.21621803006E+02  0.00000000000E+00 0. -1.
         35    2    1    2    0    0  0.71054273576E-14 -0.71054273576E-14  0.87078309139E+03  0.91402669740E+03  0.27781578665E+03 0.  0.
         25    2    3    3    0    0 -0.20297640788E+02  0.48496875627E+02  0.31873754274E+03  0.34566072756E+03  0.12297876345E+03 0.  0.
         25    2    3    3    0    0  0.20297640788E+02 -0.48496875627E+02  0.55204554865E+03  0.56836596984E+03  0.12458590098E+03 0.  0.
          5    1    4    4  502    0 -0.22117817041E+02  0.53245752152E+01  0.29542718253E+03  0.29633909481E+03  0.47000000000E+01 0. -1.
         -5    1    4    4    0  502  0.18201762532E+01  0.43172300412E+02  0.23310360207E+02  0.49321632753E+02  0.47000000000E+01 0. -1.
          5    1    5    5  503    0 -0.18388860748E+01 -0.13755539764E+01  0.47632860221E+03  0.47635732485E+03  0.47000000000E+01 0. -1.
         -5    1    5    5    0  503  0.22136526863E+02 -0.47121321651E+02  0.75716946435E+02  0.92008644991E+02  0.47000000000E+01 0. -1.
<mgrwt>
<rscale>  0 0.27781579E+03</rscale>
<asrwt>0</asrwt>
<pdfrwt beam="1">  1        2 0.13729303E+00 0.27781579E+03</pdfrwt>
<pdfrwt beam="2">  1       -2 0.33264319E-02 0.27781579E+03</pdfrwt>
<totfact> 0.11122043E+04</totfact>
</mgrwt>
</event>
<event>
 9    1  0.7984035E-001  0.2750264E+03  0.7818608E-02  0.1098437E+00
          2   -1    0    0  501    0  0.00000000000E+00  0.00000000000E+00  0.53932581472E+02  0.53932581472E+02  0.00000000000E+00 0.  1.
         -2   -1    0    0    0  501 -0.00000000000E+00 -0.00000000000E+00 -0.35062082177E+03  0.35062082177E+03  0.00000000000E+00 0.  1.
         35    2    1    2    0    0 -0.71054273576E-14  0.00000000000E+00 -0.29668824030E+03  0.40455340324E+03  0.27502644262E+03 0.  0.
         25    2    3    3    0    0  0.38721953161E+02 -0.81805385123E+01 -0.21074052474E+03  0.24792833240E+03  0.12446115205E+03 0.  0.
         25    2    3    3    0    0 -0.38721953161E+02  0.81805385123E+01 -0.85947715552E+02  0.15662507084E+03  0.12481222753E+03 0.  0.
          5    1    4    4  502    0 -0.34063009751E+02  0.30017006853E+02 -0.52633878511E+02  0.69668676612E+02  0.47000000000E+01 0.  1.
         -5    1    4    4    0  502  0.72784962912E+02 -0.38197545365E+02 -0.15810664623E+03  0.17825965579E+03  0.47000000000E+01 0.  1.
          5    1    5    5  503    0 -0.76384372698E+02  0.24689876611E+02 -0.82318713494E+02  0.11507659619E+03  0.47000000000E+01 0. -1.
         -5    1    5    5    0  503  0.37662419537E+02 -0.16509338099E+02 -0.36290020577E+01  0.41548474651E+02  0.47000000000E+01 0. -1.
<mgrwt>
<rscale>  0 0.27502644E+03</rscale>
<asrwt>0</asrwt>
<pdfrwt beam="1">  1        2 0.82973200E-02 0.27502644E+03</pdfrwt>
<pdfrwt beam="2">  1       -2 0.53941666E-01 0.27502644E+03</pdfrwt>
<totfact> 0.26644688E+03</totfact>
</mgrwt>
</event>
<event>
 9    1  0.7984035E-001  0.2764084E+03  0.7818608E-02  0.1097667E+00
          2   -1    0    0  501    0  0.00000000000E+00  0.00000000000E+00  0.22131248066E+02  0.22131248066E+02  0.00000000000E+00 0.  1.
         -2   -1    0    0    0  501 -0.00000000000E+00 -0.00000000000E+00 -0.86305112354E+03  0.86305112354E+03  0.00000000000E+00 0.  1.
         35    2    1    2    0    0  0.00000000000E+00  0.00000000000E+00 -0.84091987548E+03  0.88518237161E+03  0.27640838271E+03 0.  0.
         25    2    3    3    0    0  0.29982503384E+02  0.12541221227E+02 -0.26392927085E+03  0.29419935541E+03  0.12585057795E+03 0.  0.
         25    2    3    3    0    0 -0.29982503384E+02 -0.12541221227E+02 -0.57699060462E+03  0.59098301620E+03  0.12363872724E+03 0.  0.
          5    1    4    4  502    0 -0.16881789313E+02  0.45280763923E+02 -0.20975153966E+03  0.21529779558E+03  0.47000000000E+01 0. -1.
         -5    1    4    4    0  502  0.46864292697E+02 -0.32739542695E+02 -0.54177731190E+02  0.78901559825E+02  0.47000000000E+01 0. -1.
          5    1    5    5  503    0 -0.57183341342E+02  0.25506231010E+02 -0.16889432346E+03  0.18018847034E+03  0.47000000000E+01 0. -1.
         -5    1    5    5    0  503  0.27200837957E+02 -0.38047452237E+02 -0.40809628117E+03  0.41079454586E+03  0.47000000000E+01 0. -1.
<mgrwt>
<rscale>  0 0.27640838E+03</rscale>
<asrwt>0</asrwt>
<pdfrwt beam="1">  1        2 0.34048074E-02 0.27640838E+03</pdfrwt>
<pdfrwt beam="2">  1       -2 0.13277710E+00 0.27640838E+03</pdfrwt>
<totfact> 0.11406243E+03</totfact>
</mgrwt>
</event>
<event>
 9    1  0.7984035E-001  0.2768902E+03  0.7818608E-02  0.1097400E+00
          2   -1    0    0  501    0  0.00000000000E+00  0.00000000000E+00  0.22256298163E+04  0.22256298163E+04  0.00000000000E+00 0. -1.
         -2   -1    0    0    0  501 -0.00000000000E+00 -0.00000000000E+00 -0.86119632744E+01  0.86119632744E+01  0.00000000000E+00 0. -1.
         35    2    1    2    0    0  0.14210854715E-13  0.71054273576E-14  0.22170178530E+04  0.22342417796E+04  0.27689017491E+03 0.  0.
         25    2    3    3    0    0 -0.42609311807E+02 -0.38313665615E+02  0.12427017538E+04  0.12502867796E+04  0.12500356782E+03 0.  0.
         25    2    3    3    0    0  0.42609311807E+02  0.38313665615E+02  0.97431609925E+03  0.98395499998E+03  0.12486829182E+03 0.  0.
          5    1    4    4  502    0  0.30918421050E+01  0.11448528956E+02  0.94059372733E+03  0.94068022101E+03  0.47000000000E+01 0.  1.
         -5    1    4    4    0  502 -0.45701153912E+02 -0.49762194571E+02  0.30210802645E+03  0.30960655859E+03  0.47000000000E+01 0.  1.
          5    1    5    5  503    0 -0.19112307043E+02  0.51996060081E+02  0.70874662130E+03  0.71092385932E+03  0.47000000000E+01 0. -1.
         -5    1    5    5    0  503  0.61721618850E+02 -0.13682394466E+02  0.26556947794E+03  0.27303114065E+03  0.47000000000E+01 0. -1.
<mgrwt>
<rscale>  0 0.27689017E+03</rscale>
<asrwt>0</asrwt>
<pdfrwt beam="1">  1        2 0.34240413E+00 0.27689017E+03</pdfrwt>
<pdfrwt beam="2">  1       -2 0.13249192E-02 0.27689017E+03</pdfrwt>
<totfact> 0.79830602E+03</totfact>
</mgrwt>
</event>
<event>
 9    1  0.7984035E-001  0.2732982E+03  0.7818608E-02  0.1099407E+00
          2   -1    0    0  501    0  0.00000000000E+00  0.00000000000E+00  0.66518092394E+03  0.66518092394E+03  0.00000000000E+00 0.  1.
         -2   -1    0    0    0  501 -0.00000000000E+00 -0.00000000000E+00 -0.28072020865E+02  0.28072020865E+02  0.00000000000E+00 0.  1.
         35    2    1    2    0    0  0.14210854715E-13  0.00000000000E+00  0.63710890307E+03  0.69325294480E+03  0.27329817252E+03 0.  0.
         25    2    3    3    0    0 -0.48552493811E+02 -0.24918184790E+02  0.38749824686E+03  0.41049578664E+03  0.12399047923E+03 0.  0.
         25    2    3    3    0    0  0.48552493811E+02  0.24918184790E+02  0.24961065621E+03  0.28275715816E+03  0.12111098302E+03 0.  0.
          5    1    4    4  502    0 -0.52702966382E+02  0.30990196243E+02  0.98160066154E+02  0.11573885914E+03  0.47000000000E+01 0. -1.
         -5    1    4    4    0  502  0.41504725712E+01 -0.55908381033E+02  0.28933818070E+03  0.29475692749E+03  0.47000000000E+01 0. -1.
          5    1    5    5  503    0 -0.14515231089E+02 -0.39411050041E+02  0.70082669559E+02  0.81838825574E+02  0.47000000000E+01 0. -1.
         -5    1    5    5    0  503  0.63067724900E+02  0.64329234831E+02  0.17952798665E+03  0.20091833259E+03  0.47000000000E+01 0. -1.
<mgrwt>
<rscale>  0 0.27329817E+03</rscale>
<asrwt>0</asrwt>
<pdfrwt beam="1">  1        2 0.10233552E+00 0.27329817E+03</pdfrwt>
<pdfrwt beam="2">  1       -2 0.43187729E-02 0.27329817E+03</pdfrwt>
<totfact> 0.10870776E+04</totfact>
</mgrwt>
</event>
<event>
 9    1  0.7984035E-001  0.2758702E+03  0.7818608E-02  0.1097966E+00
          2   -1    0    0  501    0  0.00000000000E+00  0.00000000000E+00  0.53405468541E+03  0.53405468541E+03  0.00000000000E+00 0. -1.
         -2   -1    0    0    0  501 -0.00000000000E+00 -0.00000000000E+00 -0.35625737535E+02  0.35625737535E+02  0.00000000000E+00 0. -1.
         35    2    1    2    0    0 -0.17763568394E-14  0.17763568394E-14  0.49842894788E+03  0.56968042295E+03  0.27587020174E+03 0.  0.
         25    2    3    3    0    0  0.13483381372E+02 -0.83206626815E+01  0.13275776479E+03  0.18287267839E+03  0.12476681205E+03 0.  0.
         25    2    3    3    0    0 -0.13483381372E+02  0.83206626815E+01  0.36567118309E+03  0.38680774456E+03  0.12511507546E+03 0.  0.
          5    1    4    4  502    0  0.13008949767E+02 -0.11719198701E+02 -0.21716396052E+02  0.28288942181E+02  0.47000000000E+01 0. -1.
         -5    1    4    4    0  502  0.47443160415E+00  0.33985360196E+01  0.15447416084E+03  0.15458373621E+03  0.47000000000E+01 0. -1.
          5    1    5    5  503    0  0.46325377487E+01  0.48057441060E+02  0.31919508781E+03  0.32285998843E+03  0.47000000000E+01 0. -1.
         -5    1    5    5    0  503 -0.18115919120E+02 -0.39736778378E+02  0.46476095277E+02  0.63947756127E+02  0.47000000000E+01 0. -1.
<mgrwt>
<rscale>  0 0.27587020E+03</rscale>
<asrwt>0</asrwt>
<pdfrwt beam="1">  1        2 0.82162253E-01 0.27587020E+03</pdfrwt>
<pdfrwt beam="2">  1       -2 0.54808831E-02 0.27587020E+03</pdfrwt>
<totfact> 0.97730458E+03</totfact>
</mgrwt>
</event>
<event>
 9    1  0.7984035E-001  0.2781752E+03  0.7818608E-02  0.1096690E+00
         -2   -1    0    0    0  501 -0.00000000000E+00  0.00000000000E+00  0.99344369593E+02  0.99344369593E+02  0.00000000000E+00 0. -1.
          2   -1    0    0  501    0  0.00000000000E+00 -0.00000000000E+00 -0.19473031467E+03  0.19473031467E+03  0.00000000000E+00 0. -1.
         35    2    1    2    0    0  0.00000000000E+00 -0.71054273576E-14 -0.95385945076E+02  0.29407468426E+03  0.27817519912E+03 0.  0.
         25    2    3    3    0    0 -0.37066566856E+02  0.45498357326E+02 -0.57693309749E+02  0.15100159839E+03  0.12660542575E+03 0.  0.
         25    2    3    3    0    0  0.37066566856E+02 -0.45498357326E+02 -0.37692635327E+02  0.14307308587E+03  0.12492054373E+03 0.  0.
          5    1    4    4  502    0  0.41778271655E+02  0.38873424633E+02 -0.89600855502E+01  0.57956365123E+02  0.47000000000E+01 0.  1.
         -5    1    4    4    0  502 -0.78844838511E+02  0.66249326933E+01 -0.48733224199E+02  0.93045233268E+02  0.47000000000E+01 0.  1.
          5    1    5    5  503    0 -0.91302060965E+01 -0.76557306569E+02 -0.29770688808E+01  0.77300289725E+02  0.47000000000E+01 0.  1.
         -5    1    5    5    0  503  0.46196772952E+02  0.31058949243E+02 -0.34715566446E+02  0.65772796147E+02  0.47000000000E+01 0.  1.
<mgrwt>
<rscale>  0 0.27817520E+03</rscale>
<asrwt>0</asrwt>
<pdfrwt beam="1">  1        2 0.29958510E-01 0.27817520E+03</pdfrwt>
<pdfrwt beam="2">  1       -2 0.15283749E-01 0.27817520E+03</pdfrwt>
<totfact> 0.57881641E+03</totfact>
</mgrwt>
</event>
<event>
 9    1  0.7984035E-001  0.2730444E+03  0.7818608E-02  0.1099550E+00
         -1   -1    0    0    0  501 -0.00000000000E+00  0.00000000000E+00  0.15043965716E+02  0.15043965716E+02  0.00000000000E+00 0.  1.
          1   -1    0    0  501    0  0.00000000000E+00 -0.00000000000E+00 -0.12389226012E+04  0.12389226012E+04  0.00000000000E+00 0.  1.
         35    2    1    2    0    0  0.14210854715E-13  0.35527136788E-14 -0.12238786355E+04  0.12539665670E+04  0.27304438568E+03 0.  0.
         25    2    3    3    0    0 -0.42869496711E+02 -0.77718068026E+01 -0.49525895368E+03  0.51312294229E+03  0.12694694945E+03 0.  0.
         25    2    3    3    0    0  0.42869496711E+02  0.77718068026E+01 -0.72861968185E+03  0.74084362467E+03  0.12674557472E+03 0.  0.
          5    1    4    4  502    0  0.31707124624E+02 -0.37169899982E+02 -0.25846993289E+03  0.26308884322E+03  0.47000000000E+01 0.  1.
         -5    1    4    4    0  502 -0.74576621335E+02  0.29398093179E+02 -0.23678902079E+03  0.25003409907E+03  0.47000000000E+01 0.  1.
          5    1    5    5  503    0  0.14764755855E+02  0.53561716468E+02 -0.58119748732E+03  0.58386596472E+03  0.47000000000E+01 0. -1.
         -5    1    5    5    0  503  0.28104740856E+02 -0.45789909665E+02 -0.14742219453E+03  0.15697765995E+03  0.47000000000E+01 0. -1.
<mgrwt>
<rscale>  0 0.27304439E+03</rscale>
<asrwt>0</asrwt>
<pdfrwt beam="1">  1        1 0.19060341E+00 0.27304439E+03</pdfrwt>
<pdfrwt beam="2">  1       -1 0.23144571E-02 0.27304439E+03</pdfrwt>
<totfact> 0.59486669E+03</totfact>
</mgrwt>
</event>
<event>
 9    1  0.7984035E-001  0.2753338E+03  0.7818608E-02  0.1098265E+00
         -1   -1    0    0    0  501 -0.00000000000E+00  0.00000000000E+00  0.18484552967E+02  0.18484552967E+02  0.00000000000E+00 0.  1.
          1   -1    0    0  501    0  0.00000000000E+00 -0.00000000000E+00 -0.10252983226E+04  0.10252983226E+04  0.00000000000E+00 0.  1.
         35    2    1    2    0    0  0.00000000000E+00 -0.71054273576E-14 -0.10068137697E+04  0.10437828756E+04  0.27533384211E+03 0.  0.
         25    2    3    3    0    0  0.81828801087E+01  0.32941678197E+02 -0.68421621342E+03  0.69615178053E+03  0.12378756457E+03 0.  0.
         25    2    3    3    0    0 -0.81828801087E+01 -0.32941678197E+02 -0.32259755626E+03  0.34763109509E+03  0.12500432502E+03 0.  0.
          5    1    4    4  502    0 -0.20977008341E+02  0.73890538893E+02 -0.37158768117E+03  0.37947245146E+03  0.47000000000E+01 0. -1.
         -5    1    4    4    0  502  0.29159888450E+02 -0.40948860697E+02 -0.31262853225E+03  0.31667932907E+03  0.47000000000E+01 0. -1.
          5    1    5    5  503    0 -0.30467629515E+02  0.40753620875E+02 -0.15323213067E+03  0.16152804690E+03  0.47000000000E+01 0. -1.
         -5    1    5    5    0  503  0.22284749406E+02 -0.73695299072E+02 -0.16936542559E+03  0.18610304819E+03  0.47000000000E+01 0. -1.
<mgrwt>
<rscale>  0 0.27533384E+03</rscale>
<asrwt>0</asrwt>
<pdfrwt beam="1">  1        1 0.15773822E+00 0.27533384E+03</pdfrwt>
<pdfrwt beam="2">  1       -1 0.28437772E-02 0.27533384E+03</pdfrwt>
<totfact> 0.62465781E+03</totfact>
</mgrwt>
</event>
<event>
 9    1  0.7984035E-001  0.2745120E+03  0.7818608E-02  0.1098725E+00
         -1   -1    0    0    0  501 -0.00000000000E+00  0.00000000000E+00  0.47405785389E+03  0.47405785389E+03  0.00000000000E+00 0. -1.
          1   -1    0    0  501    0  0.00000000000E+00 -0.00000000000E+00 -0.39740329905E+02  0.39740329905E+02  0.00000000000E+00 0. -1.
         35    2    1    2    0    0 -0.17763568394E-14  0.71054273576E-14  0.43431752399E+03  0.51379818380E+03  0.27451204351E+03 0.  0.
         25    2    3    3    0    0 -0.81594120346E+01  0.18207271710E+02  0.11931282903E+03  0.17429968996E+03  0.12548605500E+03 0.  0.
         25    2    3    3    0    0  0.81594120346E+01 -0.18207271710E+02  0.31500469495E+03  0.33949849384E+03  0.12503275062E+03 0.  0.
          5    1    4    4  502    0  0.47382938974E+01  0.66056294847E+01  0.14369913623E+03  0.14400561629E+03  0.47000000000E+01 0. -1.
         -5    1    4    4    0  502 -0.12897705932E+02  0.11601642226E+02 -0.24386307196E+02  0.30294073667E+02  0.47000000000E+01 0. -1.
          5    1    5    5  503    0 -0.99163283842E+01  0.26608994465E+02  0.97243194231E+01  0.30381318986E+02  0.47000000000E+01 0.  1.
         -5    1    5    5    0  503  0.18075740419E+02 -0.44816266176E+02  0.30528037553E+03  0.30911717485E+03  0.47000000000E+01 0.  1.
<mgrwt>
<rscale>  0 0.27451204E+03</rscale>
<asrwt>0</asrwt>
<pdfrwt beam="1">  1        1 0.61138972E-02 0.27451204E+03</pdfrwt>
<pdfrwt beam="2">  1       -1 0.72931974E-01 0.27451204E+03</pdfrwt>
<totfact> 0.24786896E+03</totfact>
</mgrwt>
</event>
<event>
 9    1  0.7984035E-001  0.2778548E+03  0.7818608E-02  0.1096866E+00
         -2   -1    0    0    0  501 -0.00000000000E+00  0.00000000000E+00  0.71894301901E+02  0.71894301901E+02  0.00000000000E+00 0. -1.
          2   -1    0    0  501    0  0.00000000000E+00 -0.00000000000E+00 -0.26846112441E+03  0.26846112441E+03  0.00000000000E+00 0. -1.
         35    2    1    2    0    0  0.00000000000E+00  0.35527136788E-14 -0.19656682251E+03  0.34035542632E+03  0.27785481912E+03 0.  0.
         25    2    3    3    0    0 -0.33698743751E+02  0.29072985707E+02 -0.46909526678E+02  0.14047284288E+03  0.12470473955E+03 0.  0.
         25    2    3    3    0    0  0.33698743751E+02 -0.29072985707E+02 -0.14965729583E+03  0.19988258343E+03  0.12479942762E+03 0.  0.
          5    1    4    4  502    0  0.41107733742E+02  0.10796571704E+00  0.93008585931E+01  0.42408176105E+02  0.47000000000E+01 0. -1.
         -5    1    4    4    0  502 -0.74806477493E+02  0.28965019990E+02 -0.56210385272E+02  0.98064666778E+02  0.47000000000E+01 0. -1.
          5    1    5    5  503    0  0.78315743136E+02 -0.22273569654E+02 -0.12197421131E+03  0.14672854444E+03  0.47000000000E+01 0. -1.
         -5    1    5    5    0  503 -0.44616999384E+02 -0.67994160526E+01 -0.27683084523E+02  0.53154038995E+02  0.47000000000E+01 0. -1.
<mgrwt>
<rscale>  0 0.27785482E+03</rscale>
<asrwt>0</asrwt>
<pdfrwt beam="1">  1        2 0.41301711E-01 0.27785482E+03</pdfrwt>
<pdfrwt beam="2">  1       -2 0.11060662E-01 0.27785482E+03</pdfrwt>
<totfact> 0.69141558E+03</totfact>
</mgrwt>
</event>
<event>
 9    1  0.7984035E-001  0.2735093E+03  0.7818608E-02  0.1099288E+00
         -1   -1    0    0    0  501 -0.00000000000E+00  0.00000000000E+00  0.85122213189E+01  0.85122213189E+01  0.00000000000E+00 0.  1.
          1   -1    0    0  501    0  0.00000000000E+00 -0.00000000000E+00 -0.21970560806E+04  0.21970560806E+04  0.00000000000E+00 0.  1.
         35    2    1    2    0    0  0.00000000000E+00  0.00000000000E+00 -0.21885438593E+04  0.22055683019E+04  0.27350925109E+03 0.  0.
         25    2    3    3    0    0  0.34328184665E+02  0.41685097857E+02 -0.12108651087E+04  0.12184428351E+04  0.12446910994E+03 0.  0.
         25    2    3    3    0    0 -0.34328184665E+02 -0.41685097857E+02 -0.97767875061E+03  0.98712546683E+03  0.12507947966E+03 0.  0.
          5    1    4    4  502    0 -0.32083960209E+02  0.16162568105E+02 -0.84026885539E+03  0.84104961117E+03  0.47000000000E+01 0.  1.
         -5    1    4    4    0  502  0.66412144874E+02  0.25522529752E+02 -0.37059625331E+03  0.37739322394E+03  0.47000000000E+01 0.  1.
          5    1    5    5  503    0 -0.37644669147E+02 -0.33202521267E-01 -0.87954907182E+03  0.88036684510E+03  0.47000000000E+01 0. -1.
         -5    1    5    5    0  503  0.33164844816E+01 -0.41651895336E+02 -0.98129678794E+02  0.10675862173E+03  0.47000000000E+01 0. -1.
<mgrwt>
<rscale>  0 0.27350925E+03</rscale>
<asrwt>0</asrwt>
<pdfrwt beam="1">  1        1 0.33800878E+00 0.27350925E+03</pdfrwt>
<pdfrwt beam="2">  1       -1 0.13095719E-02 0.27350925E+03</pdfrwt>
<totfact> 0.31931424E+03</totfact>
</mgrwt>
</event>
<event>
 9    1  0.7984035E-001  0.2752815E+03  0.7818608E-02  0.1098294E+00
         -2   -1    0    0    0  501 -0.00000000000E+00  0.00000000000E+00  0.38469650986E+03  0.38469650986E+03  0.00000000000E+00 0. -1.
          2   -1    0    0  501    0  0.00000000000E+00 -0.00000000000E+00 -0.49246547266E+02  0.49246547266E+02  0.00000000000E+00 0. -1.
         35    2    1    2    0    0  0.00000000000E+00  0.00000000000E+00  0.33544996259E+03  0.43394305713E+03  0.27528149125E+03 0.  0.
         25    2    3    3    0    0 -0.37510150305E+02 -0.65689401263E+01  0.23464098165E+03  0.26881579740E+03  0.12552043782E+03 0.  0.
         25    2    3    3    0    0  0.37510150305E+02  0.65689401263E+01  0.10080898094E+03  0.16512725972E+03  0.12511754040E+03 0.  0.
          5    1    4    4  502    0 -0.19831882126E+02 -0.60235171829E+02  0.17650059077E+03  0.18760631124E+03  0.47000000000E+01 0. -1.
         -5    1    4    4    0  502 -0.17678268179E+02  0.53666231703E+02  0.58140390886E+02  0.81209486166E+02  0.47000000000E+01 0. -1.
          5    1    5    5  503    0 -0.30386325144E+01 -0.53236279774E+02  0.21363675174E+02  0.57635331080E+02  0.47000000000E+01 0.  1.
         -5    1    5    5    0  503  0.40548782820E+02  0.59805219901E+02  0.79445305764E+02  0.10749192864E+03  0.47000000000E+01 0.  1.
<mgrwt>
<rscale>  0 0.27528149E+03</rscale>
<asrwt>0</asrwt>
<pdfrwt beam="1">  1        2 0.75763921E-02 0.27528149E+03</pdfrwt>
<pdfrwt beam="2">  1       -2 0.59184077E-01 0.27528149E+03</pdfrwt>
<totfact> 0.24742605E+03</totfact>
</mgrwt>
</event>
<event>
 9    1  0.7984035E-001  0.2737336E+03  0.7818608E-02  0.1099162E+00
         -2   -1    0    0    0  501 -0.00000000000E+00  0.00000000000E+00  0.11887487971E+02  0.11887487971E+02  0.00000000000E+00 0.  1.
          2   -1    0    0  501    0  0.00000000000E+00 -0.00000000000E+00 -0.15758180921E+04  0.15758180921E+04  0.00000000000E+00 0.  1.
         35    2    1    2    0    0 -0.53290705182E-14  0.17763568394E-14 -0.15639306041E+04  0.15877055800E+04  0.27373358298E+03 0.  0.
         25    2    3    3    0    0  0.10676576702E+02 -0.93763880017E+01 -0.10670146526E+04  0.10744177081E+04  0.12510490288E+03 0.  0.
         25    2    3    3    0    0 -0.10676576702E+02  0.93763880017E+01 -0.49691595150E+03  0.51328787192E+03  0.12781655081E+03 0.  0.
          5    1    4    4  502    0  0.17240850817E+02 -0.17970363044E+02 -0.10607740577E+04  0.10610767514E+04  0.47000000000E+01 0. -1.
         -5    1    4    4    0  502 -0.65642741150E+01  0.85939750427E+01 -0.62405949172E+01  0.13340956735E+02  0.47000000000E+01 0. -1.
          5    1    5    5  503    0 -0.67601195828E+02 -0.14264074976E+01 -0.31881282349E+03  0.32593812716E+03  0.47000000000E+01 0. -1.
         -5    1    5    5    0  503  0.56924619126E+02  0.10802795499E+02 -0.17810312801E+03  0.18734974475E+03  0.47000000000E+01 0. -1.
<mgrwt>
<rscale>  0 0.27373358E+03</rscale>
<asrwt>0</asrwt>
<pdfrwt beam="1">  1        2 0.24243351E+00 0.27373358E+03</pdfrwt>
<pdfrwt beam="2">  1       -2 0.18288447E-02 0.27373358E+03</pdfrwt>
<totfact> 0.10960590E+04</totfact>
</mgrwt>
</event>
<event>
 9    1  0.7984035E-001  0.2759393E+03  0.7818608E-02  0.1097928E+00
         -2   -1    0    0    0  501 -0.00000000000E+00  0.00000000000E+00  0.94710418361E+01  0.94710418361E+01  0.00000000000E+00 0. -1.
          2   -1    0    0  501    0  0.00000000000E+00 -0.00000000000E+00 -0.20098771754E+04  0.20098771754E+04  0.00000000000E+00 0. -1.
         35    2    1    2    0    0 -0.35527136788E-14  0.00000000000E+00 -0.20004061335E+04  0.20193482172E+04  0.27593934705E+03 0.  0.
         25    2    3    3    0    0 -0.17175932259E+02  0.28599781224E+02 -0.12774492327E+04  0.12849940721E+04  0.13498245536E+03 0.  0.
         25    2    3    3    0    0  0.17175932259E+02 -0.28599781224E+02 -0.72295690086E+03  0.73435414506E+03  0.12448441562E+03 0.  0.
          5    1    4    4  502    0 -0.37466706105E+02 -0.16452826380E+02 -0.10989772764E+04  0.10997488775E+04  0.47000000000E+01 0. -1.
         -5    1    4    4    0  502  0.20290773847E+02  0.45052607604E+02 -0.17847195624E+03  0.18524519459E+03  0.47000000000E+01 0. -1.
          5    1    5    5  503    0  0.51630987789E+02  0.22835562163E+02 -0.20480287071E+03  0.21249359437E+03  0.47000000000E+01 0. -1.
         -5    1    5    5    0  503 -0.34455055531E+02 -0.51435343387E+02 -0.51815403016E+03  0.52186055069E+03  0.47000000000E+01 0. -1.
<mgrwt>
<rscale>  0 0.27593935E+03</rscale>
<asrwt>0</asrwt>
<pdfrwt beam="1">  1        2 0.30921192E+00 0.27593935E+03</pdfrwt>
<pdfrwt beam="2">  1       -2 0.14570832E-02 0.27593935E+03</pdfrwt>
<totfact> 0.90372878E+03</totfact>
</mgrwt>
</event>
<event>
 9    1  0.7984035E-001  0.2847703E+03  0.7818608E-02  0.1093112E+00
          4   -1    0    0  501    0  0.00000000000E+00  0.00000000000E+00  0.40513968937E+02  0.40513968937E+02  0.00000000000E+00 0. -1.
         -4   -1    0    0    0  501 -0.00000000000E+00 -0.00000000000E+00 -0.50040826911E+03  0.50040826911E+03  0.00000000000E+00 0. -1.
         35    2    1    2    0    0  0.00000000000E+00  0.00000000000E+00 -0.45989430017E+03  0.54092223805E+03  0.28477025877E+03 0.  0.
         25    2    3    3    0    0 -0.38736576690E+02 -0.30670368433E+02 -0.14337728838E+03  0.19718819996E+03  0.12603549305E+03 0.  0.
         25    2    3    3    0    0  0.38736576690E+02  0.30670368433E+02 -0.31651701179E+03  0.34373403808E+03  0.12461491207E+03 0.  0.
          5    1    4    4  502    0  0.31720875766E+02 -0.44156830555E+02 -0.28229705829E+02  0.61441402451E+02  0.47000000000E+01 0. -1.
         -5    1    4    4    0  502 -0.70457452456E+02  0.13486462122E+02 -0.11514758255E+03  0.13574679751E+03  0.47000000000E+01 0. -1.
          5    1    5    5  503    0 -0.41539510935E+01  0.73103787110E+02 -0.16497546479E+03  0.18055584450E+03  0.47000000000E+01 0. -1.
         -5    1    5    5    0  503  0.42890527784E+02 -0.42433418677E+02 -0.15154154700E+03  0.16317819359E+03  0.47000000000E+01 0. -1.
<mgrwt>
<rscale>  0 0.28477026E+03</rscale>
<asrwt>0</asrwt>
<pdfrwt beam="1">  1        4 0.62329183E-02 0.28477026E+03</pdfrwt>
<pdfrwt beam="2">  1       -4 0.76985887E-01 0.28477026E+03</pdfrwt>
<totfact> 0.48542452E+02</totfact>
</mgrwt>
</event>
<event>
 9    1  0.7984035E-001  0.2786134E+03  0.7818608E-02  0.1096449E+00
         -1   -1    0    0    0  501 -0.00000000000E+00  0.00000000000E+00  0.24881518244E+03  0.24881518244E+03  0.00000000000E+00 0.  1.
          1   -1    0    0  501    0  0.00000000000E+00 -0.00000000000E+00 -0.77995039549E+02  0.77995039549E+02  0.00000000000E+00 0.  1.
         35    2    1    2    0    0  0.00000000000E+00  0.00000000000E+00  0.17082014289E+03  0.32681022199E+03  0.27861335212E+03 0.  0.
         25    2    3    3    0    0  0.33275428626E+02  0.14003416057E+02  0.14369386180E+03  0.19389375631E+03  0.12507403010E+03 0.  0.
         25    2    3    3    0    0 -0.33275428626E+02 -0.14003416057E+02  0.27126281091E+02  0.13291646568E+03  0.12501040721E+03 0.  0.
          5    1    4    4  502    0  0.21899721786E+02  0.43069912474E+02  0.15337731732E+03  0.16087668147E+03  0.47000000000E+01 0. -1.
         -5    1    4    4    0  502  0.11375706841E+02 -0.29066496417E+02 -0.96834555149E+01  0.33017074837E+02  0.47000000000E+01 0. -1.
          5    1    5    5  503    0  0.17854032707E+02  0.10186372238E+02 -0.39874608855E+02  0.45106574849E+02  0.47000000000E+01 0. -1.
         -5    1    5    5    0  503 -0.51129461334E+02 -0.24189788295E+02  0.67000889946E+02  0.87809890830E+02  0.47000000000E+01 0. -1.
<mgrwt>
<rscale>  0 0.27861335E+03</rscale>
<asrwt>0</asrwt>
<pdfrwt beam="1">  1        1 0.11999237E-01 0.27861335E+03</pdfrwt>
<pdfrwt beam="2">  1       -1 0.38279259E-01 0.27861335E+03</pdfrwt>
<totfact> 0.33372048E+03</totfact>
</mgrwt>
</event>
<event>
 9    1  0.7984035E-001  0.2708231E+03  0.7818608E-02  0.1100809E+00
         -1   -1    0    0    0  501 -0.00000000000E+00  0.00000000000E+00  0.98443766420E+01  0.98443766420E+01  0.00000000000E+00 0.  1.
          1   -1    0    0  501    0  0.00000000000E+00 -0.00000000000E+00 -0.18626150933E+04  0.18626150933E+04  0.00000000000E+00 0.  1.
         35    2    1    2    0    0  0.35527136788E-14 -0.14210854715E-13 -0.18527707167E+04  0.18724594699E+04  0.27082307522E+03 0.  0.
         25    2    3    3    0    0  0.14587089080E+01  0.50993666309E+02 -0.84588486873E+03  0.85649345202E+03  0.12432755271E+03 0.  0.
         25    2    3    3    0    0 -0.14587089080E+01 -0.50993666309E+02 -0.10068858479E+04  0.10159660179E+04  0.12556017279E+03 0.  0.
          5    1    4    4  502    0 -0.27719037117E+02  0.84658791390E+02 -0.59286696117E+03  0.59954047372E+03  0.47000000000E+01 0. -1.
         -5    1    4    4    0  502  0.29177746025E+02 -0.33665125081E+02 -0.25301790756E+03  0.25695297830E+03  0.47000000000E+01 0. -1.
          5    1    5    5  503    0 -0.58749813130E+02 -0.73593352478E+00 -0.46821274109E+03  0.47190819346E+03  0.47000000000E+01 0. -1.
         -5    1    5    5    0  503  0.57291104222E+02 -0.50257732784E+02 -0.53867310685E+03  0.54405782447E+03  0.47000000000E+01 0. -1.
<mgrwt>
<rscale>  0 0.27082308E+03</rscale>
<asrwt>0</asrwt>
<pdfrwt beam="1">  1        1 0.28655609E+00 0.27082308E+03</pdfrwt>
<pdfrwt beam="2">  1       -1 0.15145199E-02 0.27082308E+03</pdfrwt>
<totfact> 0.42638826E+03</totfact>
</mgrwt>
</event>
<event>
 9    1  0.7984035E-001  0.2797243E+03  0.7818608E-02  0.1095840E+00
          1   -1    0    0  501    0  0.00000000000E+00  0.00000000000E+00  0.81479549749E+03  0.81479549749E+03  0.00000000000E+00 0. -1.
         -1   -1    0    0    0  501 -0.00000000000E+00 -0.00000000000E+00 -0.24007768759E+02  0.24007768759E+02  0.00000000000E+00 0. -1.
         35    2    1    2    0    0 -0.35527136788E-14  0.00000000000E+00  0.79078772873E+03  0.83880326625E+03  0.27972430634E+03 0.  0.
         25    2    3    3    0    0 -0.18326233955E+02  0.22178997389E+02  0.57091756286E+03  0.58513442964E+03  0.12493069436E+03 0.  0.
         25    2    3    3    0    0  0.18326233955E+02 -0.22178997389E+02  0.21987016588E+03  0.25366883661E+03  0.12319590111E+03 0.  0.
          5    1    4    4  502    0 -0.23246625228E+02  0.71885674945E+02  0.28681021548E+03  0.29663132935E+03  0.47000000000E+01 0.  1.
         -5    1    4    4    0  502  0.49203912729E+01 -0.49706677557E+02  0.28410734738E+03  0.28850310029E+03  0.47000000000E+01 0.  1.
          5    1    5    5  503    0  0.66479100272E+02 -0.12523911383E+02  0.77428007095E+02  0.10292475607E+03  0.47000000000E+01 0.  1.
         -5    1    5    5    0  503 -0.48152866316E+02 -0.96550860055E+01  0.14244215878E+03  0.15074408054E+03  0.47000000000E+01 0.  1.
<mgrwt>
<rscale>  0 0.27972431E+03</rscale>
<asrwt>0</asrwt>
<pdfrwt beam="1">  1        1 0.12535313E+00 0.27972431E+03</pdfrwt>
<pdfrwt beam="2">  1       -1 0.36935035E-02 0.27972431E+03</pdfrwt>
<totfact> 0.61948938E+03</totfact>
</mgrwt>
</event>
<event>
 9    1  0.7984035E-001  0.2798871E+03  0.7818608E-02  0.1095751E+00
          1   -1    0    0  501    0  0.00000000000E+00  0.00000000000E+00  0.10916580048E+04  0.10916580048E+04  0.00000000000E+00 0.  1.
         -1   -1    0    0    0  501 -0.00000000000E+00 -0.00000000000E+00 -0.17939862615E+02  0.17939862615E+02  0.00000000000E+00 0.  1.
         35    2    1    2    0    0 -0.14210854715E-13  0.00000000000E+00  0.10737181422E+04  0.11095978674E+04  0.27988708172E+03 0.  0.
         25    2    3    3    0    0  0.58400181572E+02  0.16916938290E+02  0.50170973932E+03  0.52074031531E+03  0.12554301832E+03 0.  0.
         25    2    3    3    0    0 -0.58400181572E+02 -0.16916938290E+02  0.57200840288E+03  0.58885755213E+03  0.12594776584E+03 0.  0.
          5    1    4    4  502    0  0.48842169608E+02 -0.40636645578E+02  0.38435186713E+03  0.38959638379E+03  0.47000000000E+01 0. -1.
         -5    1    4    4    0  502  0.95580119641E+01  0.57553583868E+02  0.11735787220E+03  0.13114393152E+03  0.47000000000E+01 0. -1.
          5    1    5    5  503    0  0.33368888943E+02 -0.18177499363E+02  0.84593719180E+02  0.92855218254E+02  0.47000000000E+01 0. -1.
         -5    1    5    5    0  503 -0.91769070516E+02  0.12605610725E+01  0.48741468370E+03  0.49600233387E+03  0.47000000000E+01 0. -1.
<mgrwt>
<rscale>  0 0.27988708E+03</rscale>
<asrwt>0</asrwt>
<pdfrwt beam="1">  1        1 0.16794733E+00 0.27988708E+03</pdfrwt>
<pdfrwt beam="2">  1       -1 0.27599797E-02 0.27988708E+03</pdfrwt>
<totfact> 0.58391579E+03</totfact>
</mgrwt>
</event>
<event>
 9    1  0.7984035E-001  0.2719747E+03  0.7818608E-02  0.1100155E+00
         -1   -1    0    0    0  501 -0.00000000000E+00  0.00000000000E+00  0.31185248783E+02  0.31185248783E+02  0.00000000000E+00 0. -1.
          1   -1    0    0  501    0  0.00000000000E+00 -0.00000000000E+00 -0.59299072951E+03  0.59299072951E+03  0.00000000000E+00 0. -1.
         35    2    1    2    0    0 -0.71054273576E-14  0.00000000000E+00 -0.56180548072E+03  0.62417597829E+03  0.27197472990E+03 0.  0.
         25    2    3    3    0    0  0.19966697861E+02 -0.56215597478E+01 -0.18558388474E+03  0.22511748503E+03  0.12572284133E+03 0.  0.
         25    2    3    3    0    0 -0.19966697861E+02  0.56215597478E+01 -0.37622159599E+03  0.39905849326E+03  0.13143333216E+03 0.  0.
          5    1    4    4  502    0  0.49019748916E+02  0.31393321448E+02 -0.16213851085E+03  0.17233532173E+03  0.47000000000E+01 0.  1.
         -5    1    4    4    0  502 -0.29053051055E+02 -0.37014881195E+02 -0.23445373892E+02  0.52782163299E+02  0.47000000000E+01 0.  1.
          5    1    5    5  503    0 -0.61927970507E+02  0.39606514622E+02 -0.26917721798E+03  0.27907385082E+03  0.47000000000E+01 0.  1.
         -5    1    5    5    0  503  0.41961272647E+02 -0.33984954874E+02 -0.10704437801E+03  0.11998464244E+03  0.47000000000E+01 0.  1.
<mgrwt>
<rscale>  0 0.27197473E+03</rscale>
<asrwt>0</asrwt>
<pdfrwt beam="1">  1        1 0.91229333E-01 0.27197473E+03</pdfrwt>
<pdfrwt beam="2">  1       -1 0.47977311E-02 0.27197473E+03</pdfrwt>
<totfact> 0.66675858E+03</totfact>
</mgrwt>
</event>
<event>
 9    1  0.7984035E-001  0.2751738E+03  0.7818608E-02  0.1098354E+00
          2   -1    0    0  501    0  0.00000000000E+00  0.00000000000E+00  0.97212422100E+02  0.97212422100E+02  0.00000000000E+00 0.  1.
         -2   -1    0    0    0  501 -0.00000000000E+00 -0.00000000000E+00 -0.19472982078E+03  0.19472982078E+03  0.00000000000E+00 0.  1.
         35    2    1    2    0    0 -0.35527136788E-14  0.00000000000E+00 -0.97517398679E+02  0.29194224288E+03  0.27517381804E+03 0.  0.
         25    2    3    3    0    0 -0.10802359802E+02 -0.55074247150E+02 -0.50930726572E+02  0.14699536066E+03  0.12595171087E+03 0.  0.
         25    2    3    3    0    0  0.10802359802E+02  0.55074247150E+02 -0.46586672108E+02  0.14494688222E+03  0.12525740286E+03 0.  0.
          5    1    4    4  502    0  0.24932324305E+02  0.30663074277E+02 -0.34248169888E+02  0.52505924048E+02  0.47000000000E+01 0. -1.
         -5    1    4    4    0  502 -0.35734684107E+02 -0.85737321428E+02 -0.16682556683E+02  0.94489436612E+02  0.47000000000E+01 0. -1.
          5    1    5    5  503    0 -0.11828523971E+02  0.69386377856E+02  0.19749137225E+02  0.73256411545E+02  0.47000000000E+01 0. -1.
         -5    1    5    5    0  503  0.22630883773E+02 -0.14312130706E+02 -0.66335809333E+02  0.71690470675E+02  0.47000000000E+01 0. -1.
<mgrwt>
<rscale>  0 0.27517382E+03</rscale>
<asrwt>0</asrwt>
<pdfrwt beam="1">  1        2 0.14955757E-01 0.27517382E+03</pdfrwt>
<pdfrwt beam="2">  1       -2 0.29958434E-01 0.27517382E+03</pdfrwt>
<totfact> 0.39874775E+03</totfact>
</mgrwt>
</event>
<event>
 8    1  0.7984035E-001  0.3544103E+03  0.7818608E-02  0.1060819E+00
          1   -1    0    0  501    0  0.00000000000E+00  0.00000000000E+00  0.18308844406E+03  0.18308844406E+03  0.00000000000E+00 0. -1.
         -1   -1    0    0    0  501 -0.00000000000E+00 -0.00000000000E+00 -0.17151092725E+03  0.17151092725E+03  0.00000000000E+00 0. -1.
         25    2    1    2    0    0 -0.82533174173E+02 -0.31726130149E+02  0.92537676140E+02  0.17950094906E+03  0.12585347446E+03 0.  0.
         25    2    1    2    0    0  0.82533174173E+02  0.31726130149E+02 -0.80960159331E+02  0.17509842225E+03  0.12761911261E+03 0.  0.
          5    1    3    3  502    0 -0.98991161563E+01 -0.66466983545E+02  0.18112960404E+02  0.69756875911E+02  0.47000000000E+01 0.  1.
         -5    1    3    3    0  502 -0.72634058017E+02  0.34740853397E+02  0.74424715736E+02  0.10974407315E+03  0.47000000000E+01 0.  1.
          5    1    4    4  503    0  0.52909639539E+02 -0.82259675268E+01  0.23992009417E+02  0.58862577362E+02  0.47000000000E+01 0. -1.
         -5    1    4    4    0  503  0.29623534634E+02  0.39952097675E+02 -0.10495216875E+03  0.11623584489E+03  0.47000000000E+01 0. -1.
<mgrwt>
<rscale>  0 0.35441032E+03</rscale>
<asrwt>0</asrwt>
<pdfrwt beam="1">  1        1 0.28167453E-01 0.35441032E+03</pdfrwt>
<pdfrwt beam="2">  1       -1 0.26386297E-01 0.35441032E+03</pdfrwt>
<totfact> 0.20949188E+03</totfact>
</mgrwt>
</event>
<event>
 9    1  0.7984035E-001  0.2744732E+03  0.7818608E-02  0.1098746E+00
         -1   -1    0    0    0  501 -0.00000000000E+00  0.00000000000E+00  0.19839698906E+02  0.19839698906E+02  0.00000000000E+00 0. -1.
          1   -1    0    0  501    0  0.00000000000E+00 -0.00000000000E+00 -0.94930294086E+03  0.94930294086E+03  0.00000000000E+00 0. -1.
         35    2    1    2    0    0 -0.17763568394E-14 -0.14210854715E-13 -0.92946324196E+03  0.96914263977E+03  0.27447320101E+03 0.  0.
         25    2    3    3    0    0 -0.75037972383E+01  0.43418022752E+02 -0.59884926501E+03  0.61322952957E+03  0.12445313200E+03 0.  0.
         25    2    3    3    0    0  0.75037972383E+01 -0.43418022752E+02 -0.33061397695E+03  0.35591311020E+03  0.12420591203E+03 0.  0.
          5    1    4    4  502    0 -0.11595797452E+02  0.10636504213E+02 -0.56655405557E+03  0.56679201267E+03  0.47000000000E+01 0. -1.
         -5    1    4    4    0  502  0.40920002141E+01  0.32781518539E+02 -0.32295209433E+02  0.46437516899E+02  0.47000000000E+01 0. -1.
          5    1    5    5  503    0  0.41839276015E+02 -0.44269815685E+02 -0.69611491219E+02  0.92618525728E+02  0.47000000000E+01 0.  1.
         -5    1    5    5    0  503 -0.34335478777E+02  0.85179293354E+00 -0.26100248573E+03  0.26329458447E+03  0.47000000000E+01 0.  1.
<mgrwt>
<rscale>  0 0.27447320E+03</rscale>
<asrwt>0</asrwt>
<pdfrwt beam="1">  1        1 0.14604662E+00 0.27447320E+03</pdfrwt>
<pdfrwt beam="2">  1       -1 0.30522610E-02 0.27447320E+03</pdfrwt>
<totfact> 0.64197346E+03</totfact>
</mgrwt>
</event>
<event>
 9    1  0.7984035E-001  0.2750165E+03  0.7818608E-02  0.1098442E+00
         -1   -1    0    0    0  501 -0.00000000000E+00  0.00000000000E+00  0.95343949802E+02  0.95343949802E+02  0.00000000000E+00 0. -1.
          1   -1    0    0  501    0  0.00000000000E+00 -0.00000000000E+00 -0.19831906603E+03  0.19831906603E+03  0.00000000000E+00 0. -1.
         35    2    1    2    0    0 -0.14210854715E-13  0.35527136788E-14 -0.10297511623E+03  0.29366301583E+03  0.27501653097E+03 0.  0.
         25    2    3    3    0    0  0.47833009022E+02 -0.16172474844E+02 -0.80999309472E+02  0.15715653472E+03  0.12485088136E+03 0.  0.
         25    2    3    3    0    0 -0.47833009022E+02  0.16172474844E+02 -0.21975806754E+02  0.13650648111E+03  0.12490611517E+03 0.  0.
          5    1    4    4  502    0  0.89126714862E+02 -0.23596181130E+02 -0.52230434314E+02  0.10606818248E+03  0.47000000000E+01 0.  1.
         -5    1    4    4    0  502 -0.41293705840E+02  0.74237062856E+01 -0.28768875159E+02  0.51088352243E+02  0.47000000000E+01 0.  1.
          5    1    5    5  503    0 -0.25282585205E+01 -0.14059642931E+02  0.46507883814E+02  0.48878818596E+02  0.47000000000E+01 0.  1.
         -5    1    5    5    0  503 -0.45304750502E+02  0.30232117776E+02 -0.68483690568E+02  0.87627662510E+02  0.47000000000E+01 0.  1.
<mgrwt>
<rscale>  0 0.27501653E+03</rscale>
<asrwt>0</asrwt>
<pdfrwt beam="1">  1        1 0.30510625E-01 0.27501653E+03</pdfrwt>
<pdfrwt beam="2">  1       -1 0.14668300E-01 0.27501653E+03</pdfrwt>
<totfact> 0.49046192E+03</totfact>
</mgrwt>
</event>
<event>
 9    1  0.7984035E-001  0.2840745E+03  0.7818608E-02  0.1093484E+00
          2   -1    0    0  501    0  0.00000000000E+00  0.00000000000E+00  0.91414196356E+03  0.91414196356E+03  0.00000000000E+00 0.  1.
         -2   -1    0    0    0  501 -0.00000000000E+00 -0.00000000000E+00 -0.22069411745E+02  0.22069411745E+02  0.00000000000E+00 0.  1.
         35    2    1    2    0    0  0.00000000000E+00  0.71054273576E-14  0.89207255182E+03  0.93621137531E+03  0.28407446480E+03 0.  0.
         25    2    3    3    0    0 -0.15430224177E+02 -0.19809462002E+02  0.25182499904E+03  0.28341434788E+03  0.12758274117E+03 0.  0.
         25    2    3    3    0    0  0.15430224177E+02  0.19809462002E+02  0.64024755278E+03  0.65279702743E+03  0.12488604234E+03 0.  0.
          5    1    4    4  502    0 -0.44391542865E+02  0.42188969335E+02  0.11660441298E+03  0.13179225067E+03  0.47000000000E+01 0. -1.
         -5    1    4    4    0  502  0.28961318688E+02 -0.61998431338E+02  0.13522058606E+03  0.15162209721E+03  0.47000000000E+01 0. -1.
          5    1    5    5  503    0 -0.46773577594E+02  0.38358767466E+02  0.25715000632E+03  0.26421085964E+03  0.47000000000E+01 0. -1.
         -5    1    5    5    0  503  0.62203801771E+02 -0.18549305464E+02  0.38309754646E+03  0.38858616778E+03  0.47000000000E+01 0. -1.
<mgrwt>
<rscale>  0 0.28407446E+03</rscale>
<asrwt>0</asrwt>
<pdfrwt beam="1">  1        2 0.14063720E+00 0.28407446E+03</pdfrwt>
<pdfrwt beam="2">  1       -2 0.33952948E-02 0.28407446E+03</pdfrwt>
<totfact> 0.10450880E+04</totfact>
</mgrwt>
</event>
<event>
 9    1  0.7984035E-001  0.2725794E+03  0.7818608E-02  0.1099812E+00
          2   -1    0    0  501    0  0.00000000000E+00  0.00000000000E+00  0.10457806766E+04  0.10457806766E+04  0.00000000000E+00 0. -1.
         -2   -1    0    0    0  501 -0.00000000000E+00 -0.00000000000E+00 -0.17761738741E+02  0.17761738741E+02  0.00000000000E+00 0. -1.
         35    2    1    2    0    0  0.00000000000E+00 -0.35527136788E-14  0.10280189378E+04  0.10635424153E+04  0.27257940610E+03 0.  0.
         25    2    3    3    0    0 -0.45169534190E+02 -0.18460302941E+01  0.39729612795E+03  0.41891653150E+03  0.12491257919E+03 0.  0.
         25    2    3    3    0    0  0.45169534190E+02  0.18460302941E+01  0.63072280990E+03  0.64462588383E+03  0.12525004001E+03 0.  0.
          5    1    4    4  502    0  0.28941669923E+02  0.38202030939E+02  0.13078192971E+03  0.13936649011E+03  0.47000000000E+01 0.  1.
         -5    1    4    4    0  502 -0.74111204113E+02 -0.40048061233E+02  0.26651419823E+03  0.27955004140E+03  0.47000000000E+01 0.  1.
          5    1    5    5  503    0 -0.10332379582E+02 -0.18326639676E+02  0.50693171509E+03  0.50738986742E+03  0.47000000000E+01 0. -1.
         -5    1    5    5    0  503  0.55501913772E+02  0.20172669970E+02  0.12379109481E+03  0.13723601641E+03  0.47000000000E+01 0. -1.
<mgrwt>
<rscale>  0 0.27257941E+03</rscale>
<asrwt>0</asrwt>
<pdfrwt beam="1">  1        2 0.16088929E+00 0.27257941E+03</pdfrwt>
<pdfrwt beam="2">  1       -2 0.27325760E-02 0.27257941E+03</pdfrwt>
<totfact> 0.11954557E+04</totfact>
</mgrwt>
</event>
<event>
 9    1  0.7984035E-001  0.2736245E+03  0.7818608E-02  0.1099223E+00
         -3   -1    0    0    0  501 -0.00000000000E+00  0.00000000000E+00  0.14965025714E+03  0.14965025714E+03  0.00000000000E+00 0.  1.
          3   -1    0    0  501    0  0.00000000000E+00 -0.00000000000E+00 -0.12507553788E+03  0.12507553788E+03  0.00000000000E+00 0.  1.
         35    2    1    2    0    0  0.00000000000E+00  0.00000000000E+00  0.24574719253E+02  0.27472579502E+03  0.27362446094E+03 0.  0.
         25    2    3    3    0    0 -0.16585399956E+02 -0.49569304892E+02 -0.73086780106E+01  0.13590071164E+03  0.12523336285E+03 0.  0.
         25    2    3    3    0    0  0.16585399956E+02  0.49569304892E+02  0.31883397264E+02  0.13882508338E+03  0.12459398572E+03 0.  0.
          5    1    4    4  502    0  0.50616981625E+02 -0.11410183511E+02 -0.22921547671E+02  0.56918876168E+02  0.47000000000E+01 0. -1.
         -5    1    4    4    0  502 -0.67202381581E+02 -0.38159121381E+02  0.15612869660E+02  0.78981835467E+02  0.47000000000E+01 0. -1.
          5    1    5    5  503    0  0.33540751792E+02 -0.22184462922E+02 -0.23207128789E+02  0.46666832467E+02  0.47000000000E+01 0. -1.
         -5    1    5    5    0  503 -0.16955351836E+02  0.71753767814E+02  0.55090526052E+02  0.92158250917E+02  0.47000000000E+01 0. -1.
<mgrwt>
<rscale>  0 0.27362446E+03</rscale>
<asrwt>0</asrwt>
<pdfrwt beam="1">  1        3 0.19242390E-01 0.27362446E+03</pdfrwt>
<pdfrwt beam="2">  1       -3 0.23023116E-01 0.27362446E+03</pdfrwt>
<totfact> 0.10655858E+03</totfact>
</mgrwt>
</event>
<event>
 9    1  0.7984035E-001  0.2841037E+03  0.7818608E-02  0.1093468E+00
          2   -1    0    0  501    0  0.00000000000E+00  0.00000000000E+00  0.13691251447E+04  0.13691251447E+04  0.00000000000E+00 0.  1.
         -2   -1    0    0    0  501 -0.00000000000E+00 -0.00000000000E+00 -0.14738405627E+02  0.14738405627E+02  0.00000000000E+00 0.  1.
         35    2    1    2    0    0  0.14210854715E-13  0.00000000000E+00  0.13543867390E+04  0.13838635503E+04  0.28410365528E+03 0.  0.
         25    2    3    3    0    0  0.57659841836E+02  0.22820285643E+02  0.83183840198E+03  0.84346482027E+03  0.12502940946E+03 0.  0.
         25    2    3    3    0    0 -0.57659841836E+02 -0.22820285643E+02  0.52254833706E+03  0.54039873003E+03  0.12299837417E+03 0.  0.
          5    1    4    4  502    0  0.58109658543E+02  0.39807931562E+02  0.81802802320E+03  0.82106841407E+03  0.47000000000E+01 0. -1.
         -5    1    4    4    0  502 -0.44981670769E+00 -0.16987645918E+02  0.13810378774E+02  0.22396406203E+02  0.47000000000E+01 0. -1.
          5    1    5    5  503    0 -0.28732466629E+02 -0.33015042385E+02  0.49131956098E+02  0.65966557984E+02  0.47000000000E+01 0.  1.
         -5    1    5    5    0  503 -0.28927375206E+02  0.10194756741E+02  0.47341638097E+03  0.47443217204E+03  0.47000000000E+01 0.  1.
<mgrwt>
<rscale>  0 0.28410366E+03</rscale>
<asrwt>0</asrwt>
<pdfrwt beam="1">  1        2 0.21063454E+00 0.28410366E+03</pdfrwt>
<pdfrwt beam="2">  1       -2 0.22674481E-02 0.28410366E+03</pdfrwt>
<totfact> 0.10324452E+04</totfact>
</mgrwt>
</event>
<event>
 9    1  0.7984035E-001  0.2662092E+03  0.7818608E-02  0.1103469E+00
          1   -1    0    0  501    0  0.00000000000E+00  0.00000000000E+00  0.54074475897E+03  0.54074475897E+03  0.00000000000E+00 0. -1.
         -1   -1    0    0    0  501 -0.00000000000E+00 -0.00000000000E+00 -0.32763774612E+02  0.32763774612E+02  0.00000000000E+00 0. -1.
         35    2    1    2    0    0  0.71054273576E-14  0.00000000000E+00  0.50798098436E+03  0.57350853358E+03  0.26620923655E+03 0.  0.
         25    2    3    3    0    0 -0.24016055563E+02  0.26183427117E+02  0.22629244899E+03  0.26310739106E+03  0.12944065814E+03 0.  0.
         25    2    3    3    0    0  0.24016055563E+02 -0.26183427117E+02  0.28168853537E+03  0.31040114252E+03  0.12545156652E+03 0.  0.
          5    1    4    4  502    0  0.13849182270E+02  0.16917783319E+02  0.22254330159E+03  0.22366408368E+03  0.47000000000E+01 0. -1.
         -5    1    4    4    0  502 -0.37865237833E+02  0.92656437986E+01  0.37491473964E+01  0.39443307383E+02  0.47000000000E+01 0. -1.
          5    1    5    5  503    0 -0.45768611671E+02 -0.34910802270E+02  0.15522583016E+03  0.16562209478E+03  0.47000000000E+01 0. -1.
         -5    1    5    5    0  503  0.69784667234E+02  0.87273751523E+01  0.12646270520E+03  0.14477904774E+03  0.47000000000E+01 0. -1.
<mgrwt>
<rscale>  0 0.26620924E+03</rscale>
<asrwt>0</asrwt>
<pdfrwt beam="1">  1        1 0.83191495E-01 0.26620924E+03</pdfrwt>
<pdfrwt beam="2">  1       -1 0.50405811E-02 0.26620924E+03</pdfrwt>
<totfact> 0.70198591E+03</totfact>
</mgrwt>
</event>
<event>
 9    1  0.7984035E-001  0.2745329E+03  0.7818608E-02  0.1098713E+00
         -1   -1    0    0    0  501 -0.00000000000E+00  0.00000000000E+00  0.87777130000E+02  0.87777130000E+02  0.00000000000E+00 0.  1.
          1   -1    0    0  501    0  0.00000000000E+00 -0.00000000000E+00 -0.21465818883E+03  0.21465818883E+03  0.00000000000E+00 0.  1.
         35    2    1    2    0    0  0.00000000000E+00  0.00000000000E+00 -0.12688105883E+03  0.30243531883E+03  0.27453291057E+03 0.  0.
         25    2    3    3    0    0 -0.44963407772E+02  0.34741208075E+02 -0.74337505200E+02  0.15593588266E+03  0.12474484056E+03 0.  0.
         25    2    3    3    0    0  0.44963407772E+02 -0.34741208075E+02 -0.52543553632E+02  0.14649943617E+03  0.12438890703E+03 0.  0.
          5    1    4    4  502    0 -0.20615535364E+02 -0.12250600124E+01  0.33472727384E+02  0.39610788289E+02  0.47000000000E+01 0. -1.
         -5    1    4    4    0  502 -0.24347872407E+02  0.35966268088E+02 -0.10781023258E+03  0.11632509437E+03  0.47000000000E+01 0. -1.
          5    1    5    5  503    0 -0.13332824810E+02 -0.17137739747E+02  0.33975342153E+02  0.40594090893E+02  0.47000000000E+01 0.  1.
         -5    1    5    5    0  503  0.58296232581E+02 -0.17603468328E+02 -0.86518895785E+02  0.10590534528E+03  0.47000000000E+01 0.  1.
<mgrwt>
<rscale>  0 0.27453291E+03</rscale>
<asrwt>0</asrwt>
<pdfrwt beam="1">  1        1 0.33024336E-01 0.27453291E+03</pdfrwt>
<pdfrwt beam="2">  1       -1 0.13504174E-01 0.27453291E+03</pdfrwt>
<totfact> 0.50581487E+03</totfact>
</mgrwt>
</event>
<event>
 9    1  0.7984035E-001  0.2749578E+03  0.7818608E-02  0.1098475E+00
          2   -1    0    0  501    0  0.00000000000E+00  0.00000000000E+00  0.11275130271E+04  0.11275130271E+04  0.00000000000E+00 0.  1.
         -2   -1    0    0    0  501 -0.00000000000E+00 -0.00000000000E+00 -0.16762950152E+02  0.16762950152E+02  0.00000000000E+00 0.  1.
         35    2    1    2    0    0 -0.35527136788E-14  0.71054273576E-14  0.11107500769E+04  0.11442759772E+04  0.27495777617E+03 0.  0.
         25    2    3    3    0    0 -0.79728419774E+01  0.42887111408E+02  0.71225333319E+03  0.72456383569E+03  0.12563865174E+03 0.  0.
         25    2    3    3    0    0  0.79728419774E+01 -0.42887111408E+02  0.39849674371E+03  0.41971214151E+03  0.12432118265E+03 0.  0.
          5    1    4    4  502    0  0.51793108715E+02  0.33316620318E+02  0.49996088907E+03  0.50376135610E+03  0.47000000000E+01 0.  1.
         -5    1    4    4    0  502 -0.59765950692E+02  0.95704910905E+01  0.21229244412E+03  0.22080247959E+03  0.47000000000E+01 0.  1.
          5    1    5    5  503    0 -0.12231291386E+02 -0.38530994765E+02  0.39632050263E+03  0.39840465967E+03  0.47000000000E+01 0.  1.
         -5    1    5    5    0  503  0.20204133363E+02 -0.43561166428E+01  0.21762410798E+01  0.21307481841E+02  0.47000000000E+01 0.  1.
<mgrwt>
<rscale>  0 0.27495778E+03</rscale>
<asrwt>0</asrwt>
<pdfrwt beam="1">  1        2 0.17346348E+00 0.27495778E+03</pdfrwt>
<pdfrwt beam="2">  1       -2 0.25789163E-02 0.27495778E+03</pdfrwt>
<totfact> 0.11658648E+04</totfact>
</mgrwt>
</event>
<event>
 9    1  0.7984035E-001  0.2730778E+03  0.7818608E-02  0.1099531E+00
          1   -1    0    0  501    0  0.00000000000E+00  0.00000000000E+00  0.15546858685E+02  0.15546858685E+02  0.00000000000E+00 0. -1.
         -1   -1    0    0    0  501 -0.00000000000E+00 -0.00000000000E+00 -0.11991403478E+04  0.11991403478E+04  0.00000000000E+00 0. -1.
         35    2    1    2    0    0 -0.35527136788E-14  0.00000000000E+00 -0.11835934891E+04  0.12146872065E+04  0.27307775839E+03 0.  0.
         25    2    3    3    0    0 -0.98155675150E+01  0.50366294998E+01 -0.83472765728E+03  0.84406617028E+03  0.12472259212E+03 0.  0.
         25    2    3    3    0    0  0.98155675150E+01 -0.50366294998E+01 -0.34886583187E+03  0.37062103623E+03  0.12462291464E+03 0.  0.
          5    1    4    4  502    0  0.35412231998E+02  0.28755240614E+02 -0.66934534266E+03  0.67091442657E+03  0.47000000000E+01 0. -1.
         -5    1    4    4    0  502 -0.45227799513E+02 -0.23718611115E+02 -0.16538231462E+03  0.17315174371E+03  0.47000000000E+01 0. -1.
          5    1    5    5  503    0  0.19524968336E+02 -0.21756001193E+02 -0.10117727533E+02  0.31289077756E+02  0.47000000000E+01 0. -1.
         -5    1    5    5    0  503 -0.97094008213E+01  0.16719371693E+02 -0.33874810434E+03  0.33933195848E+03  0.47000000000E+01 0. -1.
<mgrwt>
<rscale>  0 0.27307776E+03</rscale>
<asrwt>0</asrwt>
<pdfrwt beam="1">  1        1 0.23918244E-02 0.27307776E+03</pdfrwt>
<pdfrwt beam="2">  1       -1 0.18448313E+00 0.27307776E+03</pdfrwt>
<totfact> 0.99914618E+02</totfact>
</mgrwt>
</event>
<event>
 9    1  0.7984035E-001  0.3026110E+03  0.7818608E-02  0.1083943E+00
          2   -1    0    0  501    0  0.00000000000E+00  0.00000000000E+00  0.26441524444E+03  0.26441524444E+03  0.00000000000E+00 0. -1.
         -2   -1    0    0    0  501 -0.00000000000E+00 -0.00000000000E+00 -0.86581067275E+02  0.86581067275E+02  0.00000000000E+00 0. -1.
         35    2    1    2    0    0  0.00000000000E+00 -0.14210854715E-13  0.17783417716E+03  0.35099631171E+03  0.30261099826E+03 0.  0.
         25    2    3    3    0    0 -0.36503254364E+02 -0.73792329130E+02  0.11447223485E+03  0.18824935890E+03  0.12472422843E+03 0.  0.
         25    2    3    3    0    0  0.36503254364E+02  0.73792329130E+02  0.63361942313E+02  0.16274695281E+03  0.12527585361E+03 0.  0.
          5    1    4    4  502    0 -0.76302046429E+02 -0.65275711597E+02  0.10661488529E+03  0.14653240113E+03  0.47000000000E+01 0.  1.
         -5    1    4    4    0  502  0.39798792065E+02 -0.85166175336E+01  0.78573495587E+01  0.41716957777E+02  0.47000000000E+01 0.  1.
          5    1    5    5  503    0 -0.39926365236E+02  0.58746359859E+02  0.22490372033E+02  0.74653575078E+02  0.47000000000E+01 0. -1.
         -5    1    5    5    0  503  0.76429619600E+02  0.15045969272E+02  0.40871570279E+02  0.88093377734E+02  0.47000000000E+01 0. -1.
<mgrwt>
<rscale>  0 0.30261100E+03</rscale>
<asrwt>0</asrwt>
<pdfrwt beam="1">  1        2 0.40679268E-01 0.30261100E+03</pdfrwt>
<pdfrwt beam="2">  1       -2 0.13320164E-01 0.30261100E+03</pdfrwt>
<totfact> 0.52161999E+03</totfact>
</mgrwt>
</event>
<event>
 9    1  0.7984035E-001  0.2751088E+03  0.7818608E-02  0.1098391E+00
          1   -1    0    0  501    0  0.00000000000E+00  0.00000000000E+00  0.25838712957E+03  0.25838712957E+03  0.00000000000E+00 0. -1.
         -1   -1    0    0    0  501 -0.00000000000E+00 -0.00000000000E+00 -0.73228166333E+02  0.73228166333E+02  0.00000000000E+00 0. -1.
         35    2    1    2    0    0  0.00000000000E+00  0.00000000000E+00  0.18515896323E+03  0.33161529590E+03  0.27510881994E+03 0.  0.
         25    2    3    3    0    0  0.30687062267E+02  0.16356787011E+02  0.38684686411E+02  0.13513057752E+03  0.12471779242E+03 0.  0.
         25    2    3    3    0    0 -0.30687062267E+02 -0.16356787011E+02  0.14647427682E+03  0.19648471838E+03  0.12626278357E+03 0.  0.
          5    1    4    4  502    0  0.51139346343E+01  0.55899629391E+02 -0.19969651497E+02  0.59764520198E+02  0.47000000000E+01 0.  1.
         -5    1    4    4    0  502  0.25573127633E+02 -0.39542842380E+02  0.58654337908E+02  0.75366057319E+02  0.47000000000E+01 0.  1.
          5    1    5    5  503    0 -0.34129748026E+02 -0.47990212084E+02  0.15269378425E+03  0.16372349222E+03  0.47000000000E+01 0.  1.
         -5    1    5    5    0  503  0.34426857587E+01  0.31633425073E+02 -0.62195074273E+01  0.32761226163E+02  0.47000000000E+01 0.  1.
<mgrwt>
<rscale>  0 0.27510882E+03</rscale>
<asrwt>0</asrwt>
<pdfrwt beam="1">  1        1 0.39751865E-01 0.27510882E+03</pdfrwt>
<pdfrwt beam="2">  1       -1 0.11265872E-01 0.27510882E+03</pdfrwt>
<totfact> 0.53215254E+03</totfact>
</mgrwt>
</event>
<event>
 9    1  0.7984035E-001  0.2733596E+03  0.7818608E-02  0.1099372E+00
         -1   -1    0    0    0  501 -0.00000000000E+00  0.00000000000E+00  0.65226725967E+03  0.65226725967E+03  0.00000000000E+00 0. -1.
          1   -1    0    0  501    0  0.00000000000E+00 -0.00000000000E+00 -0.28640658521E+02  0.28640658521E+02  0.00000000000E+00 0. -1.
         35    2    1    2    0    0  0.71054273576E-14  0.00000000000E+00  0.62362660115E+03  0.68090791819E+03  0.27335957162E+03 0.  0.
         25    2    3    3    0    0  0.41610934466E+02 -0.36011010606E+02  0.28243530138E+03  0.31343741019E+03  0.12427810704E+03 0.  0.
         25    2    3    3    0    0 -0.41610934466E+02  0.36011010606E+02  0.34119129977E+03  0.36747050800E+03  0.12487917545E+03 0.  0.
          5    1    4    4  502    0  0.58016004059E+02  0.14755152186E+01  0.26019171122E+03  0.26662679996E+03  0.47000000000E+01 0. -1.
         -5    1    4    4    0  502 -0.16405069592E+02 -0.37486525825E+02  0.22243590166E+02  0.46810610231E+02  0.47000000000E+01 0. -1.
          5    1    5    5  503    0 -0.70014269561E+02  0.47301404250E+02  0.13757307565E+03  0.16151737347E+03  0.47000000000E+01 0. -1.
         -5    1    5    5    0  503  0.28403335095E+02 -0.11290393644E+02  0.20361822411E+03  0.20595313453E+03  0.47000000000E+01 0. -1.
<mgrwt>
<rscale>  0 0.27335957E+03</rscale>
<asrwt>0</asrwt>
<pdfrwt beam="1">  1        1 0.44062556E-02 0.27335957E+03</pdfrwt>
<pdfrwt beam="2">  1       -1 0.10034880E+00 0.27335957E+03</pdfrwt>
<totfact> 0.19835485E+03</totfact>
</mgrwt>
</event>
<event>
 9    1  0.7984035E-001  0.2757491E+03  0.7818608E-02  0.1098034E+00
          2   -1    0    0  501    0  0.00000000000E+00  0.00000000000E+00  0.16164056533E+03  0.16164056533E+03  0.00000000000E+00 0.  1.
         -2   -1    0    0    0  501 -0.00000000000E+00 -0.00000000000E+00 -0.11760286596E+03  0.11760286596E+03  0.00000000000E+00 0.  1.
         35    2    1    2    0    0 -0.71054273576E-14 -0.88817841970E-15  0.44037699377E+02  0.27924343129E+03  0.27574911596E+03 0.  0.
         25    2    3    3    0    0 -0.56314856238E+02 -0.45672287109E+01 -0.41191785242E+01  0.13649327055E+03  0.12418221556E+03 0.  0.
         25    2    3    3    0    0  0.56314856238E+02  0.45672287109E+01  0.48156877901E+02  0.14275016074E+03  0.12192744109E+03 0.  0.
          5    1    4    4  502    0 -0.94213092266E+02  0.73162123821E+01  0.73156094735E+01  0.94895952811E+02  0.47000000000E+01 0.  1.
         -5    1    4    4    0  502  0.37898236027E+02 -0.11883441093E+02 -0.11434787998E+02  0.41597317735E+02  0.47000000000E+01 0.  1.
          5    1    5    5  503    0 -0.25397099432E+02 -0.29235120350E+01  0.54434003954E+02  0.60321723853E+02  0.47000000000E+01 0.  1.
         -5    1    5    5    0  503  0.81711955670E+02  0.74907407459E+01 -0.62771260528E+01  0.82428436888E+02  0.47000000000E+01 0.  1.
<mgrwt>
<rscale>  0 0.27574912E+03</rscale>
<asrwt>0</asrwt>
<pdfrwt beam="1">  1        2 0.24867779E-01 0.27574912E+03</pdfrwt>
<pdfrwt beam="2">  1       -2 0.18092749E-01 0.27574912E+03</pdfrwt>
<totfact> 0.53642101E+03</totfact>
</mgrwt>
</event>
<event>
 9    1  0.7984035E-001  0.2748855E+03  0.7818608E-02  0.1098516E+00
          2   -1    0    0  501    0  0.00000000000E+00  0.00000000000E+00  0.10773882368E+04  0.10773882368E+04  0.00000000000E+00 0.  1.
         -2   -1    0    0    0  501 -0.00000000000E+00 -0.00000000000E+00 -0.17533613740E+02  0.17533613740E+02  0.00000000000E+00 0.  1.
         35    2    1    2    0    0  0.53290705182E-14 -0.14210854715E-13  0.10598546230E+04  0.10949218505E+04  0.27488549755E+03 0.  0.
         25    2    3    3    0    0 -0.15787951395E+02  0.41841706426E+02  0.37179027756E+03  0.39427862835E+03  0.12340031796E+03 0.  0.
         25    2    3    3    0    0  0.15787951395E+02 -0.41841706426E+02  0.68806434547E+03  0.70064322217E+03  0.12437199627E+03 0.  0.
          5    1    4    4  502    0  0.11045009665E+02  0.68116753279E+02  0.33290775078E+03  0.34001697729E+03  0.47000000000E+01 0.  1.
         -5    1    4    4    0  502 -0.26832961060E+02 -0.26275046853E+02  0.38882526787E+02  0.54261651060E+02  0.47000000000E+01 0.  1.
          5    1    5    5  503    0  0.42059217691E+02 -0.45510542827E+02  0.65523495814E+03  0.65817560550E+03  0.47000000000E+01 0. -1.
         -5    1    5    5    0  503 -0.26271266296E+02  0.36688364007E+01  0.32829387334E+02  0.42467616675E+02  0.47000000000E+01 0. -1.
<mgrwt>
<rscale>  0 0.27488550E+03</rscale>
<asrwt>0</asrwt>
<pdfrwt beam="1">  1        2 0.16575199E+00 0.27488550E+03</pdfrwt>
<pdfrwt beam="2">  1       -2 0.26974799E-02 0.27488550E+03</pdfrwt>
<totfact> 0.11671597E+04</totfact>
</mgrwt>
</event>
<event>
 9    1  0.7984035E-001  0.2914062E+03  0.7818608E-02  0.1089617E+00
         -1   -1    0    0    0  501 -0.00000000000E+00  0.00000000000E+00  0.30031205458E+03  0.30031205458E+03  0.00000000000E+00 0. -1.
          1   -1    0    0  501    0  0.00000000000E+00 -0.00000000000E+00 -0.70691123368E+02  0.70691123368E+02  0.00000000000E+00 0. -1.
         35    2    1    2    0    0 -0.71054273576E-14 -0.71054273576E-14  0.22962093121E+03  0.37100317795E+03  0.29140622162E+03 0.  0.
         25    2    3    3    0    0  0.59106697152E+02 -0.26866176630E+02  0.68957859936E+02  0.15754244454E+03  0.12589297951E+03 0.  0.
         25    2    3    3    0    0 -0.59106697152E+02  0.26866176630E+02  0.16066307128E+03  0.21346073341E+03  0.12464938483E+03 0.  0.
          5    1    4    4  502    0  0.34543040009E+02  0.11438198932E+02 -0.30730341327E+02  0.47859146315E+02  0.47000000000E+01 0. -1.
         -5    1    4    4    0  502  0.24563657143E+02 -0.38304375561E+02  0.99688201263E+02  0.10968329823E+03  0.47000000000E+01 0. -1.
          5    1    5    5  503    0  0.11171479901E+02  0.40568671422E+02  0.12762420479E+03  0.13446429531E+03  0.47000000000E+01 0.  1.
         -5    1    5    5    0  503 -0.70278177053E+02 -0.13702494792E+02  0.33038866487E+02  0.78996438098E+02  0.47000000000E+01 0.  1.
<mgrwt>
<rscale>  0 0.29140622E+03</rscale>
<asrwt>0</asrwt>
<pdfrwt beam="1">  1        1 0.10875558E-01 0.29140622E+03</pdfrwt>
<pdfrwt beam="2">  1       -1 0.46201854E-01 0.29140622E+03</pdfrwt>
<totfact> 0.27189995E+03</totfact>
</mgrwt>
</event>
<event>
 9    1  0.7984035E-001  0.2754022E+03  0.7818608E-02  0.1098227E+00
          2   -1    0    0  501    0  0.00000000000E+00  0.00000000000E+00  0.22548497782E+03  0.22548497782E+03  0.00000000000E+00 0.  1.
         -2   -1    0    0    0  501 -0.00000000000E+00 -0.00000000000E+00 -0.84092475311E+02  0.84092475311E+02  0.00000000000E+00 0.  1.
         35    2    1    2    0    0  0.00000000000E+00  0.00000000000E+00  0.14139250251E+03  0.30957745313E+03  0.27540217813E+03 0.  0.
         25    2    3    3    0    0  0.11569460388E+02  0.12684205484E+02  0.13463551457E+03  0.18450219449E+03  0.12497838416E+03 0.  0.
         25    2    3    3    0    0 -0.11569460388E+02 -0.12684205484E+02  0.67569879381E+01  0.12507525864E+03  0.12370700043E+03 0.  0.
          5    1    4    4  502    0 -0.34502054257E+01 -0.17328609476E+02  0.14722097099E+03  0.14835190907E+03  0.47000000000E+01 0.  1.
         -5    1    4    4    0  502  0.15019665814E+02  0.30012814960E+02 -0.12585456421E+02  0.36150285425E+02  0.47000000000E+01 0.  1.
          5    1    5    5  503    0  0.44553640854E+02  0.30124634082E+02 -0.23991339601E+00  0.53987665725E+02  0.47000000000E+01 0.  1.
         -5    1    5    5    0  503 -0.56123101242E+02 -0.42808839566E+02  0.69969013341E+01  0.71087592914E+02  0.47000000000E+01 0.  1.
<mgrwt>
<rscale>  0 0.27540218E+03</rscale>
<asrwt>0</asrwt>
<pdfrwt beam="1">  1        2 0.34689996E-01 0.27540218E+03</pdfrwt>
<pdfrwt beam="2">  1       -2 0.12937304E-01 0.27540218E+03</pdfrwt>
<totfact> 0.64810701E+03</totfact>
</mgrwt>
</event>
<event>
 9    1  0.7984035E-001  0.2791267E+03  0.7818608E-02  0.1096167E+00
          1   -1    0    0  501    0  0.00000000000E+00  0.00000000000E+00  0.41116322012E+02  0.41116322012E+02  0.00000000000E+00 0.  1.
         -1   -1    0    0    0  501 -0.00000000000E+00 -0.00000000000E+00 -0.47372750237E+03  0.47372750237E+03  0.00000000000E+00 0.  1.
         35    2    1    2    0    0  0.00000000000E+00 -0.71054273576E-14 -0.43261118036E+03  0.51484382439E+03  0.27912672773E+03 0.  0.
         25    2    3    3    0    0 -0.22974920342E+02 -0.55196628402E+02 -0.19144872806E+03  0.23743021030E+03  0.12706681130E+03 0.  0.
         25    2    3    3    0    0  0.22974920342E+02  0.55196628402E+02 -0.24116245230E+03  0.27741361408E+03  0.12338747963E+03 0.  0.
          5    1    4    4  502    0 -0.18590247525E+02  0.85077356893E+01 -0.16790584554E+03  0.16921123437E+03  0.47000000000E+01 0.  1.
         -5    1    4    4    0  502 -0.43846728169E+01 -0.63704364092E+02 -0.23542882526E+02  0.68218975935E+02  0.47000000000E+01 0.  1.
          5    1    5    5  503    0 -0.18929599817E+02 -0.31820533230E+02 -0.95941436829E+02  0.10294525431E+03  0.47000000000E+01 0. -1.
         -5    1    5    5    0  503  0.41904520160E+02  0.87017161632E+02 -0.14522101547E+03  0.17446835977E+03  0.47000000000E+01 0. -1.
<mgrwt>
<rscale>  0 0.27912673E+03</rscale>
<asrwt>0</asrwt>
<pdfrwt beam="1">  1        1 0.63255883E-02 0.27912673E+03</pdfrwt>
<pdfrwt beam="2">  1       -1 0.72881151E-01 0.27912673E+03</pdfrwt>
<totfact> 0.23695844E+03</totfact>
</mgrwt>
</event>
<event>
 9    1  0.7984035E-001  0.2736903E+03  0.7818608E-02  0.1099186E+00
          2   -1    0    0  501    0  0.00000000000E+00  0.00000000000E+00  0.14009448028E+04  0.14009448028E+04  0.00000000000E+00 0.  1.
         -2   -1    0    0    0  501 -0.00000000000E+00 -0.00000000000E+00 -0.13367114159E+02  0.13367114159E+02  0.00000000000E+00 0.  1.
         35    2    1    2    0    0  0.00000000000E+00  0.00000000000E+00  0.13875776886E+04  0.14143119170E+04  0.27369025638E+03 0.  0.
         25    2    3    3    0    0  0.49152170211E+02  0.17534113344E+02  0.76988568773E+03  0.78186008275E+03  0.12592789944E+03 0.  0.
         25    2    3    3    0    0 -0.49152170211E+02 -0.17534113344E+02  0.61769200091E+03  0.63245183421E+03  0.12541345079E+03 0.  0.
          5    1    4    4  502    0  0.14713653747E+01 -0.45121088380E+02  0.45451208649E+03  0.45677281476E+03  0.47000000000E+01 0. -1.
         -5    1    4    4    0  502  0.47680804836E+02  0.62655201724E+02  0.31537360124E+03  0.32508726799E+03  0.47000000000E+01 0. -1.
          5    1    5    5  503    0 -0.57581591891E+02  0.14620254603E+02  0.57529149551E+03  0.57836993903E+03  0.47000000000E+01 0. -1.
         -5    1    5    5    0  503  0.84294216798E+01 -0.32154367947E+02  0.42400505402E+02  0.54081895180E+02  0.47000000000E+01 0. -1.
<mgrwt>
<rscale>  0 0.27369026E+03</rscale>
<asrwt>0</asrwt>
<pdfrwt beam="1">  1        2 0.21552985E+00 0.27369026E+03</pdfrwt>
<pdfrwt beam="2">  1       -2 0.20564802E-02 0.27369026E+03</pdfrwt>
<totfact> 0.11447706E+04</totfact>
</mgrwt>
</event>
<event>
 9    1  0.7984035E-001  0.2760707E+03  0.7818608E-02  0.1097855E+00
          2   -1    0    0  501    0  0.00000000000E+00  0.00000000000E+00  0.12104217341E+04  0.12104217341E+04  0.00000000000E+00 0. -1.
         -2   -1    0    0    0  501 -0.00000000000E+00 -0.00000000000E+00 -0.15741416421E+02  0.15741416421E+02  0.00000000000E+00 0. -1.
         35    2    1    2    0    0  0.71054273576E-14  0.35527136788E-14  0.11946803176E+04  0.12261631505E+04  0.27607066169E+03 0.  0.
         25    2    3    3    0    0 -0.42399952634E+02 -0.30917687993E+02  0.71171725110E+03  0.72439134179E+03  0.12428882142E+03 0.  0.
         25    2    3    3    0    0  0.42399952634E+02  0.30917687993E+02  0.48296306654E+03  0.50177180869E+03  0.12557055763E+03 0.  0.
          5    1    4    4  502    0 -0.81801627563E+02  0.12217592414E+01  0.37715809703E+03  0.38595766493E+03  0.47000000000E+01 0. -1.
         -5    1    4    4    0  502  0.39401674929E+02 -0.32139447235E+02  0.33455915407E+03  0.33843367685E+03  0.47000000000E+01 0. -1.
          5    1    5    5  503    0  0.75526917231E+02  0.17335958603E+02  0.43424645860E+03  0.44113141749E+03  0.47000000000E+01 0. -1.
         -5    1    5    5    0  503 -0.33126964597E+02  0.13581729390E+02  0.48716607940E+02  0.60640391207E+02  0.47000000000E+01 0. -1.
<mgrwt>
<rscale>  0 0.27607066E+03</rscale>
<asrwt>0</asrwt>
<pdfrwt beam="1">  1        2 0.18621865E+00 0.27607066E+03</pdfrwt>
<pdfrwt beam="2">  1       -2 0.24217573E-02 0.27607066E+03</pdfrwt>
<totfact> 0.11469270E+04</totfact>
</mgrwt>
</event>
<event>
 9    1  0.7984035E-001  0.2515431E+03  0.7818608E-02  0.1112333E+00
         -1   -1    0    0    0  501 -0.00000000000E+00  0.00000000000E+00  0.23763911610E+02  0.23763911610E+02  0.00000000000E+00 0.  1.
          1   -1    0    0  501    0  0.00000000000E+00 -0.00000000000E+00 -0.66565149138E+03  0.66565149138E+03  0.00000000000E+00 0.  1.
         35    2    1    2    0    0  0.00000000000E+00  0.35527136788E-14 -0.64188757977E+03  0.68941540299E+03  0.25154310330E+03 0.  0.
         25    2    3    3    0    0 -0.42271389648E+01  0.12471316623E+02 -0.33957034390E+03  0.36209059979E+03  0.12501272559E+03 0.  0.
         25    2    3    3    0    0  0.42271389648E+01 -0.12471316623E+02 -0.30231723588E+03  0.32732480321E+03  0.12478947569E+03 0.  0.
          5    1    4    4  502    0 -0.39897742767E+02  0.51289170811E+02 -0.24710158795E+03  0.25554587394E+03  0.47000000000E+01 0.  1.
         -5    1    4    4    0  502  0.35670603802E+02 -0.38817854189E+02 -0.92468755941E+02  0.10654472584E+03  0.47000000000E+01 0.  1.
          5    1    5    5  503    0 -0.37140188420E+02 -0.75489741914E+01 -0.27419730164E+03  0.27684405508E+03  0.47000000000E+01 0. -1.
         -5    1    5    5    0  503  0.41367327384E+02 -0.49223424311E+01 -0.28119934241E+02  0.50480748129E+02  0.47000000000E+01 0. -1.
<mgrwt>
<rscale>  0 0.25154310E+03</rscale>
<asrwt>0</asrwt>
<pdfrwt beam="1">  1        1 0.10240793E+00 0.25154310E+03</pdfrwt>
<pdfrwt beam="2">  1       -1 0.36559861E-02 0.25154310E+03</pdfrwt>
<totfact> 0.84699473E+03</totfact>
</mgrwt>
</event>
<event>
 9    1  0.7984035E-001  0.2770714E+03  0.7818608E-02  0.1097299E+00
         -2   -1    0    0    0  501 -0.00000000000E+00  0.00000000000E+00  0.13078843475E+02  0.13078843475E+02  0.00000000000E+00 0.  1.
          2   -1    0    0  501    0  0.00000000000E+00 -0.00000000000E+00 -0.14674183493E+04  0.14674183493E+04  0.00000000000E+00 0.  1.
         35    2    1    2    0    0  0.00000000000E+00  0.00000000000E+00 -0.14543395058E+04  0.14804971928E+04  0.27707136195E+03 0.  0.
         25    2    3    3    0    0 -0.26262651913E+02  0.43258688031E+02 -0.68153892782E+03  0.69619853007E+03  0.13280076115E+03 0.  0.
         25    2    3    3    0    0  0.26262651913E+02 -0.43258688031E+02 -0.77280057801E+03  0.78429866271E+03  0.12386532195E+03 0.  0.
          5    1    4    4  502    0 -0.45805910945E+02 -0.26214768365E+02 -0.46257554369E+03  0.46560027833E+03  0.47000000000E+01 0.  1.
         -5    1    4    4    0  502  0.19543259032E+02  0.69473456396E+02 -0.21896338413E+03  0.23059825174E+03  0.47000000000E+01 0.  1.
          5    1    5    5  503    0  0.70086264321E+02 -0.51889332531E+02 -0.56412551063E+03  0.57084522335E+03  0.47000000000E+01 0.  1.
         -5    1    5    5    0  503 -0.43823612408E+02  0.86306445002E+01 -0.20867506737E+03  0.21345343936E+03  0.47000000000E+01 0.  1.
<mgrwt>
<rscale>  0 0.27707136E+03</rscale>
<asrwt>0</asrwt>
<pdfrwt beam="1">  1        2 0.22575644E+00 0.27707136E+03</pdfrwt>
<pdfrwt beam="2">  1       -2 0.20121318E-02 0.27707136E+03</pdfrwt>
<totfact> 0.10885971E+04</totfact>
</mgrwt>
</event>
<event>
 9    1  0.7984035E-001  0.2752392E+03  0.7818608E-02  0.1098318E+00
         -1   -1    0    0    0  501 -0.00000000000E+00  0.00000000000E+00  0.46793122512E+02  0.46793122512E+02  0.00000000000E+00 0. -1.
          1   -1    0    0  501    0  0.00000000000E+00 -0.00000000000E+00 -0.40474235963E+03  0.40474235963E+03  0.00000000000E+00 0. -1.
         35    2    1    2    0    0  0.00000000000E+00 -0.35527136788E-14 -0.35794923712E+03  0.45153548214E+03  0.27523923281E+03 0.  0.
         25    2    3    3    0    0 -0.39821345657E+02  0.29182890891E+02 -0.15660501548E+03  0.20648765735E+03  0.12519840684E+03 0.  0.
         25    2    3    3    0    0  0.39821345657E+02 -0.29182890891E+02 -0.20134422164E+03  0.24504782479E+03  0.13065818059E+03 0.  0.
          5    1    4    4  502    0  0.30310502486E+02 -0.26085034778E+02 -0.76447602685E+02  0.86403018215E+02  0.47000000000E+01 0.  1.
         -5    1    4    4    0  502 -0.70131848143E+02  0.55267925669E+02 -0.80157412793E+02  0.12008463914E+03  0.47000000000E+01 0.  1.
          5    1    5    5  503    0 -0.36032637499E+01 -0.13621684337E+02 -0.19800390120E+03  0.19856023943E+03  0.47000000000E+01 0. -1.
         -5    1    5    5    0  503  0.43424609407E+02 -0.15561206554E+02 -0.33403204430E+01  0.46487585356E+02  0.47000000000E+01 0. -1.
<mgrwt>
<rscale>  0 0.27523923E+03</rscale>
<asrwt>0</asrwt>
<pdfrwt beam="1">  1        1 0.62268055E-01 0.27523923E+03</pdfrwt>
<pdfrwt beam="2">  1       -1 0.71989420E-02 0.27523923E+03</pdfrwt>
<totfact> 0.60059598E+03</totfact>
</mgrwt>
</event>
<event>
 9    1  0.7984035E-001  0.2758182E+03  0.7818608E-02  0.1097995E+00
          2   -1    0    0  501    0  0.00000000000E+00  0.00000000000E+00  0.58392736375E+03  0.58392736375E+03  0.00000000000E+00 0.  1.
         -2   -1    0    0    0  501 -0.00000000000E+00 -0.00000000000E+00 -0.32570702758E+02  0.32570702758E+02  0.00000000000E+00 0.  1.
         35    2    1    2    0    0  0.00000000000E+00  0.71054273576E-14  0.55135666100E+03  0.61649806651E+03  0.27581823433E+03 0.  0.
         25    2    3    3    0    0  0.35437895817E+02  0.46015268528E+02  0.28089313028E+03  0.31300714173E+03  0.12529673077E+03 0.  0.
         25    2    3    3    0    0 -0.35437895817E+02 -0.46015268528E+02  0.27046353072E+03  0.30349092478E+03  0.12483176910E+03 0.  0.
          5    1    4    4  502    0  0.40232796645E+02 -0.13357021250E+02  0.23175258038E+03  0.23564472507E+03  0.47000000000E+01 0.  1.
         -5    1    4    4    0  502 -0.47949008277E+01  0.59372289777E+02  0.49140549901E+02  0.77362416663E+02  0.47000000000E+01 0.  1.
          5    1    5    5  503    0 -0.29434844523E+02  0.22976434598E+02  0.18111033540E+02  0.41766328003E+02  0.47000000000E+01 0. -1.
         -5    1    5    5    0  503 -0.60030512940E+01 -0.68991703126E+02  0.25235249718E+03  0.26172459678E+03  0.47000000000E+01 0. -1.
<mgrwt>
<rscale>  0 0.27581823E+03</rscale>
<asrwt>0</asrwt>
<pdfrwt beam="1">  1        2 0.89834971E-01 0.27581823E+03</pdfrwt>
<pdfrwt beam="2">  1       -2 0.50108778E-02 0.27581823E+03</pdfrwt>
<totfact> 0.10116623E+04</totfact>
</mgrwt>
</event>
<event>
 9    1  0.7984035E-001  0.2742252E+03  0.7818608E-02  0.1098885E+00
          1   -1    0    0  501    0  0.00000000000E+00  0.00000000000E+00  0.70091824620E+03  0.70091824620E+03  0.00000000000E+00 0. -1.
         -1   -1    0    0    0  501 -0.00000000000E+00 -0.00000000000E+00 -0.26821766918E+02  0.26821766918E+02  0.00000000000E+00 0. -1.
         35    2    1    2    0    0  0.00000000000E+00 -0.71054273576E-14  0.67409647928E+03  0.72774001311E+03  0.27422520547E+03 0.  0.
         25    2    3    3    0    0  0.35160940490E+02 -0.16174753298E+02  0.22793932572E+03  0.26294694891E+03  0.12524714508E+03 0.  0.
         25    2    3    3    0    0 -0.35160940490E+02  0.16174753298E+02  0.44615715356E+03  0.46479306421E+03  0.12441250935E+03 0.  0.
          5    1    4    4  502    0  0.10105656378E+02 -0.65529693183E+02  0.74920177552E+02  0.10015681696E+03  0.47000000000E+01 0. -1.
         -5    1    4    4    0  502  0.25055284112E+02  0.49354939884E+02  0.15301914817E+03  0.16279013194E+03  0.47000000000E+01 0. -1.
          5    1    5    5  503    0 -0.29051307032E+02  0.27965072563E+02  0.44865401057E+03  0.45048699751E+03  0.47000000000E+01 0.  1.
         -5    1    5    5    0  503 -0.61096334585E+01 -0.11790319265E+02 -0.24968570142E+01  0.14306066696E+02  0.47000000000E+01 0.  1.
<mgrwt>
<rscale>  0 0.27422521E+03</rscale>
<asrwt>0</asrwt>
<pdfrwt beam="1">  1        1 0.10783356E+00 0.27422521E+03</pdfrwt>
<pdfrwt beam="2">  1       -1 0.41264262E-02 0.27422521E+03</pdfrwt>
<totfact> 0.65860567E+03</totfact>
</mgrwt>
</event>
<event>
 9    1  0.7984035E-001  0.2762100E+03  0.7818608E-02  0.1097777E+00
         -2   -1    0    0    0  501 -0.00000000000E+00  0.00000000000E+00  0.42062090833E+03  0.42062090833E+03  0.00000000000E+00 0. -1.
          2   -1    0    0  501    0  0.00000000000E+00 -0.00000000000E+00 -0.45344854468E+02  0.45344854468E+02  0.00000000000E+00 0. -1.
         35    2    1    2    0    0  0.17763568394E-14  0.00000000000E+00  0.37527605386E+03  0.46596576280E+03  0.27621002063E+03 0.  0.
         25    2    3    3    0    0  0.96506502741E+01  0.35267206950E+02  0.27547441910E+03  0.30284234916E+03  0.12037616845E+03 0.  0.
         25    2    3    3    0    0 -0.96506502741E+01 -0.35267206950E+02  0.99801634766E+02  0.16312341364E+03  0.12374154856E+03 0.  0.
          5    1    4    4  502    0  0.41641517710E+02  0.85560670403E+01  0.26401040914E+02  0.50262582920E+02  0.47000000000E+01 0.  1.
         -5    1    4    4    0  502 -0.31990867436E+02  0.26711139910E+02  0.24907337818E+03  0.25257976624E+03  0.47000000000E+01 0.  1.
          5    1    5    5  503    0 -0.18221095459E+02 -0.78441816941E+02  0.43971955440E+02  0.91873553485E+02  0.47000000000E+01 0. -1.
         -5    1    5    5    0  503  0.85704451848E+01  0.43174609991E+02  0.55829679326E+02  0.71249860155E+02  0.47000000000E+01 0. -1.
<mgrwt>
<rscale>  0 0.27621002E+03</rscale>
<asrwt>0</asrwt>
<pdfrwt beam="1">  1        2 0.69761317E-02 0.27621002E+03</pdfrwt>
<pdfrwt beam="2">  1       -2 0.64710906E-01 0.27621002E+03</pdfrwt>
<totfact> 0.22836840E+03</totfact>
</mgrwt>
</event>
<event>
 9    1  0.7984035E-001  0.3070235E+03  0.7818608E-02  0.1081781E+00
          2   -1    0    0  501    0  0.00000000000E+00  0.00000000000E+00  0.14725518471E+04  0.14725518471E+04  0.00000000000E+00 0. -1.
         -2   -1    0    0    0  501 -0.00000000000E+00 -0.00000000000E+00 -0.16003415760E+02  0.16003415760E+02  0.00000000000E+00 0. -1.
         35    2    1    2    0    0  0.00000000000E+00  0.00000000000E+00  0.14565484314E+04  0.14885552629E+04  0.30702351335E+03 0.  0.
         25    2    3    3    0    0  0.70231313164E+02  0.40655212425E+02  0.78234280253E+03  0.79639619963E+03  0.12490541409E+03 0.  0.
         25    2    3    3    0    0 -0.70231313164E+02 -0.40655212425E+02  0.67420562886E+03  0.69215906328E+03  0.13396139462E+03 0.  0.
          5    1    4    4  502    0 -0.26850720745E+02  0.34753764323E+02  0.14255738013E+03  0.14924302989E+03  0.47000000000E+01 0. -1.
         -5    1    4    4    0  502  0.97082033909E+02  0.59014481016E+01  0.63978542240E+03  0.64715316974E+03  0.47000000000E+01 0. -1.
          5    1    5    5  503    0  0.16685307303E+02  0.34821701713E+02  0.22944306449E+03  0.23271691007E+03  0.47000000000E+01 0. -1.
         -5    1    5    5    0  503 -0.86916620468E+02 -0.75476914138E+02  0.44476256437E+03  0.45944215321E+03  0.47000000000E+01 0. -1.
<mgrwt>
<rscale>  0 0.30702351E+03</rscale>
<asrwt>0</asrwt>
<pdfrwt beam="1">  1        2 0.22654633E+00 0.30702351E+03</pdfrwt>
<pdfrwt beam="2">  1       -2 0.24620651E-02 0.30702351E+03</pdfrwt>
<totfact> 0.80414510E+03</totfact>
</mgrwt>
</event>
<event>
 9    1  0.7984035E-001  0.2778507E+03  0.7818608E-02  0.1096869E+00
          2   -1    0    0  501    0  0.00000000000E+00  0.00000000000E+00  0.36606673811E+03  0.36606673811E+03  0.00000000000E+00 0. -1.
         -2   -1    0    0    0  501 -0.00000000000E+00 -0.00000000000E+00 -0.52723300541E+02  0.52723300541E+02  0.00000000000E+00 0. -1.
         35    2    1    2    0    0  0.35527136788E-14 -0.71054273576E-14  0.31334343757E+03  0.41879003865E+03  0.27785065522E+03 0.  0.
         25    2    3    3    0    0 -0.19638310764E+02 -0.44499901148E+02  0.21280624164E+03  0.25143085772E+03  0.12476007087E+03 0.  0.
         25    2    3    3    0    0  0.19638310764E+02  0.44499901148E+02  0.10053719593E+03  0.16735918093E+03  0.12464133834E+03 0.  0.
          5    1    4    4  502    0 -0.51167414790E+02 -0.67252662321E+02  0.18487378464E+03  0.20332592351E+03  0.47000000000E+01 0. -1.
         -5    1    4    4    0  502  0.31529104025E+02  0.22752761173E+02  0.27932457002E+02  0.48104934215E+02  0.47000000000E+01 0. -1.
          5    1    5    5  503    0 -0.32797038156E+02  0.22824467258E+02 -0.11364241109E+02  0.41807152419E+02  0.47000000000E+01 0.  1.
         -5    1    5    5    0  503  0.52435348920E+02  0.21675433890E+02  0.11190143704E+03  0.12555202851E+03  0.47000000000E+01 0.  1.
<mgrwt>
<rscale>  0 0.27785066E+03</rscale>
<asrwt>0</asrwt>
<pdfrwt beam="1">  1        2 0.56317958E-01 0.27785066E+03</pdfrwt>
<pdfrwt beam="2">  1       -2 0.81112772E-02 0.27785066E+03</pdfrwt>
<totfact> 0.80886553E+03</totfact>
</mgrwt>
</event>
<event>
 9    1  0.7984035E-001  0.2695497E+03  0.7818608E-02  0.1101538E+00
         -3   -1    0    0    0  501 -0.00000000000E+00  0.00000000000E+00  0.92883027128E+02  0.92883027128E+02  0.00000000000E+00 0.  1.
          3   -1    0    0  501    0  0.00000000000E+00 -0.00000000000E+00 -0.19556065123E+03  0.19556065123E+03  0.00000000000E+00 0.  1.
         35    2    1    2    0    0  0.35527136788E-14 -0.71054273576E-14 -0.10267762410E+03  0.28844367836E+03  0.26954973770E+03 0.  0.
         25    2    3    3    0    0  0.15336218811E+02  0.42041571822E+02 -0.23427406860E+02  0.13528515484E+03  0.12550114087E+03 0.  0.
         25    2    3    3    0    0 -0.15336218811E+02 -0.42041571822E+02 -0.79250217240E+02  0.15315852351E+03  0.12318377744E+03 0.  0.
          5    1    4    4  502    0  0.97663988992E+01 -0.37148941967E+02  0.21168550003E+02  0.44109227447E+02  0.47000000000E+01 0.  1.
         -5    1    4    4    0  502  0.55698199115E+01  0.79190513789E+02 -0.44595956863E+02  0.91175927396E+02  0.47000000000E+01 0.  1.
          5    1    5    5  503    0  0.11104883977E+02 -0.42511573869E+01 -0.10110097845E+03  0.10190627376E+03  0.47000000000E+01 0. -1.
         -5    1    5    5    0  503 -0.26441102788E+02 -0.37790414435E+02  0.21850761210E+02  0.51252249758E+02  0.47000000000E+01 0. -1.
<mgrwt>
<rscale>  0 0.26954974E+03</rscale>
<asrwt>0</asrwt>
<pdfrwt beam="1">  1        3 0.30086254E-01 0.26954974E+03</pdfrwt>
<pdfrwt beam="2">  1       -3 0.14289696E-01 0.26954974E+03</pdfrwt>
<totfact> 0.10937147E+03</totfact>
</mgrwt>
</event>
<event>
 9    1  0.7984035E-001  0.2763751E+03  0.7818608E-02  0.1097685E+00
         -1   -1    0    0    0  501 -0.00000000000E+00  0.00000000000E+00  0.52273378581E+01  0.52273378581E+01  0.00000000000E+00 0.  1.
          1   -1    0    0  501    0  0.00000000000E+00 -0.00000000000E+00 -0.36530632655E+04  0.36530632655E+04  0.00000000000E+00 0.  1.
         35    2    1    2    0    0  0.35527136788E-14  0.88817841970E-15 -0.36478359277E+04  0.36582906034E+04  0.27637507779E+03 0.  0.
         25    2    3    3    0    0  0.27506541180E+02 -0.78930670593E+01 -0.26095160602E+04  0.26126934424E+04  0.12559476617E+03 0.  0.
         25    2    3    3    0    0 -0.27506541180E+02  0.78930670593E+01 -0.10383198675E+04  0.10455971610E+04  0.11977631456E+03 0.  0.
          5    1    4    4  502    0  0.43385617817E+02 -0.15844670328E+02 -0.34578373556E+03  0.34888658213E+03  0.47000000000E+01 0.  1.
         -5    1    4    4    0  502 -0.15879076637E+02  0.79516032689E+01 -0.22637323246E+04  0.22638068603E+04  0.47000000000E+01 0.  1.
          5    1    5    5  503    0 -0.24616099648E+02 -0.37894193786E+02 -0.16734979715E+03  0.17340694015E+03  0.47000000000E+01 0.  1.
         -5    1    5    5    0  503 -0.28904415318E+01  0.45787260845E+02 -0.87097007037E+03  0.87219022087E+03  0.47000000000E+01 0.  1.
<mgrwt>
<rscale>  0 0.27637508E+03</rscale>
<asrwt>0</asrwt>
<pdfrwt beam="1">  1        1 0.56201223E+00 0.27637508E+03</pdfrwt>
<pdfrwt beam="2">  1       -1 0.80420225E-03 0.27637508E+03</pdfrwt>
<totfact> 0.61688324E+02</totfact>
</mgrwt>
</event>
<event>
 9    1  0.7984035E-001  0.2832167E+03  0.7818608E-02  0.1093945E+00
         -2   -1    0    0    0  501 -0.00000000000E+00  0.00000000000E+00  0.21340698419E+03  0.21340698419E+03  0.00000000000E+00 0.  1.
          2   -1    0    0  501    0  0.00000000000E+00 -0.00000000000E+00 -0.93965654428E+02  0.93965654428E+02  0.00000000000E+00 0.  1.
         35    2    1    2    0    0 -0.71054273576E-14  0.00000000000E+00  0.11944132976E+03  0.30737263862E+03  0.28321671511E+03 0.  0.
         25    2    3    3    0    0 -0.62102134049E+02 -0.12119176321E+02  0.95248712218E+02  0.17026338480E+03  0.12614972666E+03 0.  0.
         25    2    3    3    0    0  0.62102134049E+02  0.12119176321E+02  0.24192617545E+02  0.13710925382E+03  0.11920618797E+03 0.  0.
          5    1    4    4  502    0 -0.18953171805E+02 -0.44886807128E+02 -0.11657486204E+02  0.50319331874E+02  0.47000000000E+01 0.  1.
         -5    1    4    4    0  502 -0.43148962243E+02  0.32767630807E+02  0.10690619842E+03  0.11994405293E+03  0.47000000000E+01 0.  1.
          5    1    5    5  503    0  0.83161024084E+02  0.20820931274E+02 -0.19105141687E+02  0.87956600347E+02  0.47000000000E+01 0.  1.
         -5    1    5    5    0  503 -0.21058890035E+02 -0.87017549526E+01  0.43297759231E+02  0.49152653471E+02  0.47000000000E+01 0.  1.
<mgrwt>
<rscale>  0 0.28321672E+03</rscale>
<asrwt>0</asrwt>
<pdfrwt beam="1">  1        2 0.14456255E-01 0.28321672E+03</pdfrwt>
<pdfrwt beam="2">  1       -2 0.32831844E-01 0.28321672E+03</pdfrwt>
<totfact> 0.35141457E+03</totfact>
</mgrwt>
</event>
<event>
 9    1  0.7984035E-001  0.2745034E+03  0.7818608E-02  0.1098730E+00
          2   -1    0    0  501    0  0.00000000000E+00  0.00000000000E+00  0.20725723791E+04  0.20725723791E+04  0.00000000000E+00 0. -1.
         -2   -1    0    0    0  501 -0.00000000000E+00 -0.00000000000E+00 -0.90891995558E+01  0.90891995558E+01  0.00000000000E+00 0. -1.
         35    2    1    2    0    0  0.00000000000E+00 -0.35527136788E-14  0.20634831796E+04  0.20816615787E+04  0.27450336208E+03 0.  0.
         25    2    3    3    0    0 -0.48796922088E+02  0.25132362705E+02  0.91701125031E+03  0.92710449221E+03  0.12490128505E+03 0.  0.
         25    2    3    3    0    0  0.48796922088E+02 -0.25132362705E+02  0.11464719293E+04  0.11545570865E+04  0.12486555208E+03 0.  0.
          5    1    4    4  502    0  0.35206985832E+01 -0.40292236377E+02  0.50489168380E+03  0.50653090923E+03  0.47000000000E+01 0. -1.
         -5    1    4    4    0  502 -0.52317620672E+02  0.65424599082E+02  0.41211956651E+03  0.42057358298E+03  0.47000000000E+01 0. -1.
          5    1    5    5  503    0 -0.38687970029E+02 -0.88526913262E+00  0.52839005047E+03  0.52982608294E+03  0.47000000000E+01 0.  1.
         -5    1    5    5    0  503  0.87484892118E+02 -0.24247093573E+02  0.61808187879E+03  0.62473100354E+03  0.47000000000E+01 0.  1.
<mgrwt>
<rscale>  0 0.27450336E+03</rscale>
<asrwt>0</asrwt>
<pdfrwt beam="1">  1        2 0.31885691E+00 0.27450336E+03</pdfrwt>
<pdfrwt beam="2">  1       -2 0.13983400E-02 0.27450336E+03</pdfrwt>
<totfact> 0.88940656E+03</totfact>
</mgrwt>
</event>
<event>
 9    1  0.7984035E-001  0.2755959E+03  0.7818608E-02  0.1098119E+00
         -1   -1    0    0    0  501 -0.00000000000E+00  0.00000000000E+00  0.35064532163E+02  0.35064532163E+02  0.00000000000E+00 0. -1.
          1   -1    0    0  501    0  0.00000000000E+00 -0.00000000000E+00 -0.54152368686E+03  0.54152368686E+03  0.00000000000E+00 0. -1.
         35    2    1    2    0    0  0.00000000000E+00  0.71054273576E-14 -0.50645915470E+03  0.57658821902E+03  0.27559589790E+03 0.  0.
         25    2    3    3    0    0  0.32516211994E+02 -0.21153643825E+02 -0.15490562627E+03  0.20151277005E+03  0.12290997825E+03 0.  0.
         25    2    3    3    0    0 -0.32516211994E+02  0.21153643825E+02 -0.35155352842E+03  0.37507544897E+03  0.12484762066E+03 0.  0.
          5    1    4    4  502    0 -0.32008171004E+02 -0.29048110721E+02 -0.13040086315E+02  0.45392175521E+02  0.47000000000E+01 0. -1.
         -5    1    4    4    0  502  0.64524382997E+02  0.78944668961E+01 -0.14186553996E+03  0.15612059453E+03  0.47000000000E+01 0. -1.
          5    1    5    5  503    0  0.19268504900E+02 -0.43218047191E+02 -0.11390240944E+03  0.12342983335E+03  0.47000000000E+01 0. -1.
         -5    1    5    5    0  503 -0.51784716893E+02  0.64371691016E+02 -0.23765111898E+03  0.25164561562E+03  0.47000000000E+01 0. -1.
<mgrwt>
<rscale>  0 0.27559590E+03</rscale>
<asrwt>0</asrwt>
<pdfrwt beam="1">  1        1 0.83311331E-01 0.27559590E+03</pdfrwt>
<pdfrwt beam="2">  1       -1 0.53945437E-02 0.27559590E+03</pdfrwt>
<totfact> 0.63349908E+03</totfact>
</mgrwt>
</event>
<event>
 9    1  0.7984035E-001  0.2746816E+03  0.7818608E-02  0.1098630E+00
         -4   -1    0    0    0  501 -0.00000000000E+00  0.00000000000E+00  0.26239879459E+03  0.26239879459E+03  0.00000000000E+00 0.  1.
          4   -1    0    0  501    0  0.00000000000E+00 -0.00000000000E+00 -0.71884860572E+02  0.71884860572E+02  0.00000000000E+00 0.  1.
         35    2    1    2    0    0  0.00000000000E+00  0.13322676296E-14  0.19051393402E+03  0.33428365516E+03  0.27468163945E+03 0.  0.
         25    2    3    3    0    0  0.12686085632E+02  0.36206579640E+01  0.28138803378E+02  0.12908200956E+03  0.12528498315E+03 0.  0.
         25    2    3    3    0    0 -0.12686085632E+02 -0.36206579640E+01  0.16237513064E+03  0.20520164561E+03  0.12477173709E+03 0.  0.
          5    1    4    4  502    0 -0.55058904184E+02 -0.64829402113E+00 -0.48363701638E+00  0.55265062379E+02  0.47000000000E+01 0. -1.
         -5    1    4    4    0  502  0.67744989816E+02  0.42689519851E+01  0.28622440395E+02  0.73816947176E+02  0.47000000000E+01 0. -1.
          5    1    5    5  503    0  0.15956702267E+02  0.56153168772E+02  0.84803104865E+02  0.10306042550E+03  0.47000000000E+01 0. -1.
         -5    1    5    5    0  503 -0.28642787899E+02 -0.59773826736E+02  0.77572025776E+02  0.10214122010E+03  0.47000000000E+01 0. -1.
<mgrwt>
<rscale>  0 0.27468164E+03</rscale>
<asrwt>0</asrwt>
<pdfrwt beam="1">  1        4 0.11059209E-01 0.27468164E+03</pdfrwt>
<pdfrwt beam="2">  1       -4 0.40369045E-01 0.27468164E+03</pdfrwt>
<totfact> 0.71574159E+02</totfact>
</mgrwt>
</event>
<event>
 9    1  0.7984035E-001  0.2735138E+03  0.7818608E-02  0.1099285E+00
         -2   -1    0    0    0  501 -0.00000000000E+00  0.00000000000E+00  0.87319973737E+01  0.87319973737E+01  0.00000000000E+00 0. -1.
          2   -1    0    0  501    0  0.00000000000E+00 -0.00000000000E+00 -0.21418289560E+04  0.21418289560E+04  0.00000000000E+00 0. -1.
         35    2    1    2    0    0  0.71054273576E-14  0.00000000000E+00 -0.21330969586E+04  0.21505609534E+04  0.27351376432E+03 0.  0.
         25    2    3    3    0    0  0.20999082075E+02 -0.18888999288E+02 -0.69138785335E+03  0.70309987669E+03  0.12463754290E+03 0.  0.
         25    2    3    3    0    0 -0.20999082075E+02  0.18888999288E+02 -0.14417091053E+04  0.14474610767E+04  0.12578023905E+03 0.  0.
          5    1    4    4  502    0  0.71686417646E+02 -0.20959666191E+02 -0.47038612725E+03  0.47630184630E+03  0.47000000000E+01 0. -1.
         -5    1    4    4    0  502 -0.50687335570E+02  0.20706669028E+01 -0.22100172610E+03  0.22679803039E+03  0.47000000000E+01 0. -1.
          5    1    5    5  503    0 -0.62362131787E+02  0.43255236690E+02 -0.68292187600E+03  0.68714221941E+03  0.47000000000E+01 0.  1.
         -5    1    5    5    0  503  0.41363049711E+02 -0.24366237402E+02 -0.75878722928E+03  0.76031885727E+03  0.47000000000E+01 0.  1.
<mgrwt>
<rscale>  0 0.27351376E+03</rscale>
<asrwt>0</asrwt>
<pdfrwt beam="1">  1        2 0.32951260E+00 0.27351376E+03</pdfrwt>
<pdfrwt beam="2">  1       -2 0.13433824E-02 0.27351376E+03</pdfrwt>
<totfact> 0.86676314E+03</totfact>
</mgrwt>
</event>
<event>
 9    1  0.7984035E-001  0.2785612E+03  0.7818608E-02  0.1096477E+00
          2   -1    0    0  501    0  0.00000000000E+00  0.00000000000E+00  0.91878379835E+03  0.91878379835E+03  0.00000000000E+00 0.  1.
         -2   -1    0    0    0  501 -0.00000000000E+00 -0.00000000000E+00 -0.21113869902E+02  0.21113869902E+02  0.00000000000E+00 0.  1.
         35    2    1    2    0    0  0.35527136788E-14 -0.14210854715E-13  0.89766992845E+03  0.93989766825E+03  0.27856117164E+03 0.  0.
         25    2    3    3    0    0 -0.27294980781E+02  0.54833732003E+02  0.45519445281E+03  0.47597527064E+03  0.12489481276E+03 0.  0.
         25    2    3    3    0    0  0.27294980781E+02 -0.54833732003E+02  0.44247547564E+03  0.46392239761E+03  0.12525051026E+03 0.  0.
          5    1    4    4  502    0 -0.50517908545E+02 -0.86444635634E+01  0.82987104919E+02  0.97651090198E+02  0.47000000000E+01 0. -1.
         -5    1    4    4    0  502  0.23222927763E+02  0.63478195567E+02  0.37220734789E+03  0.37832418044E+03  0.47000000000E+01 0. -1.
          5    1    5    5  503    0 -0.13247328425E+02  0.34617140534E+02  0.17510565569E+03  0.17904725294E+03  0.47000000000E+01 0. -1.
         -5    1    5    5    0  503  0.40542309206E+02 -0.89450872538E+02  0.26736981995E+03  0.28487514468E+03  0.47000000000E+01 0. -1.
<mgrwt>
<rscale>  0 0.27856117E+03</rscale>
<asrwt>0</asrwt>
<pdfrwt beam="1">  1        2 0.14135132E+00 0.27856117E+03</pdfrwt>
<pdfrwt beam="2">  1       -2 0.32482884E-02 0.27856117E+03</pdfrwt>
<totfact> 0.11082736E+04</totfact>
</mgrwt>
</event>
<event>
 9    1  0.7984035E-001  0.2729881E+03  0.7818608E-02  0.1099582E+00
         -3   -1    0    0    0  501 -0.00000000000E+00  0.00000000000E+00  0.35008974689E+02  0.35008974689E+02  0.00000000000E+00 0. -1.
          3   -1    0    0  501    0  0.00000000000E+00 -0.00000000000E+00 -0.53216722075E+03  0.53216722075E+03  0.00000000000E+00 0. -1.
         35    2    1    2    0    0  0.00000000000E+00  0.00000000000E+00 -0.49715824606E+03  0.56717619544E+03  0.27298812254E+03 0.  0.
         25    2    3    3    0    0 -0.11555115827E+02  0.34516683336E+02 -0.17073238874E+03  0.21567846197E+03  0.12665989208E+03 0.  0.
         25    2    3    3    0    0  0.11555115827E+02 -0.34516683336E+02 -0.32642585732E+03  0.35149773347E+03  0.12518743617E+03 0.  0.
          5    1    4    4  502    0  0.41895229949E+02  0.59069224036E+02 -0.88104363105E+02  0.11414399817E+03  0.47000000000E+01 0. -1.
         -5    1    4    4    0  502 -0.53450345776E+02 -0.24552540699E+02 -0.82628025637E+02  0.10153446380E+03  0.47000000000E+01 0. -1.
          5    1    5    5  503    0 -0.30814630519E+02  0.30238374723E+02 -0.60310022459E+02  0.74318837242E+02  0.47000000000E+01 0. -1.
         -5    1    5    5    0  503  0.42369746346E+02 -0.64755058059E+02 -0.26611583486E+03  0.27717889623E+03  0.47000000000E+01 0. -1.
<mgrwt>
<rscale>  0 0.27298812E+03</rscale>
<asrwt>0</asrwt>
<pdfrwt beam="1">  1        3 0.81871881E-01 0.27298812E+03</pdfrwt>
<pdfrwt beam="2">  1       -3 0.53859960E-02 0.27298812E+03</pdfrwt>
<totfact> 0.72907737E+02</totfact>
</mgrwt>
</event>
<event>
 9    1  0.7984035E-001  0.2720579E+03  0.7818608E-02  0.1100108E+00
          1   -1    0    0  501    0  0.00000000000E+00  0.00000000000E+00  0.67472154891E+02  0.67472154891E+02  0.00000000000E+00 0. -1.
         -1   -1    0    0    0  501 -0.00000000000E+00 -0.00000000000E+00 -0.27424452723E+03  0.27424452723E+03  0.00000000000E+00 0. -1.
         35    2    1    2    0    0 -0.71054273576E-14  0.00000000000E+00 -0.20677237234E+03  0.34171668212E+03  0.27205785575E+03 0.  0.
         25    2    3    3    0    0 -0.19884474393E+02 -0.43987107550E+02 -0.75754148789E+02  0.15549336858E+03  0.12692217561E+03 0.  0.
         25    2    3    3    0    0  0.19884474393E+02  0.43987107550E+02 -0.13101822355E+03  0.18622331354E+03  0.12321968046E+03 0.  0.
          5    1    4    4  502    0 -0.64926831752E+02 -0.28451856723E+02 -0.65530804103E+01  0.71344477679E+02  0.47000000000E+01 0.  1.
         -5    1    4    4    0  502  0.45042357360E+02 -0.15535250827E+02 -0.69201068379E+02  0.84148890899E+02  0.47000000000E+01 0.  1.
          5    1    5    5  503    0 -0.25560569547E+02  0.33569949092E+02  0.46329442282E+01  0.42706420710E+02  0.47000000000E+01 0.  1.
         -5    1    5    5    0  503  0.45445043940E+02  0.10417158457E+02 -0.13565116778E+03  0.14351689283E+03  0.47000000000E+01 0.  1.
<mgrwt>
<rscale>  0 0.27205786E+03</rscale>
<asrwt>0</asrwt>
<pdfrwt beam="1">  1        1 0.10380331E-01 0.27205786E+03</pdfrwt>
<pdfrwt beam="2">  1       -1 0.42191466E-01 0.27205786E+03</pdfrwt>
<totfact> 0.34047641E+03</totfact>
</mgrwt>
</event>
<event>
 9    1  0.7984035E-001  0.2907180E+03  0.7818608E-02  0.1089975E+00
         -2   -1    0    0    0  501 -0.00000000000E+00  0.00000000000E+00  0.20059594455E+02  0.20059594455E+02  0.00000000000E+00 0.  1.
          2   -1    0    0  501    0  0.00000000000E+00 -0.00000000000E+00 -0.10533231189E+04  0.10533231189E+04  0.00000000000E+00 0.  1.
         35    2    1    2    0    0  0.00000000000E+00  0.35527136788E-14 -0.10332635244E+04  0.10733827133E+04  0.29071797051E+03 0.  0.
         25    2    3    3    0    0  0.68520682228E+02  0.18298889610E+02 -0.43646089928E+03  0.45955417857E+03  0.12514788526E+03 0.  0.
         25    2    3    3    0    0 -0.68520682228E+02 -0.18298889610E+02 -0.59680262512E+03  0.61382853475E+03  0.12482853624E+03 0.  0.
          5    1    4    4  502    0  0.98283940255E+02 -0.12666743065E+02 -0.33213522204E+03  0.34663536318E+03  0.47000000000E+01 0. -1.
         -5    1    4    4    0  502 -0.29763258027E+02  0.30965632675E+02 -0.10432567724E+03  0.11291881538E+03  0.47000000000E+01 0. -1.
          5    1    5    5  503    0 -0.61048969952E+02  0.46298734269E+02 -0.36782356346E+03  0.37574833781E+03  0.47000000000E+01 0. -1.
         -5    1    5    5    0  503 -0.74717122758E+01 -0.64597623879E+02 -0.22897906166E+03  0.23808019694E+03  0.47000000000E+01 0. -1.
<mgrwt>
<rscale>  0 0.29071797E+03</rscale>
<asrwt>0</asrwt>
<pdfrwt beam="1">  1        2 0.16204967E+00 0.29071797E+03</pdfrwt>
<pdfrwt beam="2">  1       -2 0.30860922E-02 0.29071797E+03</pdfrwt>
<totfact> 0.98900597E+03</totfact>
</mgrwt>
</event>
<event>
 9    1  0.7984035E-001  0.2716987E+03  0.7818608E-02  0.1100311E+00
         -2   -1    0    0    0  501 -0.00000000000E+00  0.00000000000E+00  0.76810915133E+01  0.76810915133E+01  0.00000000000E+00 0.  1.
          2   -1    0    0  501    0  0.00000000000E+00 -0.00000000000E+00 -0.24026587587E+04  0.24026587587E+04  0.00000000000E+00 0.  1.
         35    2    1    2    0    0 -0.14210854715E-13  0.00000000000E+00 -0.23949776672E+04  0.24103398503E+04  0.27169866986E+03 0.  0.
         25    2    3    3    0    0  0.40032957840E+02  0.37029553245E+02 -0.11623151426E+04  0.11702125599E+04  0.12428644027E+03 0.  0.
         25    2    3    3    0    0 -0.40032957840E+02 -0.37029553245E+02 -0.12326625247E+04  0.12401272903E+04  0.12443862339E+03 0.  0.
          5    1    4    4  502    0  0.12508640231E+02 -0.21378874608E+01 -0.10180426313E+04  0.10181325679E+04  0.47000000000E+01 0.  1.
         -5    1    4    4    0  502  0.27524317609E+02  0.39167440706E+02 -0.14427251126E+03  0.15207999203E+03  0.47000000000E+01 0.  1.
          5    1    5    5  503    0  0.44828123452E+02 -0.14026476541E+02 -0.48777607290E+03  0.49005498670E+03  0.47000000000E+01 0. -1.
         -5    1    5    5    0  503 -0.84861081292E+02 -0.23003076704E+02 -0.74488645177E+03  0.75007230363E+03  0.47000000000E+01 0. -1.
<mgrwt>
<rscale>  0 0.27169867E+03</rscale>
<asrwt>0</asrwt>
<pdfrwt beam="1">  1        2 0.36963970E+00 0.27169867E+03</pdfrwt>
<pdfrwt beam="2">  1       -2 0.11817067E-02 0.27169867E+03</pdfrwt>
<totfact> 0.75769956E+03</totfact>
</mgrwt>
</event>
<event>
 9    1  0.7984035E-001  0.2754249E+03  0.7818608E-02  0.1098214E+00
         -1   -1    0    0    0  501 -0.00000000000E+00  0.00000000000E+00  0.20738209481E+03  0.20738209481E+03  0.00000000000E+00 0. -1.
          1   -1    0    0  501    0  0.00000000000E+00 -0.00000000000E+00 -0.91448217960E+02  0.91448217960E+02  0.00000000000E+00 0. -1.
         35    2    1    2    0    0 -0.71054273576E-14 -0.71054273576E-14  0.11593387685E+03  0.29883031277E+03  0.27542492994E+03 0.  0.
         25    2    3    3    0    0 -0.57093697150E+01  0.47485535010E+02  0.92556177335E+02  0.16271564985E+03  0.12498905475E+03 0.  0.
         25    2    3    3    0    0  0.57093697150E+01 -0.47485535010E+02  0.23377699517E+02  0.13611466292E+03  0.12527254962E+03 0.  0.
          5    1    4    4  502    0 -0.62535065543E+02  0.34243495573E+02  0.69871160969E+02  0.99936582625E+02  0.47000000000E+01 0. -1.
         -5    1    4    4    0  502  0.56825695828E+02  0.13242039437E+02  0.22685016366E+02  0.62779067230E+02  0.47000000000E+01 0. -1.
          5    1    5    5  503    0  0.37947302790E+02 -0.76830363155E+02 -0.12434433641E+01  0.85828542123E+02  0.47000000000E+01 0.  1.
         -5    1    5    5    0  503 -0.32237933075E+02  0.29344828145E+02  0.24621142881E+02  0.50286120795E+02  0.47000000000E+01 0.  1.
<mgrwt>
<rscale>  0 0.27542493E+03</rscale>
<asrwt>0</asrwt>
<pdfrwt beam="1">  1        1 0.14068957E-01 0.27542493E+03</pdfrwt>
<pdfrwt beam="2">  1       -1 0.31904938E-01 0.27542493E+03</pdfrwt>
<totfact> 0.37087934E+03</totfact>
</mgrwt>
</event>
<event>
 9    1  0.7984035E-001  0.2747033E+03  0.7818608E-02  0.1098618E+00
          1   -1    0    0  501    0  0.00000000000E+00  0.00000000000E+00  0.19380760989E+03  0.19380760989E+03  0.00000000000E+00 0. -1.
         -1   -1    0    0    0  501 -0.00000000000E+00 -0.00000000000E+00 -0.97341256275E+02  0.97341256275E+02  0.00000000000E+00 0. -1.
         35    2    1    2    0    0  0.00000000000E+00  0.71054273576E-14  0.96466353615E+02  0.29114886617E+03  0.27470330338E+03 0.  0.
         25    2    3    3    0    0  0.89769202476E+01 -0.38054106433E+02  0.91395584117E+02  0.15988876018E+03  0.12523003921E+03 0.  0.
         25    2    3    3    0    0 -0.89769202476E+01  0.38054106433E+02  0.50707694979E+01  0.13126010599E+03  0.12519905194E+03 0.  0.
          5    1    4    4  502    0 -0.58075995061E+02 -0.16577686096E+02  0.44385325835E+02  0.75098522144E+02  0.47000000000E+01 0.  1.
         -5    1    4    4    0  502  0.67052915309E+02 -0.21476420337E+02  0.47010258282E+02  0.84790238033E+02  0.47000000000E+01 0.  1.
          5    1    5    5  503    0 -0.29910214861E+02  0.71348991900E+02 -0.25099049110E+02  0.81469944546E+02  0.47000000000E+01 0. -1.
         -5    1    5    5    0  503  0.20933294614E+02 -0.33294885467E+02  0.30169818608E+02  0.49790161443E+02  0.47000000000E+01 0. -1.
<mgrwt>
<rscale>  0 0.27470330E+03</rscale>
<asrwt>0</asrwt>
<pdfrwt beam="1">  1        1 0.29816555E-01 0.27470330E+03</pdfrwt>
<pdfrwt beam="2">  1       -1 0.14975578E-01 0.27470330E+03</pdfrwt>
<totfact> 0.48856607E+03</totfact>
</mgrwt>
</event>
<event>
 9    1  0.7984035E-001  0.2753008E+03  0.7818608E-02  0.1098284E+00
         -2   -1    0    0    0  501 -0.00000000000E+00  0.00000000000E+00  0.14854275239E+02  0.14854275239E+02  0.00000000000E+00 0. -1.
          2   -1    0    0  501    0  0.00000000000E+00 -0.00000000000E+00 -0.12755677169E+04  0.12755677169E+04  0.00000000000E+00 0. -1.
         35    2    1    2    0    0 -0.71054273576E-14  0.00000000000E+00 -0.12607134417E+04  0.12904219922E+04  0.27530080968E+03 0.  0.
         25    2    3    3    0    0  0.25920208899E+02 -0.79529553432E+01 -0.41220870100E+03  0.43152108211E+03  0.12473702096E+03 0.  0.
         25    2    3    3    0    0 -0.25920208899E+02  0.79529553432E+01 -0.84850474069E+03  0.85890091006E+03  0.13044298215E+03 0.  0.
          5    1    4    4  502    0 -0.28615666229E+02  0.28951659684E+02 -0.28760420568E+03  0.29050873322E+03  0.47000000000E+01 0.  1.
         -5    1    4    4    0  502  0.54535875128E+02 -0.36904615028E+02 -0.12460449532E+03  0.14101234890E+03  0.47000000000E+01 0.  1.
          5    1    5    5  503    0 -0.66274097553E+02 -0.17671648993E+02 -0.27789387531E+03  0.28627196706E+03  0.47000000000E+01 0.  1.
         -5    1    5    5    0  503  0.40353888653E+02  0.25624604337E+02 -0.57061086538E+03  0.57262894300E+03  0.47000000000E+01 0.  1.
<mgrwt>
<rscale>  0 0.27530081E+03</rscale>
<asrwt>0</asrwt>
<pdfrwt beam="1">  1        2 0.19624125E+00 0.27530081E+03</pdfrwt>
<pdfrwt beam="2">  1       -2 0.22852724E-02 0.27530081E+03</pdfrwt>
<totfact> 0.11485102E+04</totfact>
</mgrwt>
</event>
<event>
 9    1  0.7984035E-001  0.2672533E+03  0.7818608E-02  0.1102862E+00
          2   -1    0    0  501    0  0.00000000000E+00  0.00000000000E+00  0.83857626953E+03  0.83857626953E+03  0.00000000000E+00 0.  1.
         -2   -1    0    0    0  501 -0.00000000000E+00 -0.00000000000E+00 -0.21293322735E+02  0.21293322735E+02  0.00000000000E+00 0.  1.
         35    2    1    2    0    0  0.00000000000E+00  0.71054273576E-14  0.81728294679E+03  0.85986959226E+03  0.26725325177E+03 0.  0.
         25    2    3    3    0    0  0.22901121184E+02 -0.16708045019E+02  0.52549286768E+03  0.54064495908E+03  0.12389752893E+03 0.  0.
         25    2    3    3    0    0 -0.22901121184E+02  0.16708045019E+02  0.29179007911E+03  0.31922463319E+03  0.12633010743E+03 0.  0.
          5    1    4    4  502    0  0.44161325891E+01 -0.64287226184E+02  0.17742529677E+03  0.18882313315E+03  0.47000000000E+01 0. -1.
         -5    1    4    4    0  502  0.18484988595E+02  0.47579181165E+02  0.34806757090E+03  0.35182182593E+03  0.47000000000E+01 0. -1.
          5    1    5    5  503    0 -0.50818036930E+02  0.33511595436E+02  0.27607406610E+03  0.28274454880E+03  0.47000000000E+01 0.  1.
         -5    1    5    5    0  503  0.27916915746E+02 -0.16803550417E+02  0.15716013017E+02  0.36480084382E+02  0.47000000000E+01 0.  1.
<mgrwt>
<rscale>  0 0.26725325E+03</rscale>
<asrwt>0</asrwt>
<pdfrwt beam="1">  1        2 0.12901171E+00 0.26725325E+03</pdfrwt>
<pdfrwt beam="2">  1       -2 0.32758964E-02 0.26725325E+03</pdfrwt>
<totfact> 0.12332463E+04</totfact>
</mgrwt>
</event>
<event>
 9    1  0.7984035E-001  0.2746121E+03  0.7818608E-02  0.1098669E+00
          1   -1    0    0  501    0  0.00000000000E+00  0.00000000000E+00  0.26188417237E+03  0.26188417237E+03  0.00000000000E+00 0.  1.
         -1   -1    0    0    0  501 -0.00000000000E+00 -0.00000000000E+00 -0.71989636503E+02  0.71989636503E+02  0.00000000000E+00 0.  1.
         35    2    1    2    0    0  0.00000000000E+00 -0.14210854715E-13  0.18989453587E+03  0.33387380887E+03  0.27461206364E+03 0.  0.
         25    2    3    3    0    0  0.11228981084E+02 -0.50628748945E+02  0.12554728496E+03  0.18512319256E+03  0.12577406501E+03 0.  0.
         25    2    3    3    0    0 -0.11228981084E+02  0.50628748945E+02  0.64347250910E+02  0.14875061631E+03  0.12368030125E+03 0.  0.
          5    1    4    4  502    0 -0.37787914643E+01  0.15423867213E+02 -0.19131566654E+02  0.25303789981E+02  0.47000000000E+01 0.  1.
         -5    1    4    4    0  502  0.15007772548E+02 -0.66052616158E+02  0.14467885161E+03  0.15981940258E+03  0.47000000000E+01 0.  1.
          5    1    5    5  503    0  0.38621929734E+02  0.68048029621E+02  0.52748835670E+02  0.94481307444E+02  0.47000000000E+01 0.  1.
         -5    1    5    5    0  503 -0.49850910819E+02 -0.17419280676E+02  0.11598415240E+02  0.54269308866E+02  0.47000000000E+01 0.  1.
<mgrwt>
<rscale>  0 0.27461206E+03</rscale>
<asrwt>0</asrwt>
<pdfrwt beam="1">  1        1 0.40289872E-01 0.27461206E+03</pdfrwt>
<pdfrwt beam="2">  1       -1 0.11075329E-01 0.27461206E+03</pdfrwt>
<totfact> 0.53729109E+03</totfact>
</mgrwt>
</event>
<event>
 9    1  0.7984035E-001  0.2753105E+03  0.7818608E-02  0.1098278E+00
         -1   -1    0    0    0  501 -0.00000000000E+00  0.00000000000E+00  0.26129481186E+02  0.26129481186E+02  0.00000000000E+00 0. -1.
          1   -1    0    0  501    0  0.00000000000E+00 -0.00000000000E+00 -0.72519481263E+03  0.72519481263E+03  0.00000000000E+00 0. -1.
         35    2    1    2    0    0  0.14210854715E-13  0.35527136788E-14 -0.69906533145E+03  0.75132429382E+03  0.27531047356E+03 0.  0.
         25    2    3    3    0    0  0.40594683541E+02  0.23675883598E+02 -0.25984464944E+03  0.29224565981E+03  0.12521904026E+03 0.  0.
         25    2    3    3    0    0 -0.40594683541E+02 -0.23675883598E+02 -0.43922068201E+03  0.45907863401E+03  0.12501963405E+03 0.  0.
          5    1    4    4  502    0 -0.18377981703E+02  0.60726415421E+02 -0.13406446513E+03  0.14839413247E+03  0.47000000000E+01 0. -1.
         -5    1    4    4    0  502  0.58972665245E+02 -0.37050531823E+02 -0.12578018430E+03  0.14385152734E+03  0.47000000000E+01 0. -1.
          5    1    5    5  503    0  0.31543607533E+02  0.41554407859E+01 -0.35123391539E+02  0.47623623314E+02  0.47000000000E+01 0. -1.
         -5    1    5    5    0  503 -0.72138291075E+02 -0.27831324384E+02 -0.40409729048E+03  0.41145501069E+03  0.47000000000E+01 0. -1.
<mgrwt>
<rscale>  0 0.27531047E+03</rscale>
<asrwt>0</asrwt>
<pdfrwt beam="1">  1        1 0.11156844E+00 0.27531047E+03</pdfrwt>
<pdfrwt beam="2">  1       -1 0.40199201E-02 0.27531047E+03</pdfrwt>
<totfact> 0.65139339E+03</totfact>
</mgrwt>
</event>
<event>
 9    1  0.7984035E-001  0.2715371E+03  0.7818608E-02  0.1100403E+00
         -2   -1    0    0    0  501 -0.00000000000E+00  0.00000000000E+00  0.13015049602E+02  0.13015049602E+02  0.00000000000E+00 0. -1.
          2   -1    0    0  501    0  0.00000000000E+00 -0.00000000000E+00 -0.14162912502E+04  0.14162912502E+04  0.00000000000E+00 0. -1.
         35    2    1    2    0    0  0.00000000000E+00  0.00000000000E+00 -0.14032762006E+04  0.14293062998E+04  0.27153711254E+03 0.  0.
         25    2    3    3    0    0 -0.79350074138E+01  0.40951915567E+02 -0.53382039284E+03  0.54996375215E+03  0.12552248060E+03 0.  0.
         25    2    3    3    0    0  0.79350074138E+01 -0.40951915567E+02 -0.86945580771E+03  0.87934254760E+03  0.12469920102E+03 0.  0.
          5    1    4    4  502    0 -0.37074785159E+01 -0.26248062318E+02 -0.25172855715E+02  0.36857412243E+02  0.47000000000E+01 0.  1.
         -5    1    4    4    0  502 -0.42275288979E+01  0.67199977886E+02 -0.50864753713E+03  0.51310633991E+03  0.47000000000E+01 0.  1.
          5    1    5    5  503    0 -0.46158756473E+02 -0.27182750803E+02 -0.67045740556E+03  0.67261040388E+03  0.47000000000E+01 0.  1.
         -5    1    5    5    0  503  0.54093763887E+02 -0.13769164764E+02 -0.19899840215E+03  0.20673214372E+03  0.47000000000E+01 0.  1.
<mgrwt>
<rscale>  0 0.27153711E+03</rscale>
<asrwt>0</asrwt>
<pdfrwt beam="1">  1        2 0.21789075E+00 0.27153711E+03</pdfrwt>
<pdfrwt beam="2">  1       -2 0.20023173E-02 0.27153711E+03</pdfrwt>
<totfact> 0.11678201E+04</totfact>
</mgrwt>
</event>
<event>
 9    1  0.7984035E-001  0.2746594E+03  0.7818608E-02  0.1098642E+00
         -1   -1    0    0    0  501 -0.00000000000E+00  0.00000000000E+00  0.15200127274E+02  0.15200127274E+02  0.00000000000E+00 0.  1.
          1   -1    0    0  501    0  0.00000000000E+00 -0.00000000000E+00 -0.12407424341E+04  0.12407424341E+04  0.00000000000E+00 0.  1.
         35    2    1    2    0    0 -0.14210854715E-13 -0.17763568394E-14 -0.12255423068E+04  0.12559425613E+04  0.27465937386E+03 0.  0.
         25    2    3    3    0    0 -0.53024853223E+02 -0.15854971396E+02 -0.67974612390E+03  0.69335102522E+03  0.12497134087E+03 0.  0.
         25    2    3    3    0    0  0.53024853223E+02  0.15854971396E+02 -0.54579618290E+03  0.56259153613E+03  0.12471065743E+03 0.  0.
          5    1    4    4  502    0  0.14933005725E+02 -0.44766718739E+02 -0.12505989542E+03  0.13375021947E+03  0.47000000000E+01 0.  1.
         -5    1    4    4    0  502 -0.67957858947E+02  0.28911747343E+02 -0.55468622848E+03  0.55960080575E+03  0.47000000000E+01 0.  1.
          5    1    5    5  503    0  0.63486149476E+02  0.50822593499E+01 -0.54283743699E+03  0.54658109511E+03  0.47000000000E+01 0. -1.
         -5    1    5    5    0  503 -0.10461296253E+02  0.10772712046E+02 -0.29587459083E+01  0.16010441014E+02  0.47000000000E+01 0. -1.
<mgrwt>
<rscale>  0 0.27465937E+03</rscale>
<asrwt>0</asrwt>
<pdfrwt beam="1">  1        1 0.19088349E+00 0.27465937E+03</pdfrwt>
<pdfrwt beam="2">  1       -1 0.23384807E-02 0.27465937E+03</pdfrwt>
<totfact> 0.58427889E+03</totfact>
</mgrwt>
</event>
<event>
 9    1  0.7984035E-001  0.2744328E+03  0.7818608E-02  0.1098769E+00
          2   -1    0    0  501    0  0.00000000000E+00  0.00000000000E+00  0.10845456573E+04  0.10845456573E+04  0.00000000000E+00 0.  1.
         -2   -1    0    0    0  501 -0.00000000000E+00 -0.00000000000E+00 -0.17360572923E+02  0.17360572923E+02  0.00000000000E+00 0.  1.
         35    2    1    2    0    0  0.35527136788E-14  0.00000000000E+00  0.10671850844E+04  0.11019062302E+04  0.27443275294E+03 0.  0.
         25    2    3    3    0    0 -0.19215034550E+02 -0.52316004608E+02  0.48779458105E+03  0.50660845149E+03  0.12490951895E+03 0.  0.
         25    2    3    3    0    0  0.19215034550E+02  0.52316004608E+02  0.57939050335E+03  0.59529777876E+03  0.12481950221E+03 0.  0.
          5    1    4    4  502    0  0.23663072702E+02 -0.53570823074E+02  0.43247835318E+03  0.43645090224E+03  0.47000000000E+01 0.  1.
         -5    1    4    4    0  502 -0.42878107252E+02  0.12548184659E+01  0.55316227871E+02  0.70157549250E+02  0.47000000000E+01 0.  1.
          5    1    5    5  503    0 -0.16675814424E+02  0.35832384725E+02  0.53174691519E+03  0.53323438973E+03  0.47000000000E+01 0. -1.
         -5    1    5    5    0  503  0.35890848974E+02  0.16483619882E+02  0.47643588160E+02  0.62063389025E+02  0.47000000000E+01 0. -1.
<mgrwt>
<rscale>  0 0.27443275E+03</rscale>
<asrwt>0</asrwt>
<pdfrwt beam="1">  1        2 0.16685312E+00 0.27443275E+03</pdfrwt>
<pdfrwt beam="2">  1       -2 0.26708582E-02 0.27443275E+03</pdfrwt>
<totfact> 0.11729015E+04</totfact>
</mgrwt>
</event>
<event>
 9    1  0.7984035E-001  0.2769887E+03  0.7818608E-02  0.1097345E+00
         -2   -1    0    0    0  501 -0.00000000000E+00  0.00000000000E+00  0.16275970667E+03  0.16275970667E+03  0.00000000000E+00 0.  1.
          2   -1    0    0  501    0  0.00000000000E+00 -0.00000000000E+00 -0.11784666100E+03  0.11784666100E+03  0.00000000000E+00 0.  1.
         35    2    1    2    0    0 -0.14210854715E-13 -0.35527136788E-14  0.44913045662E+02  0.28060636767E+03  0.27698872162E+03 0.  0.
         25    2    3    3    0    0 -0.59001494429E+02 -0.15920570582E+02  0.98843413982E+01  0.13958206682E+03  0.12510320644E+03 0.  0.
         25    2    3    3    0    0  0.59001494429E+02  0.15920570582E+02  0.35028704264E+02  0.14102430085E+03  0.12217283820E+03 0.  0.
          5    1    4    4  502    0  0.27778691108E+02 -0.31500938604E+02  0.26298798844E+02  0.49776315987E+02  0.47000000000E+01 0. -1.
         -5    1    4    4    0  502 -0.86780185537E+02  0.15580368022E+02 -0.16414457445E+02  0.89805750833E+02  0.47000000000E+01 0. -1.
          5    1    5    5  503    0  0.23511767445E+02  0.63253624508E+02  0.44438353364E+02  0.80936280317E+02  0.47000000000E+01 0.  1.
         -5    1    5    5    0  503  0.35489726984E+02 -0.47333053926E+02 -0.94096490992E+01  0.60088020532E+02  0.47000000000E+01 0.  1.
<mgrwt>
<rscale>  0 0.27698872E+03</rscale>
<asrwt>0</asrwt>
<pdfrwt beam="1">  1        2 0.18130255E-01 0.27698872E+03</pdfrwt>
<pdfrwt beam="2">  1       -2 0.25039955E-01 0.27698872E+03</pdfrwt>
<totfact> 0.43871909E+03</totfact>
</mgrwt>
</event>
<event>
 9    1  0.7984035E-001  0.2748798E+03  0.7818608E-02  0.1098519E+00
         -1   -1    0    0    0  501 -0.00000000000E+00  0.00000000000E+00  0.28351678532E+03  0.28351678532E+03  0.00000000000E+00 0. -1.
          1   -1    0    0  501    0  0.00000000000E+00 -0.00000000000E+00 -0.66626503984E+02  0.66626503984E+02  0.00000000000E+00 0. -1.
         35    2    1    2    0    0  0.00000000000E+00  0.00000000000E+00  0.21689028133E+03  0.35014328930E+03  0.27487984449E+03 0.  0.
         25    2    3    3    0    0 -0.23075842726E+02 -0.12225702261E+02  0.17334410460E+03  0.21535003785E+03  0.12508196468E+03 0.  0.
         25    2    3    3    0    0  0.23075842726E+02  0.12225702261E+02  0.43546176734E+02  0.13479325145E+03  0.12486388115E+03 0.  0.
          5    1    4    4  502    0 -0.51024488764E+01 -0.55672141288E+02  0.28366099100E+02  0.62866110730E+02  0.47000000000E+01 0.  1.
         -5    1    4    4    0  502 -0.17973393850E+02  0.43446439027E+02  0.14497800550E+03  0.15248392712E+03  0.47000000000E+01 0.  1.
          5    1    5    5  503    0  0.59434680119E+02  0.45318922462E+02  0.40909683403E+02  0.85334507265E+02  0.47000000000E+01 0. -1.
         -5    1    5    5    0  503 -0.36358837393E+02 -0.33093220200E+02  0.26364933312E+01  0.49458744190E+02  0.47000000000E+01 0. -1.
<mgrwt>
<rscale>  0 0.27487984E+03</rscale>
<asrwt>0</asrwt>
<pdfrwt beam="1">  1        1 0.10250232E-01 0.27487984E+03</pdfrwt>
<pdfrwt beam="2">  1       -1 0.43617966E-01 0.27487984E+03</pdfrwt>
<totfact> 0.32629713E+03</totfact>
</mgrwt>
</event>
<event>
 9    1  0.7984035E-001  0.2792267E+03  0.7818608E-02  0.1096112E+00
          2   -1    0    0  501    0  0.00000000000E+00  0.00000000000E+00  0.20783364841E+04  0.20783364841E+04  0.00000000000E+00 0. -1.
         -2   -1    0    0    0  501 -0.00000000000E+00 -0.00000000000E+00 -0.93785993233E+01  0.93785993233E+01  0.00000000000E+00 0. -1.
         35    2    1    2    0    0  0.00000000000E+00  0.00000000000E+00  0.20689578847E+04  0.20877150834E+04  0.27922668313E+03 0.  0.
         25    2    3    3    0    0 -0.43520647769E+02 -0.59647932988E+01  0.76636135840E+03  0.77833618855E+03  0.12871621966E+03 0.  0.
         25    2    3    3    0    0  0.43520647769E+02  0.59647932988E+01  0.13025965263E+04  0.13093788948E+04  0.12564137173E+03 0.  0.
          5    1    4    4  502    0  0.71738800967E+01 -0.60593466686E+02  0.32810388470E+03  0.33376231351E+03  0.47000000000E+01 0.  1.
         -5    1    4    4    0  502 -0.50694527865E+02  0.54628673387E+02  0.43825747370E+03  0.44457387504E+03  0.47000000000E+01 0.  1.
          5    1    5    5  503    0  0.76742819665E+02  0.19167615941E+02  0.11437406341E+04  0.11464822658E+04  0.47000000000E+01 0.  1.
         -5    1    5    5    0  503 -0.33222171896E+02 -0.13202822643E+02  0.15885589228E+03  0.16289662901E+03  0.47000000000E+01 0.  1.
<mgrwt>
<rscale>  0 0.27922668E+03</rscale>
<asrwt>0</asrwt>
<pdfrwt beam="1">  1        2 0.31974371E+00 0.27922668E+03</pdfrwt>
<pdfrwt beam="2">  1       -2 0.14428631E-02 0.27922668E+03</pdfrwt>
<totfact> 0.84374061E+03</totfact>
</mgrwt>
</event>
<event>
 9    1  0.7984035E-001  0.2798483E+03  0.7818608E-02  0.1095772E+00
         -2   -1    0    0    0  501 -0.00000000000E+00  0.00000000000E+00  0.32628882892E+02  0.32628882892E+02  0.00000000000E+00 0.  1.
          2   -1    0    0  501    0  0.00000000000E+00 -0.00000000000E+00 -0.60004410533E+03  0.60004410533E+03  0.00000000000E+00 0.  1.
         35    2    1    2    0    0  0.35527136788E-14  0.00000000000E+00 -0.56741522244E+03  0.63267298823E+03  0.27984830779E+03 0.  0.
         25    2    3    3    0    0  0.22258164457E+02 -0.32937088153E+02 -0.39328934464E+03  0.41452728309E+03  0.12480417523E+03 0.  0.
         25    2    3    3    0    0 -0.22258164457E+02  0.32937088153E+02 -0.17412587781E+03  0.21814570514E+03  0.12524954966E+03 0.  0.
          5    1    4    4  502    0  0.36697074248E+02  0.28472310597E+02 -0.28751116679E+03  0.29127668764E+03  0.47000000000E+01 0.  1.
         -5    1    4    4    0  502 -0.14438909791E+02 -0.61409398749E+02 -0.10577817784E+03  0.12325059545E+03  0.47000000000E+01 0.  1.
          5    1    5    5  503    0 -0.71881682962E+00 -0.36929604445E+02 -0.10220031986E+02  0.38611545370E+02  0.47000000000E+01 0.  1.
         -5    1    5    5    0  503 -0.21539347627E+02  0.69866692597E+02 -0.16390584582E+03  0.17953415977E+03  0.47000000000E+01 0.  1.
<mgrwt>
<rscale>  0 0.27984831E+03</rscale>
<asrwt>0</asrwt>
<pdfrwt beam="1">  1        2 0.92314478E-01 0.27984831E+03</pdfrwt>
<pdfrwt beam="2">  1       -2 0.50198281E-02 0.27984831E+03</pdfrwt>
<totfact> 0.97813126E+03</totfact>
</mgrwt>
</event>
<event>
 9    1  0.7984035E-001  0.2678769E+03  0.7818608E-02  0.1102501E+00
          2   -1    0    0  501    0  0.00000000000E+00  0.00000000000E+00  0.21573877435E+04  0.21573877435E+04  0.00000000000E+00 0. -1.
         -2   -1    0    0    0  501 -0.00000000000E+00 -0.00000000000E+00 -0.83153819491E+01  0.83153819491E+01  0.00000000000E+00 0. -1.
         35    2    1    2    0    0  0.00000000000E+00  0.71054273576E-14  0.21490723616E+04  0.21657031255E+04  0.26787686052E+03 0.  0.
         25    2    3    3    0    0  0.26217326226E+02  0.36073960705E+02  0.12396394823E+04  0.12465650933E+04  0.12340910428E+03 0.  0.
         25    2    3    3    0    0 -0.26217326226E+02 -0.36073960705E+02  0.90943287932E+03  0.91913803218E+03  0.12553040020E+03 0.  0.
          5    1    4    4  502    0  0.49830203767E+02  0.57791396423E+02  0.46465193500E+03  0.47089957040E+03  0.47000000000E+01 0. -1.
         -5    1    4    4    0  502 -0.23612877541E+02 -0.21717435718E+02  0.77498754727E+03  0.77566552291E+03  0.47000000000E+01 0. -1.
          5    1    5    5  503    0 -0.57359337596E+02 -0.11465010223E+01  0.76667312916E+03  0.76883105104E+03  0.47000000000E+01 0. -1.
         -5    1    5    5    0  503  0.31142011369E+02 -0.34927459683E+02  0.14275975017E+03  0.15030698114E+03  0.47000000000E+01 0. -1.
<mgrwt>
<rscale>  0 0.26787686E+03</rscale>
<asrwt>0</asrwt>
<pdfrwt beam="1">  1        2 0.33190536E+00 0.26787686E+03</pdfrwt>
<pdfrwt beam="2">  1       -2 0.12792913E-02 0.26787686E+03</pdfrwt>
<totfact> 0.91319991E+03</totfact>
</mgrwt>
</event>
<event>
 9    1  0.7984035E-001  0.2787757E+03  0.7818608E-02  0.1096359E+00
          1   -1    0    0  501    0  0.00000000000E+00  0.00000000000E+00  0.11277176089E+03  0.11277176089E+03  0.00000000000E+00 0. -1.
         -1   -1    0    0    0  501 -0.00000000000E+00 -0.00000000000E+00 -0.17228583851E+03  0.17228583851E+03  0.00000000000E+00 0. -1.
         35    2    1    2    0    0 -0.71054273576E-14  0.17763568394E-14 -0.59514077621E+02  0.28505759941E+03  0.27877573342E+03 0.  0.
         25    2    3    3    0    0  0.60208591324E+02  0.14291263634E+02 -0.38867895023E+02  0.14415297984E+03  0.12425801241E+03 0.  0.
         25    2    3    3    0    0 -0.60208591324E+02 -0.14291263634E+02 -0.20646182598E+02  0.14090461956E+03  0.12489408422E+03 0.  0.
          5    1    4    4  502    0  0.37759616190E+02  0.62652417822E+02 -0.50965348343E+02  0.89278613371E+02  0.47000000000E+01 0. -1.
         -5    1    4    4    0  502  0.22448975134E+02 -0.48361154188E+02  0.12097453319E+02  0.54874366473E+02  0.47000000000E+01 0. -1.
          5    1    5    5  503    0 -0.96530557772E+02  0.52735524543E+01 -0.63779777668E+01  0.96998595555E+02  0.47000000000E+01 0.  1.
         -5    1    5    5    0  503  0.36321966448E+02 -0.19564816089E+02 -0.14268204831E+02  0.43906024010E+02  0.47000000000E+01 0.  1.
<mgrwt>
<rscale>  0 0.27877573E+03</rscale>
<asrwt>0</asrwt>
<pdfrwt beam="1">  1        1 0.17349502E-01 0.27877573E+03</pdfrwt>
<pdfrwt beam="2">  1       -1 0.26505514E-01 0.27877573E+03</pdfrwt>
<totfact> 0.38609645E+03</totfact>
</mgrwt>
</event>
<event>
 9    1  0.7984035E-001  0.2742359E+03  0.7818608E-02  0.1098879E+00
         -2   -1    0    0    0  501 -0.00000000000E+00  0.00000000000E+00  0.58418238829E+02  0.58418238829E+02  0.00000000000E+00 0.  1.
          2   -1    0    0  501    0  0.00000000000E+00 -0.00000000000E+00 -0.32184004825E+03  0.32184004825E+03  0.00000000000E+00 0.  1.
         35    2    1    2    0    0  0.00000000000E+00 -0.71054273576E-14 -0.26342180942E+03  0.38025828708E+03  0.27423587514E+03 0.  0.
         25    2    3    3    0    0 -0.46389915315E+02 -0.11629009947E+01 -0.90450564805E+02  0.16108975856E+03  0.12496091012E+03 0.  0.
         25    2    3    3    0    0  0.46389915315E+02  0.11629009947E+01 -0.17297124462E+03  0.21916852852E+03  0.12634245466E+03 0.  0.
          5    1    4    4  502    0 -0.50282433649E+02 -0.57551675228E+02 -0.50837216463E+02  0.91907731084E+02  0.47000000000E+01 0.  1.
         -5    1    4    4    0  502  0.38925183334E+01  0.56388774234E+02 -0.39613348342E+02  0.69182027474E+02  0.47000000000E+01 0.  1.
          5    1    5    5  503    0  0.44524496672E+02  0.58695450815E+02 -0.11949190221E+03  0.14045636847E+03  0.47000000000E+01 0.  1.
         -5    1    5    5    0  503  0.18654186435E+01 -0.57532549820E+02 -0.53479342401E+02  0.78712160046E+02  0.47000000000E+01 0.  1.
<mgrwt>
<rscale>  0 0.27423588E+03</rscale>
<asrwt>0</asrwt>
<pdfrwt beam="1">  1        2 0.49513854E-01 0.27423588E+03</pdfrwt>
<pdfrwt beam="2">  1       -2 0.89874213E-02 0.27423588E+03</pdfrwt>
<totfact> 0.79079125E+03</totfact>
</mgrwt>
</event>
<event>
 9    1  0.7984035E-001  0.2733839E+03  0.7818608E-02  0.1099358E+00
          1   -1    0    0  501    0  0.00000000000E+00  0.00000000000E+00  0.19264743518E+04  0.19264743518E+04  0.00000000000E+00 0. -1.
         -1   -1    0    0    0  501 -0.00000000000E+00 -0.00000000000E+00 -0.96989017844E+01  0.96989017844E+01  0.00000000000E+00 0. -1.
         35    2    1    2    0    0  0.00000000000E+00  0.00000000000E+00  0.19167754500E+04  0.19361732536E+04  0.27338387317E+03 0.  0.
         25    2    3    3    0    0 -0.13520771720E+02  0.53883031527E+02  0.81302135355E+03  0.82371048270E+03  0.12003768417E+03 0.  0.
         25    2    3    3    0    0  0.13520771720E+02 -0.53883031527E+02  0.11037540964E+04  0.11124627709E+04  0.12733467239E+03 0.  0.
          5    1    4    4  502    0 -0.50838237920E+01 -0.38344557710E+02  0.20699049809E+03  0.21062598764E+03  0.47000000000E+01 0. -1.
         -5    1    4    4    0  502 -0.84369479284E+01  0.92227589238E+02  0.60603085546E+03  0.61308449505E+03  0.47000000000E+01 0. -1.
          5    1    5    5  503    0  0.68881537297E+02 -0.33451513462E+02  0.73419759037E+03  0.73819500245E+03  0.47000000000E+01 0.  1.
         -5    1    5    5    0  503 -0.55360765577E+02 -0.20431518066E+02  0.36955650606E+03  0.37426776841E+03  0.47000000000E+01 0.  1.
<mgrwt>
<rscale>  0 0.27338387E+03</rscale>
<asrwt>0</asrwt>
<pdfrwt beam="1">  1        1 0.29638037E+00 0.27338387E+03</pdfrwt>
<pdfrwt beam="2">  1       -1 0.14921403E-02 0.27338387E+03</pdfrwt>
<totfact> 0.39607168E+03</totfact>
</mgrwt>
</event>
<event>
 9    1  0.7984035E-001  0.2762639E+03  0.7818608E-02  0.1097747E+00
          1   -1    0    0  501    0  0.00000000000E+00  0.00000000000E+00  0.53032049291E+03  0.53032049291E+03  0.00000000000E+00 0. -1.
         -1   -1    0    0    0  501 -0.00000000000E+00 -0.00000000000E+00 -0.35979055080E+02  0.35979055080E+02  0.00000000000E+00 0. -1.
         35    2    1    2    0    0 -0.71054273576E-14 -0.71054273576E-14  0.49434143783E+03  0.56629954799E+03  0.27626386100E+03 0.  0.
         25    2    3    3    0    0  0.23816937113E+02  0.43900813076E+02  0.18327999965E+03  0.22764229187E+03  0.12543893691E+03 0.  0.
         25    2    3    3    0    0 -0.23816937113E+02 -0.43900813076E+02  0.31106143818E+03  0.33865725612E+03  0.12423763889E+03 0.  0.
          5    1    4    4  502    0  0.52786714318E+02 -0.16215960404E+02  0.13259666221E+03  0.14371276703E+03  0.47000000000E+01 0. -1.
         -5    1    4    4    0  502 -0.28969777205E+02  0.60116773480E+02  0.50683337446E+02  0.83929524839E+02  0.47000000000E+01 0. -1.
          5    1    5    5  503    0 -0.58925454653E+02  0.11322584717E+02  0.91641034017E+02  0.10963840224E+03  0.47000000000E+01 0.  1.
         -5    1    5    5    0  503  0.35108517540E+02 -0.55223397793E+02  0.21942040416E+03  0.22901885387E+03  0.47000000000E+01 0.  1.
<mgrwt>
<rscale>  0 0.27626386E+03</rscale>
<asrwt>0</asrwt>
<pdfrwt beam="1">  1        1 0.81587762E-01 0.27626386E+03</pdfrwt>
<pdfrwt beam="2">  1       -1 0.55352396E-02 0.27626386E+03</pdfrwt>
<totfact> 0.62692933E+03</totfact>
</mgrwt>
</event>
<event>
 9    1  0.7984035E-001  0.2766605E+03  0.7818608E-02  0.1097527E+00
          2   -1    0    0  501    0  0.00000000000E+00  0.00000000000E+00  0.34449799578E+04  0.34449799578E+04  0.00000000000E+00 0.  1.
         -2   -1    0    0    0  501 -0.00000000000E+00 -0.00000000000E+00 -0.55545349451E+01  0.55545349451E+01  0.00000000000E+00 0.  1.
         35    2    1    2    0    0 -0.35527136788E-14  0.14210854715E-13  0.34394254229E+04  0.34505344928E+04  0.27666052527E+03 0.  0.
         25    2    3    3    0    0  0.27895924870E+02  0.52437283761E+02  0.18040389587E+04  0.18093319541E+04  0.12489076865E+03 0.  0.
         25    2    3    3    0    0 -0.27895924870E+02 -0.52437283761E+02  0.16353864642E+04  0.16412025387E+04  0.12461554686E+03 0.  0.
          5    1    4    4  502    0 -0.26079191985E+02  0.74520084607E+02  0.94591099127E+03  0.94921181023E+03  0.47000000000E+01 0.  1.
         -5    1    4    4    0  502  0.53975116855E+02 -0.22082800845E+02  0.85812796745E+03  0.86012014385E+03  0.47000000000E+01 0.  1.
          5    1    5    5  503    0 -0.22869293498E+02  0.27804954267E+02  0.10099068372E+04  0.10105592659E+04  0.47000000000E+01 0. -1.
         -5    1    5    5    0  503 -0.50266313722E+01 -0.80242238028E+02  0.62547962693E+03  0.63064327277E+03  0.47000000000E+01 0. -1.
<mgrwt>
<rscale>  0 0.27666053E+03</rscale>
<asrwt>0</asrwt>
<pdfrwt beam="1">  1        2 0.52999521E+00 0.27666053E+03</pdfrwt>
<pdfrwt beam="2">  1       -2 0.85454659E-03 0.27666053E+03</pdfrwt>
<totfact> 0.29520753E+03</totfact>
</mgrwt>
</event>
<event>
 9    1  0.7984035E-001  0.2743651E+03  0.7818608E-02  0.1098807E+00
         -4   -1    0    0    0  501 -0.00000000000E+00  0.00000000000E+00  0.31792482440E+03  0.31792482440E+03  0.00000000000E+00 0. -1.
          2   -1    0    0  501    0  0.00000000000E+00 -0.00000000000E+00 -0.59193396794E+02  0.59193396794E+02  0.00000000000E+00 0. -1.
         35    2    1    2    0    0 -0.71054273576E-14 -0.71054273576E-14  0.25873142760E+03  0.37711822119E+03  0.27436508729E+03 0.  0.
         25    2    3    3    0    0 -0.11330993374E+02 -0.20287040358E+02  0.59401533551E+02  0.14014012602E+03  0.12478284062E+03 0.  0.
         25    2    3    3    0    0  0.11330993374E+02  0.20287040358E+02  0.19932989405E+03  0.23697809517E+03  0.12604068991E+03 0.  0.
          5    1    4    4  502    0 -0.26419331769E+02  0.31590051438E+02 -0.18362286092E+02  0.45334048920E+02  0.47000000000E+01 0.  1.
         -5    1    4    4    0  502  0.15088338395E+02 -0.51877091796E+02  0.77763819643E+02  0.94806077095E+02  0.47000000000E+01 0.  1.
          5    1    5    5  503    0 -0.48581689197E+02  0.24890059010E+01  0.14832914548E+03  0.15617298445E+03  0.47000000000E+01 0. -1.
         -5    1    5    5    0  503  0.59912682570E+02  0.17798034457E+02  0.51000748573E+02  0.80805110719E+02  0.47000000000E+01 0. -1.
<mgrwt>
<rscale>  0 0.27436509E+03</rscale>
<asrwt>0</asrwt>
<pdfrwt beam="1">  1        2 0.91066766E-02 0.27436509E+03</pdfrwt>
<pdfrwt beam="2">  1       -4 0.48911510E-01 0.27436509E+03</pdfrwt>
<totfact> 0.15418145E+03</totfact>
</mgrwt>
</event>
<event>
 9    1  0.7984035E-001  0.2737816E+03  0.7818608E-02  0.1099135E+00
         -1   -1    0    0    0  501 -0.00000000000E+00  0.00000000000E+00  0.24271079118E+02  0.24271079118E+02  0.00000000000E+00 0.  1.
          1   -1    0    0  501    0  0.00000000000E+00 -0.00000000000E+00 -0.77207473923E+03  0.77207473923E+03  0.00000000000E+00 0.  1.
         35    2    1    2    0    0  0.71054273576E-14  0.00000000000E+00 -0.74780366011E+03  0.79634581835E+03  0.27378157046E+03 0.  0.
         25    2    3    3    0    0 -0.48533115346E+02  0.22135111428E+02 -0.37538106980E+03  0.39908809406E+03  0.12455895318E+03 0.  0.
         25    2    3    3    0    0  0.48533115346E+02 -0.22135111428E+02 -0.37242259032E+03  0.39725772429E+03  0.12755268435E+03 0.  0.
          5    1    4    4  502    0 -0.88169813617E+02  0.28241160398E+02 -0.22423833022E+03  0.24264459176E+03  0.47000000000E+01 0. -1.
         -5    1    4    4    0  502  0.39636698271E+02 -0.61060489697E+01 -0.15114273958E+03  0.15644350230E+03  0.47000000000E+01 0. -1.
          5    1    5    5  503    0  0.29754618991E+02 -0.72815946847E+02 -0.16490246461E+03  0.18276326847E+03  0.47000000000E+01 0.  1.
         -5    1    5    5    0  503  0.18778496355E+02  0.50680835419E+02 -0.20752012571E+03  0.21449445582E+03  0.47000000000E+01 0.  1.
<mgrwt>
<rscale>  0 0.27378157E+03</rscale>
<asrwt>0</asrwt>
<pdfrwt beam="1">  1        1 0.11878072E+00 0.27378157E+03</pdfrwt>
<pdfrwt beam="2">  1       -1 0.37340126E-02 0.27378157E+03</pdfrwt>
<totfact> 0.66171159E+03</totfact>
</mgrwt>
</event>
<event>
 9    1  0.7984035E-001  0.2681106E+03  0.7818608E-02  0.1102366E+00
         -2   -1    0    0    0  501 -0.00000000000E+00  0.00000000000E+00  0.14063099305E+02  0.14063099305E+02  0.00000000000E+00 0. -1.
          2   -1    0    0  501    0  0.00000000000E+00 -0.00000000000E+00 -0.12778710266E+04  0.12778710266E+04  0.00000000000E+00 0. -1.
         35    2    1    2    0    0  0.00000000000E+00  0.35527136788E-14 -0.12638079273E+04  0.12919341259E+04  0.26811062751E+03 0.  0.
         25    2    3    3    0    0  0.12546747591E+02 -0.25708021591E+02 -0.44195329761E+03  0.46013600453E+03  0.12483630141E+03 0.  0.
         25    2    3    3    0    0 -0.12546747591E+02  0.25708021591E+02 -0.82185462969E+03  0.83179812138E+03  0.12499903653E+03 0.  0.
          5    1    4    4  502    0  0.58537140114E+02  0.17508819050E+02 -0.27108225168E+03  0.27792235011E+03  0.47000000000E+01 0. -1.
         -5    1    4    4    0  502 -0.45990392524E+02 -0.43216840641E+02 -0.17087104593E+03  0.18221365442E+03  0.47000000000E+01 0. -1.
          5    1    5    5  503    0  0.54743096611E+02  0.48244458912E+01 -0.28182878952E+03  0.28717527489E+03  0.47000000000E+01 0. -1.
         -5    1    5    5    0  503 -0.67289844201E+02  0.20883575700E+02 -0.54002584017E+03  0.54462284649E+03  0.47000000000E+01 0. -1.
<mgrwt>
<rscale>  0 0.26811063E+03</rscale>
<asrwt>0</asrwt>
<pdfrwt beam="1">  1        2 0.19659560E+00 0.26811063E+03</pdfrwt>
<pdfrwt beam="2">  1       -2 0.21635531E-02 0.26811063E+03</pdfrwt>
<totfact> 0.12405089E+04</totfact>
</mgrwt>
</event>
<event>
 9    1  0.7984035E-001  0.2717748E+03  0.7818608E-02  0.1100268E+00
          2   -1    0    0  501    0  0.00000000000E+00  0.00000000000E+00  0.21948137427E+04  0.21948137427E+04  0.00000000000E+00 0.  1.
         -2   -1    0    0    0  501 -0.00000000000E+00 -0.00000000000E+00 -0.84131886180E+01  0.84131886180E+01  0.00000000000E+00 0.  1.
         35    2    1    2    0    0  0.17763568394E-14  0.00000000000E+00  0.21864005540E+04  0.22032269313E+04  0.27177477439E+03 0.  0.
         25    2    3    3    0    0 -0.46145595417E+01  0.56952415415E+02  0.98394310046E+03  0.99330130639E+03  0.12344467808E+03 0.  0.
         25    2    3    3    0    0  0.46145595417E+01 -0.56952415415E+02  0.12024574536E+04  0.12099256249E+04  0.12145459362E+03 0.  0.
          5    1    4    4  502    0 -0.62028298557E+02  0.44973635884E+02  0.59563568244E+03  0.60056148223E+03  0.47000000000E+01 0.  1.
         -5    1    4    4    0  502  0.57413739015E+02  0.11978779531E+02  0.38830741803E+03  0.39273982416E+03  0.47000000000E+01 0.  1.
          5    1    5    5  503    0 -0.98361041223E+01 -0.33731085785E+02  0.84637939388E+02  0.91761679781E+02  0.47000000000E+01 0. -1.
         -5    1    5    5    0  503  0.14450663664E+02 -0.23221329630E+02  0.11178195142E+04  0.11181639451E+04  0.47000000000E+01 0. -1.
<mgrwt>
<rscale>  0 0.27177477E+03</rscale>
<asrwt>0</asrwt>
<pdfrwt beam="1">  1        2 0.33766320E+00 0.27177477E+03</pdfrwt>
<pdfrwt beam="2">  1       -2 0.12943385E-02 0.27177477E+03</pdfrwt>
<totfact> 0.85770849E+03</totfact>
</mgrwt>
</event>
<event>
 9    1  0.7984035E-001  0.2762395E+03  0.7818608E-02  0.1097761E+00
         -2   -1    0    0    0  501 -0.00000000000E+00  0.00000000000E+00  0.46968869566E+03  0.46968869566E+03  0.00000000000E+00 0. -1.
          2   -1    0    0  501    0  0.00000000000E+00 -0.00000000000E+00 -0.40616395302E+02  0.40616395302E+02  0.00000000000E+00 0. -1.
         35    2    1    2    0    0  0.35527136788E-14 -0.71054273576E-14  0.42907230036E+03  0.51030509097E+03  0.27623947388E+03 0.  0.
         25    2    3    3    0    0 -0.31859860236E+02  0.12774212822E+02  0.13510416892E+03  0.18904034221E+03  0.12769057647E+03 0.  0.
         25    2    3    3    0    0  0.31859860236E+02 -0.12774212822E+02  0.29396813144E+03  0.32126474875E+03  0.12496217539E+03 0.  0.
          5    1    4    4  502    0 -0.15007791597E+02 -0.48373204766E+02  0.14826466329E+02  0.52982212598E+02  0.47000000000E+01 0.  1.
         -5    1    4    4    0  502 -0.16852068639E+02  0.61147417587E+02  0.12027770259E+03  0.13605812962E+03  0.47000000000E+01 0.  1.
          5    1    5    5  503    0  0.16857861334E+02 -0.66143065581E+02  0.11464379846E+03  0.13350798904E+03  0.47000000000E+01 0.  1.
         -5    1    5    5    0  503  0.15001998901E+02  0.53368852759E+02  0.17932433298E+03  0.18775675971E+03  0.47000000000E+01 0.  1.
<mgrwt>
<rscale>  0 0.27623947E+03</rscale>
<asrwt>0</asrwt>
<pdfrwt beam="1">  1        2 0.62486765E-02 0.27623947E+03</pdfrwt>
<pdfrwt beam="2">  1       -2 0.72259796E-01 0.27623947E+03</pdfrwt>
<totfact> 0.20816769E+03</totfact>
</mgrwt>
</event>
<event>
 9    1  0.7984035E-001  0.2736867E+03  0.7818608E-02  0.1099188E+00
          2   -1    0    0  501    0  0.00000000000E+00  0.00000000000E+00  0.69551703522E+03  0.69551703522E+03  0.00000000000E+00 0.  1.
         -2   -1    0    0    0  501 -0.00000000000E+00 -0.00000000000E+00 -0.26924004388E+02  0.26924004388E+02  0.00000000000E+00 0.  1.
         35    2    1    2    0    0  0.00000000000E+00 -0.71054273576E-14  0.66859303084E+03  0.72244103961E+03  0.27368670927E+03 0.  0.
         25    2    3    3    0    0  0.54589025683E+01 -0.34460175178E+02  0.44387472208E+03  0.46337877718E+03  0.12836595713E+03 0.  0.
         25    2    3    3    0    0 -0.54589025683E+01  0.34460175178E+02  0.22471830876E+03  0.25906226243E+03  0.12408720415E+03 0.  0.
          5    1    4    4  502    0 -0.57020501580E+02 -0.39482127964E+02  0.21011434955E+03  0.22131494734E+03  0.47000000000E+01 0. -1.
         -5    1    4    4    0  502  0.62479404148E+02  0.50219527859E+01  0.23376037253E+03  0.24206382984E+03  0.47000000000E+01 0. -1.
          5    1    5    5  503    0 -0.41770408139E+02 -0.29096548137E+02  0.12680466747E+03  0.13672194338E+03  0.47000000000E+01 0.  1.
         -5    1    5    5    0  503  0.36311505571E+02  0.63556723315E+02  0.97913641285E+02  0.12234031905E+03  0.47000000000E+01 0.  1.
<mgrwt>
<rscale>  0 0.27368671E+03</rscale>
<asrwt>0</asrwt>
<pdfrwt beam="1">  1        2 0.10700261E+00 0.27368671E+03</pdfrwt>
<pdfrwt beam="2">  1       -2 0.41421550E-02 0.27368671E+03</pdfrwt>
<totfact> 0.10973218E+04</totfact>
</mgrwt>
</event>
<event>
 9    1  0.7984035E-001  0.2770969E+03  0.7818608E-02  0.1097285E+00
         -1   -1    0    0    0  501 -0.00000000000E+00  0.00000000000E+00  0.42548368667E+02  0.42548368667E+02  0.00000000000E+00 0.  1.
          1   -1    0    0  501    0  0.00000000000E+00 -0.00000000000E+00 -0.45114951681E+03  0.45114951681E+03  0.00000000000E+00 0.  1.
         35    2    1    2    0    0 -0.71054273576E-14 -0.71054273576E-14 -0.40860114814E+03  0.49369788547E+03  0.27709692142E+03 0.  0.
         25    2    3    3    0    0  0.30594863860E+02  0.46181088323E+02 -0.17805010334E+03  0.22543221571E+03  0.12668506608E+03 0.  0.
         25    2    3    3    0    0 -0.30594863860E+02 -0.46181088323E+02 -0.23055104480E+03  0.26826566976E+03  0.12547488475E+03 0.  0.
          5    1    4    4  502    0 -0.13715717168E+02 -0.20284616609E+02 -0.12940749223E+03  0.13178761555E+03  0.47000000000E+01 0. -1.
         -5    1    4    4    0  502  0.44310581029E+02  0.66465704932E+02 -0.48642611117E+02  0.93644600162E+02  0.47000000000E+01 0. -1.
          5    1    5    5  503    0 -0.97557672086E+01 -0.71884423936E+02 -0.22223798420E+03  0.23382548412E+03  0.47000000000E+01 0.  1.
         -5    1    5    5    0  503 -0.20839096652E+02  0.25703335613E+02 -0.83130605922E+01  0.34440185645E+02  0.47000000000E+01 0.  1.
<mgrwt>
<rscale>  0 0.27709692E+03</rscale>
<asrwt>0</asrwt>
<pdfrwt beam="1">  1        1 0.69407620E-01 0.27709692E+03</pdfrwt>
<pdfrwt beam="2">  1       -1 0.65459027E-02 0.27709692E+03</pdfrwt>
<totfact> 0.60300599E+03</totfact>
</mgrwt>
</event>
<event>
 9    1  0.7984035E-001  0.2819362E+03  0.7818608E-02  0.1094636E+00
         -1   -1    0    0    0  501 -0.00000000000E+00  0.00000000000E+00  0.66698903723E+02  0.66698903723E+02  0.00000000000E+00 0.  1.
          1   -1    0    0  501    0  0.00000000000E+00 -0.00000000000E+00 -0.29793603294E+03  0.29793603294E+03  0.00000000000E+00 0.  1.
         35    2    1    2    0    0  0.00000000000E+00  0.00000000000E+00 -0.23123712922E+03  0.36463493667E+03  0.28193621106E+03 0.  0.
         25    2    3    3    0    0  0.19069667925E+02 -0.62112644232E+02 -0.11464865271E+03  0.18176710747E+03  0.12519319063E+03 0.  0.
         25    2    3    3    0    0 -0.19069667925E+02  0.62112644232E+02 -0.11658847650E+03  0.18286782919E+03  0.12500454909E+03 0.  0.
          5    1    4    4  502    0  0.30095353659E+02 -0.60425898301E+02 -0.12052688877E+01  0.67679850550E+02  0.47000000000E+01 0. -1.
         -5    1    4    4    0  502 -0.11025685734E+02 -0.16867459305E+01 -0.11344338383E+03  0.11408725692E+03  0.47000000000E+01 0. -1.
          5    1    5    5  503    0 -0.11002499518E+01  0.33507416718E+02  0.21848420999E+02  0.40291451019E+02  0.47000000000E+01 0. -1.
         -5    1    5    5    0  503 -0.17969417973E+02  0.28605227514E+02 -0.13843689750E+03  0.14257637818E+03  0.47000000000E+01 0. -1.
<mgrwt>
<rscale>  0 0.28193621E+03</rscale>
<asrwt>0</asrwt>
<pdfrwt beam="1">  1        1 0.45836313E-01 0.28193621E+03</pdfrwt>
<pdfrwt beam="2">  1       -1 0.10261370E-01 0.28193621E+03</pdfrwt>
<totfact> 0.51482319E+03</totfact>
</mgrwt>
</event>
<event>
 9    1  0.7984035E-001  0.2707350E+03  0.7818608E-02  0.1100860E+00
         -2   -1    0    0    0  501 -0.00000000000E+00  0.00000000000E+00  0.50392265533E+02  0.50392265533E+02  0.00000000000E+00 0. -1.
          2   -1    0    0  501    0  0.00000000000E+00 -0.00000000000E+00 -0.36363426772E+03  0.36363426772E+03  0.00000000000E+00 0. -1.
         35    2    1    2    0    0  0.00000000000E+00 -0.35527136788E-14 -0.31324200218E+03  0.41402653325E+03  0.27073495951E+03 0.  0.
         25    2    3    3    0    0 -0.28559923583E+02  0.30320468392E+02 -0.13578939067E+03  0.18935716975E+03  0.12522930599E+03 0.  0.
         25    2    3    3    0    0  0.28559923583E+02 -0.30320468392E+02 -0.17745261151E+03  0.22466936350E+03  0.13134646369E+03 0.  0.
          5    1    4    4  502    0  0.20929456067E+02  0.24985202796E+02 -0.13541165723E+03  0.13935820537E+03  0.47000000000E+01 0. -1.
         -5    1    4    4    0  502 -0.49489379649E+02  0.53352655963E+01 -0.37773344384E+00  0.49998964386E+02  0.47000000000E+01 0. -1.
          5    1    5    5  503    0  0.48717177989E+02 -0.56174700310E+02 -0.42631266965E+02  0.85839823562E+02  0.47000000000E+01 0. -1.
         -5    1    5    5    0  503 -0.20157254406E+02  0.25854231918E+02 -0.13482134455E+03  0.13882953994E+03  0.47000000000E+01 0. -1.
<mgrwt>
<rscale>  0 0.27073496E+03</rscale>
<asrwt>0</asrwt>
<pdfrwt beam="1">  1        2 0.55943732E-01 0.27073496E+03</pdfrwt>
<pdfrwt beam="2">  1       -2 0.77526565E-02 0.27073496E+03</pdfrwt>
<totfact> 0.87343665E+03</totfact>
</mgrwt>
</event>
<event>
 9    1  0.7984035E-001  0.2756400E+03  0.7818608E-02  0.1098094E+00
         -1   -1    0    0    0  501 -0.00000000000E+00  0.00000000000E+00  0.47200960859E+02  0.47200960859E+02  0.00000000000E+00 0. -1.
          1   -1    0    0  501    0  0.00000000000E+00 -0.00000000000E+00 -0.40241446416E+03  0.40241446416E+03  0.00000000000E+00 0. -1.
         35    2    1    2    0    0 -0.14210854715E-13 -0.10658141036E-13 -0.35521350330E+03  0.44961542502E+03  0.27563997803E+03 0.  0.
         25    2    3    3    0    0 -0.33674114605E+02 -0.23345732526E+02 -0.23814555928E+03  0.27336484983E+03  0.12781261479E+03 0.  0.
         25    2    3    3    0    0  0.33674114605E+02  0.23345732526E+02 -0.11706794402E+03  0.17625057519E+03  0.12522137403E+03 0.  0.
          5    1    4    4  502    0 -0.68452904007E+02 -0.29774551952E+01 -0.21699916856E+03  0.22760798418E+03  0.47000000000E+01 0.  1.
         -5    1    4    4    0  502  0.34778789402E+02 -0.20368277331E+02 -0.21146390712E+02  0.45756865647E+02  0.47000000000E+01 0.  1.
          5    1    5    5  503    0  0.50533169190E+02  0.66382419553E+02 -0.88478150745E+02  0.12169921928E+03  0.47000000000E+01 0. -1.
         -5    1    5    5    0  503 -0.16859054585E+02 -0.43036687026E+02 -0.28589793279E+02  0.54551355908E+02  0.47000000000E+01 0. -1.
<mgrwt>
<rscale>  0 0.27563998E+03</rscale>
<asrwt>0</asrwt>
<pdfrwt beam="1">  1        1 0.61909917E-01 0.27563998E+03</pdfrwt>
<pdfrwt beam="2">  1       -1 0.72616864E-02 0.27563998E+03</pdfrwt>
<totfact> 0.59715833E+03</totfact>
</mgrwt>
</event>
<event>
 9    1  0.7984035E-001  0.2743280E+03  0.7818608E-02  0.1098828E+00
         -2   -1    0    0    0  501 -0.00000000000E+00  0.00000000000E+00  0.16149685384E+03  0.16149685384E+03  0.00000000000E+00 0. -1.
          2   -1    0    0  501    0  0.00000000000E+00 -0.00000000000E+00 -0.11649736795E+03  0.11649736795E+03  0.00000000000E+00 0. -1.
         35    2    1    2    0    0  0.71054273576E-14 -0.35527136788E-14  0.44999485889E+02  0.27799422179E+03  0.27432796725E+03 0.  0.
         25    2    3    3    0    0  0.45853210778E+02  0.24248189868E+02  0.52138604549E+01  0.13585007118E+03  0.12544945535E+03 0.  0.
         25    2    3    3    0    0 -0.45853210778E+02 -0.24248189868E+02  0.39785625435E+02  0.14214415061E+03  0.12622033081E+03 0.  0.
          5    1    4    4  502    0 -0.21213721067E+02  0.31171875850E+02  0.43831351559E+02  0.58008492352E+02  0.47000000000E+01 0.  1.
         -5    1    4    4    0  502  0.67066931845E+02 -0.69236859815E+01 -0.38617491104E+02  0.77841578824E+02  0.47000000000E+01 0.  1.
          5    1    5    5  503    0  0.32113484785E+02 -0.73667258082E+00 -0.22511894423E+02  0.39505619626E+02  0.47000000000E+01 0. -1.
         -5    1    5    5    0  503 -0.77966695563E+02 -0.23511517288E+02  0.62297519858E+02  0.10263853098E+03  0.47000000000E+01 0. -1.
<mgrwt>
<rscale>  0 0.27432797E+03</rscale>
<asrwt>0</asrwt>
<pdfrwt beam="1">  1        2 0.17922672E-01 0.27432797E+03</pdfrwt>
<pdfrwt beam="2">  1       -2 0.24845670E-01 0.27432797E+03</pdfrwt>
<totfact> 0.45062359E+03</totfact>
</mgrwt>
</event>
<event>
 9    1  0.7984035E-001  0.2722794E+03  0.7818608E-02  0.1099982E+00
          1   -1    0    0  501    0  0.00000000000E+00  0.00000000000E+00  0.14750302253E+04  0.14750302253E+04  0.00000000000E+00 0. -1.
         -1   -1    0    0    0  501 -0.00000000000E+00 -0.00000000000E+00 -0.12565177288E+02  0.12565177288E+02  0.00000000000E+00 0. -1.
         35    2    1    2    0    0  0.00000000000E+00 -0.71054273576E-14  0.14624650480E+04  0.14875954025E+04  0.27227938802E+03 0.  0.
         25    2    3    3    0    0  0.28683133743E+02 -0.18518659645E+02  0.91425922782E+03  0.92339682010E+03  0.12500435513E+03 0.  0.
         25    2    3    3    0    0 -0.28683133743E+02  0.18518659645E+02  0.54820582014E+03  0.56419858244E+03  0.12893702443E+03 0.  0.
          5    1    4    4  502    0 -0.22461287905E+02 -0.53511814475E+02  0.61514967476E+03  0.61789905008E+03  0.47000000000E+01 0.  1.
         -5    1    4    4    0  502  0.51144421648E+02  0.34993154830E+02  0.29910955307E+03  0.30549777002E+03  0.47000000000E+01 0.  1.
          5    1    5    5  503    0 -0.89444201476E+01  0.73626735011E+02  0.28609922934E+03  0.29559390689E+03  0.47000000000E+01 0.  1.
         -5    1    5    5    0  503 -0.19738713595E+02 -0.55108075366E+02  0.26210659080E+03  0.26860467555E+03  0.47000000000E+01 0.  1.
<mgrwt>
<rscale>  0 0.27227939E+03</rscale>
<asrwt>0</asrwt>
<pdfrwt beam="1">  1        1 0.22692759E+00 0.27227939E+03</pdfrwt>
<pdfrwt beam="2">  1       -1 0.19331054E-02 0.27227939E+03</pdfrwt>
<totfact> 0.53577885E+03</totfact>
</mgrwt>
</event>
<event>
 9    1  0.7984035E-001  0.2727986E+03  0.7818608E-02  0.1099689E+00
          2   -1    0    0  501    0  0.00000000000E+00  0.00000000000E+00  0.66115697033E+02  0.66115697033E+02  0.00000000000E+00 0.  1.
         -2   -1    0    0    0  501 -0.00000000000E+00 -0.00000000000E+00 -0.28139712349E+03  0.28139712349E+03  0.00000000000E+00 0.  1.
         35    2    1    2    0    0  0.00000000000E+00  0.00000000000E+00 -0.21528142646E+03  0.34751282053E+03  0.27279858477E+03 0.  0.
         25    2    3    3    0    0  0.22227488712E+02  0.51737794971E+02 -0.91876078502E+02  0.16517848978E+03  0.12518729569E+03 0.  0.
         25    2    3    3    0    0 -0.22227488712E+02 -0.51737794971E+02 -0.12340534796E+03  0.18233433074E+03  0.12184444009E+03 0.  0.
          5    1    4    4  502    0  0.52721434245E+02  0.64397106006E+02 -0.10065655828E+03  0.13069188810E+03  0.47000000000E+01 0. -1.
         -5    1    4    4    0  502 -0.30493945533E+02 -0.12659311035E+02  0.87804797820E+01  0.34486601677E+02  0.47000000000E+01 0. -1.
          5    1    5    5  503    0 -0.53840710642E+02  0.18036942305E+02 -0.44833949866E+02  0.72500527382E+02  0.47000000000E+01 0. -1.
         -5    1    5    5    0  503  0.31613221929E+02 -0.69774737276E+02 -0.78571398093E+02  0.10983380336E+03  0.47000000000E+01 0. -1.
<mgrwt>
<rscale>  0 0.27279858E+03</rscale>
<asrwt>0</asrwt>
<pdfrwt beam="1">  1        2 0.10171646E-01 0.27279858E+03</pdfrwt>
<pdfrwt beam="2">  1       -2 0.43291864E-01 0.27279858E+03</pdfrwt>
<totfact> 0.31909535E+03</totfact>
</mgrwt>
</event>
<event>
 9    1  0.7984035E-001  0.2765228E+03  0.7818608E-02  0.1097603E+00
         -1   -1    0    0    0  501 -0.00000000000E+00  0.00000000000E+00  0.27107562122E+02  0.27107562122E+02  0.00000000000E+00 0.  1.
          1   -1    0    0  501    0  0.00000000000E+00 -0.00000000000E+00 -0.70519849707E+03  0.70519849707E+03  0.00000000000E+00 0.  1.
         35    2    1    2    0    0 -0.35527136788E-14  0.00000000000E+00 -0.67809093495E+03  0.73230605919E+03  0.27652278074E+03 0.  0.
         25    2    3    3    0    0 -0.14870922332E+02 -0.57691382756E+02 -0.39003961476E+03  0.41253898315E+03  0.12044945647E+03 0.  0.
         25    2    3    3    0    0  0.14870922332E+02  0.57691382756E+02 -0.28805132019E+03  0.31976707604E+03  0.12541124304E+03 0.  0.
          5    1    4    4  502    0 -0.22494119046E+02 -0.93054721309E+02 -0.24768302568E+03  0.26558263829E+03  0.47000000000E+01 0.  1.
         -5    1    4    4    0  502  0.76231967142E+01  0.35363338553E+02 -0.14235658908E+03  0.14695634487E+03  0.47000000000E+01 0.  1.
          5    1    5    5  503    0  0.22878720704E+02 -0.88843117831E+01 -0.10632223695E+01  0.25011743216E+02  0.47000000000E+01 0. -1.
         -5    1    5    5    0  503 -0.80077983720E+01  0.66575694539E+02 -0.28698809782E+03  0.29475533282E+03  0.47000000000E+01 0. -1.
<mgrwt>
<rscale>  0 0.27652278E+03</rscale>
<asrwt>0</asrwt>
<pdfrwt beam="1">  1        1 0.10849207E+00 0.27652278E+03</pdfrwt>
<pdfrwt beam="2">  1       -1 0.41703943E-02 0.27652278E+03</pdfrwt>
<totfact> 0.64269538E+03</totfact>
</mgrwt>
</event>
<event>
 9    1  0.7984035E-001  0.2762811E+03  0.7818608E-02  0.1097738E+00
         -2   -1    0    0    0  501 -0.00000000000E+00  0.00000000000E+00  0.80901954072E+02  0.80901954072E+02  0.00000000000E+00 0.  1.
          2   -1    0    0  501    0  0.00000000000E+00 -0.00000000000E+00 -0.23587574289E+03  0.23587574289E+03  0.00000000000E+00 0.  1.
         35    2    1    2    0    0  0.00000000000E+00 -0.14210854715E-13 -0.15497378882E+03  0.31677769696E+03  0.27628107802E+03 0.  0.
         25    2    3    3    0    0 -0.30210351691E+01 -0.50670676103E+02 -0.71234509529E+02  0.15762836891E+03  0.13113238833E+03 0.  0.
         25    2    3    3    0    0  0.30210351691E+01  0.50670676103E+02 -0.83739279290E+02  0.15914932805E+03  0.12545755319E+03 0.  0.
          5    1    4    4  502    0 -0.61932609328E+02  0.69847231016E+00 -0.35654189635E+02  0.71620159175E+02  0.47000000000E+01 0.  1.
         -5    1    4    4    0  502  0.58911574159E+02 -0.51369148413E+02 -0.35580319894E+02  0.86008209738E+02  0.47000000000E+01 0.  1.
          5    1    5    5  503    0 -0.30781933177E+02  0.67933562844E+02 -0.91003875473E+01  0.75282158739E+02  0.47000000000E+01 0.  1.
         -5    1    5    5    0  503  0.33802968346E+02 -0.17262886742E+02 -0.74638891742E+02  0.83867169311E+02  0.47000000000E+01 0.  1.
<mgrwt>
<rscale>  0 0.27628108E+03</rscale>
<asrwt>0</asrwt>
<pdfrwt beam="1">  1        2 0.36288576E-01 0.27628108E+03</pdfrwt>
<pdfrwt beam="2">  1       -2 0.12446454E-01 0.27628108E+03</pdfrwt>
<totfact> 0.65725979E+03</totfact>
</mgrwt>
</event>
<event>
 9    1  0.7984035E-001  0.2751520E+03  0.7818608E-02  0.1098367E+00
          1   -1    0    0  501    0  0.00000000000E+00  0.00000000000E+00  0.10596485711E+04  0.10596485711E+04  0.00000000000E+00 0.  1.
         -1   -1    0    0    0  501 -0.00000000000E+00 -0.00000000000E+00 -0.17861730878E+02  0.17861730878E+02  0.00000000000E+00 0.  1.
         35    2    1    2    0    0  0.00000000000E+00  0.00000000000E+00  0.10417868402E+04  0.10775103020E+04  0.27515201328E+03 0.  0.
         25    2    3    3    0    0  0.33066352314E+02 -0.40157653744E+02  0.62012084882E+03  0.63473910967E+03  0.12505138702E+03 0.  0.
         25    2    3    3    0    0 -0.33066352314E+02  0.40157653744E+02  0.42166599142E+03  0.44277119233E+03  0.12465191383E+03 0.  0.
          5    1    4    4  502    0 -0.72495875922E+01  0.42428619301E+02  0.18622498125E+03  0.19119251527E+03  0.47000000000E+01 0.  1.
         -5    1    4    4    0  502  0.40315939906E+02 -0.82586273045E+02  0.43389586757E+03  0.44354659440E+03  0.47000000000E+01 0.  1.
          5    1    5    5  503    0 -0.93399913521E+00 -0.10814025239E+02  0.34474204565E+03  0.34494489928E+03  0.47000000000E+01 0.  1.
         -5    1    5    5    0  503 -0.32132353178E+02  0.50971678983E+02  0.76923945773E+02  0.97826293053E+02  0.47000000000E+01 0.  1.
<mgrwt>
<rscale>  0 0.27515201E+03</rscale>
<asrwt>0</asrwt>
<pdfrwt beam="1">  1        1 0.16302281E+00 0.27515201E+03</pdfrwt>
<pdfrwt beam="2">  1       -1 0.27479594E-02 0.27515201E+03</pdfrwt>
<totfact> 0.61984186E+03</totfact>
</mgrwt>
</event>
<event>
 9    1  0.7984035E-001  0.2757942E+03  0.7818608E-02  0.1098008E+00
          2   -1    0    0  501    0  0.00000000000E+00  0.00000000000E+00  0.61001893090E+03  0.61001893090E+03  0.00000000000E+00 0. -1.
         -2   -1    0    0    0  501 -0.00000000000E+00 -0.00000000000E+00 -0.31172173430E+02  0.31172173430E+02  0.00000000000E+00 0. -1.
         35    2    1    2    0    0  0.53290705182E-14 -0.71054273576E-14  0.57884675747E+03  0.64119110433E+03  0.27579424149E+03 0.  0.
         25    2    3    3    0    0 -0.15497322030E+02  0.20481278087E+02  0.41185929813E+03  0.43124623333E+03  0.12524209581E+03 0.  0.
         25    2    3    3    0    0  0.15497322030E+02 -0.20481278087E+02  0.16698745934E+03  0.20994487100E+03  0.12462899960E+03 0.  0.
          5    1    4    4  502    0 -0.46142366277E+02 -0.32266170801E+02  0.11478961615E+03  0.12794127449E+03  0.47000000000E+01 0.  1.
         -5    1    4    4    0  502  0.30645044247E+02  0.52747448887E+02  0.29706968198E+03  0.30330495884E+03  0.47000000000E+01 0.  1.
          5    1    5    5  503    0 -0.13604373778E+02 -0.60517075231E+02  0.40998236290E+02  0.74500609120E+02  0.47000000000E+01 0.  1.
         -5    1    5    5    0  503  0.29101695808E+02  0.40035797144E+02  0.12598922305E+03  0.13544426188E+03  0.47000000000E+01 0.  1.
<mgrwt>
<rscale>  0 0.27579424E+03</rscale>
<asrwt>0</asrwt>
<pdfrwt beam="1">  1        2 0.93849058E-01 0.27579424E+03</pdfrwt>
<pdfrwt beam="2">  1       -2 0.47957194E-02 0.27579424E+03</pdfrwt>
<totfact> 0.10278924E+04</totfact>
</mgrwt>
</event>
<event>
 9    1  0.7984035E-001  0.2734775E+03  0.7818608E-02  0.1099306E+00
          1   -1    0    0  501    0  0.00000000000E+00  0.00000000000E+00  0.11750654131E+04  0.11750654131E+04  0.00000000000E+00 0.  1.
         -1   -1    0    0    0  501 -0.00000000000E+00 -0.00000000000E+00 -0.15911863638E+02  0.15911863638E+02  0.00000000000E+00 0.  1.
         35    2    1    2    0    0  0.35527136788E-14 -0.71054273576E-14  0.11591535494E+04  0.11909772767E+04  0.27347746246E+03 0.  0.
         25    2    3    3    0    0  0.25685453783E+02 -0.15425185946E+02  0.37705983096E+03  0.39822205063E+03  0.12453516203E+03 0.  0.
         25    2    3    3    0    0 -0.25685453783E+02  0.15425185946E+02  0.78209371845E+03  0.79275522606E+03  0.12606579675E+03 0.  0.
          5    1    4    4  502    0 -0.12662613233E+02 -0.37699490498E+01 -0.43508630197E+01  0.14682448663E+02  0.47000000000E+01 0.  1.
         -5    1    4    4    0  502  0.38348067015E+02 -0.11655236897E+02  0.38141069398E+03  0.38353960196E+03  0.47000000000E+01 0.  1.
          5    1    5    5  503    0 -0.51358706802E+02  0.59105464486E+02  0.49813121798E+03  0.50426974233E+03  0.47000000000E+01 0. -1.
         -5    1    5    5    0  503  0.25673253020E+02 -0.43680278540E+02  0.28396250047E+03  0.28848548374E+03  0.47000000000E+01 0. -1.
<mgrwt>
<rscale>  0 0.27347746E+03</rscale>
<asrwt>0</asrwt>
<pdfrwt beam="1">  1        1 0.18077923E+00 0.27347746E+03</pdfrwt>
<pdfrwt beam="2">  1       -1 0.24479800E-02 0.27347746E+03</pdfrwt>
<totfact> 0.60713664E+03</totfact>
</mgrwt>
</event>
<event>
 9    1  0.7984035E-001  0.2765939E+03  0.7818608E-02  0.1097564E+00
         -1   -1    0    0    0  501 -0.00000000000E+00  0.00000000000E+00  0.14774338983E+02  0.14774338983E+02  0.00000000000E+00 0. -1.
          1   -1    0    0  501    0  0.00000000000E+00 -0.00000000000E+00 -0.12945451723E+04  0.12945451723E+04  0.00000000000E+00 0. -1.
         35    2    1    2    0    0  0.00000000000E+00 -0.71054273576E-14 -0.12797708333E+04  0.13093195113E+04  0.27659392043E+03 0.  0.
         25    2    3    3    0    0  0.13732847329E+02 -0.59273460436E+02 -0.66225814516E+03  0.67678510317E+03  0.12550016266E+03 0.  0.
         25    2    3    3    0    0 -0.13732847329E+02  0.59273460436E+02 -0.61751268817E+03  0.63253440813E+03  0.12278405112E+03 0.  0.
          5    1    4    4  502    0  0.46519061034E+02 -0.78867748170E+02 -0.56134186700E+03  0.56878020921E+03  0.47000000000E+01 0. -1.
         -5    1    4    4    0  502 -0.32786213705E+02  0.19594287734E+02 -0.10091627816E+03  0.10800489395E+03  0.47000000000E+01 0. -1.
          5    1    5    5  503    0  0.18622653590E+02 -0.32621523716E+01 -0.11909078838E+02  0.22833331417E+02  0.47000000000E+01 0.  1.
         -5    1    5    5    0  503 -0.32355500919E+02  0.62535612808E+02 -0.60560360933E+03  0.60970107671E+03  0.47000000000E+01 0.  1.
<mgrwt>
<rscale>  0 0.27659392E+03</rscale>
<asrwt>0</asrwt>
<pdfrwt beam="1">  1        1 0.19916090E+00 0.27659392E+03</pdfrwt>
<pdfrwt beam="2">  1       -1 0.22729740E-02 0.27659392E+03</pdfrwt>
<totfact> 0.55939063E+03</totfact>
</mgrwt>
</event>
<event>
 9    1  0.7984035E-001  0.2749777E+03  0.7818608E-02  0.1098464E+00
          1   -1    0    0  501    0  0.00000000000E+00  0.00000000000E+00  0.24655080878E+02  0.24655080878E+02  0.00000000000E+00 0. -1.
         -1   -1    0    0    0  501 -0.00000000000E+00 -0.00000000000E+00 -0.76670548374E+03  0.76670548374E+03  0.00000000000E+00 0. -1.
         35    2    1    2    0    0  0.00000000000E+00  0.00000000000E+00 -0.74205040287E+03  0.79136056462E+03  0.27497771336E+03 0.  0.
         25    2    3    3    0    0 -0.35241859056E+01  0.44293333759E+02 -0.47705991452E+03  0.49508013720E+03  0.12467502119E+03 0.  0.
         25    2    3    3    0    0  0.35241859056E+01 -0.44293333759E+02 -0.26499048835E+03  0.29628042742E+03  0.12485116522E+03 0.  0.
          5    1    4    4  502    0 -0.62510529534E+02  0.36712988518E+02 -0.26890117510E+03  0.27854145437E+03  0.47000000000E+01 0. -1.
         -5    1    4    4    0  502  0.58986343628E+02  0.75803452412E+01 -0.20815873942E+03  0.21653868283E+03  0.47000000000E+01 0. -1.
          5    1    5    5  503    0 -0.39454525949E+02 -0.69362227997E+02 -0.13336888439E+03  0.15548995985E+03  0.47000000000E+01 0.  1.
         -5    1    5    5    0  503  0.42978711855E+02  0.25068894238E+02 -0.13162160396E+03  0.14079046757E+03  0.47000000000E+01 0.  1.
<mgrwt>
<rscale>  0 0.27497771E+03</rscale>
<asrwt>0</asrwt>
<pdfrwt beam="1">  1        1 0.37930892E-02 0.27497771E+03</pdfrwt>
<pdfrwt beam="2">  1       -1 0.11795469E+00 0.27497771E+03</pdfrwt>
<totfact> 0.16868658E+03</totfact>
</mgrwt>
</event>
<event>
 9    1  0.7984035E-001  0.2758921E+03  0.7818608E-02  0.1097954E+00
         -1   -1    0    0    0  501 -0.00000000000E+00  0.00000000000E+00  0.24502285102E+02  0.24502285102E+02  0.00000000000E+00 0.  1.
          1   -1    0    0  501    0  0.00000000000E+00 -0.00000000000E+00 -0.77662600851E+03  0.77662600851E+03  0.00000000000E+00 0.  1.
         35    2    1    2    0    0 -0.14210854715E-13  0.71054273576E-14 -0.75212372341E+03  0.80112829361E+03  0.27589209397E+03 0.  0.
         25    2    3    3    0    0  0.57288412513E+02 -0.38557177565E+00 -0.38026795622E+03  0.40473506045E+03  0.12619286728E+03 0.  0.
         25    2    3    3    0    0 -0.57288412513E+02  0.38557177565E+00 -0.37185576719E+03  0.39639323316E+03  0.12477488864E+03 0.  0.
          5    1    4    4  502    0  0.87179210344E+01 -0.52684147360E+02 -0.25417887171E+03  0.25977030306E+03  0.47000000000E+01 0.  1.
         -5    1    4    4    0  502  0.48570491478E+02  0.52298575584E+02 -0.12608908451E+03  0.14496475739E+03  0.47000000000E+01 0.  1.
          5    1    5    5  503    0 -0.55690163762E+02  0.37084867446E+02 -0.34285931327E+03  0.34935838394E+03  0.47000000000E+01 0.  1.
         -5    1    5    5    0  503 -0.15982487503E+01 -0.36699295670E+02 -0.28996453917E+02  0.47034849224E+02  0.47000000000E+01 0.  1.
<mgrwt>
<rscale>  0 0.27589209E+03</rscale>
<asrwt>0</asrwt>
<pdfrwt beam="1">  1        1 0.11948093E+00 0.27589209E+03</pdfrwt>
<pdfrwt beam="2">  1       -1 0.37695823E-02 0.27589209E+03</pdfrwt>
<totfact> 0.64679452E+03</totfact>
</mgrwt>
</event>
<event>
 9    1  0.7984035E-001  0.2800889E+03  0.7818608E-02  0.1095640E+00
         -2   -1    0    0    0  501 -0.00000000000E+00  0.00000000000E+00  0.57279903385E+02  0.57279903385E+02  0.00000000000E+00 0.  1.
          2   -1    0    0  501    0  0.00000000000E+00 -0.00000000000E+00 -0.34239662561E+03  0.34239662561E+03  0.00000000000E+00 0.  1.
         35    2    1    2    0    0  0.00000000000E+00  0.00000000000E+00 -0.28511672223E+03  0.39967652900E+03  0.28008888328E+03 0.  0.
         25    2    3    3    0    0 -0.38380472494E+02 -0.65912973864E+01 -0.21603873873E+03  0.25240487604E+03  0.12457519396E+03 0.  0.
         25    2    3    3    0    0  0.38380472494E+02  0.65912973864E+01 -0.69077983503E+02  0.14727165296E+03  0.12409942018E+03 0.  0.
          5    1    4    4  502    0 -0.65731654269E+02 -0.23808203019E+02 -0.57802071800E+02  0.90833090932E+02  0.47000000000E+01 0.  1.
         -5    1    4    4    0  502  0.27351181775E+02  0.17216905632E+02 -0.15823666693E+03  0.16157178511E+03  0.47000000000E+01 0.  1.
          5    1    5    5  503    0 -0.29975435546E+02 -0.32728598954E+02 -0.47932246330E+02  0.65492580984E+02  0.47000000000E+01 0. -1.
         -5    1    5    5    0  503  0.68355908040E+02  0.39319896340E+02 -0.21145737173E+02  0.81779071973E+02  0.47000000000E+01 0. -1.
<mgrwt>
<rscale>  0 0.28008888E+03</rscale>
<asrwt>0</asrwt>
<pdfrwt beam="1">  1        2 0.52676402E-01 0.28008888E+03</pdfrwt>
<pdfrwt beam="2">  1       -2 0.88122931E-02 0.28008888E+03</pdfrwt>
<totfact> 0.76365099E+03</totfact>
</mgrwt>
</event>
<event>
 9    1  0.7984035E-001  0.2745343E+03  0.7818608E-02  0.1098712E+00
         -1   -1    0    0    0  501 -0.00000000000E+00  0.00000000000E+00  0.40675961742E+02  0.40675961742E+02  0.00000000000E+00 0.  1.
          1   -1    0    0  501    0  0.00000000000E+00 -0.00000000000E+00 -0.46322875805E+03  0.46322875805E+03  0.00000000000E+00 0.  1.
         35    2    1    2    0    0  0.00000000000E+00  0.71054273576E-14 -0.42255279630E+03  0.50390471979E+03  0.27453433476E+03 0.  0.
         25    2    3    3    0    0 -0.21893840946E+01  0.52795863004E+02 -0.17637926455E+03  0.22261988074E+03  0.12513101049E+03 0.  0.
         25    2    3    3    0    0  0.21893840946E+01 -0.52795863004E+02 -0.24617353176E+03  0.28128483905E+03  0.12540955461E+03 0.  0.
          5    1    4    4  502    0  0.94078871859E+01  0.38413800499E+02 -0.19315959383E+03  0.19722283615E+03  0.47000000000E+01 0.  1.
         -5    1    4    4    0  502 -0.11597271281E+02  0.14382062506E+02  0.16780329283E+02  0.25397044590E+02  0.47000000000E+01 0.  1.
          5    1    5    5  503    0  0.28756447780E+02 -0.71565895518E+02 -0.77500732184E+02  0.10943977421E+03  0.47000000000E+01 0.  1.
         -5    1    5    5    0  503 -0.26567063685E+02  0.18770032513E+02 -0.16867279957E+03  0.17184506484E+03  0.47000000000E+01 0.  1.
<mgrwt>
<rscale>  0 0.27453433E+03</rscale>
<asrwt>0</asrwt>
<pdfrwt beam="1">  1        1 0.71265965E-01 0.27453433E+03</pdfrwt>
<pdfrwt beam="2">  1       -1 0.62578400E-02 0.27453433E+03</pdfrwt>
<totfact> 0.62339037E+03</totfact>
</mgrwt>
</event>
<event>
 9    1  0.7984035E-001  0.2748447E+03  0.7818608E-02  0.1098538E+00
          2   -1    0    0  501    0  0.00000000000E+00  0.00000000000E+00  0.67337787214E+02  0.67337787214E+02  0.00000000000E+00 0. -1.
         -2   -1    0    0    0  501 -0.00000000000E+00 -0.00000000000E+00 -0.28045024042E+03  0.28045024042E+03  0.00000000000E+00 0. -1.
         35    2    1    2    0    0  0.00000000000E+00 -0.71054273576E-14 -0.21311245321E+03  0.34778802764E+03  0.27484467332E+03 0.  0.
         25    2    3    3    0    0 -0.49568763688E+02  0.17186568944E+02 -0.16438877055E+03  0.20523316528E+03  0.11110600237E+03 0.  0.
         25    2    3    3    0    0  0.49568763688E+02 -0.17186568944E+02 -0.48723682659E+02  0.14255486236E+03  0.12326983023E+03 0.  0.
          5    1    4    4  502    0 -0.38220855205E+02  0.58948046230E+02 -0.13634136677E+03  0.15344954943E+03  0.47000000000E+01 0.  1.
         -5    1    4    4    0  502 -0.11347908483E+02 -0.41761477286E+02 -0.28047403780E+02  0.51783615854E+02  0.47000000000E+01 0.  1.
          5    1    5    5  503    0  0.60720540836E+02 -0.61666935244E+02 -0.22597001854E+02  0.89568462500E+02  0.47000000000E+01 0.  1.
         -5    1    5    5    0  503 -0.11151777148E+02  0.44480366301E+02 -0.26126680805E+02  0.52986399856E+02  0.47000000000E+01 0.  1.
<mgrwt>
<rscale>  0 0.27484467E+03</rscale>
<asrwt>0</asrwt>
<pdfrwt beam="1">  1        2 0.10359660E-01 0.27484467E+03</pdfrwt>
<pdfrwt beam="2">  1       -2 0.43146190E-01 0.27484467E+03</pdfrwt>
<totfact> 0.31405407E+03</totfact>
</mgrwt>
</event>
<event>
 9    1  0.7984035E-001  0.2842218E+03  0.7818608E-02  0.1093405E+00
         -2   -1    0    0    0  501 -0.00000000000E+00  0.00000000000E+00  0.51640013735E+01  0.51640013735E+01  0.00000000000E+00 0. -1.
          2   -1    0    0  501    0  0.00000000000E+00 -0.00000000000E+00 -0.39108241757E+04  0.39108241757E+04  0.00000000000E+00 0. -1.
         35    2    1    2    0    0  0.00000000000E+00  0.00000000000E+00 -0.39056601743E+04  0.39159881771E+04  0.28422175437E+03 0.  0.
         25    2    3    3    0    0  0.51656805950E+01 -0.34880343699E+01 -0.28773421613E+04  0.28800618117E+04  0.12497709952E+03 0.  0.
         25    2    3    3    0    0 -0.51656805950E+01  0.34880343699E+01 -0.10283180130E+04  0.10359263653E+04  0.12516648078E+03 0.  0.
          5    1    4    4  502    0  0.22928489982E+02  0.34539236934E+02 -0.36693466020E+03  0.36929907852E+03  0.47000000000E+01 0.  1.
         -5    1    4    4    0  502 -0.17762809387E+02 -0.38027271304E+02 -0.25104075011E+04  0.25107627332E+04  0.47000000000E+01 0.  1.
          5    1    5    5  503    0  0.29639782626E+02  0.38352308131E+02 -0.18975022749E+03  0.19589960461E+03  0.47000000000E+01 0. -1.
         -5    1    5    5    0  503 -0.34805463221E+02 -0.34864273761E+02 -0.83856778549E+03  0.84002676071E+03  0.47000000000E+01 0. -1.
<mgrwt>
<rscale>  0 0.28422175E+03</rscale>
<asrwt>0</asrwt>
<pdfrwt beam="1">  1        2 0.60166654E+00 0.28422175E+03</pdfrwt>
<pdfrwt beam="2">  1       -2 0.79446006E-03 0.28422175E+03</pdfrwt>
<totfact> 0.15521165E+03</totfact>
</mgrwt>
</event>
<event>
 8    1  0.7984035E-001  0.4091657E+03  0.7818608E-02  0.1040651E+00
         -2   -1    0    0    0  501 -0.00000000000E+00  0.00000000000E+00  0.37707325087E+02  0.37707325087E+02  0.00000000000E+00 0.  1.
          2   -1    0    0  501    0  0.00000000000E+00 -0.00000000000E+00 -0.11099739997E+04  0.11099739997E+04  0.00000000000E+00 0.  1.
         25    2    1    2    0    0  0.92233188333E+02 -0.40284255011E+02 -0.17549060188E+03  0.23663750874E+03  0.12276227824E+03 0.  0.
         25    2    1    2    0    0 -0.92233188333E+02  0.40284255011E+02 -0.89677607272E+03  0.91104381605E+03  0.12515481578E+03 0.  0.
          5    1    3    3  502    0  0.61774512525E+01 -0.52718457574E+02 -0.17229793763E+02  0.56003146931E+02  0.47000000000E+01 0.  1.
         -5    1    3    3    0  502  0.86055737081E+02  0.12434202563E+02 -0.15826080812E+03  0.18063436181E+03  0.47000000000E+01 0.  1.
          5    1    4    4  503    0 -0.80078715479E+02  0.53235363654E+02 -0.88260693939E+03  0.88784216169E+03  0.47000000000E+01 0.  1.
         -5    1    4    4    0  503 -0.12154472854E+02 -0.12951108643E+02 -0.14169133337E+02  0.23201654358E+02  0.47000000000E+01 0.  1.
<mgrwt>
<rscale>  0 0.40916574E+03</rscale>
<asrwt>0</asrwt>
<pdfrwt beam="1">  1        2 0.17076522E+00 0.40916574E+03</pdfrwt>
<pdfrwt beam="2">  1       -2 0.58011273E-02 0.40916574E+03</pdfrwt>
<totfact> 0.35256079E+03</totfact>
</mgrwt>
</event>
<event>
 9    1  0.7984035E-001  0.2752199E+03  0.7818608E-02  0.1098329E+00
         -2   -1    0    0    0  501 -0.00000000000E+00  0.00000000000E+00  0.15796292642E+02  0.15796292642E+02  0.00000000000E+00 0. -1.
          2   -1    0    0  501    0  0.00000000000E+00 -0.00000000000E+00 -0.11987938899E+04  0.11987938899E+04  0.00000000000E+00 0. -1.
         35    2    1    2    0    0 -0.14210854715E-13  0.00000000000E+00 -0.11829975972E+04  0.12145901825E+04  0.27521990554E+03 0.  0.
         25    2    3    3    0    0  0.57402991717E+02  0.28027549411E+01 -0.57789227289E+03  0.59404373368E+03  0.12500207823E+03 0.  0.
         25    2    3    3    0    0 -0.57402991717E+02 -0.28027549411E+01 -0.60510532433E+03  0.62054644883E+03  0.12498993050E+03 0.  0.
          5    1    4    4  502    0  0.87546921569E+02  0.16882844616E+02 -0.51554165789E+03  0.52321581105E+03  0.47000000000E+01 0. -1.
         -5    1    4    4    0  502 -0.30143929852E+02 -0.14080089675E+02 -0.62350615003E+02  0.70827922625E+02  0.47000000000E+01 0. -1.
          5    1    5    5  503    0 -0.12758712941E+02 -0.57667117001E+02 -0.37857508021E+03  0.38318332753E+03  0.47000000000E+01 0.  1.
         -5    1    5    5    0  503 -0.44644278777E+02  0.54864362060E+02 -0.22653024412E+03  0.23736312130E+03  0.47000000000E+01 0.  1.
<mgrwt>
<rscale>  0 0.27521991E+03</rscale>
<asrwt>0</asrwt>
<pdfrwt beam="1">  1        2 0.18442979E+00 0.27521991E+03</pdfrwt>
<pdfrwt beam="2">  1       -2 0.24301994E-02 0.27521991E+03</pdfrwt>
<totfact> 0.11584141E+04</totfact>
</mgrwt>
</event>
<event>
 9    1  0.7984035E-001  0.2650161E+03  0.7818608E-02  0.1104166E+00
          1   -1    0    0  501    0  0.00000000000E+00  0.00000000000E+00  0.81654503422E+02  0.81654503422E+02  0.00000000000E+00 0. -1.
         -1   -1    0    0    0  501 -0.00000000000E+00 -0.00000000000E+00 -0.21503258571E+03  0.21503258571E+03  0.00000000000E+00 0. -1.
         35    2    1    2    0    0 -0.71054273576E-14 -0.17763568394E-14 -0.13337808229E+03  0.29668708913E+03  0.26501606748E+03 0.  0.
         25    2    3    3    0    0  0.18687620899E+02 -0.12903448880E+01 -0.40570523966E+02  0.13398976093E+03  0.12631863067E+03 0.  0.
         25    2    3    3    0    0 -0.18687620899E+02  0.12903448880E+01 -0.92807558322E+02  0.16269732820E+03  0.13231132059E+03 0.  0.
          5    1    4    4  502    0  0.22662582692E+02  0.84671796259E+01  0.43034884729E+02  0.49592107122E+02  0.47000000000E+01 0. -1.
         -5    1    4    4    0  502 -0.39749617927E+01 -0.97575245139E+01 -0.83605408695E+02  0.84397653812E+02  0.47000000000E+01 0. -1.
          5    1    5    5  503    0  0.37145818558E+02  0.70044014443E+01 -0.98962711649E+02  0.10604047233E+03  0.47000000000E+01 0.  1.
         -5    1    5    5    0  503 -0.55833439458E+02 -0.57140565563E+01  0.61551533265E+01  0.56656855865E+02  0.47000000000E+01 0.  1.
<mgrwt>
<rscale>  0 0.26501607E+03</rscale>
<asrwt>0</asrwt>
<pdfrwt beam="1">  1        1 0.12562231E-01 0.26501607E+03</pdfrwt>
<pdfrwt beam="2">  1       -1 0.33081936E-01 0.26501607E+03</pdfrwt>
<totfact> 0.40428789E+03</totfact>
</mgrwt>
</event>
<event>
 9    1  0.7984035E-001  0.2752403E+03  0.7818608E-02  0.1098317E+00
         -2   -1    0    0    0  501 -0.00000000000E+00  0.00000000000E+00  0.12311900659E+02  0.12311900659E+02  0.00000000000E+00 0. -1.
          2   -1    0    0  501    0  0.00000000000E+00 -0.00000000000E+00 -0.15382923837E+04  0.15382923837E+04  0.00000000000E+00 0. -1.
         35    2    1    2    0    0  0.35527136788E-14 -0.14210854715E-13 -0.15259804830E+04  0.15506042843E+04  0.27524028057E+03 0.  0.
         25    2    3    3    0    0 -0.95986537791E+01 -0.48450468973E+02 -0.93543809788E+03  0.94493809380E+03  0.12419333337E+03 0.  0.
         25    2    3    3    0    0  0.95986537791E+01  0.48450468973E+02 -0.59054238513E+03  0.60566619052E+03  0.12510652906E+03 0.  0.
          5    1    4    4  502    0 -0.24419798447E+02  0.17891467103E+02 -0.67622604053E+03  0.67691962524E+03  0.47000000000E+01 0.  1.
         -5    1    4    4    0  502  0.14821144668E+02 -0.66341936075E+02 -0.25921205735E+03  0.26801846856E+03  0.47000000000E+01 0.  1.
          5    1    5    5  503    0  0.51670294712E+02  0.10785615935E+01 -0.42823439630E+03  0.43136732703E+03  0.47000000000E+01 0.  1.
         -5    1    5    5    0  503 -0.42071640933E+02  0.47371907379E+02 -0.16230798882E+03  0.17429886350E+03  0.47000000000E+01 0.  1.
<mgrwt>
<rscale>  0 0.27524028E+03</rscale>
<asrwt>0</asrwt>
<pdfrwt beam="1">  1        2 0.23666036E+00 0.27524028E+03</pdfrwt>
<pdfrwt beam="2">  1       -2 0.18941387E-02 0.27524028E+03</pdfrwt>
<totfact> 0.10901005E+04</totfact>
</mgrwt>
</event>
<event>
 9    1  0.7984035E-001  0.2749876E+03  0.7818608E-02  0.1098459E+00
         -2   -1    0    0    0  501 -0.00000000000E+00  0.00000000000E+00  0.10894511183E+02  0.10894511183E+02  0.00000000000E+00 0.  1.
          2   -1    0    0  501    0  0.00000000000E+00 -0.00000000000E+00 -0.17352355885E+04  0.17352355885E+04  0.00000000000E+00 0.  1.
         35    2    1    2    0    0  0.00000000000E+00  0.14210854715E-13 -0.17243410773E+04  0.17461300997E+04  0.27498758899E+03 0.  0.
         25    2    3    3    0    0 -0.41274207156E+02  0.37252730812E+02 -0.94406764815E+03  0.95397459978E+03  0.12534945799E+03 0.  0.
         25    2    3    3    0    0  0.41274207156E+02 -0.37252730812E+02 -0.78027342916E+03  0.79215549990E+03  0.12486947437E+03 0.  0.
          5    1    4    4  502    0 -0.30829179555E+02  0.71482143542E+02 -0.84401071873E+03  0.84760622844E+03  0.47000000000E+01 0. -1.
         -5    1    4    4    0  502 -0.10445027601E+02 -0.34229412730E+02 -0.10005692942E+03  0.10636837134E+03  0.47000000000E+01 0. -1.
          5    1    5    5  503    0  0.29510536713E-01 -0.62087550195E+02 -0.65361382071E+03  0.65657290637E+03  0.47000000000E+01 0. -1.
         -5    1    5    5    0  503  0.41244696620E+02  0.24834819383E+02 -0.12665960845E+03  0.13558259352E+03  0.47000000000E+01 0. -1.
<mgrwt>
<rscale>  0 0.27498759E+03</rscale>
<asrwt>0</asrwt>
<pdfrwt beam="1">  1        2 0.26695917E+00 0.27498759E+03</pdfrwt>
<pdfrwt beam="2">  1       -2 0.16760796E-02 0.27498759E+03</pdfrwt>
<totfact> 0.10262695E+04</totfact>
</mgrwt>
</event>
<event>
 9    1  0.7984035E-001  0.2725608E+03  0.7818608E-02  0.1099823E+00
         -2   -1    0    0    0  501 -0.00000000000E+00  0.00000000000E+00  0.74226987905E+03  0.74226987905E+03  0.00000000000E+00 0. -1.
          2   -1    0    0  501    0  0.00000000000E+00 -0.00000000000E+00 -0.25021010438E+02  0.25021010438E+02  0.00000000000E+00 0. -1.
         35    2    1    2    0    0  0.00000000000E+00 -0.71054273576E-14  0.71724886861E+03  0.76729088949E+03  0.27256076307E+03 0.  0.
         25    2    3    3    0    0  0.27390057459E+02 -0.40297577224E+02  0.28521003330E+03  0.31462031571E+03  0.12355998538E+03 0.  0.
         25    2    3    3    0    0 -0.27390057459E+02  0.40297577224E+02  0.43203883531E+03  0.45267057377E+03  0.12601183740E+03 0.  0.
          5    1    4    4  502    0  0.56315397459E+02 -0.64530736102E+02  0.13723073683E+03  0.16183326303E+03  0.47000000000E+01 0. -1.
         -5    1    4    4    0  502 -0.28925340000E+02  0.24233158878E+02  0.14797929647E+03  0.15278705268E+03  0.47000000000E+01 0. -1.
          5    1    5    5  503    0  0.24091847589E+02  0.60344210281E+01  0.11827650752E+02  0.27907251382E+02  0.47000000000E+01 0.  1.
         -5    1    5    5    0  503 -0.51481905048E+02  0.34263156195E+02  0.42021118456E+03  0.42476332239E+03  0.47000000000E+01 0.  1.
<mgrwt>
<rscale>  0 0.27256076E+03</rscale>
<asrwt>0</asrwt>
<pdfrwt beam="1">  1        2 0.38493868E-02 0.27256076E+03</pdfrwt>
<pdfrwt beam="2">  1       -2 0.11419535E+00 0.27256076E+03</pdfrwt>
<totfact> 0.13965307E+03</totfact>
</mgrwt>
</event>
<event>
 9    1  0.7984035E-001  0.2745410E+03  0.7818608E-02  0.1098708E+00
         -1   -1    0    0    0  501 -0.00000000000E+00  0.00000000000E+00  0.57712992632E+02  0.57712992632E+02  0.00000000000E+00 0. -1.
          1   -1    0    0  501    0  0.00000000000E+00 -0.00000000000E+00 -0.32649823521E+03  0.32649823521E+03  0.00000000000E+00 0. -1.
         35    2    1    2    0    0  0.71054273576E-14  0.00000000000E+00 -0.26878524257E+03  0.38421122784E+03  0.27454100053E+03 0.  0.
         25    2    3    3    0    0 -0.50420107506E+02  0.16416176435E+02 -0.14422964012E+03  0.19825590658E+03  0.12526586653E+03 0.  0.
         25    2    3    3    0    0  0.50420107506E+02 -0.16416176435E+02 -0.12455560246E+03  0.18595532125E+03  0.12748962824E+03 0.  0.
          5    1    4    4  502    0 -0.66078331922E+02 -0.21330426239E+02 -0.14069857153E+03  0.15696977755E+03  0.47000000000E+01 0.  1.
         -5    1    4    4    0  502  0.15658224417E+02  0.37746602674E+02 -0.35310685879E+01  0.41286129035E+02  0.47000000000E+01 0.  1.
          5    1    5    5  503    0  0.90149176468E+02 -0.12388853396E+02 -0.57423101433E+02  0.10770264753E+03  0.47000000000E+01 0. -1.
         -5    1    5    5    0  503 -0.39729068963E+02 -0.40273230392E+01 -0.67132501025E+02  0.78252673727E+02  0.47000000000E+01 0. -1.
<mgrwt>
<rscale>  0 0.27454100E+03</rscale>
<asrwt>0</asrwt>
<pdfrwt beam="1">  1        1 0.50230498E-01 0.27454100E+03</pdfrwt>
<pdfrwt beam="2">  1       -1 0.88789220E-02 0.27454100E+03</pdfrwt>
<totfact> 0.57292709E+03</totfact>
</mgrwt>
</event>
<event>
 9    1  0.7984035E-001  0.2755124E+03  0.7818608E-02  0.1098166E+00
         -2   -1    0    0    0  501 -0.00000000000E+00  0.00000000000E+00  0.37249124601E+02  0.37249124601E+02  0.00000000000E+00 0.  1.
          2   -1    0    0  501    0  0.00000000000E+00 -0.00000000000E+00 -0.50945533803E+03  0.50945533803E+03  0.00000000000E+00 0.  1.
         35    2    1    2    0    0 -0.14210854715E-13  0.35527136788E-14 -0.47220621343E+03  0.54670446263E+03  0.27551236172E+03 0.  0.
         25    2    3    3    0    0 -0.50278569789E+02 -0.89717145607E+01 -0.18261488455E+03  0.22712563241E+03  0.12501772113E+03 0.  0.
         25    2    3    3    0    0  0.50278569789E+02  0.89717145607E+01 -0.28959132888E+03  0.31957883022E+03  0.12513618469E+03 0.  0.
          5    1    4    4  502    0  0.25044327797E+02 -0.26413563261E+02 -0.10171878544E+02  0.38084797388E+02  0.47000000000E+01 0.  1.
         -5    1    4    4    0  502 -0.75322897586E+02  0.17441848700E+02 -0.17244300601E+03  0.18904083503E+03  0.47000000000E+01 0.  1.
          5    1    5    5  503    0 -0.31512330434E+01  0.34945860892E+02 -0.14750389782E+02  0.38351107701E+02  0.47000000000E+01 0. -1.
         -5    1    5    5    0  503  0.53429802833E+02 -0.25974146331E+02 -0.27484093909E+03  0.28122772251E+03  0.47000000000E+01 0. -1.
<mgrwt>
<rscale>  0 0.27551236E+03</rscale>
<asrwt>0</asrwt>
<pdfrwt beam="1">  1        2 0.78377740E-01 0.27551236E+03</pdfrwt>
<pdfrwt beam="2">  1       -2 0.57306348E-02 0.27551236E+03</pdfrwt>
<totfact> 0.96275833E+03</totfact>
</mgrwt>
</event>
<event>
 9    1  0.7984035E-001  0.2884680E+03  0.7818608E-02  0.1091152E+00
          1   -1    0    0  501    0  0.00000000000E+00  0.00000000000E+00  0.77521152296E+03  0.77521152296E+03  0.00000000000E+00 0.  1.
         -1   -1    0    0    0  501 -0.00000000000E+00 -0.00000000000E+00 -0.26835823507E+02  0.26835823507E+02  0.00000000000E+00 0.  1.
         35    2    1    2    0    0  0.00000000000E+00  0.00000000000E+00  0.74837569945E+03  0.80204734647E+03  0.28846795046E+03 0.  0.
         25    2    3    3    0    0  0.65229350290E+02  0.18891271542E+02  0.30184676039E+03  0.33337434931E+03  0.12415813200E+03 0.  0.
         25    2    3    3    0    0 -0.65229350290E+02 -0.18891271542E+02  0.44652893907E+03  0.46867299716E+03  0.12511809046E+03 0.  0.
          5    1    4    4  502    0  0.57527628113E+02 -0.45440575156E+02  0.19439791879E+03  0.20781461618E+03  0.47000000000E+01 0.  1.
         -5    1    4    4    0  502  0.77017221770E+01  0.64331846698E+02  0.10744884160E+03  0.12555973313E+03  0.47000000000E+01 0.  1.
          5    1    5    5  503    0  0.23262800500E+02 -0.44070729461E+02  0.16863241722E+03  0.17590443206E+03  0.47000000000E+01 0. -1.
         -5    1    5    5    0  503 -0.88492150790E+02  0.25179457919E+02  0.27789652185E+03  0.29276856509E+03  0.47000000000E+01 0. -1.
<mgrwt>
<rscale>  0 0.28846795E+03</rscale>
<asrwt>0</asrwt>
<pdfrwt beam="1">  1        1 0.11926329E+00 0.28846795E+03</pdfrwt>
<pdfrwt beam="2">  1       -1 0.41285888E-02 0.28846795E+03</pdfrwt>
<totfact> 0.56708377E+03</totfact>
</mgrwt>
</event>
<event>
 9    1  0.7984035E-001  0.2797171E+03  0.7818608E-02  0.1095844E+00
         -1   -1    0    0    0  501 -0.00000000000E+00  0.00000000000E+00  0.14532194504E+02  0.14532194504E+02  0.00000000000E+00 0. -1.
          1   -1    0    0  501    0  0.00000000000E+00 -0.00000000000E+00 -0.13460053998E+04  0.13460053998E+04  0.00000000000E+00 0. -1.
         35    2    1    2    0    0  0.00000000000E+00  0.71054273576E-14 -0.13314732053E+04  0.13605375944E+04  0.27971708761E+03 0.  0.
         25    2    3    3    0    0  0.17326321067E+02 -0.46291520388E+02 -0.47960340146E+03  0.49818885598E+03  0.12541773106E+03 0.  0.
         25    2    3    3    0    0 -0.17326321067E+02  0.46291520388E+02 -0.85186980388E+03  0.86234873838E+03  0.12457960327E+03 0.  0.
          5    1    4    4  502    0  0.49654906516E+02 -0.39403892664E+02 -0.44709170253E+03  0.45158759612E+03  0.47000000000E+01 0.  1.
         -5    1    4    4    0  502 -0.32328585450E+02 -0.68876277237E+01 -0.32511698935E+02  0.46601259859E+02  0.47000000000E+01 0.  1.
          5    1    5    5  503    0 -0.65155832551E+02  0.53640522966E+02 -0.49171633361E+03  0.49892848281E+03  0.47000000000E+01 0.  1.
         -5    1    5    5    0  503  0.47829511484E+02 -0.73490025778E+01 -0.36015347027E+03  0.36342025556E+03  0.47000000000E+01 0.  1.
<mgrwt>
<rscale>  0 0.27971709E+03</rscale>
<asrwt>0</asrwt>
<pdfrwt beam="1">  1        1 0.20707767E+00 0.27971709E+03</pdfrwt>
<pdfrwt beam="2">  1       -1 0.22357231E-02 0.27971709E+03</pdfrwt>
<totfact> 0.52873161E+03</totfact>
</mgrwt>
</event>
<event>
 9    1  0.7984035E-001  0.2752073E+03  0.7818608E-02  0.1098336E+00
         -1   -1    0    0    0  501 -0.00000000000E+00  0.00000000000E+00  0.17803562040E+03  0.17803562040E+03  0.00000000000E+00 0. -1.
          1   -1    0    0  501    0  0.00000000000E+00 -0.00000000000E+00 -0.10635379606E+03  0.10635379606E+03  0.00000000000E+00 0. -1.
         35    2    1    2    0    0 -0.71054273576E-14  0.00000000000E+00  0.71681824340E+02  0.28438941645E+03  0.27520729687E+03 0.  0.
         25    2    3    3    0    0 -0.54459352009E+02 -0.15026011890E+02  0.40772660224E+02  0.14363116181E+03  0.12560214476E+03 0.  0.
         25    2    3    3    0    0  0.54459352009E+02  0.15026011890E+02  0.30909164116E+02  0.14075825464E+03  0.12516352411E+03 0.  0.
          5    1    4    4  502    0  0.22821608156E+02 -0.37561314515E+02  0.44746144385E+02  0.62896626175E+02  0.47000000000E+01 0. -1.
         -5    1    4    4    0  502 -0.77280960165E+02  0.22535302624E+02 -0.39734841617E+01  0.80734535639E+02  0.47000000000E+01 0. -1.
          5    1    5    5  503    0 -0.19528297687E+02 -0.39744692674E+02  0.16364820745E+02  0.47443570316E+02  0.47000000000E+01 0. -1.
         -5    1    5    5    0  503  0.73987649697E+02  0.54770704564E+02  0.14544343371E+02  0.93314684322E+02  0.47000000000E+01 0. -1.
<mgrwt>
<rscale>  0 0.27520730E+03</rscale>
<asrwt>0</asrwt>
<pdfrwt beam="1">  1        1 0.16362122E-01 0.27520730E+03</pdfrwt>
<pdfrwt beam="2">  1       -1 0.27390096E-01 0.27520730E+03</pdfrwt>
<totfact> 0.39424085E+03</totfact>
</mgrwt>
</event>
<event>
 9    1  0.7984035E-001  0.2767682E+03  0.7818608E-02  0.1097467E+00
          2   -1    0    0  501    0  0.00000000000E+00  0.00000000000E+00  0.58569088584E+02  0.58569088584E+02  0.00000000000E+00 0. -1.
         -2   -1    0    0    0  501 -0.00000000000E+00 -0.00000000000E+00 -0.32696696051E+03  0.32696696051E+03  0.00000000000E+00 0. -1.
         35    2    1    2    0    0 -0.71054273576E-14  0.00000000000E+00 -0.26839787193E+03  0.38553604910E+03  0.27676818368E+03 0.  0.
         25    2    3    3    0    0 -0.26991477403E+02 -0.21521971312E+02 -0.69217321456E+02  0.14816008092E+03  0.12636707200E+03 0.  0.
         25    2    3    3    0    0  0.26991477403E+02  0.21521971312E+02 -0.19918055047E+03  0.23737596818E+03  0.12442959246E+03 0.  0.
          5    1    4    4  502    0 -0.72069099386E+02 -0.13514184071E+02 -0.11549189387E+02  0.74377832940E+02  0.47000000000E+01 0.  1.
         -5    1    4    4    0  502  0.45077621983E+02 -0.80077872407E+01 -0.57668132069E+02  0.73782247977E+02  0.47000000000E+01 0.  1.
          5    1    5    5  503    0 -0.56180904835E+01 -0.49376653455E+02 -0.92584848181E+02  0.10518393870E+03  0.47000000000E+01 0. -1.
         -5    1    5    5    0  503  0.32609567886E+02  0.70898624766E+02 -0.10659570229E+03  0.13219202948E+03  0.47000000000E+01 0. -1.
<mgrwt>
<rscale>  0 0.27676818E+03</rscale>
<asrwt>0</asrwt>
<pdfrwt beam="1">  1        2 0.90106293E-02 0.27676818E+03</pdfrwt>
<pdfrwt beam="2">  1       -2 0.50302608E-01 0.27676818E+03</pdfrwt>
<totfact> 0.27639842E+03</totfact>
</mgrwt>
</event>
<event>
 9    1  0.7984035E-001  0.2742661E+03  0.7818608E-02  0.1098863E+00
          3   -1    0    0  501    0  0.00000000000E+00  0.00000000000E+00  0.68391888848E+02  0.68391888848E+02  0.00000000000E+00 0. -1.
         -3   -1    0    0    0  501 -0.00000000000E+00 -0.00000000000E+00 -0.27496652087E+03  0.27496652087E+03  0.00000000000E+00 0. -1.
         35    2    1    2    0    0  0.00000000000E+00  0.71054273576E-14 -0.20657463202E+03  0.34335840971E+03  0.27426614616E+03 0.  0.
         25    2    3    3    0    0 -0.17718304792E+02 -0.47333050005E+02 -0.12899339327E+03  0.18630746788E+03  0.12456653296E+03 0.  0.
         25    2    3    3    0    0  0.17718304792E+02  0.47333050005E+02 -0.77581238745E+02  0.15705094183E+03  0.12685343423E+03 0.  0.
          5    1    4    4  502    0 -0.60153058018E+02  0.10845945427E+02 -0.48235655377E+02  0.78005085544E+02  0.47000000000E+01 0.  1.
         -5    1    4    4    0  502  0.42434753225E+02 -0.58178995432E+02 -0.80757737896E+02  0.10830238234E+03  0.47000000000E+01 0.  1.
          5    1    5    5  503    0  0.62839018042E+02  0.43005564342E+01 -0.82652578654E+01  0.63699619008E+02  0.47000000000E+01 0.  1.
         -5    1    5    5    0  503 -0.45120713250E+02  0.43032493570E+02 -0.69315980880E+02  0.93351322821E+02  0.47000000000E+01 0.  1.
<mgrwt>
<rscale>  0 0.27426615E+03</rscale>
<asrwt>0</asrwt>
<pdfrwt beam="1">  1        3 0.10521829E-01 0.27426615E+03</pdfrwt>
<pdfrwt beam="2">  1       -3 0.42302541E-01 0.27426615E+03</pdfrwt>
<totfact> 0.95917193E+02</totfact>
</mgrwt>
</event>
<event>
 9    1  0.7984035E-001  0.2733267E+03  0.7818608E-02  0.1099391E+00
         -2   -1    0    0    0  501 -0.00000000000E+00  0.00000000000E+00  0.70145994279E+01  0.70145994279E+01  0.00000000000E+00 0.  1.
          2   -1    0    0  501    0  0.00000000000E+00 -0.00000000000E+00 -0.26625721254E+04  0.26625721254E+04  0.00000000000E+00 0.  1.
         35    2    1    2    0    0  0.00000000000E+00 -0.14210854715E-13 -0.26555575259E+04  0.26695867248E+04  0.27332674152E+03 0.  0.
         25    2    3    3    0    0 -0.21568660019E+02  0.49709061264E+02 -0.13407355090E+04  0.13477379083E+04  0.12605382373E+03 0.  0.
         25    2    3    3    0    0  0.21568660019E+02 -0.49709061264E+02 -0.13148220169E+04  0.13218488165E+04  0.12486456505E+03 0.  0.
          5    1    4    4  502    0 -0.53241128820E+02  0.17004842410E+02 -0.25758150897E+03  0.26361734811E+03  0.47000000000E+01 0. -1.
         -5    1    4    4    0  502  0.31672468801E+02  0.32704218854E+02 -0.10831540001E+04  0.10841205602E+04  0.47000000000E+01 0. -1.
          5    1    5    5  503    0  0.62196436170E+02 -0.63493088650E+02 -0.10212645110E+04  0.10251356302E+04  0.47000000000E+01 0.  1.
         -5    1    5    5    0  503 -0.40627776151E+02  0.13784027386E+02 -0.29355750595E+03  0.29671318627E+03  0.47000000000E+01 0.  1.
<mgrwt>
<rscale>  0 0.27332674E+03</rscale>
<asrwt>0</asrwt>
<pdfrwt beam="1">  1        2 0.40962679E+00 0.27332674E+03</pdfrwt>
<pdfrwt beam="2">  1       -2 0.10791683E-02 0.27332674E+03</pdfrwt>
<totfact> 0.62200869E+03</totfact>
</mgrwt>
</event>
<event>
 9    1  0.7984035E-001  0.2784166E+03  0.7818608E-02  0.1096557E+00
          2   -1    0    0  501    0  0.00000000000E+00  0.00000000000E+00  0.13892651422E+04  0.13892651422E+04  0.00000000000E+00 0. -1.
         -2   -1    0    0    0  501 -0.00000000000E+00 -0.00000000000E+00 -0.13949068642E+02  0.13949068642E+02  0.00000000000E+00 0. -1.
         35    2    1    2    0    0  0.00000000000E+00 -0.71054273576E-14  0.13753160735E+04  0.14032142108E+04  0.27841662903E+03 0.  0.
         25    2    3    3    0    0  0.16431107364E+02 -0.36057583792E+02  0.91357323883E+03  0.92331165259E+03  0.12774276679E+03 0.  0.
         25    2    3    3    0    0 -0.16431107364E+02  0.36057583792E+02  0.46174283470E+03  0.47990255822E+03  0.12461897670E+03 0.  0.
          5    1    4    4  502    0 -0.32456429274E+02  0.65259552128E+01  0.73747641661E+02  0.80974147376E+02  0.47000000000E+01 0.  1.
         -5    1    4    4    0  502  0.48887536638E+02 -0.42583539005E+02  0.83982559716E+03  0.84233750521E+03  0.47000000000E+01 0.  1.
          5    1    5    5  503    0  0.18091935980E+02  0.67396346235E+02  0.16106799187E+03  0.17559776091E+03  0.47000000000E+01 0. -1.
         -5    1    5    5    0  503 -0.34523043343E+02 -0.31338762444E+02  0.30067484284E+03  0.30430479731E+03  0.47000000000E+01 0. -1.
<mgrwt>
<rscale>  0 0.27841663E+03</rscale>
<asrwt>0</asrwt>
<pdfrwt beam="1">  1        2 0.21373299E+00 0.27841663E+03</pdfrwt>
<pdfrwt beam="2">  1       -2 0.21460117E-02 0.27841663E+03</pdfrwt>
<totfact> 0.10913677E+04</totfact>
</mgrwt>
</event>
<event>
 9    1  0.7984035E-001  0.2708909E+03  0.7818608E-02  0.1100771E+00
          2   -1    0    0  501    0  0.00000000000E+00  0.00000000000E+00  0.58906858217E+03  0.58906858217E+03  0.00000000000E+00 0.  1.
         -2   -1    0    0    0  501 -0.00000000000E+00 -0.00000000000E+00 -0.31143179047E+02  0.31143179047E+02  0.00000000000E+00 0.  1.
         35    2    1    2    0    0 -0.35527136788E-14 -0.71054273576E-14  0.55792540312E+03  0.62021176122E+03  0.27089088819E+03 0.  0.
         25    2    3    3    0    0 -0.70860223097E+01  0.44306243194E+02  0.21237875692E+03  0.25011406397E+03  0.12425398870E+03 0.  0.
         25    2    3    3    0    0  0.70860223097E+01 -0.44306243194E+02  0.34554664620E+03  0.37009769725E+03  0.12472596325E+03 0.  0.
          5    1    4    4  502    0 -0.36933551094E+02 -0.97287431155E+01  0.11878056507E+02  0.40272991761E+02  0.47000000000E+01 0.  1.
         -5    1    4    4    0  502  0.29847528784E+02  0.54034986309E+02  0.20050070041E+03  0.20984107221E+03  0.47000000000E+01 0.  1.
          5    1    5    5  503    0 -0.19797001507E+02  0.31007519709E+01  0.34103326408E+00  0.20585000247E+02  0.47000000000E+01 0. -1.
         -5    1    5    5    0  503  0.26883023817E+02 -0.47406995165E+02  0.34520561294E+03  0.34951269700E+03  0.47000000000E+01 0. -1.
<mgrwt>
<rscale>  0 0.27089089E+03</rscale>
<asrwt>0</asrwt>
<pdfrwt beam="1">  1        2 0.90625927E-01 0.27089089E+03</pdfrwt>
<pdfrwt beam="2">  1       -2 0.47912588E-02 0.27089089E+03</pdfrwt>
<totfact> 0.10712340E+04</totfact>
</mgrwt>
</event>
<event>
 9    1  0.7984035E-001  0.2681982E+03  0.7818608E-02  0.1102315E+00
          2   -1    0    0  501    0  0.00000000000E+00  0.00000000000E+00  0.85419326401E+03  0.85419326401E+03  0.00000000000E+00 0.  1.
         -2   -1    0    0    0  501 -0.00000000000E+00 -0.00000000000E+00 -0.21052103192E+02  0.21052103192E+02  0.00000000000E+00 0.  1.
         35    2    1    2    0    0  0.88817841970E-15  0.71054273576E-14  0.83314116081E+03  0.87524536720E+03  0.26819817106E+03 0.  0.
         25    2    3    3    0    0 -0.53492862976E+01 -0.31022082636E+02  0.53794809383E+03  0.55332239249E+03  0.12564447421E+03 0.  0.
         25    2    3    3    0    0  0.53492862976E+01  0.31022082636E+02  0.29519306698E+03  0.32192297471E+03  0.12451694814E+03 0.  0.
          5    1    4    4  502    0 -0.91032782589E+01 -0.79663824295E+02  0.31912852781E+03  0.32908099587E+03  0.47000000000E+01 0. -1.
         -5    1    4    4    0  502  0.37539919613E+01  0.48641741659E+02  0.21881956602E+03  0.22424139662E+03  0.47000000000E+01 0. -1.
          5    1    5    5  503    0 -0.44614649448E+01 -0.45176512794E+02  0.15969766193E+03  0.16609110513E+03  0.47000000000E+01 0.  1.
         -5    1    5    5    0  503  0.98107512424E+01  0.76198595430E+02  0.13549540506E+03  0.15583186958E+03  0.47000000000E+01 0.  1.
<mgrwt>
<rscale>  0 0.26819817E+03</rscale>
<asrwt>0</asrwt>
<pdfrwt beam="1">  1        2 0.13141432E+00 0.26819817E+03</pdfrwt>
<pdfrwt beam="2">  1       -2 0.32387858E-02 0.26819817E+03</pdfrwt>
<totfact> 0.12247780E+04</totfact>
</mgrwt>
</event>
<event>
 9    1  0.7984035E-001  0.2758124E+03  0.7818608E-02  0.1097998E+00
          2   -1    0    0  501    0  0.00000000000E+00  0.00000000000E+00  0.79901734329E+03  0.79901734329E+03  0.00000000000E+00 0.  1.
         -2   -1    0    0    0  501 -0.00000000000E+00 -0.00000000000E+00 -0.23801883268E+02  0.23801883268E+02  0.00000000000E+00 0.  1.
         35    2    1    2    0    0  0.00000000000E+00  0.00000000000E+00  0.77521546002E+03  0.82281922656E+03  0.27581238213E+03 0.  0.
         25    2    3    3    0    0  0.14025695709E+02  0.42153474057E+02  0.48678008191E+03  0.50558473057E+03  0.12917985959E+03 0.  0.
         25    2    3    3    0    0 -0.14025695709E+02 -0.42153474057E+02  0.28843537811E+03  0.31723449599E+03  0.12437492748E+03 0.  0.
          5    1    4    4  502    0 -0.40695765564E+02 -0.19166750106E+02  0.94572581206E+02  0.10483116312E+03  0.47000000000E+01 0. -1.
         -5    1    4    4    0  502  0.54721461273E+02  0.61320224163E+02  0.39220750070E+03  0.40075356745E+03  0.47000000000E+01 0. -1.
          5    1    5    5  503    0 -0.49305279243E+02 -0.48337604846E+02  0.80390715508E+02  0.10607682001E+03  0.47000000000E+01 0. -1.
         -5    1    5    5    0  503  0.35279583534E+02  0.61841307890E+01  0.20804466261E+03  0.21115767598E+03  0.47000000000E+01 0. -1.
<mgrwt>
<rscale>  0 0.27581238E+03</rscale>
<asrwt>0</asrwt>
<pdfrwt beam="1">  1        2 0.12292572E+00 0.27581238E+03</pdfrwt>
<pdfrwt beam="2">  1       -2 0.36618288E-02 0.27581238E+03</pdfrwt>
<totfact> 0.11121446E+04</totfact>
</mgrwt>
</event>
<event>
 9    1  0.7984035E-001  0.2767456E+03  0.7818608E-02  0.1097480E+00
          1   -1    0    0  501    0  0.00000000000E+00  0.00000000000E+00  0.29852484538E+03  0.29852484538E+03  0.00000000000E+00 0. -1.
         -1   -1    0    0    0  501 -0.00000000000E+00 -0.00000000000E+00 -0.64138798547E+02  0.64138798547E+02  0.00000000000E+00 0. -1.
         35    2    1    2    0    0 -0.71054273576E-14  0.17763568394E-14  0.23438604684E+03  0.36266364393E+03  0.27674555042E+03 0.  0.
         25    2    3    3    0    0 -0.57850230391E+02 -0.69290223221E+01  0.13941626791E+03  0.19608421233E+03  0.12496984461E+03 0.  0.
         25    2    3    3    0    0  0.57850230391E+02  0.69290223221E+01  0.94969778930E+02  0.16657943160E+03  0.12383370953E+03 0.  0.
          5    1    4    4  502    0 -0.82362187131E+02 -0.13864770538E+02  0.14696264536E+03  0.16910313676E+03  0.47000000000E+01 0.  1.
         -5    1    4    4    0  502  0.24511956740E+02  0.69357482155E+01 -0.75463774504E+01  0.26981075574E+02  0.47000000000E+01 0.  1.
          5    1    5    5  503    0  0.56285847435E+02 -0.41497254588E+02  0.13055788305E+02  0.71292793241E+02  0.47000000000E+01 0.  1.
         -5    1    5    5    0  503  0.15643829557E+01  0.48426276910E+02  0.81913990625E+02  0.95286638358E+02  0.47000000000E+01 0.  1.
<mgrwt>
<rscale>  0 0.27674555E+03</rscale>
<asrwt>0</asrwt>
<pdfrwt beam="1">  1        1 0.45926899E-01 0.27674555E+03</pdfrwt>
<pdfrwt beam="2">  1       -1 0.98675076E-02 0.27674555E+03</pdfrwt>
<totfact> 0.54527533E+03</totfact>
</mgrwt>
</event>
<event>
 9    1  0.7984035E-001  0.2745933E+03  0.7818608E-02  0.1098679E+00
         -2   -1    0    0    0  501 -0.00000000000E+00  0.00000000000E+00  0.11455951807E+02  0.11455951807E+02  0.00000000000E+00 0. -1.
          2   -1    0    0  501    0  0.00000000000E+00 -0.00000000000E+00 -0.16454656214E+04  0.16454656214E+04  0.00000000000E+00 0. -1.
         35    2    1    2    0    0  0.71054273576E-14  0.14210854715E-13 -0.16340096696E+04  0.16569215732E+04  0.27459333465E+03 0.  0.
         25    2    3    3    0    0 -0.27879401841E+02 -0.37585432916E+02 -0.69569098028E+03  0.70817980362E+03  0.12386592915E+03 0.  0.
         25    2    3    3    0    0  0.27879401841E+02  0.37585432916E+02 -0.93831868936E+03  0.94874176962E+03  0.13220838408E+03 0.  0.
          5    1    4    4  502    0 -0.19001488361E+01  0.44774622181E+02 -0.27804283901E+03  0.28167053038E+03  0.47000000000E+01 0. -1.
         -5    1    4    4    0  502 -0.25979253005E+02 -0.82360055096E+02 -0.41764814127E+03  0.42650927325E+03  0.47000000000E+01 0. -1.
          5    1    5    5  503    0  0.62020624693E+02  0.56127510490E+02 -0.81660281459E+03  0.82088921427E+03  0.47000000000E+01 0. -1.
         -5    1    5    5    0  503 -0.34141222852E+02 -0.18542077574E+02 -0.12171587477E+03  0.12785255535E+03  0.47000000000E+01 0. -1.
<mgrwt>
<rscale>  0 0.27459333E+03</rscale>
<asrwt>0</asrwt>
<pdfrwt beam="1">  1        2 0.25314860E+00 0.27459333E+03</pdfrwt>
<pdfrwt beam="2">  1       -2 0.17624538E-02 0.27459333E+03</pdfrwt>
<totfact> 0.10630418E+04</totfact>
</mgrwt>
</event>
<event>
 9    1  0.7984035E-001  0.2784596E+03  0.7818608E-02  0.1096533E+00
         -2   -1    0    0    0  501 -0.00000000000E+00  0.00000000000E+00  0.83826117809E+01  0.83826117809E+01  0.00000000000E+00 0. -1.
          2   -1    0    0  501    0  0.00000000000E+00 -0.00000000000E+00 -0.23125172210E+04  0.23125172210E+04  0.00000000000E+00 0. -1.
         35    2    1    2    0    0  0.00000000000E+00  0.00000000000E+00 -0.23041346092E+04  0.23208998327E+04  0.27845957768E+03 0.  0.
         25    2    3    3    0    0 -0.54738154472E+02 -0.23977847610E+02 -0.10438605618E+04  0.10530422044E+04  0.12522702951E+03 0.  0.
         25    2    3    3    0    0  0.54738154472E+02  0.23977847610E+02 -0.12602740473E+04  0.12678576283E+04  0.12490431799E+03 0.  0.
          5    1    4    4  502    0 -0.66543632446E+01 -0.69764193540E+02 -0.62359933635E+03  0.62754246513E+03  0.47000000000E+01 0. -1.
         -5    1    4    4    0  502 -0.48083791227E+02  0.45786345930E+02 -0.42026122550E+03  0.42549973926E+03  0.47000000000E+01 0. -1.
          5    1    5    5  503    0  0.66030431843E+02  0.65085025374E+02 -0.97001017579E+03  0.97444235827E+03  0.47000000000E+01 0. -1.
         -5    1    5    5    0  503 -0.11292277372E+02 -0.41107177764E+02 -0.29026387154E+03  0.29341527007E+03  0.47000000000E+01 0. -1.
<mgrwt>
<rscale>  0 0.27845958E+03</rscale>
<asrwt>0</asrwt>
<pdfrwt beam="1">  1        2 0.35577189E+00 0.27845958E+03</pdfrwt>
<pdfrwt beam="2">  1       -2 0.12896326E-02 0.27845958E+03</pdfrwt>
<totfact> 0.74607514E+03</totfact>
</mgrwt>
</event>
<event>
 9    1  0.7984035E-001  0.2862857E+03  0.7818608E-02  0.1092305E+00
          1   -1    0    0  501    0  0.00000000000E+00  0.00000000000E+00  0.24887480700E+03  0.24887480700E+03  0.00000000000E+00 0. -1.
         -1   -1    0    0    0  501 -0.00000000000E+00 -0.00000000000E+00 -0.82330058943E+02  0.82330058943E+02  0.00000000000E+00 0. -1.
         35    2    1    2    0    0 -0.71054273576E-14  0.71054273576E-14  0.16654474806E+03  0.33120486594E+03  0.28628571414E+03 0.  0.
         25    2    3    3    0    0  0.34902480722E+02 -0.68860136712E+01  0.14236669652E+02  0.13083204663E+03  0.12509492923E+03 0.  0.
         25    2    3    3    0    0 -0.34902480722E+02  0.68860136712E+01  0.15230807841E+03  0.20037281931E+03  0.12524342548E+03 0.  0.
          5    1    4    4  502    0  0.41006793058E+02 -0.50950129251E+02 -0.26123269997E+02  0.70583199013E+02  0.47000000000E+01 0. -1.
         -5    1    4    4    0  502 -0.61043123361E+01  0.44064115580E+02  0.40359939648E+02  0.60248847619E+02  0.47000000000E+01 0. -1.
          5    1    5    5  503    0  0.30368593003E+02 -0.39455689713E+02  0.58418288520E+02  0.76901165955E+02  0.47000000000E+01 0. -1.
         -5    1    5    5    0  503 -0.65271073725E+02  0.46341703384E+02  0.93889789887E+02  0.12347165336E+03  0.47000000000E+01 0. -1.
<mgrwt>
<rscale>  0 0.28628571E+03</rscale>
<asrwt>0</asrwt>
<pdfrwt beam="1">  1        1 0.38288431E-01 0.28628571E+03</pdfrwt>
<pdfrwt beam="2">  1       -1 0.12666163E-01 0.28628571E+03</pdfrwt>
<totfact> 0.46506357E+03</totfact>
</mgrwt>
</event>
<event>
 9    1  0.7984035E-001  0.2728481E+03  0.7818608E-02  0.1099661E+00
         -2   -1    0    0    0  501 -0.00000000000E+00  0.00000000000E+00  0.77288269144E+02  0.77288269144E+02  0.00000000000E+00 0.  1.
          2   -1    0    0  501    0  0.00000000000E+00 -0.00000000000E+00 -0.24080649857E+03  0.24080649857E+03  0.00000000000E+00 0.  1.
         35    2    1    2    0    0  0.00000000000E+00 -0.71054273576E-14 -0.16351822943E+03  0.31809476772E+03  0.27284807108E+03 0.  0.
         25    2    3    3    0    0 -0.42603981084E+01  0.16459506416E+02 -0.14164004426E+03  0.19037538622E+03  0.12606275896E+03 0.  0.
         25    2    3    3    0    0  0.42603981084E+01 -0.16459506416E+02 -0.21878185171E+02  0.12771938150E+03  0.12467766071E+03 0.  0.
          5    1    4    4  502    0 -0.60747209997E+02 -0.78358259806E+01 -0.94675546422E+02  0.11285908374E+03  0.47000000000E+01 0. -1.
         -5    1    4    4    0  502  0.56486811889E+02  0.24295332397E+02 -0.46964497837E+02  0.77516302484E+02  0.47000000000E+01 0. -1.
          5    1    5    5  503    0  0.18923682200E+02  0.54288284801E+01  0.48430408860E+02  0.52489736416E+02  0.47000000000E+01 0.  1.
         -5    1    5    5    0  503 -0.14663284091E+02 -0.21888334896E+02 -0.70308594031E+02  0.75229645084E+02  0.47000000000E+01 0.  1.
<mgrwt>
<rscale>  0 0.27284807E+03</rscale>
<asrwt>0</asrwt>
<pdfrwt beam="1">  1        2 0.37047153E-01 0.27284807E+03</pdfrwt>
<pdfrwt beam="2">  1       -2 0.11890503E-01 0.27284807E+03</pdfrwt>
<totfact> 0.69165067E+03</totfact>
</mgrwt>
</event>
<event>
 9    1  0.7984035E-001  0.2737462E+03  0.7818608E-02  0.1099154E+00
          2   -1    0    0  501    0  0.00000000000E+00  0.00000000000E+00  0.70414303332E+02  0.70414303332E+02  0.00000000000E+00 0. -1.
         -2   -1    0    0    0  501 -0.00000000000E+00 -0.00000000000E+00 -0.26605744681E+03  0.26605744681E+03  0.00000000000E+00 0. -1.
         35    2    1    2    0    0 -0.35527136788E-14  0.00000000000E+00 -0.19564314348E+03  0.33647175015E+03  0.27374623112E+03 0.  0.
         25    2    3    3    0    0  0.15473212262E+02 -0.35565553025E+02 -0.15021091944E+03  0.19819045057E+03  0.12333614846E+03 0.  0.
         25    2    3    3    0    0 -0.15473212262E+02  0.35565553025E+02 -0.45432224041E+02  0.13828129958E+03  0.12471287814E+03 0.  0.
          5    1    4    4  502    0 -0.36385116752E+00  0.45474395753E+02 -0.42789513246E+02  0.62618571531E+02  0.47000000000E+01 0.  1.
         -5    1    4    4    0  502  0.15837063430E+02 -0.81039948778E+02 -0.10742140619E+03  0.13557187903E+03  0.47000000000E+01 0.  1.
          5    1    5    5  503    0 -0.53107691090E+02  0.63759083201E+02 -0.32919684347E+02  0.89394872118E+02  0.47000000000E+01 0. -1.
         -5    1    5    5    0  503  0.37634478828E+02 -0.28193530176E+02 -0.12512539695E+02  0.48886427463E+02  0.47000000000E+01 0. -1.
<mgrwt>
<rscale>  0 0.27374623E+03</rscale>
<asrwt>0</asrwt>
<pdfrwt beam="1">  1        2 0.10832970E-01 0.27374623E+03</pdfrwt>
<pdfrwt beam="2">  1       -2 0.40931915E-01 0.27374623E+03</pdfrwt>
<totfact> 0.32893569E+03</totfact>
</mgrwt>
</event>
<event>
 9    1  0.7984035E-001  0.2752524E+03  0.7818608E-02  0.1098311E+00
          1   -1    0    0  501    0  0.00000000000E+00  0.00000000000E+00  0.21850066192E+03  0.21850066192E+03  0.00000000000E+00 0.  1.
         -1   -1    0    0    0  501 -0.00000000000E+00 -0.00000000000E+00 -0.86686072718E+02  0.86686072718E+02  0.00000000000E+00 0.  1.
         35    2    1    2    0    0  0.00000000000E+00  0.00000000000E+00  0.13181458920E+03  0.30518673463E+03  0.27525235162E+03 0.  0.
         25    2    3    3    0    0  0.33555170039E+02 -0.46125658242E+02  0.78353419434E+02  0.15825685769E+03  0.12510974735E+03 0.  0.
         25    2    3    3    0    0 -0.33555170039E+02  0.46125658242E+02  0.53461169764E+02  0.14692987695E+03  0.12440565213E+03 0.  0.
          5    1    4    4  502    0  0.22817718143E+01 -0.72930178701E+02  0.89266072503E+02  0.11538864393E+03  0.47000000000E+01 0.  1.
         -5    1    4    4    0  502  0.31273398225E+02  0.26804520459E+02 -0.10912653070E+02  0.42868213756E+02  0.47000000000E+01 0.  1.
          5    1    5    5  503    0 -0.26450282066E+02  0.87210766398E+02  0.20390838506E+02  0.93505141527E+02  0.47000000000E+01 0.  1.
         -5    1    5    5    0  503 -0.71048879732E+01 -0.41085108156E+02  0.33070331258E+02  0.53424735421E+02  0.47000000000E+01 0.  1.
<mgrwt>
<rscale>  0 0.27525235E+03</rscale>
<asrwt>0</asrwt>
<pdfrwt beam="1">  1        1 0.33615486E-01 0.27525235E+03</pdfrwt>
<pdfrwt beam="2">  1       -1 0.13336319E-01 0.27525235E+03</pdfrwt>
<totfact> 0.50452899E+03</totfact>
</mgrwt>
</event>
<event>
 9    1  0.7984035E-001  0.2784421E+03  0.7818608E-02  0.1096543E+00
         -1   -1    0    0    0  501 -0.00000000000E+00  0.00000000000E+00  0.17328982446E+02  0.17328982446E+02  0.00000000000E+00 0.  1.
          1   -1    0    0  501    0  0.00000000000E+00 -0.00000000000E+00 -0.11185016231E+04  0.11185016231E+04  0.00000000000E+00 0.  1.
         35    2    1    2    0    0  0.00000000000E+00  0.35527136788E-14 -0.11011726407E+04  0.11358306056E+04  0.27844205855E+03 0.  0.
         25    2    3    3    0    0 -0.54412497534E+02 -0.27730526135E+02 -0.59849299184E+03  0.61427726302E+03  0.12414907416E+03 0.  0.
         25    2    3    3    0    0  0.54412497534E+02  0.27730526135E+02 -0.50267964884E+03  0.52155334256E+03  0.12490539541E+03 0.  0.
          5    1    4    4  502    0 -0.48769247873E+02 -0.45583692350E+02 -0.58895508377E+03  0.59274488041E+03  0.47000000000E+01 0.  1.
         -5    1    4    4    0  502 -0.56432496608E+01  0.17853166215E+02 -0.95379080633E+01  0.21532382610E+02  0.47000000000E+01 0.  1.
          5    1    5    5  503    0  0.89599987824E+02 -0.16417038189E+01 -0.27544723357E+03  0.28969660248E+03  0.47000000000E+01 0. -1.
         -5    1    5    5    0  503 -0.35187490291E+02  0.29372229954E+02 -0.22723241528E+03  0.23185674008E+03  0.47000000000E+01 0. -1.
<mgrwt>
<rscale>  0 0.27844206E+03</rscale>
<asrwt>0</asrwt>
<pdfrwt beam="1">  1        1 0.17207717E+00 0.27844206E+03</pdfrwt>
<pdfrwt beam="2">  1       -1 0.26659974E-02 0.27844206E+03</pdfrwt>
<totfact> 0.58767581E+03</totfact>
</mgrwt>
</event>
<event>
 9    1  0.7984035E-001  0.2733932E+03  0.7818608E-02  0.1099353E+00
          1   -1    0    0  501    0  0.00000000000E+00  0.00000000000E+00  0.70459119343E+03  0.70459119343E+03  0.00000000000E+00 0. -1.
         -1   -1    0    0    0  501 -0.00000000000E+00 -0.00000000000E+00 -0.26520277445E+02  0.26520277445E+02  0.00000000000E+00 0. -1.
         35    2    1    2    0    0  0.00000000000E+00  0.53290705182E-14  0.67807091598E+03  0.73111147087E+03  0.27339315233E+03 0.  0.
         25    2    3    3    0    0  0.16865415272E+02 -0.43726680626E+01  0.48279140790E+03  0.49968843132E+03  0.12766135827E+03 0.  0.
         25    2    3    3    0    0 -0.16865415272E+02  0.43726680626E+01  0.19527950808E+03  0.23142303955E+03  0.12295923918E+03 0.  0.
          5    1    4    4  502    0  0.34625475100E+02  0.51323479387E+02  0.16024244037E+03  0.17185096089E+03  0.47000000000E+01 0.  1.
         -5    1    4    4    0  502 -0.17760059828E+02 -0.55696147450E+02  0.32254896753E+03  0.32783747043E+03  0.47000000000E+01 0.  1.
          5    1    5    5  503    0 -0.13699844337E+02 -0.57937695846E+01  0.21115922499E+03  0.21173464950E+03  0.47000000000E+01 0. -1.
         -5    1    5    5    0  503 -0.31655709349E+01  0.10166437647E+02 -0.15879716906E+02  0.19688390051E+02  0.47000000000E+01 0. -1.
<mgrwt>
<rscale>  0 0.27339315E+03</rscale>
<asrwt>0</asrwt>
<pdfrwt beam="1">  1        1 0.10839863E+00 0.27339315E+03</pdfrwt>
<pdfrwt beam="2">  1       -1 0.40800432E-02 0.27339315E+03</pdfrwt>
<totfact> 0.66462645E+03</totfact>
</mgrwt>
</event>
<event>
 9    1  0.7984035E-001  0.2740983E+03  0.7818608E-02  0.1098957E+00
         -2   -1    0    0    0  501 -0.00000000000E+00  0.00000000000E+00  0.31583656563E+02  0.31583656563E+02  0.00000000000E+00 0.  1.
          2   -1    0    0  501    0  0.00000000000E+00 -0.00000000000E+00 -0.59468946381E+03  0.59468946381E+03  0.00000000000E+00 0.  1.
         35    2    1    2    0    0  0.00000000000E+00  0.00000000000E+00 -0.56310580725E+03  0.62627312037E+03  0.27409828738E+03 0.  0.
         25    2    3    3    0    0  0.95123719478E+00 -0.34791720847E+02 -0.18135594321E+03  0.22306359360E+03  0.12512401832E+03 0.  0.
         25    2    3    3    0    0 -0.95123719478E+00  0.34791720847E+02 -0.38174986403E+03  0.40320952677E+03  0.12503437567E+03 0.  0.
          5    1    4    4  502    0 -0.93020976184E+01 -0.38534011236E+02  0.13792848631E+01  0.39942351818E+02  0.47000000000E+01 0.  1.
         -5    1    4    4    0  502  0.10253334813E+02  0.37422903891E+01 -0.18273522808E+03  0.18312124178E+03  0.47000000000E+01 0.  1.
          5    1    5    5  503    0  0.26093952285E+02  0.62692295023E+02 -0.33678842663E+03  0.34359824288E+03  0.47000000000E+01 0.  1.
         -5    1    5    5    0  503 -0.27045189480E+02 -0.27900574176E+02 -0.44961437406E+02  0.59611283889E+02  0.47000000000E+01 0.  1.
<mgrwt>
<rscale>  0 0.27409829E+03</rscale>
<asrwt>0</asrwt>
<pdfrwt beam="1">  1        2 0.91490672E-01 0.27409829E+03</pdfrwt>
<pdfrwt beam="2">  1       -2 0.48590249E-02 0.27409829E+03</pdfrwt>
<totfact> 0.10376649E+04</totfact>
</mgrwt>
</event>
<event>
 9    1  0.7984035E-001  0.2786604E+03  0.7818608E-02  0.1096423E+00
          2   -1    0    0  501    0  0.00000000000E+00  0.00000000000E+00  0.59624201063E+03  0.59624201063E+03  0.00000000000E+00 0. -1.
         -2   -1    0    0    0  501 -0.00000000000E+00 -0.00000000000E+00 -0.32558756793E+02  0.32558756793E+02  0.00000000000E+00 0. -1.
         35    2    1    2    0    0  0.35527136788E-14  0.71054273576E-14  0.56368325383E+03  0.62880076742E+03  0.27866035681E+03 0.  0.
         25    2    3    3    0    0  0.19138095573E+02  0.32562868156E+02  0.39165007925E+03  0.41295673026E+03  0.12536693905E+03 0.  0.
         25    2    3    3    0    0 -0.19138095573E+02 -0.32562868156E+02  0.17203317458E+03  0.21584403716E+03  0.12476629407E+03 0.  0.
          5    1    4    4  502    0  0.30909632406E+02  0.77812818293E+02  0.24389994540E+03  0.25791377131E+03  0.47000000000E+01 0.  1.
         -5    1    4    4    0  502 -0.11771536834E+02 -0.45249950137E+02  0.14775013385E+03  0.15504295895E+03  0.47000000000E+01 0.  1.
          5    1    5    5  503    0 -0.44954946532E+02 -0.58674776639E+02  0.16099353589E+03  0.17721367112E+03  0.47000000000E+01 0.  1.
         -5    1    5    5    0  503  0.25816850959E+02  0.26111908483E+02  0.11039638688E+02  0.38630366040E+02  0.47000000000E+01 0.  1.
<mgrwt>
<rscale>  0 0.27866036E+03</rscale>
<asrwt>0</asrwt>
<pdfrwt beam="1">  1        2 0.91729532E-01 0.27866036E+03</pdfrwt>
<pdfrwt beam="2">  1       -2 0.50090399E-02 0.27866036E+03</pdfrwt>
<totfact> 0.98845262E+03</totfact>
</mgrwt>
</event>
<event>
 9    1  0.7984035E-001  0.2764337E+03  0.7818608E-02  0.1097653E+00
         -1   -1    0    0    0  501 -0.00000000000E+00  0.00000000000E+00  0.14428932815E+03  0.14428932815E+03  0.00000000000E+00 0.  1.
          1   -1    0    0  501    0  0.00000000000E+00 -0.00000000000E+00 -0.13239992761E+03  0.13239992761E+03  0.00000000000E+00 0.  1.
         35    2    1    2    0    0  0.00000000000E+00  0.71054273576E-14  0.11889400533E+02  0.27668925576E+03  0.27643369261E+03 0.  0.
         25    2    3    3    0    0 -0.27473252862E+02 -0.85276415913E+01  0.55251875897E+02  0.13853826463E+03  0.12374401271E+03 0.  0.
         25    2    3    3    0    0  0.27473252862E+02  0.85276415913E+01 -0.43362475364E+02  0.13815099113E+03  0.12797613757E+03 0.  0.
          5    1    4    4  502    0  0.24064498612E+01 -0.63759590019E+02  0.25181815412E+02  0.68755291780E+02  0.47000000000E+01 0.  1.
         -5    1    4    4    0  502 -0.29879702723E+02  0.55231948428E+02  0.30070060485E+02  0.69782972848E+02  0.47000000000E+01 0.  1.
          5    1    5    5  503    0  0.16154710141E+02  0.64246201992E+02  0.13022418183E+00  0.66412770522E+02  0.47000000000E+01 0.  1.
         -5    1    5    5    0  503  0.11318542721E+02 -0.55718560400E+02 -0.43492699546E+02  0.71738220609E+02  0.47000000000E+01 0.  1.
<mgrwt>
<rscale>  0 0.27643369E+03</rscale>
<asrwt>0</asrwt>
<pdfrwt beam="1">  1        1 0.20369219E-01 0.27643369E+03</pdfrwt>
<pdfrwt beam="2">  1       -1 0.22198358E-01 0.27643369E+03</pdfrwt>
<totfact> 0.42085408E+03</totfact>
</mgrwt>
</event>
<event>
 9    1  0.7984035E-001  0.2599681E+03  0.7818608E-02  0.1107162E+00
          3   -1    0    0  501    0  0.00000000000E+00  0.00000000000E+00  0.21656290332E+04  0.21656290332E+04  0.00000000000E+00 0. -1.
         -3   -1    0    0    0  501 -0.00000000000E+00 -0.00000000000E+00 -0.78018254669E+01  0.78018254669E+01  0.00000000000E+00 0. -1.
         35    2    1    2    0    0 -0.71054273576E-14  0.00000000000E+00  0.21578272078E+04  0.21734308587E+04  0.25996814992E+03 0.  0.
         25    2    3    3    0    0 -0.12399419097E+02  0.17590849161E+02  0.85945588157E+03  0.86886985639E+03  0.12572681263E+03 0.  0.
         25    2    3    3    0    0  0.12399419097E+02 -0.17590849161E+02  0.12983713262E+04  0.13045610023E+04  0.12509246374E+03 0.  0.
          5    1    4    4  502    0  0.56944301844E+01  0.53426732806E+02  0.17270993175E+03  0.18093549358E+03  0.47000000000E+01 0.  1.
         -5    1    4    4    0  502 -0.18093849282E+02 -0.35835883645E+02  0.68674594982E+03  0.68793436281E+03  0.47000000000E+01 0.  1.
          5    1    5    5  503    0 -0.54073208866E+02 -0.24185505117E+02  0.67102297809E+03  0.67364885341E+03  0.47000000000E+01 0. -1.
         -5    1    5    5    0  503  0.66472627963E+02  0.65946559552E+01  0.62734834810E+03  0.63091214889E+03  0.47000000000E+01 0. -1.
<mgrwt>
<rscale>  0 0.25996815E+03</rscale>
<asrwt>0</asrwt>
<pdfrwt beam="1">  1        3 0.33317322E+00 0.25996815E+03</pdfrwt>
<pdfrwt beam="2">  1       -3 0.12002826E-02 0.25996815E+03</pdfrwt>
<totfact> 0.15638972E+02</totfact>
</mgrwt>
</event>
<event>
 9    1  0.7984035E-001  0.2783845E+03  0.7818608E-02  0.1096575E+00
         -2   -1    0    0    0  501 -0.00000000000E+00  0.00000000000E+00  0.16960605641E+02  0.16960605641E+02  0.00000000000E+00 0. -1.
          2   -1    0    0  501    0  0.00000000000E+00 -0.00000000000E+00 -0.11423226721E+04  0.11423226721E+04  0.00000000000E+00 0. -1.
         35    2    1    2    0    0 -0.71054273576E-14  0.71054273576E-14 -0.11253620664E+04  0.11592832777E+04  0.27838451362E+03 0.  0.
         25    2    3    3    0    0 -0.13797443066E+02  0.41718490819E+02 -0.40801535263E+03  0.42909941169E+03  0.12537533734E+03 0.  0.
         25    2    3    3    0    0  0.13797443066E+02 -0.41718490819E+02 -0.71734671381E+03  0.73018386604E+03  0.12904018174E+03 0.  0.
          5    1    4    4  502    0  0.53656960175E+02  0.10984524264E+02 -0.12604498399E+03  0.13751057100E+03  0.47000000000E+01 0. -1.
         -5    1    4    4    0  502 -0.67454403242E+02  0.30733966555E+02 -0.28197036865E+03  0.29158884069E+03  0.47000000000E+01 0. -1.
          5    1    5    5  503    0 -0.40510706438E+02 -0.50348537477E+02 -0.55376840416E+03  0.55754607703E+03  0.47000000000E+01 0.  1.
         -5    1    5    5    0  503  0.54308149504E+02  0.86300466579E+01 -0.16357830965E+03  0.17263778901E+03  0.47000000000E+01 0.  1.
<mgrwt>
<rscale>  0 0.27838451E+03</rscale>
<asrwt>0</asrwt>
<pdfrwt beam="1">  1        2 0.17574200E+00 0.27838451E+03</pdfrwt>
<pdfrwt beam="2">  1       -2 0.26093232E-02 0.27838451E+03</pdfrwt>
<totfact> 0.11237390E+04</totfact>
</mgrwt>
</event>
<event>
 9    1  0.7984035E-001  0.2776557E+03  0.7818608E-02  0.1096976E+00
          1   -1    0    0  501    0  0.00000000000E+00  0.00000000000E+00  0.18611730954E+03  0.18611730954E+03  0.00000000000E+00 0. -1.
         -1   -1    0    0    0  501 -0.00000000000E+00 -0.00000000000E+00 -0.10355392814E+03  0.10355392814E+03  0.00000000000E+00 0. -1.
         35    2    1    2    0    0 -0.71054273576E-14  0.00000000000E+00  0.82563381404E+02  0.28967123768E+03  0.27765574727E+03 0.  0.
         25    2    3    3    0    0 -0.30849807200E+02 -0.44468874043E+02  0.73115006628E+02  0.15483764957E+03  0.12529845238E+03 0.  0.
         25    2    3    3    0    0  0.30849807200E+02  0.44468874043E+02  0.94483747768E+01  0.13483358811E+03  0.12313258437E+03 0.  0.
          5    1    4    4  502    0 -0.15419300058E+02 -0.84993977904E+02  0.25334165277E+02  0.90142337581E+02  0.47000000000E+01 0.  1.
         -5    1    4    4    0  502 -0.15430507142E+02  0.40525103862E+02  0.47780841351E+02  0.64695311993E+02  0.47000000000E+01 0.  1.
          5    1    5    5  503    0  0.66630703857E+02  0.38293671467E+01 -0.23924967637E+02  0.71054970450E+02  0.47000000000E+01 0.  1.
         -5    1    5    5    0  503 -0.35780896658E+02  0.40639506896E+02  0.33373342414E+02  0.63778617657E+02  0.47000000000E+01 0.  1.
<mgrwt>
<rscale>  0 0.27765575E+03</rscale>
<asrwt>0</asrwt>
<pdfrwt beam="1">  1        1 0.28633432E-01 0.27765575E+03</pdfrwt>
<pdfrwt beam="2">  1       -1 0.15931374E-01 0.27765575E+03</pdfrwt>
<totfact> 0.46617491E+03</totfact>
</mgrwt>
</event>
<event>
 9    1  0.7984035E-001  0.2805501E+03  0.7818608E-02  0.1095389E+00
          2   -1    0    0  501    0  0.00000000000E+00  0.00000000000E+00  0.25491615014E+03  0.25491615014E+03  0.00000000000E+00 0. -1.
         -2   -1    0    0    0  501 -0.00000000000E+00 -0.00000000000E+00 -0.77190436916E+02  0.77190436916E+02  0.00000000000E+00 0. -1.
         35    2    1    2    0    0  0.17763568394E-14  0.35527136788E-14  0.17772571323E+03  0.33210658706E+03  0.28055009539E+03 0.  0.
         25    2    3    3    0    0 -0.12150971999E+02  0.19289264506E+02  0.19655144133E+02  0.12899155491E+03  0.12543035797E+03 0.  0.
         25    2    3    3    0    0  0.12150971999E+02 -0.19289264506E+02  0.15807056909E+03  0.20311503215E+03  0.12549776741E+03 0.  0.
          5    1    4    4  502    0 -0.49036521419E+01  0.17413994477E+01 -0.53147173927E+02  0.53607745455E+02  0.47000000000E+01 0. -1.
         -5    1    4    4    0  502 -0.72473198567E+01  0.17547865059E+02  0.72802318060E+02  0.75383809456E+02  0.47000000000E+01 0. -1.
          5    1    5    5  503    0  0.60531855791E+02 -0.67404807543E+01  0.35479376500E+02  0.70642875105E+02  0.47000000000E+01 0. -1.
         -5    1    5    5    0  503 -0.48380883792E+02 -0.12548783752E+02  0.12259119259E+03  0.13247215704E+03  0.47000000000E+01 0. -1.
<mgrwt>
<rscale>  0 0.28055010E+03</rscale>
<asrwt>0</asrwt>
<pdfrwt beam="1">  1        2 0.39217869E-01 0.28055010E+03</pdfrwt>
<pdfrwt beam="2">  1       -2 0.11875452E-01 0.28055010E+03</pdfrwt>
<totfact> 0.65234588E+03</totfact>
</mgrwt>
</event>
<event>
 9    1  0.7984035E-001  0.2617136E+03  0.7818608E-02  0.1106118E+00
         -2   -1    0    0    0  501 -0.00000000000E+00  0.00000000000E+00  0.28884885880E+02  0.28884885880E+02  0.00000000000E+00 0. -1.
          2   -1    0    0  501    0  0.00000000000E+00 -0.00000000000E+00 -0.59281856420E+03  0.59281856420E+03  0.00000000000E+00 0. -1.
         35    2    1    2    0    0  0.00000000000E+00 -0.17763568394E-14 -0.56393367832E+03  0.62170345008E+03  0.26171355773E+03 0.  0.
         25    2    3    3    0    0  0.11426101678E+02  0.63232727491E+01 -0.36792581614E+03  0.38891438904E+03  0.12535731427E+03 0.  0.
         25    2    3    3    0    0 -0.11426101678E+02 -0.63232727491E+01 -0.19600786217E+03  0.23278906104E+03  0.12490446480E+03 0.  0.
          5    1    4    4  502    0 -0.20179908538E+02 -0.23256481111E+02 -0.32911426555E+03  0.33058490954E+03  0.47000000000E+01 0.  1.
         -5    1    4    4    0  502  0.31606010216E+02  0.29579753860E+02 -0.38811550590E+02  0.58329479505E+02  0.47000000000E+01 0.  1.
          5    1    5    5  503    0  0.49669575574E+02 -0.16200163189E+02 -0.43537724099E+02  0.68169901311E+02  0.47000000000E+01 0. -1.
         -5    1    5    5    0  503 -0.61095677252E+02  0.98768904397E+01 -0.15247013808E+03  0.16461915972E+03  0.47000000000E+01 0. -1.
<mgrwt>
<rscale>  0 0.26171356E+03</rscale>
<asrwt>0</asrwt>
<pdfrwt beam="1">  1        2 0.91202855E-01 0.26171356E+03</pdfrwt>
<pdfrwt beam="2">  1       -2 0.44438286E-02 0.26171356E+03</pdfrwt>
<totfact> 0.11900133E+04</totfact>
</mgrwt>
</event>
<event>
 9    1  0.7984035E-001  0.2714146E+03  0.7818608E-02  0.1100473E+00
          2   -1    0    0  501    0  0.00000000000E+00  0.00000000000E+00  0.24994886277E+04  0.24994886277E+04  0.00000000000E+00 0.  1.
         -2   -1    0    0    0  501 -0.00000000000E+00 -0.00000000000E+00 -0.73680953749E+01  0.73680953749E+01  0.00000000000E+00 0.  1.
         35    2    1    2    0    0 -0.35527136788E-14  0.00000000000E+00  0.24921205324E+04  0.25068567231E+04  0.27141459502E+03 0.  0.
         25    2    3    3    0    0  0.28695749732E+02  0.43838295525E+02  0.13176311691E+04  0.13245553884E+04  0.12469898605E+03 0.  0.
         25    2    3    3    0    0 -0.28695749732E+02 -0.43838295525E+02  0.11744893633E+04  0.11823013347E+04  0.12516365002E+03 0.  0.
          5    1    4    4  502    0  0.49526966093E+02 -0.24614281230E+02  0.80801237309E+03  0.80991658106E+03  0.47000000000E+01 0. -1.
         -5    1    4    4    0  502 -0.20831216362E+02  0.68452576755E+02  0.50961879599E+03  0.51463880739E+03  0.47000000000E+01 0. -1.
          5    1    5    5  503    0 -0.12760676036E+02  0.12398741188E+02  0.23636983830E+02  0.29955978377E+02  0.47000000000E+01 0. -1.
         -5    1    5    5    0  503 -0.15935073695E+02 -0.56237036712E+02  0.11508523795E+04  0.11523453563E+04  0.47000000000E+01 0. -1.
<mgrwt>
<rscale>  0 0.27141460E+03</rscale>
<asrwt>0</asrwt>
<pdfrwt beam="1">  1        2 0.38453604E+00 0.27141460E+03</pdfrwt>
<pdfrwt beam="2">  1       -2 0.11335551E-02 0.27141460E+03</pdfrwt>
<totfact> 0.71295186E+03</totfact>
</mgrwt>
</event>
<event>
 9    1  0.7984035E-001  0.2735198E+03  0.7818608E-02  0.1099282E+00
         -2   -1    0    0    0  501 -0.00000000000E+00  0.00000000000E+00  0.11759272070E+03  0.11759272070E+03  0.00000000000E+00 0. -1.
          2   -1    0    0  501    0  0.00000000000E+00 -0.00000000000E+00 -0.15905126980E+03  0.15905126980E+03  0.00000000000E+00 0. -1.
         35    2    1    2    0    0  0.00000000000E+00  0.71054273576E-14 -0.41458549101E+02  0.27664399051E+03  0.27351980950E+03 0.  0.
         25    2    3    3    0    0  0.51452997966E+02 -0.21662262631E+02 -0.17673062429E+02  0.13787492613E+03  0.12482184703E+03 0.  0.
         25    2    3    3    0    0 -0.51452997966E+02  0.21662262631E+02 -0.23785486672E+02  0.13876906438E+03  0.12479759305E+03 0.  0.
          5    1    4    4  502    0 -0.11555427440E+01  0.45008036607E+01 -0.63108053143E+02  0.63453202316E+02  0.47000000000E+01 0.  1.
         -5    1    4    4    0  502  0.52608540710E+02 -0.26163066292E+02  0.45434990714E+02  0.74421723809E+02  0.47000000000E+01 0.  1.
          5    1    5    5  503    0 -0.36723626515E+02 -0.49677484864E+02 -0.22016366411E+02  0.65751712044E+02  0.47000000000E+01 0.  1.
         -5    1    5    5    0  503 -0.14729371451E+02  0.71339747495E+02 -0.17691202616E+01  0.73017352338E+02  0.47000000000E+01 0.  1.
<mgrwt>
<rscale>  0 0.27351981E+03</rscale>
<asrwt>0</asrwt>
<pdfrwt beam="1">  1        2 0.24469426E-01 0.27351981E+03</pdfrwt>
<pdfrwt beam="2">  1       -2 0.18091188E-01 0.27351981E+03</pdfrwt>
<totfact> 0.54612413E+03</totfact>
</mgrwt>
</event>
<event>
 9    1  0.7984035E-001  0.2762636E+03  0.7818608E-02  0.1097747E+00
         -1   -1    0    0    0  501 -0.00000000000E+00  0.00000000000E+00  0.98881108253E+02  0.98881108253E+02  0.00000000000E+00 0.  1.
          1   -1    0    0  501    0  0.00000000000E+00 -0.00000000000E+00 -0.19296303592E+03  0.19296303592E+03  0.00000000000E+00 0.  1.
         35    2    1    2    0    0  0.00000000000E+00  0.71054273576E-14 -0.94081927671E+02  0.29184414418E+03  0.27626363383E+03 0.  0.
         25    2    3    3    0    0  0.49234850244E+02  0.11221799396E+02 -0.75182384652E+02  0.15509187053E+03  0.12590114409E+03 0.  0.
         25    2    3    3    0    0 -0.49234850244E+02 -0.11221799396E+02 -0.18899543019E+02  0.13675227365E+03  0.12567415152E+03 0.  0.
          5    1    4    4  502    0 -0.49208762760E+01 -0.50381294528E+02 -0.43934704407E+02  0.67192545070E+02  0.47000000000E+01 0.  1.
         -5    1    4    4    0  502  0.54155726520E+02  0.61603093924E+02 -0.31247680246E+02  0.87899325462E+02  0.47000000000E+01 0.  1.
          5    1    5    5  503    0 -0.69723385351E+02  0.36848622577E+02  0.48738258567E+01  0.79151851710E+02  0.47000000000E+01 0. -1.
         -5    1    5    5    0  503  0.20488535107E+02 -0.48070421972E+02 -0.23773368876E+02  0.57600421935E+02  0.47000000000E+01 0. -1.
<mgrwt>
<rscale>  0 0.27626363E+03</rscale>
<asrwt>0</asrwt>
<pdfrwt beam="1">  1        1 0.29686620E-01 0.27626363E+03</pdfrwt>
<pdfrwt beam="2">  1       -1 0.15212479E-01 0.27626363E+03</pdfrwt>
<totfact> 0.47926400E+03</totfact>
</mgrwt>
</event>
<event>
 9    1  0.7984035E-001  0.2782293E+03  0.7818608E-02  0.1096660E+00
          2   -1    0    0  501    0  0.00000000000E+00  0.00000000000E+00  0.12805066832E+04  0.12805066832E+04  0.00000000000E+00 0. -1.
         -2   -1    0    0    0  501 -0.00000000000E+00 -0.00000000000E+00 -0.15113456219E+02  0.15113456219E+02  0.00000000000E+00 0. -1.
         35    2    1    2    0    0  0.00000000000E+00 -0.71054273576E-14  0.12653932270E+04  0.12956201395E+04  0.27822927018E+03 0.  0.
         25    2    3    3    0    0  0.47803486871E+02  0.37893841550E+02  0.58922391184E+03  0.60514959268E+03  0.12369355135E+03 0.  0.
         25    2    3    3    0    0 -0.47803486871E+02 -0.37893841550E+02  0.67616931518E+03  0.69047054679E+03  0.12579156014E+03 0.  0.
          5    1    4    4  502    0 -0.24412115530E+02  0.35039283297E+02  0.40386797996E+03  0.40614669516E+03  0.47000000000E+01 0.  1.
         -5    1    4    4    0  502  0.72215602401E+02  0.28545582531E+01  0.18535593188E+03  0.19900289751E+03  0.47000000000E+01 0.  1.
          5    1    5    5  503    0 -0.86799405816E+02 -0.24980620887E+02  0.34216633620E+03  0.35391815424E+03  0.47000000000E+01 0. -1.
         -5    1    5    5    0  503  0.38995918945E+02 -0.12913220663E+02  0.33400297898E+03  0.33655239255E+03  0.47000000000E+01 0. -1.
<mgrwt>
<rscale>  0 0.27822927E+03</rscale>
<asrwt>0</asrwt>
<pdfrwt beam="1">  1        2 0.19700094E+00 0.27822927E+03</pdfrwt>
<pdfrwt beam="2">  1       -2 0.23251481E-02 0.27822927E+03</pdfrwt>
<totfact> 0.11127738E+04</totfact>
</mgrwt>
</event>
<event>
 9    1  0.7984035E-001  0.2748830E+03  0.7818608E-02  0.1098517E+00
          2   -1    0    0  501    0  0.00000000000E+00  0.00000000000E+00  0.29353954132E+03  0.29353954132E+03  0.00000000000E+00 0.  1.
         -2   -1    0    0    0  501 -0.00000000000E+00 -0.00000000000E+00 -0.64353077065E+02  0.64353077065E+02  0.00000000000E+00 0.  1.
         35    2    1    2    0    0  0.71054273576E-14 -0.71054273576E-14  0.22918646426E+03  0.35789261839E+03  0.27488304949E+03 0.  0.
         25    2    3    3    0    0 -0.55157853930E+02 -0.15933365019E+02  0.13042631185E+03  0.18914573283E+03  0.12437372895E+03 0.  0.
         25    2    3    3    0    0  0.55157853930E+02  0.15933365019E+02  0.98760152411E+02  0.16874688556E+03  0.12420017195E+03 0.  0.
          5    1    4    4  502    0 -0.29273611280E+02 -0.70261509609E+02  0.79589707512E+02  0.11022810709E+03  0.47000000000E+01 0. -1.
         -5    1    4    4    0  502 -0.25884242650E+02  0.54328144590E+02  0.50836604334E+02  0.78917625739E+02  0.47000000000E+01 0. -1.
          5    1    5    5  503    0  0.67763667038E+02  0.54046782748E+02  0.94161182978E+02  0.12806790260E+03  0.47000000000E+01 0.  1.
         -5    1    5    5    0  503 -0.12605813108E+02 -0.38113417728E+02  0.45989694326E+01  0.40678982963E+02  0.47000000000E+01 0.  1.
<mgrwt>
<rscale>  0 0.27488305E+03</rscale>
<asrwt>0</asrwt>
<pdfrwt beam="1">  1        2 0.45159929E-01 0.27488305E+03</pdfrwt>
<pdfrwt beam="2">  1       -2 0.99004736E-02 0.27488305E+03</pdfrwt>
<totfact> 0.74923990E+03</totfact>
</mgrwt>
</event>
<event>
 9    1  0.7984035E-001  0.2692056E+03  0.7818608E-02  0.1101735E+00
          2   -1    0    0  501    0  0.00000000000E+00  0.00000000000E+00  0.15739778395E+04  0.15739778395E+04  0.00000000000E+00 0.  1.
         -2   -1    0    0    0  501 -0.00000000000E+00 -0.00000000000E+00 -0.11510908836E+02  0.11510908836E+02  0.00000000000E+00 0.  1.
         35    2    1    2    0    0  0.35527136788E-14  0.00000000000E+00  0.15624669306E+04  0.15854887483E+04  0.26920561227E+03 0.  0.
         25    2    3    3    0    0 -0.64626759958E+01 -0.48086421056E+02  0.80983049964E+03  0.82089966146E+03  0.12528665516E+03 0.  0.
         25    2    3    3    0    0  0.64626759958E+01  0.48086421056E+02  0.75263643100E+03  0.76458908686E+03  0.12562167169E+03 0.  0.
          5    1    4    4  502    0  0.70938621957E+01 -0.12995070110E+02  0.67695958595E+01  0.16944384206E+02  0.47000000000E+01 0. -1.
         -5    1    4    4    0  502 -0.13556538192E+02 -0.35091350947E+02  0.80306090378E+03  0.80395527725E+03  0.47000000000E+01 0. -1.
          5    1    5    5  503    0 -0.58450972933E+02  0.12685130246E+02  0.37239105948E+03  0.37719308046E+03  0.47000000000E+01 0.  1.
         -5    1    5    5    0  503  0.64913648929E+02  0.35401290810E+02  0.38024537152E+03  0.38739600640E+03  0.47000000000E+01 0.  1.
<mgrwt>
<rscale>  0 0.26920561E+03</rscale>
<asrwt>0</asrwt>
<pdfrwt beam="1">  1        2 0.24215027E+00 0.26920561E+03</pdfrwt>
<pdfrwt beam="2">  1       -2 0.17709103E-02 0.26920561E+03</pdfrwt>
<totfact> 0.11512681E+04</totfact>
</mgrwt>
</event>
<event>
 9    1  0.7984035E-001  0.2731310E+03  0.7818608E-02  0.1099501E+00
         -1   -1    0    0    0  501 -0.00000000000E+00  0.00000000000E+00  0.10433407530E+03  0.10433407530E+03  0.00000000000E+00 0. -1.
          1   -1    0    0  501    0  0.00000000000E+00 -0.00000000000E+00 -0.17875405313E+03  0.17875405313E+03  0.00000000000E+00 0. -1.
         35    2    1    2    0    0  0.35527136788E-14  0.71054273576E-14 -0.74419977822E+02  0.28308812843E+03  0.27313102233E+03 0.  0.
         25    2    3    3    0    0  0.84433191397E+01 -0.54280628515E+02 -0.47017379109E+02  0.14393740388E+03  0.12445748682E+03 0.  0.
         25    2    3    3    0    0 -0.84433191397E+01  0.54280628515E+02 -0.27402598714E+02  0.13915072455E+03  0.12487732163E+03 0.  0.
          5    1    4    4  502    0 -0.32698282730E+02 -0.33937805934E+02 -0.75930402429E+02  0.89490046251E+02  0.47000000000E+01 0.  1.
         -5    1    4    4    0  502  0.41141601870E+02 -0.20342822581E+02  0.28913023320E+02  0.54447357626E+02  0.47000000000E+01 0.  1.
          5    1    5    5  503    0  0.30356730377E+02  0.41222055916E+01 -0.60120539004E+02  0.67639432790E+02  0.47000000000E+01 0.  1.
         -5    1    5    5    0  503 -0.38800049517E+02  0.50158422923E+02  0.32717940290E+02  0.71511291762E+02  0.47000000000E+01 0.  1.
<mgrwt>
<rscale>  0 0.27313102E+03</rscale>
<asrwt>0</asrwt>
<pdfrwt beam="1">  1        1 0.27500623E-01 0.27313102E+03</pdfrwt>
<pdfrwt beam="2">  1       -1 0.16051396E-01 0.27313102E+03</pdfrwt>
<totfact> 0.48451090E+03</totfact>
</mgrwt>
</event>
<event>
 9    1  0.7984035E-001  0.2795775E+03  0.7818608E-02  0.1095920E+00
         -4   -1    0    0    0  501 -0.00000000000E+00  0.00000000000E+00  0.29568398333E+03  0.29568398333E+03  0.00000000000E+00 0.  1.
          4   -1    0    0  501    0  0.00000000000E+00 -0.00000000000E+00 -0.66087105921E+02  0.66087105921E+02  0.00000000000E+00 0.  1.
         35    2    1    2    0    0 -0.71054273576E-14 -0.71054273576E-14  0.22959687741E+03  0.36177108925E+03  0.27957752932E+03 0.  0.
         25    2    3    3    0    0  0.28852181837E+02  0.50928388965E+02  0.88009053681E+02  0.16395996940E+03  0.12534404188E+03 0.  0.
         25    2    3    3    0    0 -0.28852181837E+02 -0.50928388965E+02  0.14158782373E+03  0.19781111985E+03  0.12512385109E+03 0.  0.
          5    1    4    4  502    0  0.40640601886E+02  0.34940569402E+01  0.10440762075E+03  0.11219139105E+03  0.47000000000E+01 0. -1.
         -5    1    4    4    0  502 -0.11788420049E+02  0.47434332024E+02 -0.16398567069E+02  0.51768578344E+02  0.47000000000E+01 0. -1.
          5    1    5    5  503    0  0.15162222423E+02 -0.14707331870E+02 -0.18085934990E+02  0.28202653137E+02  0.47000000000E+01 0.  1.
         -5    1    5    5    0  503 -0.44014404259E+02 -0.36221057095E+02  0.15967375872E+03  0.16960846672E+03  0.47000000000E+01 0.  1.
<mgrwt>
<rscale>  0 0.27957753E+03</rscale>
<asrwt>0</asrwt>
<pdfrwt beam="1">  1        4 0.10167247E-01 0.27957753E+03</pdfrwt>
<pdfrwt beam="2">  1       -4 0.45489843E-01 0.27957753E+03</pdfrwt>
<totfact> 0.65170721E+02</totfact>
</mgrwt>
</event>
<event>
 9    1  0.7984035E-001  0.2771063E+03  0.7818608E-02  0.1097280E+00
          1   -1    0    0  501    0  0.00000000000E+00  0.00000000000E+00  0.72934724960E+03  0.72934724960E+03  0.00000000000E+00 0. -1.
         -1   -1    0    0    0  501 -0.00000000000E+00 -0.00000000000E+00 -0.26320765233E+02  0.26320765233E+02  0.00000000000E+00 0. -1.
         35    2    1    2    0    0  0.00000000000E+00  0.71054273576E-14  0.70302648436E+03  0.75566801483E+03  0.27710631700E+03 0.  0.
         25    2    3    3    0    0 -0.98291682102E+01  0.28341971330E+02  0.20927916780E+03  0.24508459471E+03  0.12397099902E+03 0.  0.
         25    2    3    3    0    0  0.98291682102E+01 -0.28341971330E+02  0.49374731656E+03  0.51058342012E+03  0.12652721608E+03 0.  0.
          5    1    4    4  502    0 -0.42630526319E+02  0.19975344880E+01  0.13836318164E+02  0.45109706478E+02  0.47000000000E+01 0.  1.
         -5    1    4    4    0  502  0.32801358108E+02  0.26344436842E+02  0.19544284964E+03  0.19997488823E+03  0.47000000000E+01 0.  1.
          5    1    5    5  503    0 -0.17901513522E+02 -0.70186701103E+02  0.36827379348E+03  0.37535891379E+03  0.47000000000E+01 0. -1.
         -5    1    5    5    0  503  0.27730681732E+02  0.41844729773E+02  0.12547352308E+03  0.13522450633E+03  0.47000000000E+01 0. -1.
<mgrwt>
<rscale>  0 0.27710632E+03</rscale>
<asrwt>0</asrwt>
<pdfrwt beam="1">  1        1 0.11220725E+00 0.27710632E+03</pdfrwt>
<pdfrwt beam="2">  1       -1 0.40493491E-02 0.27710632E+03</pdfrwt>
<totfact> 0.63904971E+03</totfact>
</mgrwt>
</event>
<event>
 9    1  0.7984035E-001  0.2711493E+03  0.7818608E-02  0.1100624E+00
          2   -1    0    0  501    0  0.00000000000E+00  0.00000000000E+00  0.16128586253E+03  0.16128586253E+03  0.00000000000E+00 0. -1.
         -2   -1    0    0    0  501 -0.00000000000E+00 -0.00000000000E+00 -0.11396219452E+03  0.11396219452E+03  0.00000000000E+00 0. -1.
         35    2    1    2    0    0 -0.14210854715E-13  0.00000000000E+00  0.47323668006E+02  0.27524805705E+03  0.27114933774E+03 0.  0.
         25    2    3    3    0    0 -0.49715500675E+02  0.12037330358E+02  0.25917613002E+02  0.13879349387E+03  0.12639376150E+03 0.  0.
         25    2    3    3    0    0  0.49715500675E+02 -0.12037330358E+02  0.21406055004E+02  0.13645456318E+03  0.12467999155E+03 0.  0.
          5    1    4    4  502    0  0.17662883108E+02 -0.26512396683E+01  0.59245421739E+02  0.62057364660E+02  0.47000000000E+01 0. -1.
         -5    1    4    4    0  502 -0.67378383783E+02  0.14688570026E+02 -0.33327808737E+02  0.76736129208E+02  0.47000000000E+01 0. -1.
          5    1    5    5  503    0 -0.34989682748E+02 -0.44380634944E+01 -0.20989779378E+02  0.41311440845E+02  0.47000000000E+01 0. -1.
         -5    1    5    5    0  503  0.84705183422E+02 -0.75992668634E+01  0.42395834382E+02  0.95143122339E+02  0.47000000000E+01 0. -1.
<mgrwt>
<rscale>  0 0.27114934E+03</rscale>
<asrwt>0</asrwt>
<pdfrwt beam="1">  1        2 0.24813210E-01 0.27114934E+03</pdfrwt>
<pdfrwt beam="2">  1       -2 0.17532645E-01 0.27114934E+03</pdfrwt>
<totfact> 0.56665445E+03</totfact>
</mgrwt>
</event>
<event>
 9    1  0.7984035E-001  0.2826146E+03  0.7818608E-02  0.1094269E+00
          1   -1    0    0  501    0  0.00000000000E+00  0.00000000000E+00  0.60733685649E+02  0.60733685649E+02  0.00000000000E+00 0.  1.
         -1   -1    0    0    0  501 -0.00000000000E+00 -0.00000000000E+00 -0.32877558194E+03  0.32877558194E+03  0.00000000000E+00 0.  1.
         35    2    1    2    0    0  0.71054273576E-14  0.14210854715E-13 -0.26804189629E+03  0.38950926759E+03  0.28261459865E+03 0.  0.
         25    2    3    3    0    0  0.14639942283E+02  0.63564646276E+02 -0.12004991972E+03  0.18512674432E+03  0.12492051902E+03 0.  0.
         25    2    3    3    0    0 -0.14639942283E+02 -0.63564646276E+02 -0.14799197657E+03  0.20438252327E+03  0.12496318867E+03 0.  0.
          5    1    4    4  502    0 -0.18669484205E+02 -0.12859903542E+02  0.14103469876E+02  0.27109493210E+02  0.47000000000E+01 0. -1.
         -5    1    4    4    0  502  0.33309426488E+02  0.76424549818E+02 -0.13415338960E+03  0.15801725111E+03  0.47000000000E+01 0. -1.
          5    1    5    5  503    0  0.52566109377E+02 -0.29970440358E+02 -0.93412004431E+02  0.11139710823E+03  0.47000000000E+01 0. -1.
         -5    1    5    5    0  503 -0.67206051660E+02 -0.33594205917E+02 -0.54579972136E+02  0.92985415036E+02  0.47000000000E+01 0. -1.
<mgrwt>
<rscale>  0 0.28261460E+03</rscale>
<asrwt>0</asrwt>
<pdfrwt beam="1">  1        1 0.93436438E-02 0.28261460E+03</pdfrwt>
<pdfrwt beam="2">  1       -1 0.50580860E-01 0.28261460E+03</pdfrwt>
<totfact> 0.28216285E+03</totfact>
</mgrwt>
</event>
<event>
 9    1  0.7984035E-001  0.2770931E+03  0.7818608E-02  0.1097287E+00
         -3   -1    0    0    0  501 -0.00000000000E+00  0.00000000000E+00  0.19028009402E+03  0.19028009402E+03  0.00000000000E+00 0.  1.
          3   -1    0    0  501    0  0.00000000000E+00 -0.00000000000E+00 -0.10087838408E+03  0.10087838408E+03  0.00000000000E+00 0.  1.
         35    2    1    2    0    0 -0.71054273576E-14  0.00000000000E+00  0.89401709935E+02  0.29115847810E+03  0.27709311365E+03 0.  0.
         25    2    3    3    0    0 -0.20479345794E+02 -0.46310615566E+02  0.58493086865E+01  0.13566878674E+03  0.12572878972E+03 0.  0.
         25    2    3    3    0    0  0.20479345794E+02  0.46310615566E+02  0.83552401249E+02  0.15548969136E+03  0.12096265394E+03 0.  0.
          5    1    4    4  502    0 -0.47517498994E+02 -0.31099462706E+02  0.53797279017E+02  0.78366616112E+02  0.47000000000E+01 0. -1.
         -5    1    4    4    0  502  0.27038153200E+02 -0.15211152860E+02 -0.47947970331E+02  0.57302170628E+02  0.47000000000E+01 0. -1.
          5    1    5    5  503    0  0.53259275231E+02 -0.15349725937E+02  0.59572863041E+02  0.81505708360E+02  0.47000000000E+01 0.  1.
         -5    1    5    5    0  503 -0.32779929437E+02  0.61660341503E+02  0.23979538208E+02  0.73983983001E+02  0.47000000000E+01 0.  1.
<mgrwt>
<rscale>  0 0.27709311E+03</rscale>
<asrwt>0</asrwt>
<pdfrwt beam="1">  1        3 0.15519751E-01 0.27709311E+03</pdfrwt>
<pdfrwt beam="2">  1       -3 0.29273861E-01 0.27709311E+03</pdfrwt>
<totfact> 0.10009392E+03</totfact>
</mgrwt>
</event>
<event>
 9    1  0.7984035E-001  0.2739114E+03  0.7818608E-02  0.1099062E+00
         -1   -1    0    0    0  501 -0.00000000000E+00  0.00000000000E+00  0.15881828145E+02  0.15881828145E+02  0.00000000000E+00 0. -1.
          1   -1    0    0  501    0  0.00000000000E+00 -0.00000000000E+00 -0.11810267953E+04  0.11810267953E+04  0.00000000000E+00 0. -1.
         35    2    1    2    0    0  0.00000000000E+00  0.14210854715E-13 -0.11651449671E+04  0.11969086234E+04  0.27391140610E+03 0.  0.
         25    2    3    3    0    0 -0.14985391353E+02  0.54299359994E+02 -0.64329119030E+03  0.65631972920E+03  0.11729897256E+03 0.  0.
         25    2    3    3    0    0  0.14985391353E+02 -0.54299359994E+02 -0.52185377682E+03  0.54058889422E+03  0.12935225440E+03 0.  0.
          5    1    4    4  502    0 -0.35533860091E+02  0.78725714418E+02 -0.32212893806E+03  0.33354090612E+03  0.47000000000E+01 0.  1.
         -5    1    4    4    0  502  0.20548468739E+02 -0.24426354424E+02 -0.32116225225E+03  0.32277882307E+03  0.47000000000E+01 0.  1.
          5    1    5    5  503    0  0.58660282911E+02 -0.75489923830E+01 -0.38379910239E+03  0.38835789817E+03  0.47000000000E+01 0. -1.
         -5    1    5    5    0  503 -0.43674891558E+02 -0.46750367611E+02 -0.13805467443E+03  0.15223099604E+03  0.47000000000E+01 0. -1.
<mgrwt>
<rscale>  0 0.27391141E+03</rscale>
<asrwt>0</asrwt>
<pdfrwt beam="1">  1        1 0.18169642E+00 0.27391141E+03</pdfrwt>
<pdfrwt beam="2">  1       -1 0.24433584E-02 0.27391141E+03</pdfrwt>
<totfact> 0.60298631E+03</totfact>
</mgrwt>
</event>
<event>
 9    1  0.7984035E-001  0.2746392E+03  0.7818608E-02  0.1098653E+00
         -2   -1    0    0    0  501 -0.00000000000E+00  0.00000000000E+00  0.34804009289E+02  0.34804009289E+02  0.00000000000E+00 0. -1.
          2   -1    0    0  501    0  0.00000000000E+00 -0.00000000000E+00 -0.54179596383E+03  0.54179596383E+03  0.00000000000E+00 0. -1.
         35    2    1    2    0    0 -0.17763568394E-14  0.00000000000E+00 -0.50699195454E+03  0.57659997312E+03  0.27463919427E+03 0.  0.
         25    2    3    3    0    0 -0.46361313414E+01 -0.51588707778E+02 -0.19969957596E+03  0.24100725000E+03  0.12458605632E+03 0.  0.
         25    2    3    3    0    0  0.46361313414E+01  0.51588707778E+02 -0.30729237858E+03  0.33559272312E+03  0.12454309050E+03 0.  0.
          5    1    4    4  502    0  0.51184343391E+02 -0.58329011031E+02 -0.10294699824E+03  0.12900498046E+03  0.47000000000E+01 0. -1.
         -5    1    4    4    0  502 -0.55820474732E+02  0.67403032524E+01 -0.96752577721E+02  0.11200226954E+03  0.47000000000E+01 0. -1.
          5    1    5    5  503    0 -0.60485920911E+01 -0.19703008390E+02 -0.22540555565E+03  0.22639467424E+03  0.47000000000E+01 0. -1.
         -5    1    5    5    0  503  0.10684723432E+02  0.71291716169E+02 -0.81886822925E+02  0.10919804887E+03  0.47000000000E+01 0. -1.
<mgrwt>
<rscale>  0 0.27463919E+03</rscale>
<asrwt>0</asrwt>
<pdfrwt beam="1">  1        2 0.83353230E-01 0.27463919E+03</pdfrwt>
<pdfrwt beam="2">  1       -2 0.53544627E-02 0.27463919E+03</pdfrwt>
<totfact> 0.99616681E+03</totfact>
</mgrwt>
</event>
<event>
 9    1  0.7984035E-001  0.2745349E+03  0.7818608E-02  0.1098712E+00
         -2   -1    0    0    0  501 -0.00000000000E+00  0.00000000000E+00  0.55846977689E+03  0.55846977689E+03  0.00000000000E+00 0. -1.
          2   -1    0    0  501    0  0.00000000000E+00 -0.00000000000E+00 -0.33739249793E+02  0.33739249793E+02  0.00000000000E+00 0. -1.
         35    2    1    2    0    0  0.00000000000E+00  0.35527136788E-14  0.52473052709E+03  0.59220902668E+03  0.27453488889E+03 0.  0.
         25    2    3    3    0    0 -0.16477315164E+02  0.20124147437E+02  0.13977869394E+03  0.18633709860E+03  0.12044479154E+03 0.  0.
         25    2    3    3    0    0  0.16477315164E+02 -0.20124147437E+02  0.38495183315E+03  0.40587192808E+03  0.12596676123E+03 0.  0.
          5    1    4    4  502    0 -0.25900263465E+02  0.35526855836E+02 -0.10983847669E+01  0.44229826839E+02  0.47000000000E+01 0.  1.
         -5    1    4    4    0  502  0.94229483012E+01 -0.15402708399E+02  0.14087707871E+03  0.14210727176E+03  0.47000000000E+01 0.  1.
          5    1    5    5  503    0  0.23217148516E+02 -0.60541555571E+02  0.10946304305E+03  0.12731285768E+03  0.47000000000E+01 0. -1.
         -5    1    5    5    0  503 -0.67398333518E+01  0.40417408134E+02  0.27548879010E+03  0.27855907040E+03  0.47000000000E+01 0. -1.
<mgrwt>
<rscale>  0 0.27453489E+03</rscale>
<asrwt>0</asrwt>
<pdfrwt beam="1">  1        2 0.51906542E-02 0.27453489E+03</pdfrwt>
<pdfrwt beam="2">  1       -2 0.85918421E-01 0.27453489E+03</pdfrwt>
<totfact> 0.18135680E+03</totfact>
</mgrwt>
</event>
<event>
 9    1  0.7984035E-001  0.2696385E+03  0.7818608E-02  0.1101487E+00
          2   -1    0    0  501    0  0.00000000000E+00  0.00000000000E+00  0.39149523985E+03  0.39149523985E+03  0.00000000000E+00 0. -1.
         -2   -1    0    0    0  501 -0.00000000000E+00 -0.00000000000E+00 -0.46427732919E+02  0.46427732919E+02  0.00000000000E+00 0. -1.
         35    2    1    2    0    0  0.17763568394E-14 -0.14210854715E-13  0.34506750693E+03  0.43792297277E+03  0.26963854646E+03 0.  0.
         25    2    3    3    0    0  0.44052747393E+01  0.49009429886E+02  0.15403969749E+03  0.20484114918E+03  0.12573916387E+03 0.  0.
         25    2    3    3    0    0 -0.44052747393E+01 -0.49009429886E+02  0.19102780944E+03  0.23308182359E+03  0.12415386360E+03 0.  0.
          5    1    4    4  502    0 -0.14087743047E+02 -0.35472164606E+02  0.87645738215E+02  0.95711046349E+02  0.47000000000E+01 0. -1.
         -5    1    4    4    0  502  0.18493017786E+02  0.84481594492E+02  0.66393959277E+02  0.10913010283E+03  0.47000000000E+01 0. -1.
          5    1    5    5  503    0  0.34500237801E+02 -0.75416231480E+02  0.95969081276E+02  0.12692528881E+03  0.47000000000E+01 0. -1.
         -5    1    5    5    0  503 -0.38905512541E+02  0.26406801595E+02  0.95058728164E+02  0.10615653478E+03  0.47000000000E+01 0. -1.
<mgrwt>
<rscale>  0 0.26963855E+03</rscale>
<asrwt>0</asrwt>
<pdfrwt beam="1">  1        2 0.60230035E-01 0.26963855E+03</pdfrwt>
<pdfrwt beam="2">  1       -2 0.71427284E-02 0.26963855E+03</pdfrwt>
<totfact> 0.91573678E+03</totfact>
</mgrwt>
</event>
<event>
 9    1  0.7984035E-001  0.2921948E+03  0.7818608E-02  0.1089209E+00
          2   -1    0    0  501    0  0.00000000000E+00  0.00000000000E+00  0.11820074489E+04  0.11820074489E+04  0.00000000000E+00 0. -1.
         -2   -1    0    0    0  501 -0.00000000000E+00 -0.00000000000E+00 -0.18057797788E+02  0.18057797788E+02  0.00000000000E+00 0. -1.
         35    2    1    2    0    0  0.71054273576E-14  0.00000000000E+00  0.11639496511E+04  0.12000652467E+04  0.29219480828E+03 0.  0.
         25    2    3    3    0    0 -0.48672445200E+01 -0.69532097944E+02  0.47808395714E+03  0.49947331173E+03  0.12669221106E+03 0.  0.
         25    2    3    3    0    0  0.48672445200E+01  0.69532097944E+02  0.68586569400E+03  0.70059193499E+03  0.12473534561E+03 0.  0.
          5    1    4    4  502    0 -0.34161368947E+02  0.23412725931E+02  0.87976599483E+02  0.97350536313E+02  0.47000000000E+01 0. -1.
         -5    1    4    4    0  502  0.29294124427E+02 -0.92944823875E+02  0.39010735765E+03  0.40212277541E+03  0.47000000000E+01 0. -1.
          5    1    5    5  503    0  0.33233183659E+02  0.80505687238E+02  0.27331844505E+03  0.28689836629E+03  0.47000000000E+01 0.  1.
         -5    1    5    5    0  503 -0.28365939139E+02 -0.10973589294E+02  0.41254724896E+03  0.41369356870E+03  0.47000000000E+01 0.  1.
<mgrwt>
<rscale>  0 0.29219481E+03</rscale>
<asrwt>0</asrwt>
<pdfrwt beam="1">  1        2 0.18184724E+00 0.29219481E+03</pdfrwt>
<pdfrwt beam="2">  1       -2 0.27781237E-02 0.29219481E+03</pdfrwt>
<totfact> 0.97257790E+03</totfact>
</mgrwt>
</event>
<event>
 9    1  0.7984035E-001  0.2741356E+03  0.7818608E-02  0.1098936E+00
         -1   -1    0    0    0  501 -0.00000000000E+00  0.00000000000E+00  0.31554487454E+02  0.31554487454E+02  0.00000000000E+00 0.  1.
          1   -1    0    0  501    0  0.00000000000E+00 -0.00000000000E+00 -0.59540141477E+03  0.59540141477E+03  0.00000000000E+00 0.  1.
         35    2    1    2    0    0  0.00000000000E+00  0.00000000000E+00 -0.56384692731E+03  0.62695590222E+03  0.27413563411E+03 0.  0.
         25    2    3    3    0    0  0.14007853742E+02  0.23294402370E+02 -0.40251476660E+03  0.42134216080E+03  0.12154106298E+03 0.  0.
         25    2    3    3    0    0 -0.14007853742E+02 -0.23294402370E+02 -0.16133216071E+03  0.20561374142E+03  0.12453953361E+03 0.  0.
          5    1    4    4  502    0  0.23299736927E+02 -0.40054828132E+02 -0.80614329292E+02  0.93102239956E+02  0.47000000000E+01 0. -1.
         -5    1    4    4    0  502 -0.92918831848E+01  0.63349230502E+02 -0.32190043731E+03  0.32823992085E+03  0.47000000000E+01 0. -1.
          5    1    5    5  503    0 -0.51275741612E+02 -0.56375527413E+02 -0.11015571852E+03  0.13402900466E+03  0.47000000000E+01 0. -1.
         -5    1    5    5    0  503  0.37267887870E+02  0.33081125043E+02 -0.51176442194E+02  0.71584736754E+02  0.47000000000E+01 0. -1.
<mgrwt>
<rscale>  0 0.27413563E+03</rscale>
<asrwt>0</asrwt>
<pdfrwt beam="1">  1        1 0.91600209E-01 0.27413563E+03</pdfrwt>
<pdfrwt beam="2">  1       -1 0.48545370E-02 0.27413563E+03</pdfrwt>
<totfact> 0.65160269E+03</totfact>
</mgrwt>
</event>
<event>
 9    1  0.7984035E-001  0.2757247E+03  0.7818608E-02  0.1098047E+00
         -2   -1    0    0    0  501 -0.00000000000E+00  0.00000000000E+00  0.79609993613E+01  0.79609993613E+01  0.00000000000E+00 0. -1.
          2   -1    0    0  501    0  0.00000000000E+00 -0.00000000000E+00 -0.23873929504E+04  0.23873929504E+04  0.00000000000E+00 0. -1.
         35    2    1    2    0    0 -0.71054273576E-14  0.00000000000E+00 -0.23794319510E+04  0.23953539497E+04  0.27572474501E+03 0.  0.
         25    2    3    3    0    0 -0.28530612060E+02 -0.38144917854E+02 -0.13850332993E+04  0.13919008359E+04  0.12962124139E+03 0.  0.
         25    2    3    3    0    0  0.28530612060E+02  0.38144917854E+02 -0.99439865170E+03  0.10034531138E+04  0.12577934075E+03 0.  0.
          5    1    4    4  502    0  0.43857211013E+01  0.92290713372E+01 -0.83662085855E+01  0.14017622959E+02  0.47000000000E+01 0. -1.
         -5    1    4    4    0  502 -0.32916333162E+02 -0.47373989191E+02 -0.13766670907E+04  0.13778832129E+04  0.47000000000E+01 0. -1.
          5    1    5    5  503    0  0.20895458615E+02  0.22816233073E+02 -0.98024536969E+03  0.98074475552E+03  0.47000000000E+01 0. -1.
         -5    1    5    5    0  503  0.76351534453E+01  0.15328684781E+02 -0.14153282010E+02  0.22708358305E+02  0.47000000000E+01 0. -1.
<mgrwt>
<rscale>  0 0.27572475E+03</rscale>
<asrwt>0</asrwt>
<pdfrwt beam="1">  1        2 0.36729131E+00 0.27572475E+03</pdfrwt>
<pdfrwt beam="2">  1       -2 0.12247689E-02 0.27572475E+03</pdfrwt>
<totfact> 0.73300256E+03</totfact>
</mgrwt>
</event>
<event>
 9    1  0.7984035E-001  0.2807267E+03  0.7818608E-02  0.1095293E+00
          4   -1    0    0  501    0  0.00000000000E+00  0.00000000000E+00  0.52005543351E+02  0.52005543351E+02  0.00000000000E+00 0.  1.
         -4   -1    0    0    0  501 -0.00000000000E+00 -0.00000000000E+00 -0.37884184628E+03  0.37884184628E+03  0.00000000000E+00 0.  1.
         35    2    1    2    0    0  0.00000000000E+00  0.71054273576E-14 -0.32683630293E+03  0.43084738963E+03  0.28072674301E+03 0.  0.
         25    2    3    3    0    0 -0.36210412226E+02  0.57304077034E+02 -0.15640790372E+03  0.20834520266E+03  0.11978873039E+03 0.  0.
         25    2    3    3    0    0  0.36210412226E+02 -0.57304077034E+02 -0.17042839921E+03  0.22250218697E+03  0.12596202900E+03 0.  0.
          5    1    4    4  502    0  0.42573443949E+02  0.80443147141E+01 -0.62140456250E+02  0.75899508772E+02  0.47000000000E+01 0. -1.
         -5    1    4    4    0  502 -0.78783856175E+02  0.49259762320E+02 -0.94267447468E+02  0.13244569389E+03  0.47000000000E+01 0. -1.
          5    1    5    5  503    0 -0.13150030983E+02 -0.43865863786E+02 -0.16348126176E+01  0.46064085065E+02  0.47000000000E+01 0.  1.
         -5    1    5    5    0  503  0.49360443209E+02 -0.13438213248E+02 -0.16879358659E+03  0.17643810190E+03  0.47000000000E+01 0.  1.
<mgrwt>
<rscale>  0 0.28072674E+03</rscale>
<asrwt>0</asrwt>
<pdfrwt beam="1">  1        4 0.80008529E-02 0.28072674E+03</pdfrwt>
<pdfrwt beam="2">  1       -4 0.58283360E-01 0.28072674E+03</pdfrwt>
<totfact> 0.58510995E+02</totfact>
</mgrwt>
</event>
<event>
 9    1  0.7984035E-001  0.2747583E+03  0.7818608E-02  0.1098587E+00
          1   -1    0    0  501    0  0.00000000000E+00  0.00000000000E+00  0.93256933313E+02  0.93256933313E+02  0.00000000000E+00 0. -1.
         -1   -1    0    0    0  501 -0.00000000000E+00 -0.00000000000E+00 -0.20237667182E+03  0.20237667182E+03  0.00000000000E+00 0. -1.
         35    2    1    2    0    0 -0.14210854715E-13  0.00000000000E+00 -0.10911973851E+03  0.29563360514E+03  0.27475827768E+03 0.  0.
         25    2    3    3    0    0 -0.54534628021E+02  0.74243612452E+01 -0.47807501639E+02  0.14601125775E+03  0.12650922252E+03 0.  0.
         25    2    3    3    0    0  0.54534628021E+02 -0.74243612452E+01 -0.61312236872E+02  0.14962234739E+03  0.12489399367E+03 0.  0.
          5    1    4    4  502    0 -0.74803589977E+02 -0.34907938816E+02 -0.53528371480E+02  0.98496283276E+02  0.47000000000E+01 0. -1.
         -5    1    4    4    0  502  0.20268961956E+02  0.42332300061E+02  0.57208698409E+01  0.47514974471E+02  0.47000000000E+01 0. -1.
          5    1    5    5  503    0 -0.19624379544E+02  0.32731206894E+02  0.92658701631E+01  0.39552427575E+02  0.47000000000E+01 0.  1.
         -5    1    5    5    0  503  0.74159007565E+02 -0.40155568139E+02 -0.70578107035E+02  0.11006991982E+03  0.47000000000E+01 0.  1.
<mgrwt>
<rscale>  0 0.27475828E+03</rscale>
<asrwt>0</asrwt>
<pdfrwt beam="1">  1        1 0.14347221E-01 0.27475828E+03</pdfrwt>
<pdfrwt beam="2">  1       -1 0.31134872E-01 0.27475828E+03</pdfrwt>
<totfact> 0.37685397E+03</totfact>
</mgrwt>
</event>
<event>
 9    1  0.7984035E-001  0.2749870E+03  0.7818608E-02  0.1098459E+00
         -2   -1    0    0    0  501 -0.00000000000E+00  0.00000000000E+00  0.57870874521E+02  0.57870874521E+02  0.00000000000E+00 0. -1.
          2   -1    0    0  501    0  0.00000000000E+00 -0.00000000000E+00 -0.32666618978E+03  0.32666618978E+03  0.00000000000E+00 0. -1.
         35    2    1    2    0    0 -0.35527136788E-14 -0.71054273576E-14 -0.26879531526E+03  0.38453706430E+03  0.27498696754E+03 0.  0.
         25    2    3    3    0    0  0.31281377712E+02  0.43069539684E+02 -0.15785336753E+03  0.20892134094E+03  0.12608303303E+03 0.  0.
         25    2    3    3    0    0 -0.31281377712E+02 -0.43069539684E+02 -0.11094194773E+03  0.17561572336E+03  0.12529667468E+03 0.  0.
          5    1    4    4  502    0 -0.16882730894E+02  0.70458477616E+02 -0.51849491512E+02  0.89218178868E+02  0.47000000000E+01 0.  1.
         -5    1    4    4    0  502  0.48164108606E+02 -0.27388937932E+02 -0.10600387602E+03  0.11970316207E+03  0.47000000000E+01 0.  1.
          5    1    5    5  503    0  0.24746395728E+01 -0.82887485598E+02 -0.76346212653E+02  0.11281530613E+03  0.47000000000E+01 0. -1.
         -5    1    5    5    0  503 -0.33756017285E+02  0.39817945914E+02 -0.34595735076E+02  0.62800417237E+02  0.47000000000E+01 0. -1.
<mgrwt>
<rscale>  0 0.27498697E+03</rscale>
<asrwt>0</asrwt>
<pdfrwt beam="1">  1        2 0.50256336E-01 0.27498697E+03</pdfrwt>
<pdfrwt beam="2">  1       -2 0.89032116E-02 0.27498697E+03</pdfrwt>
<totfact> 0.78993294E+03</totfact>
</mgrwt>
</event>
<event>
 9    1  0.7984035E-001  0.2816728E+03  0.7818608E-02  0.1094779E+00
         -2   -1    0    0    0  501 -0.00000000000E+00  0.00000000000E+00  0.78683779119E+02  0.78683779119E+02  0.00000000000E+00 0.  1.
          2   -1    0    0  501    0  0.00000000000E+00 -0.00000000000E+00 -0.25208354857E+03  0.25208354857E+03  0.00000000000E+00 0.  1.
         35    2    1    2    0    0  0.21316282073E-13  0.17763568394E-14 -0.17339976945E+03  0.33076732769E+03  0.28167276230E+03 0.  0.
         25    2    3    3    0    0  0.34022160474E+02 -0.70358292456E+01 -0.20315515535E+02  0.13115317619E+03  0.12482557893E+03 0.  0.
         25    2    3    3    0    0 -0.34022160474E+02  0.70358292456E+01 -0.15308425392E+03  0.19961415151E+03  0.12330454325E+03 0.  0.
          5    1    4    4  502    0 -0.15125383911E+02 -0.55126395194E+02 -0.23902017663E+02  0.62137694952E+02  0.47000000000E+01 0. -1.
         -5    1    4    4    0  502  0.49147544386E+02  0.48090565948E+02  0.35865021283E+01  0.69015481234E+02  0.47000000000E+01 0. -1.
          5    1    5    5  503    0 -0.71827144122E+02 -0.61861861923E+00 -0.45328515838E+02  0.85066360389E+02  0.47000000000E+01 0. -1.
         -5    1    5    5    0  503  0.37804983647E+02  0.76544478649E+01 -0.10775573808E+03  0.11454779112E+03  0.47000000000E+01 0. -1.
<mgrwt>
<rscale>  0 0.28167276E+03</rscale>
<asrwt>0</asrwt>
<pdfrwt beam="1">  1        2 0.38782084E-01 0.28167276E+03</pdfrwt>
<pdfrwt beam="2">  1       -2 0.12105197E-01 0.28167276E+03</pdfrwt>
<totfact> 0.64023772E+03</totfact>
</mgrwt>
</event>
<event>
 9    1  0.7984035E-001  0.2757879E+03  0.7818608E-02  0.1098012E+00
         -2   -1    0    0    0  501 -0.00000000000E+00  0.00000000000E+00  0.27417286489E+02  0.27417286489E+02  0.00000000000E+00 0.  1.
          2   -1    0    0  501    0  0.00000000000E+00 -0.00000000000E+00 -0.69353117728E+03  0.69353117728E+03  0.00000000000E+00 0.  1.
         35    2    1    2    0    0  0.00000000000E+00  0.71054273576E-14 -0.66611389079E+03  0.72094846377E+03  0.27578791110E+03 0.  0.
         25    2    3    3    0    0 -0.42723510166E+02  0.40018501770E+02 -0.37475694878E+03  0.39930364244E+03  0.12479522990E+03 0.  0.
         25    2    3    3    0    0  0.42723510166E+02 -0.40018501770E+02 -0.29135694201E+03  0.32164482132E+03  0.12304366958E+03 0.  0.
          5    1    4    4  502    0 -0.57133474110E+02  0.73062255596E+02 -0.32278497263E+03  0.33587878113E+03  0.47000000000E+01 0. -1.
         -5    1    4    4    0  502  0.14409963944E+02 -0.33043753826E+02 -0.51971976144E+02  0.63424861309E+02  0.47000000000E+01 0. -1.
          5    1    5    5  503    0 -0.22222644021E+02  0.29066252260E+02 -0.12245588585E+03  0.12789146534E+03  0.47000000000E+01 0.  1.
         -5    1    5    5    0  503  0.64946154187E+02 -0.69084754030E+02 -0.16890105616E+03  0.19375335598E+03  0.47000000000E+01 0.  1.
<mgrwt>
<rscale>  0 0.27578791E+03</rscale>
<asrwt>0</asrwt>
<pdfrwt beam="1">  1        2 0.10669711E+00 0.27578791E+03</pdfrwt>
<pdfrwt beam="2">  1       -2 0.42180438E-02 0.27578791E+03</pdfrwt>
<totfact> 0.10717102E+04</totfact>
</mgrwt>
</event>
<event>
 9    1  0.7984035E-001  0.2745655E+03  0.7818608E-02  0.1098695E+00
          1   -1    0    0  501    0  0.00000000000E+00  0.00000000000E+00  0.21948067281E+02  0.21948067281E+02  0.00000000000E+00 0.  1.
         -1   -1    0    0    0  501 -0.00000000000E+00 -0.00000000000E+00 -0.85868846716E+03  0.85868846716E+03  0.00000000000E+00 0.  1.
         35    2    1    2    0    0 -0.35527136788E-14 -0.71054273576E-14 -0.83674039988E+03  0.88063653445E+03  0.27456549128E+03 0.  0.
         25    2    3    3    0    0 -0.17788485213E+02 -0.53382707462E+02 -0.46702941909E+03  0.48638528607E+03  0.12364475138E+03 0.  0.
         25    2    3    3    0    0  0.17788485213E+02  0.53382707462E+02 -0.36971098079E+03  0.39425124838E+03  0.12482665527E+03 0.  0.
          5    1    4    4  502    0 -0.33027510030E+02 -0.70003134601E+02 -0.45262197365E+03  0.45921672041E+03  0.47000000000E+01 0. -1.
         -5    1    4    4    0  502  0.15239024817E+02  0.16620427139E+02 -0.14407445437E+02  0.27168565654E+02  0.47000000000E+01 0. -1.
          5    1    5    5  503    0 -0.26886036577E+02  0.10776983043E+02 -0.12807506855E+02  0.32017566400E+02  0.47000000000E+01 0. -1.
         -5    1    5    5    0  503  0.44674521790E+02  0.42605724418E+02 -0.35690347394E+03  0.36223368198E+03  0.47000000000E+01 0. -1.
<mgrwt>
<rscale>  0 0.27456549E+03</rscale>
<asrwt>0</asrwt>
<pdfrwt beam="1">  1        1 0.33766270E-02 0.27456549E+03</pdfrwt>
<pdfrwt beam="2">  1       -1 0.13210587E+00 0.27456549E+03</pdfrwt>
<totfact> 0.15085942E+03</totfact>
</mgrwt>
</event>
<event>
 9    1  0.7984035E-001  0.2720886E+03  0.7818608E-02  0.1100090E+00
         -1   -1    0    0    0  501 -0.00000000000E+00  0.00000000000E+00  0.11186128974E+02  0.11186128974E+02  0.00000000000E+00 0.  1.
          1   -1    0    0  501    0  0.00000000000E+00 -0.00000000000E+00 -0.16545540911E+04  0.16545540911E+04  0.00000000000E+00 0.  1.
         35    2    1    2    0    0 -0.71054273576E-14  0.00000000000E+00 -0.16433679621E+04  0.16657402201E+04  0.27208862863E+03 0.  0.
         25    2    3    3    0    0  0.53143988080E+01 -0.30673271867E+02 -0.10582579945E+04  0.10665719926E+04  0.12921586599E+03 0.  0.
         25    2    3    3    0    0 -0.53143988080E+01  0.30673271867E+02 -0.58510996764E+03  0.59916822749E+03  0.12521900081E+03 0.  0.
          5    1    4    4  502    0  0.59644265006E+02 -0.10452514113E+02 -0.77662052409E+03  0.77899179831E+03  0.47000000000E+01 0.  1.
         -5    1    4    4    0  502 -0.54329866198E+02 -0.20220757754E+02 -0.28163747040E+03  0.28758019427E+03  0.47000000000E+01 0.  1.
          5    1    5    5  503    0 -0.10854555632E+02 -0.43258169937E+02 -0.34295155267E+03  0.34587128838E+03  0.47000000000E+01 0. -1.
         -5    1    5    5    0  503  0.55401568239E+01  0.73931441804E+02 -0.24215841497E+03  0.25329693911E+03  0.47000000000E+01 0. -1.
<mgrwt>
<rscale>  0 0.27208863E+03</rscale>
<asrwt>0</asrwt>
<pdfrwt beam="1">  1        1 0.25454675E+00 0.27208863E+03</pdfrwt>
<pdfrwt beam="2">  1       -1 0.17209431E-02 0.27208863E+03</pdfrwt>
<totfact> 0.48351972E+03</totfact>
</mgrwt>
</event>
<event>
 9    1  0.7984035E-001  0.2814757E+03  0.7818608E-02  0.1094886E+00
         -1   -1    0    0    0  501 -0.00000000000E+00  0.00000000000E+00  0.17960692048E+02  0.17960692048E+02  0.00000000000E+00 0.  1.
          1   -1    0    0  501    0  0.00000000000E+00 -0.00000000000E+00 -0.11028048775E+04  0.11028048775E+04  0.00000000000E+00 0.  1.
         35    2    1    2    0    0  0.00000000000E+00 -0.71054273576E-14 -0.10848441855E+04  0.11207655696E+04  0.28147567421E+03 0.  0.
         25    2    3    3    0    0  0.44802005139E+02 -0.43353270694E+02 -0.46724603305E+03  0.48777692711E+03  0.12538241292E+03 0.  0.
         25    2    3    3    0    0 -0.44802005139E+02  0.43353270694E+02 -0.61759815241E+03  0.63298864245E+03  0.12393715289E+03 0.  0.
          5    1    4    4  502    0 -0.73907209006E+01  0.29390717214E+01  0.49163301503E+01  0.10465237702E+02  0.47000000000E+01 0. -1.
         -5    1    4    4    0  502  0.52192726039E+02 -0.46292342415E+02 -0.47216236320E+03  0.47731168941E+03  0.47000000000E+01 0. -1.
          5    1    5    5  503    0 -0.49066957804E+02 -0.41306158416E+01 -0.53666586794E+03  0.53894060168E+03  0.47000000000E+01 0. -1.
         -5    1    5    5    0  503  0.42649526656E+01  0.47483886536E+02 -0.80932284469E+02  0.94048040762E+02  0.47000000000E+01 0. -1.
<mgrwt>
<rscale>  0 0.28147567E+03</rscale>
<asrwt>0</asrwt>
<pdfrwt beam="1">  1        1 0.16966239E+00 0.28147567E+03</pdfrwt>
<pdfrwt beam="2">  1       -1 0.27631818E-02 0.28147567E+03</pdfrwt>
<totfact> 0.57227030E+03</totfact>
</mgrwt>
</event>
<event>
 9    1  0.7984035E-001  0.2798348E+03  0.7818608E-02  0.1095779E+00
         -1   -1    0    0    0  501 -0.00000000000E+00  0.00000000000E+00  0.22901640152E+03  0.22901640152E+03  0.00000000000E+00 0.  1.
          1   -1    0    0  501    0  0.00000000000E+00 -0.00000000000E+00 -0.85482405755E+02  0.85482405755E+02  0.00000000000E+00 0.  1.
         35    2    1    2    0    0  0.00000000000E+00  0.00000000000E+00  0.14353399576E+03  0.31449880727E+03  0.27983475809E+03 0.  0.
         25    2    3    3    0    0 -0.59362199514E+02  0.22484617887E+02  0.66320783204E+02  0.15374215904E+03  0.12332386796E+03 0.  0.
         25    2    3    3    0    0  0.59362199514E+02 -0.22484617887E+02  0.77213212559E+02  0.16075664824E+03  0.12590230731E+03 0.  0.
          5    1    4    4  502    0 -0.66482380612E+02  0.58429759508E+02  0.14060876299E+02  0.89742642987E+02  0.47000000000E+01 0. -1.
         -5    1    4    4    0  502  0.71201810980E+01 -0.35945141621E+02  0.52259906905E+02  0.63999516051E+02  0.47000000000E+01 0. -1.
          5    1    5    5  503    0  0.13613689430E+02  0.22946368133E+02  0.90751610936E+02  0.94709097968E+02  0.47000000000E+01 0.  1.
         -5    1    5    5    0  503  0.45748510085E+02 -0.45430986020E+02 -0.13538398377E+02  0.66047550268E+02  0.47000000000E+01 0.  1.
<mgrwt>
<rscale>  0 0.27983476E+03</rscale>
<asrwt>0</asrwt>
<pdfrwt beam="1">  1        1 0.13151139E-01 0.27983476E+03</pdfrwt>
<pdfrwt beam="2">  1       -1 0.35233292E-01 0.27983476E+03</pdfrwt>
<totfact> 0.34171396E+03</totfact>
</mgrwt>
</event>
<event>
 9    1  0.7984035E-001  0.2744880E+03  0.7818608E-02  0.1098738E+00
         -2   -1    0    0    0  501 -0.00000000000E+00  0.00000000000E+00  0.44403866465E+03  0.44403866465E+03  0.00000000000E+00 0.  1.
          2   -1    0    0  501    0  0.00000000000E+00 -0.00000000000E+00 -0.42419553933E+02  0.42419553933E+02  0.00000000000E+00 0.  1.
         35    2    1    2    0    0 -0.71054273576E-14 -0.35527136788E-14  0.40161911072E+03  0.48645821858E+03  0.27448804771E+03 0.  0.
         25    2    3    3    0    0 -0.53708113663E+02  0.15827772329E+02  0.21959117239E+03  0.25868538366E+03  0.12475081114E+03 0.  0.
         25    2    3    3    0    0  0.53708113663E+02 -0.15827772329E+02  0.18202793833E+03  0.22777283492E+03  0.12494484442E+03 0.  0.
          5    1    4    4  502    0  0.73505593491E+01  0.58938057163E+02  0.12101829661E+03  0.13488974542E+03  0.47000000000E+01 0. -1.
         -5    1    4    4    0  502 -0.61058673012E+02 -0.43110284835E+02  0.98572875777E+02  0.12379563824E+03  0.47000000000E+01 0. -1.
          5    1    5    5  503    0 -0.34194242243E+02 -0.31875091971E+02  0.71686890228E+02  0.85710955667E+02  0.47000000000E+01 0. -1.
         -5    1    5    5    0  503  0.87902355906E+02  0.16047319642E+02  0.11034104810E+03  0.14206187925E+03  0.47000000000E+01 0. -1.
<mgrwt>
<rscale>  0 0.27448805E+03</rscale>
<asrwt>0</asrwt>
<pdfrwt beam="1">  1        2 0.65260855E-02 0.27448805E+03</pdfrwt>
<pdfrwt beam="2">  1       -2 0.68313637E-01 0.27448805E+03</pdfrwt>
<totfact> 0.22188801E+03</totfact>
</mgrwt>
</event>
<event>
 9    1  0.7984035E-001  0.2693483E+03  0.7818608E-02  0.1101653E+00
          2   -1    0    0  501    0  0.00000000000E+00  0.00000000000E+00  0.14741310555E+03  0.14741310555E+03  0.00000000000E+00 0. -1.
         -2   -1    0    0    0  501 -0.00000000000E+00 -0.00000000000E+00 -0.12303607632E+03  0.12303607632E+03  0.00000000000E+00 0. -1.
         35    2    1    2    0    0  0.00000000000E+00  0.00000000000E+00  0.24377029229E+02  0.27044918186E+03  0.26934832544E+03 0.  0.
         25    2    3    3    0    0  0.30499306907E+02  0.18282575541E+02  0.47666249658E+02  0.13834037654E+03  0.12490607726E+03 0.  0.
         25    2    3    3    0    0 -0.30499306907E+02 -0.18282575541E+02 -0.23289220429E+02  0.13210880532E+03  0.12508352555E+03 0.  0.
          5    1    4    4  502    0 -0.53981054727E+00 -0.44431605584E+02 -0.11994204975E+02  0.46264564444E+02  0.47000000000E+01 0.  1.
         -5    1    4    4    0  502  0.31039117454E+02  0.62714181126E+02  0.59660454633E+02  0.92075812098E+02  0.47000000000E+01 0.  1.
          5    1    5    5  503    0 -0.34855608600E+02 -0.18987050658E+02 -0.72333996978E+02  0.82642111918E+02  0.47000000000E+01 0.  1.
         -5    1    5    5    0  503  0.43563016931E+01  0.70447511673E+00  0.49044776548E+02  0.49466693404E+02  0.47000000000E+01 0.  1.
<mgrwt>
<rscale>  0 0.26934833E+03</rscale>
<asrwt>0</asrwt>
<pdfrwt beam="1">  1        2 0.22678939E-01 0.26934833E+03</pdfrwt>
<pdfrwt beam="2">  1       -2 0.18928627E-01 0.26934833E+03</pdfrwt>
<totfact> 0.55065838E+03</totfact>
</mgrwt>
</event>
<event>
 9    1  0.7984035E-001  0.2913633E+03  0.7818608E-02  0.1089640E+00
         -2   -1    0    0    0  501 -0.00000000000E+00  0.00000000000E+00  0.91266826930E+01  0.91266826930E+01  0.00000000000E+00 0.  1.
          2   -1    0    0  501    0  0.00000000000E+00 -0.00000000000E+00 -0.23253946059E+04  0.23253946059E+04  0.00000000000E+00 0.  1.
         35    2    1    2    0    0 -0.35527136788E-14  0.00000000000E+00 -0.23162679232E+04  0.23345212886E+04  0.29136326950E+03 0.  0.
         25    2    3    3    0    0  0.30691379641E+02  0.91272830267E+01 -0.61478708565E+03  0.62816177690E+03  0.12489511278E+03 0.  0.
         25    2    3    3    0    0 -0.30691379641E+02 -0.91272830267E+01 -0.17014808376E+04  0.17063595117E+04  0.12490185945E+03 0.  0.
          5    1    4    4  502    0  0.15389931564E+02 -0.49959011981E+01 -0.44171614077E+01  0.17418677826E+02  0.47000000000E+01 0. -1.
         -5    1    4    4    0  502  0.15301448077E+02  0.14123184225E+02 -0.61036992424E+03  0.61074309907E+03  0.47000000000E+01 0. -1.
          5    1    5    5  503    0 -0.63996740920E+02 -0.35694958867E+02 -0.67460173981E+03  0.67858625855E+03  0.47000000000E+01 0. -1.
         -5    1    5    5    0  503  0.33305361279E+02  0.26567675841E+02 -0.10268790978E+04  0.10277732532E+04  0.47000000000E+01 0. -1.
<mgrwt>
<rscale>  0 0.29136327E+03</rscale>
<asrwt>0</asrwt>
<pdfrwt beam="1">  1        2 0.35775302E+00 0.29136327E+03</pdfrwt>
<pdfrwt beam="2">  1       -2 0.14041050E-02 0.29136327E+03</pdfrwt>
<totfact> 0.64842789E+03</totfact>
</mgrwt>
</event>
<event>
 9    1  0.7984035E-001  0.2726629E+03  0.7818608E-02  0.1099765E+00
          2   -1    0    0  501    0  0.00000000000E+00  0.00000000000E+00  0.17919825685E+04  0.17919825685E+04  0.00000000000E+00 0.  1.
         -2   -1    0    0    0  501 -0.00000000000E+00 -0.00000000000E+00 -0.10371903173E+02  0.10371903173E+02  0.00000000000E+00 0.  1.
         35    2    1    2    0    0 -0.10658141036E-13  0.35527136788E-14  0.17816106653E+04  0.18023544716E+04  0.27266293981E+03 0.  0.
         25    2    3    3    0    0  0.28982693487E+02 -0.78891047861E+01  0.68575959766E+03  0.69895624674E+03  0.13180051053E+03 0.  0.
         25    2    3    3    0    0 -0.28982693487E+02  0.78891047861E+01  0.10958510676E+04  0.11033982249E+04  0.12528306263E+03 0.  0.
          5    1    4    4  502    0 -0.47372516734E+02 -0.28850792614E+02  0.30144808139E+03  0.30654454709E+03  0.47000000000E+01 0.  1.
         -5    1    4    4    0  502  0.76355210221E+02  0.20961687828E+02  0.38431151628E+03  0.39241169966E+03  0.47000000000E+01 0.  1.
          5    1    5    5  503    0 -0.34565089004E+02 -0.53880488682E+02  0.44920226079E+03  0.45376493202E+03  0.47000000000E+01 0. -1.
         -5    1    5    5    0  503  0.55823955171E+01  0.61769593468E+02  0.64664880684E+03  0.64963329287E+03  0.47000000000E+01 0. -1.
<mgrwt>
<rscale>  0 0.27266294E+03</rscale>
<asrwt>0</asrwt>
<pdfrwt beam="1">  1        2 0.27568938E+00 0.27266294E+03</pdfrwt>
<pdfrwt beam="2">  1       -2 0.15956788E-02 0.27266294E+03</pdfrwt>
<totfact> 0.10295964E+04</totfact>
</mgrwt>
</event>
<event>
 9    1  0.7984035E-001  0.2729818E+03  0.7818608E-02  0.1099585E+00
          2   -1    0    0  501    0  0.00000000000E+00  0.00000000000E+00  0.26937143944E+03  0.26937143944E+03  0.00000000000E+00 0. -1.
         -2   -1    0    0    0  501 -0.00000000000E+00 -0.00000000000E+00 -0.69160114474E+02  0.69160114474E+02  0.00000000000E+00 0. -1.
         35    2    1    2    0    0  0.71054273576E-14  0.00000000000E+00  0.20021132496E+03  0.33853155391E+03  0.27298175461E+03 0.  0.
         25    2    3    3    0    0  0.17975961116E+02  0.18204894364E+02  0.38017077943E+02  0.13184372140E+03  0.12362408867E+03 0.  0.
         25    2    3    3    0    0 -0.17975961116E+02 -0.18204894364E+02  0.16219424702E+03  0.20668783251E+03  0.12553219900E+03 0.  0.
          5    1    4    4  502    0 -0.22361219599E+02  0.48132866730E+02 -0.18206485320E+02  0.56305977562E+02  0.47000000000E+01 0.  1.
         -5    1    4    4    0  502  0.40337180715E+02 -0.29927972366E+02  0.56223563263E+02  0.75537743837E+02  0.47000000000E+01 0.  1.
          5    1    5    5  503    0  0.17571045196E+02  0.40709886635E+01  0.16339854028E+03  0.16445816350E+03  0.47000000000E+01 0.  1.
         -5    1    5    5    0  503 -0.35547006312E+02 -0.22275883027E+02 -0.12042932576E+01  0.42229669009E+02  0.47000000000E+01 0.  1.
<mgrwt>
<rscale>  0 0.27298175E+03</rscale>
<asrwt>0</asrwt>
<pdfrwt beam="1">  1        2 0.41441759E-01 0.27298175E+03</pdfrwt>
<pdfrwt beam="2">  1       -2 0.10640018E-01 0.27298175E+03</pdfrwt>
<totfact> 0.73250996E+03</totfact>
</mgrwt>
</event>
<event>
 9    1  0.7984035E-001  0.2745564E+03  0.7818608E-02  0.1098700E+00
         -2   -1    0    0    0  501 -0.00000000000E+00  0.00000000000E+00  0.30509426122E+02  0.30509426122E+02  0.00000000000E+00 0.  1.
          2   -1    0    0  501    0  0.00000000000E+00 -0.00000000000E+00 -0.61768782932E+03  0.61768782932E+03  0.00000000000E+00 0.  1.
         35    2    1    2    0    0 -0.71054273576E-14  0.00000000000E+00 -0.58717840319E+03  0.64819725544E+03  0.27455637814E+03 0.  0.
         25    2    3    3    0    0 -0.35067454166E+02 -0.23082475876E+02 -0.20330527681E+03  0.24239879617E+03  0.12514636939E+03 0.  0.
         25    2    3    3    0    0  0.35067454166E+02  0.23082475876E+02 -0.38387312639E+03  0.40579845927E+03  0.12470479280E+03 0.  0.
          5    1    4    4  502    0 -0.24422072344E+02 -0.72611532387E+02 -0.15124716614E+03  0.16960739228E+03  0.47000000000E+01 0.  1.
         -5    1    4    4    0  502 -0.10645381822E+02  0.49529056511E+02 -0.52058110668E+02  0.72791403883E+02  0.47000000000E+01 0.  1.
          5    1    5    5  503    0 -0.11618571684E+02 -0.29136198829E+02 -0.27117066164E+03  0.27301927959E+03  0.47000000000E+01 0.  1.
         -5    1    5    5    0  503  0.46686025850E+02  0.52218674705E+02 -0.11270246475E+03  0.13277917968E+03  0.47000000000E+01 0.  1.
<mgrwt>
<rscale>  0 0.27455638E+03</rscale>
<asrwt>0</asrwt>
<pdfrwt beam="1">  1        2 0.95028890E-01 0.27455638E+03</pdfrwt>
<pdfrwt beam="2">  1       -2 0.46937582E-02 0.27455638E+03</pdfrwt>
<totfact> 0.10463643E+04</totfact>
</mgrwt>
</event>
<event>
 9    1  0.7984035E-001  0.2741665E+03  0.7818608E-02  0.1098918E+00
          2   -1    0    0  501    0  0.00000000000E+00  0.00000000000E+00  0.46395040339E+03  0.46395040339E+03  0.00000000000E+00 0. -1.
         -2   -1    0    0    0  501 -0.00000000000E+00 -0.00000000000E+00 -0.40503939573E+02  0.40503939573E+02  0.00000000000E+00 0. -1.
         35    2    1    2    0    0  0.14210854715E-13  0.35527136788E-14  0.42344646381E+03  0.50445434296E+03  0.27416651220E+03 0.  0.
         25    2    3    3    0    0  0.53503409954E+02  0.47665561672E+01  0.24515029966E+03  0.28062002824E+03  0.12555315961E+03 0.  0.
         25    2    3    3    0    0 -0.53503409954E+02 -0.47665561672E+01  0.17829616415E+03  0.22383431472E+03  0.12420524692E+03 0.  0.
          5    1    4    4  502    0  0.24599746040E+02 -0.56731837792E+02  0.74843889060E+02  0.97197462179E+02  0.47000000000E+01 0. -1.
         -5    1    4    4    0  502  0.28903663914E+02  0.61498393959E+02  0.17030641060E+03  0.18342256606E+03  0.47000000000E+01 0. -1.
          5    1    5    5  503    0  0.20349606972E+02  0.17479661819E+02  0.12974780507E+03  0.13257536725E+03  0.47000000000E+01 0.  1.
         -5    1    5    5    0  503 -0.73853016926E+02 -0.22246217986E+02  0.48548359078E+02  0.91258947468E+02  0.47000000000E+01 0.  1.
<mgrwt>
<rscale>  0 0.27416651E+03</rscale>
<asrwt>0</asrwt>
<pdfrwt beam="1">  1        2 0.71376981E-01 0.27416651E+03</pdfrwt>
<pdfrwt beam="2">  1       -2 0.62313757E-02 0.27416651E+03</pdfrwt>
<totfact> 0.93948451E+03</totfact>
</mgrwt>
</event>
<event>
 9    1  0.7984035E-001  0.2992414E+03  0.7818608E-02  0.1085620E+00
         -2   -1    0    0    0  501 -0.00000000000E+00  0.00000000000E+00  0.65766868159E+01  0.65766868159E+01  0.00000000000E+00 0.  1.
          2   -1    0    0  501    0  0.00000000000E+00 -0.00000000000E+00 -0.34038953384E+04  0.34038953384E+04  0.00000000000E+00 0.  1.
         35    2    1    2    0    0  0.00000000000E+00  0.00000000000E+00 -0.33973186516E+04  0.34104720252E+04  0.29924139817E+03 0.  0.
         25    2    3    3    0    0  0.75371998485E+02  0.27705415256E+02 -0.20536068467E+04  0.20585297614E+04  0.11745283883E+03 0.  0.
         25    2    3    3    0    0 -0.75371998485E+02 -0.27705415256E+02 -0.13437118048E+04  0.13519422638E+04  0.12545095479E+03 0.  0.
          5    1    4    4  502    0  0.81097021676E+02  0.25820569274E+02 -0.73882339652E+03  0.74372409533E+03  0.47000000000E+01 0. -1.
         -5    1    4    4    0  502 -0.57250231909E+01  0.18848459813E+01 -0.13147834502E+04  0.13148056661E+04  0.47000000000E+01 0. -1.
          5    1    5    5  503    0 -0.80604848772E+02 -0.19074254484E+02 -0.13355810100E+04  0.13381553322E+04  0.47000000000E+01 0. -1.
         -5    1    5    5    0  503  0.52328502871E+01 -0.86311607718E+01 -0.81307948020E+01  0.13786931584E+02  0.47000000000E+01 0. -1.
<mgrwt>
<rscale>  0 0.29924140E+03</rscale>
<asrwt>0</asrwt>
<pdfrwt beam="1">  1        2 0.52367529E+00 0.29924140E+03</pdfrwt>
<pdfrwt beam="2">  1       -2 0.10117998E-02 0.29924140E+03</pdfrwt>
<totfact> 0.24493077E+03</totfact>
</mgrwt>
</event>
<event>
 9    1  0.7984035E-001  0.2722243E+03  0.7818608E-02  0.1100013E+00
          2   -1    0    0  501    0  0.00000000000E+00  0.00000000000E+00  0.57098872611E+02  0.57098872611E+02  0.00000000000E+00 0. -1.
         -2   -1    0    0    0  501 -0.00000000000E+00 -0.00000000000E+00 -0.32446382540E+03  0.32446382540E+03  0.00000000000E+00 0. -1.
         35    2    1    2    0    0  0.00000000000E+00  0.00000000000E+00 -0.26736495279E+03  0.38156269801E+03  0.27222430923E+03 0.  0.
         25    2    3    3    0    0  0.47783767995E+01  0.38482265643E+00 -0.59616932144E+02  0.13859383680E+03  0.12502436573E+03 0.  0.
         25    2    3    3    0    0 -0.47783767995E+01 -0.38482265643E+00 -0.20774802064E+03  0.24296886121E+03  0.12590332190E+03 0.  0.
          5    1    4    4  502    0  0.59208498253E+00  0.36421023761E+02  0.26326600902E+02  0.45188731466E+02  0.47000000000E+01 0.  1.
         -5    1    4    4    0  502  0.41862918169E+01 -0.36036201105E+02 -0.85943533047E+02  0.93405105330E+02  0.47000000000E+01 0.  1.
          5    1    5    5  503    0  0.16724278283E+02  0.59607381762E+02 -0.10131198810E+03  0.11882318956E+03  0.47000000000E+01 0. -1.
         -5    1    5    5    0  503 -0.21502655083E+02 -0.59992204418E+02 -0.10643603255E+03  0.12414567165E+03  0.47000000000E+01 0. -1.
<mgrwt>
<rscale>  0 0.27222431E+03</rscale>
<asrwt>0</asrwt>
<pdfrwt beam="1">  1        2 0.87844420E-02 0.27222431E+03</pdfrwt>
<pdfrwt beam="2">  1       -2 0.49917511E-01 0.27222431E+03</pdfrwt>
<totfact> 0.28964658E+03</totfact>
</mgrwt>
</event>
<event>
 9    1  0.7984035E-001  0.2781600E+03  0.7818608E-02  0.1096698E+00
          1   -1    0    0  501    0  0.00000000000E+00  0.00000000000E+00  0.10649822657E+04  0.10649822657E+04  0.00000000000E+00 0.  1.
         -1   -1    0    0    0  501 -0.00000000000E+00 -0.00000000000E+00 -0.18162980993E+02  0.18162980993E+02  0.00000000000E+00 0.  1.
         35    2    1    2    0    0  0.71054273576E-14 -0.17763568394E-14  0.10468192847E+04  0.10831452467E+04  0.27816004494E+03 0.  0.
         25    2    3    3    0    0  0.26816926275E+02 -0.10912026960E+02  0.73872740678E+03  0.74943364710E+03  0.12285922838E+03 0.  0.
         25    2    3    3    0    0 -0.26816926275E+02  0.10912026960E+02  0.30809187795E+03  0.33371159962E+03  0.12491839976E+03 0.  0.
          5    1    4    4  502    0  0.68222858755E+02  0.18985504105E+02  0.51720486709E+03  0.52205150355E+03  0.47000000000E+01 0. -1.
         -5    1    4    4    0  502 -0.41405932480E+02 -0.29897531065E+02  0.22152253970E+03  0.22738214354E+03  0.47000000000E+01 0. -1.
          5    1    5    5  503    0 -0.70590819438E+02 -0.64016282074E+01  0.11721951775E+03  0.13706403604E+03  0.47000000000E+01 0. -1.
         -5    1    5    5    0  503  0.43773893162E+02  0.17313655168E+02  0.19087236020E+03  0.19664756359E+03  0.47000000000E+01 0. -1.
<mgrwt>
<rscale>  0 0.27816004E+03</rscale>
<asrwt>0</asrwt>
<pdfrwt beam="1">  1        1 0.16384338E+00 0.27816004E+03</pdfrwt>
<pdfrwt beam="2">  1       -1 0.27943056E-02 0.27816004E+03</pdfrwt>
<totfact> 0.59948253E+03</totfact>
</mgrwt>
</event>
<event>
 9    1  0.7984035E-001  0.2703894E+03  0.7818608E-02  0.1101057E+00
         -2   -1    0    0    0  501 -0.00000000000E+00  0.00000000000E+00  0.48895239001E+02  0.48895239001E+02  0.00000000000E+00 0. -1.
          2   -1    0    0  501    0  0.00000000000E+00 -0.00000000000E+00 -0.37381169482E+03  0.37381169482E+03  0.00000000000E+00 0. -1.
         35    2    1    2    0    0 -0.14210854715E-13 -0.35527136788E-14 -0.32491645582E+03  0.42270693382E+03  0.27038943884E+03 0.  0.
         25    2    3    3    0    0  0.48572349037E+02  0.12658795829E+02 -0.17389202888E+03  0.21985298401E+03  0.12480936931E+03 0.  0.
         25    2    3    3    0    0 -0.48572349037E+02 -0.12658795829E+02 -0.15102442694E+03  0.20285394981E+03  0.12578485290E+03 0.  0.
          5    1    4    4  502    0  0.17940423125E+02 -0.46184157501E+02 -0.13245213631E+03  0.14149379350E+03  0.47000000000E+01 0. -1.
         -5    1    4    4    0  502  0.30631925912E+02  0.58842953330E+02 -0.41439892572E+02  0.78359190514E+02  0.47000000000E+01 0. -1.
          5    1    5    5  503    0 -0.79216515000E+02 -0.17331687822E+02 -0.46210584339E+02  0.93451333626E+02  0.47000000000E+01 0.  1.
         -5    1    5    5    0  503  0.30644165963E+02  0.46728919932E+01 -0.10481384260E+03  0.10940261619E+03  0.47000000000E+01 0.  1.
<mgrwt>
<rscale>  0 0.27038944E+03</rscale>
<asrwt>0</asrwt>
<pdfrwt beam="1">  1        2 0.57509492E-01 0.27038944E+03</pdfrwt>
<pdfrwt beam="2">  1       -2 0.75223444E-02 0.27038944E+03</pdfrwt>
<totfact> 0.88845211E+03</totfact>
</mgrwt>
</event>
<event>
 9    1  0.7984035E-001  0.2772585E+03  0.7818608E-02  0.1097196E+00
          2   -1    0    0  501    0  0.00000000000E+00  0.00000000000E+00  0.41631302632E+02  0.41631302632E+02  0.00000000000E+00 0.  1.
         -2   -1    0    0    0  501 -0.00000000000E+00 -0.00000000000E+00 -0.46162557112E+03  0.46162557112E+03  0.00000000000E+00 0.  1.
         35    2    1    2    0    0  0.00000000000E+00  0.00000000000E+00 -0.41999426849E+03  0.50325687375E+03  0.27725853533E+03 0.  0.
         25    2    3    3    0    0 -0.61310464322E+02  0.16394204002E+02 -0.15845601650E+03  0.21122078285E+03  0.12441128157E+03 0.  0.
         25    2    3    3    0    0  0.61310464322E+02 -0.16394204002E+02 -0.26153825199E+03  0.29203609090E+03  0.11338023715E+03 0.  0.
          5    1    4    4  502    0 -0.90486760357E+02  0.15656337605E+02 -0.63440645012E+02  0.11171293634E+03  0.47000000000E+01 0.  1.
         -5    1    4    4    0  502  0.29176296034E+02  0.73786639667E+00 -0.95015371488E+02  0.99507846506E+02  0.47000000000E+01 0.  1.
          5    1    5    5  503    0  0.32927635250E+02  0.16490450224E+02 -0.12468109752E+02  0.39162582557E+02  0.47000000000E+01 0.  1.
         -5    1    5    5    0  503  0.28382829072E+02 -0.32884654226E+02 -0.24907014224E+03  0.25287350835E+03  0.47000000000E+01 0.  1.
<mgrwt>
<rscale>  0 0.27725854E+03</rscale>
<asrwt>0</asrwt>
<pdfrwt beam="1">  1        2 0.64048161E-02 0.27725854E+03</pdfrwt>
<pdfrwt beam="2">  1       -2 0.71019315E-01 0.27725854E+03</pdfrwt>
<totfact> 0.20927994E+03</totfact>
</mgrwt>
</event>
<event>
 9    1  0.7984035E-001  0.2738060E+03  0.7818608E-02  0.1099121E+00
         -1   -1    0    0    0  501 -0.00000000000E+00  0.00000000000E+00  0.11574814948E+03  0.11574814948E+03  0.00000000000E+00 0.  1.
          1   -1    0    0  501    0  0.00000000000E+00 -0.00000000000E+00 -0.16192424665E+03  0.16192424665E+03  0.00000000000E+00 0.  1.
         35    2    1    2    0    0  0.14210854715E-13  0.00000000000E+00 -0.46176097168E+02  0.27767239612E+03  0.27380600362E+03 0.  0.
         25    2    3    3    0    0 -0.54000187832E+02  0.98585751225E+01 -0.23873758219E+02  0.13854306217E+03  0.12494403529E+03 0.  0.
         25    2    3    3    0    0  0.54000187832E+02 -0.98585751225E+01 -0.22302338949E+02  0.13912933395E+03  0.12588234767E+03 0.  0.
          5    1    4    4  502    0 -0.59579235312E+02 -0.38866067063E+02  0.18397805399E+02  0.73626256816E+02  0.47000000000E+01 0. -1.
         -5    1    4    4    0  502  0.55790474805E+01  0.48724642185E+02 -0.42271563619E+02  0.64916805356E+02  0.47000000000E+01 0. -1.
          5    1    5    5  503    0  0.48678750051E+02 -0.57189190028E+02  0.17064306305E+02  0.77158957434E+02  0.47000000000E+01 0.  1.
         -5    1    5    5    0  503  0.53214377803E+01  0.47330614905E+02 -0.39366645253E+02  0.61970376519E+02  0.47000000000E+01 0.  1.
<mgrwt>
<rscale>  0 0.27380600E+03</rscale>
<asrwt>0</asrwt>
<pdfrwt beam="1">  1        1 0.24911422E-01 0.27380600E+03</pdfrwt>
<pdfrwt beam="2">  1       -1 0.17807408E-01 0.27380600E+03</pdfrwt>
<totfact> 0.46522127E+03</totfact>
</mgrwt>
</event>
<event>
 9    1  0.7984035E-001  0.2736550E+03  0.7818608E-02  0.1099206E+00
          1   -1    0    0  501    0  0.00000000000E+00  0.00000000000E+00  0.20061168162E+04  0.20061168162E+04  0.00000000000E+00 0. -1.
         -1   -1    0    0    0  501 -0.00000000000E+00 -0.00000000000E+00 -0.93323384529E+01  0.93323384529E+01  0.00000000000E+00 0. -1.
         35    2    1    2    0    0 -0.35527136788E-14  0.71054273576E-14  0.19967844777E+04  0.20154491546E+04  0.27365497331E+03 0.  0.
         25    2    3    3    0    0 -0.24957272105E+01  0.59288404422E+02  0.10783692562E+04  0.10869000448E+04  0.12227064741E+03 0.  0.
         25    2    3    3    0    0  0.24957272105E+01 -0.59288404422E+02  0.91841522154E+03  0.92854910980E+03  0.12327038005E+03 0.  0.
          5    1    4    4  502    0 -0.31737234939E+02 -0.28585544076E+02  0.31408458321E+03  0.31701041122E+03  0.47000000000E+01 0. -1.
         -5    1    4    4    0  502  0.29241507728E+02  0.87873948498E+02  0.76428467295E+03  0.76988963359E+03  0.47000000000E+01 0. -1.
          5    1    5    5  503    0 -0.17977299862E+02 -0.16825018820E+02  0.80813519702E+03  0.80852387177E+03  0.47000000000E+01 0. -1.
         -5    1    5    5    0  503  0.20473027073E+02 -0.42463385602E+02  0.11028002452E+03  0.12002523802E+03  0.47000000000E+01 0. -1.
<mgrwt>
<rscale>  0 0.27365497E+03</rscale>
<asrwt>0</asrwt>
<pdfrwt beam="1">  1        1 0.30863301E+00 0.27365497E+03</pdfrwt>
<pdfrwt beam="2">  1       -1 0.14357460E-02 0.27365497E+03</pdfrwt>
<totfact> 0.37189696E+03</totfact>
</mgrwt>
</event>
<event>
 9    1  0.7984035E-001  0.2746691E+03  0.7818608E-02  0.1098637E+00
         -1   -1    0    0    0  501 -0.00000000000E+00  0.00000000000E+00  0.10259713558E+03  0.10259713558E+03  0.00000000000E+00 0. -1.
          1   -1    0    0  501    0  0.00000000000E+00 -0.00000000000E+00 -0.18383334543E+03  0.18383334543E+03  0.00000000000E+00 0. -1.
         35    2    1    2    0    0  0.00000000000E+00  0.71054273576E-14 -0.81236209857E+02  0.28643048101E+03  0.27466907117E+03 0.  0.
         25    2    3    3    0    0 -0.45070444835E+02  0.35140625331E+02 -0.33040707829E+02  0.14105338161E+03  0.12465215419E+03 0.  0.
         25    2    3    3    0    0  0.45070444835E+02 -0.35140625331E+02 -0.48195502027E+02  0.14537709940E+03  0.12468153860E+03 0.  0.
          5    1    4    4  502    0 -0.11217079096E+01  0.16796102683E+02  0.45690555773E+02  0.48919159649E+02  0.47000000000E+01 0.  1.
         -5    1    4    4    0  502 -0.43948736926E+02  0.18344522647E+02 -0.78731263602E+02  0.92134221964E+02  0.47000000000E+01 0.  1.
          5    1    5    5  503    0  0.69294288160E+02  0.15294263577E+02 -0.53478825530E+02  0.88981389347E+02  0.47000000000E+01 0. -1.
         -5    1    5    5    0  503 -0.24223843325E+02 -0.50434888908E+02  0.52833235029E+01  0.56395710048E+02  0.47000000000E+01 0. -1.
<mgrwt>
<rscale>  0 0.27466907E+03</rscale>
<asrwt>0</asrwt>
<pdfrwt beam="1">  1        1 0.28282053E-01 0.27466907E+03</pdfrwt>
<pdfrwt beam="2">  1       -1 0.15784175E-01 0.27466907E+03</pdfrwt>
<totfact> 0.48040279E+03</totfact>
</mgrwt>
</event>
<event>
 9    1  0.7984035E-001  0.2771568E+03  0.7818608E-02  0.1097252E+00
          2   -1    0    0  501    0  0.00000000000E+00  0.00000000000E+00  0.21735534129E+03  0.21735534129E+03  0.00000000000E+00 0.  1.
         -2   -1    0    0    0  501 -0.00000000000E+00 -0.00000000000E+00 -0.88352869207E+02  0.88352869207E+02  0.00000000000E+00 0.  1.
         35    2    1    2    0    0  0.00000000000E+00  0.71054273576E-14  0.12900247208E+03  0.30570821050E+03  0.27715676460E+03 0.  0.
         25    2    3    3    0    0  0.27699656420E+02  0.52445006918E+02  0.54779490185E+02  0.14910138660E+03  0.12535023425E+03 0.  0.
         25    2    3    3    0    0 -0.27699656420E+02 -0.52445006918E+02  0.74222981898E+02  0.15660682389E+03  0.12449456427E+03 0.  0.
          5    1    4    4  502    0  0.28585011809E+02 -0.21041652392E+02 -0.22552248739E+02  0.42314866875E+02  0.47000000000E+01 0.  1.
         -5    1    4    4    0  502 -0.88535538840E+00  0.73486659310E+02  0.77331738923E+02  0.10678651973E+03  0.47000000000E+01 0.  1.
          5    1    5    5  503    0 -0.73424305869E+02 -0.39738532904E+02  0.69411311759E+02  0.10867520366E+03  0.47000000000E+01 0.  1.
         -5    1    5    5    0  503  0.45724649449E+02 -0.12706474014E+02  0.48116701390E+01  0.47931620238E+02  0.47000000000E+01 0.  1.
<mgrwt>
<rscale>  0 0.27715676E+03</rscale>
<asrwt>0</asrwt>
<pdfrwt beam="1">  1        2 0.33439283E-01 0.27715676E+03</pdfrwt>
<pdfrwt beam="2">  1       -2 0.13592749E-01 0.27715676E+03</pdfrwt>
<totfact> 0.62241884E+03</totfact>
</mgrwt>
</event>
<event>
 9    1  0.7984035E-001  0.2749383E+03  0.7818608E-02  0.1098486E+00
         -3   -1    0    0    0  501 -0.00000000000E+00  0.00000000000E+00  0.20701265387E+03  0.20701265387E+03  0.00000000000E+00 0.  1.
          3   -1    0    0  501    0  0.00000000000E+00 -0.00000000000E+00 -0.91288007049E+02  0.91288007049E+02  0.00000000000E+00 0.  1.
         35    2    1    2    0    0  0.00000000000E+00  0.00000000000E+00  0.11572464682E+03  0.29830066092E+03  0.27493833931E+03 0.  0.
         25    2    3    3    0    0 -0.15814983394E+02  0.13880136176E+02  0.11602046083E+03  0.17094187748E+03  0.12376431741E+03 0.  0.
         25    2    3    3    0    0  0.15814983394E+02 -0.13880136176E+02 -0.29581400856E+00  0.12735878344E+03  0.12560812209E+03 0.  0.
          5    1    4    4  502    0  0.31492710113E+02 -0.26379121275E+02  0.24671862049E+01  0.41422528137E+02  0.47000000000E+01 0.  1.
         -5    1    4    4    0  502 -0.47307693507E+02  0.40259257451E+02  0.11355327463E+03  0.12951934934E+03  0.47000000000E+01 0.  1.
          5    1    5    5  503    0  0.60403963695E+02 -0.20579628108E+02  0.32151207652E+02  0.71609706581E+02  0.47000000000E+01 0.  1.
         -5    1    5    5    0  503 -0.44588980301E+02  0.66994919320E+01 -0.32447021660E+02  0.55749076863E+02  0.47000000000E+01 0.  1.
<mgrwt>
<rscale>  0 0.27493834E+03</rscale>
<asrwt>0</asrwt>
<pdfrwt beam="1">  1        3 0.14044309E-01 0.27493834E+03</pdfrwt>
<pdfrwt beam="2">  1       -3 0.31848100E-01 0.27493834E+03</pdfrwt>
<totfact> 0.10146798E+03</totfact>
</mgrwt>
</event>
<event>
 9    1  0.7984035E-001  0.2752611E+03  0.7818608E-02  0.1098306E+00
          1   -1    0    0  501    0  0.00000000000E+00  0.00000000000E+00  0.52698647326E+03  0.52698647326E+03  0.00000000000E+00 0.  1.
         -1   -1    0    0    0  501 -0.00000000000E+00 -0.00000000000E+00 -0.35944315142E+02  0.35944315142E+02  0.00000000000E+00 0.  1.
         35    2    1    2    0    0  0.71054273576E-14 -0.35527136788E-14  0.49104215811E+03  0.56293078840E+03  0.27526109693E+03 0.  0.
         25    2    3    3    0    0 -0.43582952792E+02  0.30076363448E+02  0.29437670088E+03  0.32413513736E+03  0.12490750113E+03 0.  0.
         25    2    3    3    0    0  0.43582952792E+02 -0.30076363448E+02  0.19666545724E+03  0.23879565104E+03  0.12466755582E+03 0.  0.
          5    1    4    4  502    0  0.36688864610E+02  0.40183920296E+02  0.11655092708E+03  0.12871297075E+03  0.47000000000E+01 0.  1.
         -5    1    4    4    0  502 -0.80271817401E+02 -0.10107556849E+02  0.17782577380E+03  0.19542216661E+03  0.47000000000E+01 0.  1.
          5    1    5    5  503    0  0.85352803509E+02 -0.45358664490E+01  0.11329799558E+03  0.14200070758E+03  0.47000000000E+01 0.  1.
         -5    1    5    5    0  503 -0.41769850718E+02 -0.25540496999E+02  0.83367461656E+02  0.96794943457E+02  0.47000000000E+01 0.  1.
<mgrwt>
<rscale>  0 0.27526110E+03</rscale>
<asrwt>0</asrwt>
<pdfrwt beam="1">  1        1 0.81074836E-01 0.27526110E+03</pdfrwt>
<pdfrwt beam="2">  1       -1 0.55298950E-02 0.27526110E+03</pdfrwt>
<totfact> 0.63311859E+03</totfact>
</mgrwt>
</event>
<event>
 9    1  0.7984035E-001  0.2805309E+03  0.7818608E-02  0.1095399E+00
          3   -1    0    0  501    0  0.00000000000E+00  0.00000000000E+00  0.37646334125E+02  0.37646334125E+02  0.00000000000E+00 0.  1.
         -3   -1    0    0    0  501 -0.00000000000E+00 -0.00000000000E+00 -0.52261111229E+03  0.52261111229E+03  0.00000000000E+00 0.  1.
         35    2    1    2    0    0  0.00000000000E+00  0.35527136788E-14 -0.48496477816E+03  0.56025744641E+03  0.28053087210E+03 0.  0.
         25    2    3    3    0    0  0.30957257151E+02 -0.49794144244E+01 -0.34668801498E+03  0.36976911851E+03  0.12471357158E+03 0.  0.
         25    2    3    3    0    0 -0.30957257151E+02  0.49794144244E+01 -0.13827676319E+03  0.19048832791E+03  0.12720925081E+03 0.  0.
          5    1    4    4  502    0  0.12060931329E+02  0.55129983440E+02 -0.23217102104E+03  0.23897751808E+03  0.47000000000E+01 0.  1.
         -5    1    4    4    0  502  0.18896325822E+02 -0.60109397865E+02 -0.11451699393E+03  0.13079160042E+03  0.47000000000E+01 0.  1.
          5    1    5    5  503    0 -0.59488081091E+01  0.29454610503E+02 -0.15018033920E+03  0.15322919656E+03  0.47000000000E+01 0.  1.
         -5    1    5    5    0  503 -0.25008449042E+02 -0.24475196079E+02  0.11903576010E+02  0.37259131343E+02  0.47000000000E+01 0.  1.
<mgrwt>
<rscale>  0 0.28053087E+03</rscale>
<asrwt>0</asrwt>
<pdfrwt beam="1">  1        3 0.57917438E-02 0.28053087E+03</pdfrwt>
<pdfrwt beam="2">  1       -3 0.80401709E-01 0.28053087E+03</pdfrwt>
<totfact> 0.67604331E+02</totfact>
</mgrwt>
</event>
<event>
 9    1  0.7984035E-001  0.2717446E+03  0.7818608E-02  0.1100285E+00
          4   -1    0    0  501    0  0.00000000000E+00  0.00000000000E+00  0.56703128396E+03  0.56703128396E+03  0.00000000000E+00 0. -1.
         -4   -1    0    0    0  501 -0.00000000000E+00 -0.00000000000E+00 -0.32557773713E+02  0.32557773713E+02  0.00000000000E+00 0. -1.
         35    2    1    2    0    0 -0.71054273576E-14  0.71054273576E-14  0.53447351025E+03  0.59958905768E+03  0.27174455823E+03 0.  0.
         25    2    3    3    0    0  0.33508469484E+02  0.28442495882E+02  0.19776555005E+03  0.23792946189E+03  0.12476947924E+03 0.  0.
         25    2    3    3    0    0 -0.33508469484E+02 -0.28442495882E+02  0.33670796020E+03  0.36165959579E+03  0.12447336929E+03 0.  0.
          5    1    4    4  502    0  0.46649279695E+02  0.70913835490E+02  0.15064137261E+03  0.17297352544E+03  0.47000000000E+01 0. -1.
         -5    1    4    4    0  502 -0.13140810211E+02 -0.42471339607E+02  0.47124177436E+02  0.64955936450E+02  0.47000000000E+01 0. -1.
          5    1    5    5  503    0  0.25108238759E+02 -0.37618283405E+02  0.45115115890E+02  0.64054840423E+02  0.47000000000E+01 0.  1.
         -5    1    5    5    0  503 -0.58616708243E+02  0.91757875224E+01  0.29159284431E+03  0.29760475537E+03  0.47000000000E+01 0.  1.
<mgrwt>
<rscale>  0 0.27174456E+03</rscale>
<asrwt>0</asrwt>
<pdfrwt beam="1">  1        4 0.87235575E-01 0.27174456E+03</pdfrwt>
<pdfrwt beam="2">  1       -4 0.50088887E-02 0.27174456E+03</pdfrwt>
<totfact> 0.52065998E+02</totfact>
</mgrwt>
</event>
<event>
 9    1  0.7984035E-001  0.2761461E+03  0.7818608E-02  0.1097813E+00
         -1   -1    0    0    0  501 -0.00000000000E+00  0.00000000000E+00  0.13909509854E+02  0.13909509854E+02  0.00000000000E+00 0. -1.
          1   -1    0    0  501    0  0.00000000000E+00 -0.00000000000E+00 -0.13705846971E+04  0.13705846971E+04  0.00000000000E+00 0. -1.
         35    2    1    2    0    0 -0.35527136788E-14  0.22204460493E-15 -0.13566751872E+04  0.13844942069E+04  0.27614605809E+03 0.  0.
         25    2    3    3    0    0 -0.31285050703E+02 -0.93125369335E+00 -0.88004025509E+03  0.88955298823E+03  0.12591285348E+03 0.  0.
         25    2    3    3    0    0  0.31285050703E+02  0.93125369335E+00 -0.47663493216E+03  0.49494121872E+03  0.12963922941E+03 0.  0.
          5    1    4    4  502    0 -0.46677772469E+01 -0.50286639033E+02 -0.17313655631E+03  0.18041311299E+03  0.47000000000E+01 0.  1.
         -5    1    4    4    0  502 -0.26617273456E+02  0.49355385340E+02 -0.70690369878E+03  0.70913987524E+03  0.47000000000E+01 0.  1.
          5    1    5    5  503    0  0.17972759863E+02 -0.39132137145E-01 -0.48752350384E+00  0.18583576286E+02  0.47000000000E+01 0. -1.
         -5    1    5    5    0  503  0.13312290840E+02  0.97038583049E+00 -0.47614740865E+03  0.47635764243E+03  0.47000000000E+01 0. -1.
<mgrwt>
<rscale>  0 0.27614606E+03</rscale>
<asrwt>0</asrwt>
<pdfrwt beam="1">  1        1 0.21085930E+00 0.27614606E+03</pdfrwt>
<pdfrwt beam="2">  1       -1 0.21399234E-02 0.27614606E+03</pdfrwt>
<totfact> 0.54251738E+03</totfact>
</mgrwt>
</event>
<event>
 9    1  0.7984035E-001  0.2824419E+03  0.7818608E-02  0.1094363E+00
          2   -1    0    0  501    0  0.00000000000E+00  0.00000000000E+00  0.24590797002E+03  0.24590797002E+03  0.00000000000E+00 0.  1.
         -2   -1    0    0    0  501 -0.00000000000E+00 -0.00000000000E+00 -0.81100887383E+02  0.81100887383E+02  0.00000000000E+00 0.  1.
         35    2    1    2    0    0  0.71054273576E-14  0.00000000000E+00  0.16480708263E+03  0.32700885740E+03  0.28244188488E+03 0.  0.
         25    2    3    3    0    0 -0.26657221384E+02  0.42389007261E+02  0.30173964907E+02  0.13686618638E+03  0.12375156333E+03 0.  0.
         25    2    3    3    0    0  0.26657221384E+02 -0.42389007261E+02  0.13463311773E+03  0.19014267102E+03  0.12458219602E+03 0.  0.
          5    1    4    4  502    0  0.41549674631E+02  0.36490165989E+02 -0.11366485107E+02  0.56649754276E+02  0.47000000000E+01 0.  1.
         -5    1    4    4    0  502 -0.68206896015E+02  0.58988412716E+01  0.41540450013E+02  0.80216432105E+02  0.47000000000E+01 0.  1.
          5    1    5    5  503    0  0.70051065564E+02  0.35859078549E+01  0.79540302182E+02  0.10615441674E+03  0.47000000000E+01 0. -1.
         -5    1    5    5    0  503 -0.43393844180E+02 -0.45974915116E+02  0.55092815545E+02  0.83988254282E+02  0.47000000000E+01 0. -1.
<mgrwt>
<rscale>  0 0.28244188E+03</rscale>
<asrwt>0</asrwt>
<pdfrwt beam="1">  1        2 0.37831995E-01 0.28244188E+03</pdfrwt>
<pdfrwt beam="2">  1       -2 0.12477060E-01 0.28244188E+03</pdfrwt>
<totfact> 0.62626225E+03</totfact>
</mgrwt>
</event>
<event>
 9    1  0.7984035E-001  0.2710655E+03  0.7818608E-02  0.1100671E+00
         -2   -1    0    0    0  501 -0.00000000000E+00  0.00000000000E+00  0.41782723605E+03  0.41782723605E+03  0.00000000000E+00 0.  1.
          2   -1    0    0  501    0  0.00000000000E+00 -0.00000000000E+00 -0.43963441385E+02  0.43963441385E+02  0.00000000000E+00 0.  1.
         35    2    1    2    0    0  0.71054273576E-14 -0.35527136788E-14  0.37386379467E+03  0.46179067744E+03  0.27106547697E+03 0.  0.
         25    2    3    3    0    0 -0.43644217289E+02 -0.77544240636E+01  0.23661819989E+03  0.27085202164E+03  0.12412774192E+03 0.  0.
         25    2    3    3    0    0  0.43644217289E+02  0.77544240636E+01  0.13724559478E+03  0.19093865580E+03  0.12512501027E+03 0.  0.
          5    1    4    4  502    0  0.31908402196E+02  0.32397368594E+02  0.92616899649E+02  0.10328463450E+03  0.47000000000E+01 0. -1.
         -5    1    4    4    0  502 -0.75552619485E+02 -0.40151792658E+02  0.14400130024E+03  0.16756738714E+03  0.47000000000E+01 0. -1.
          5    1    5    5  503    0  0.77043689992E+02  0.27884459991E+02  0.12548028786E+03  0.14993553921E+03  0.47000000000E+01 0. -1.
         -5    1    5    5    0  503 -0.33399472702E+02 -0.20130035927E+02  0.11765306929E+02  0.41003116593E+02  0.47000000000E+01 0. -1.
<mgrwt>
<rscale>  0 0.27106548E+03</rscale>
<asrwt>0</asrwt>
<pdfrwt beam="1">  1        2 0.67636066E-02 0.27106548E+03</pdfrwt>
<pdfrwt beam="2">  1       -2 0.64281111E-01 0.27106548E+03</pdfrwt>
<totfact> 0.24088319E+03</totfact>
</mgrwt>
</event>
<event>
 9    1  0.7984035E-001  0.2753851E+03  0.7818608E-02  0.1098237E+00
          2   -1    0    0  501    0  0.00000000000E+00  0.00000000000E+00  0.11253658669E+04  0.11253658669E+04  0.00000000000E+00 0.  1.
         -2   -1    0    0    0  501 -0.00000000000E+00 -0.00000000000E+00 -0.16847171743E+02  0.16847171743E+02  0.00000000000E+00 0.  1.
         35    2    1    2    0    0  0.00000000000E+00  0.71054273576E-14  0.11085186952E+04  0.11422130387E+04  0.27538505431E+03 0.  0.
         25    2    3    3    0    0  0.36968157627E+02 -0.24194395172E+02  0.38865866513E+03  0.41015504853E+03  0.12336771223E+03 0.  0.
         25    2    3    3    0    0 -0.36968157627E+02  0.24194395172E+02  0.71986003007E+03  0.73205799015E+03  0.12553256397E+03 0.  0.
          5    1    4    4  502    0  0.39525162669E+02 -0.69695441321E+01  0.28272280201E+02  0.49317591762E+02  0.47000000000E+01 0. -1.
         -5    1    4    4    0  502 -0.25570050422E+01 -0.17224851040E+02  0.36038638493E+03  0.36083745677E+03  0.47000000000E+01 0. -1.
          5    1    5    5  503    0  0.13843515032E+02 -0.32340134071E+02  0.77991901092E+02  0.85687535944E+02  0.47000000000E+01 0. -1.
         -5    1    5    5    0  503 -0.50811672659E+02  0.56534529243E+02  0.64186812898E+03  0.64637045421E+03  0.47000000000E+01 0. -1.
<mgrwt>
<rscale>  0 0.27538505E+03</rscale>
<asrwt>0</asrwt>
<pdfrwt beam="1">  1        2 0.17313315E+00 0.27538505E+03</pdfrwt>
<pdfrwt beam="2">  1       -2 0.25918735E-02 0.27538505E+03</pdfrwt>
<totfact> 0.11606276E+04</totfact>
</mgrwt>
</event>
<event>
 9    1  0.7984035E-001  0.2718158E+03  0.7818608E-02  0.1100245E+00
         -2   -1    0    0    0  501 -0.00000000000E+00  0.00000000000E+00  0.15015483357E+02  0.15015483357E+02  0.00000000000E+00 0. -1.
          2   -1    0    0  501    0  0.00000000000E+00 -0.00000000000E+00 -0.12301272103E+04  0.12301272103E+04  0.00000000000E+00 0. -1.
         35    2    1    2    0    0  0.00000000000E+00 -0.14210854715E-13 -0.12151117269E+04  0.12451426936E+04  0.27181578065E+03 0.  0.
         25    2    3    3    0    0 -0.26620648504E+02 -0.45425225320E+02 -0.64169854672E+03  0.65606663239E+03  0.12599321905E+03 0.  0.
         25    2    3    3    0    0  0.26620648504E+02  0.45425225320E+02 -0.57341318019E+03  0.58907606124E+03  0.12424097829E+03 0.  0.
          5    1    4    4  502    0  0.26429339445E+02 -0.65245580830E+02 -0.46853819881E+03  0.47382025025E+03  0.47000000000E+01 0.  1.
         -5    1    4    4    0  502 -0.53049987949E+02  0.19820355510E+02 -0.17316034791E+03  0.18224638214E+03  0.47000000000E+01 0.  1.
          5    1    5    5  503    0  0.63326084646E+02  0.29232063853E+02 -0.17240117161E+03  0.18603483686E+03  0.47000000000E+01 0. -1.
         -5    1    5    5    0  503 -0.36705436143E+02  0.16193161468E+02 -0.40101200858E+03  0.40304122438E+03  0.47000000000E+01 0. -1.
<mgrwt>
<rscale>  0 0.27181578E+03</rscale>
<asrwt>0</asrwt>
<pdfrwt beam="1">  1        2 0.18925042E+00 0.27181578E+03</pdfrwt>
<pdfrwt beam="2">  1       -2 0.23100734E-02 0.27181578E+03</pdfrwt>
<totfact> 0.11981565E+04</totfact>
</mgrwt>
</event>
<event>
 9    1  0.7984035E-001  0.2724106E+03  0.7818608E-02  0.1099908E+00
          1   -1    0    0  501    0  0.00000000000E+00  0.00000000000E+00  0.69798075131E+02  0.69798075131E+02  0.00000000000E+00 0. -1.
         -1   -1    0    0    0  501 -0.00000000000E+00 -0.00000000000E+00 -0.26579356808E+03  0.26579356808E+03  0.00000000000E+00 0. -1.
         35    2    1    2    0    0 -0.71054273576E-14  0.17763568394E-14 -0.19599549295E+03  0.33559164321E+03  0.27241056832E+03 0.  0.
         25    2    3    3    0    0 -0.52987586041E+02 -0.92957611898E+00 -0.10950670686E+03  0.17457292872E+03  0.12520159826E+03 0.  0.
         25    2    3    3    0    0  0.52987586041E+02  0.92957611898E+00 -0.86488786084E+02  0.16101871449E+03  0.12505266056E+03 0.  0.
          5    1    4    4  502    0 -0.47746987962E+02 -0.14861805470E+02 -0.13535692909E+03  0.14437533159E+03  0.47000000000E+01 0. -1.
         -5    1    4    4    0  502 -0.52405980792E+01  0.13932229351E+02  0.25850222224E+02  0.30197597122E+02  0.47000000000E+01 0. -1.
          5    1    5    5  503    0 -0.26087180210E+01 -0.35840783973E+02 -0.86944725824E+02  0.94195767177E+02  0.47000000000E+01 0.  1.
         -5    1    5    5    0  503  0.55596304062E+02  0.36770360092E+02  0.45593974034E+00  0.66822947314E+02  0.47000000000E+01 0.  1.
<mgrwt>
<rscale>  0 0.27241057E+03</rscale>
<asrwt>0</asrwt>
<pdfrwt beam="1">  1        1 0.10738166E-01 0.27241057E+03</pdfrwt>
<pdfrwt beam="2">  1       -1 0.40891318E-01 0.27241057E+03</pdfrwt>
<totfact> 0.34408836E+03</totfact>
</mgrwt>
</event>
<event>
 9    1  0.7984035E-001  0.2632010E+03  0.7818608E-02  0.1105235E+00
          2   -1    0    0  501    0  0.00000000000E+00  0.00000000000E+00  0.65173758179E+03  0.65173758179E+03  0.00000000000E+00 0. -1.
         -2   -1    0    0    0  501 -0.00000000000E+00 -0.00000000000E+00 -0.26573107254E+02  0.26573107254E+02  0.00000000000E+00 0. -1.
         35    2    1    2    0    0  0.14210854715E-13  0.35527136788E-14  0.62516447454E+03  0.67831068905E+03  0.26320100807E+03 0.  0.
         25    2    3    3    0    0  0.36872787580E+02  0.11990504040E+02  0.29573021711E+03  0.32362239483E+03  0.12558550266E+03 0.  0.
         25    2    3    3    0    0 -0.36872787580E+02 -0.11990504040E+02  0.32943425743E+03  0.35468829421E+03  0.12559252140E+03 0.  0.
          5    1    4    4  502    0  0.40645775716E+02  0.55975414919E+02  0.92510240160E+02  0.11560951818E+03  0.47000000000E+01 0. -1.
         -5    1    4    4    0  502 -0.37729881352E+01 -0.43984910879E+02  0.20321997695E+03  0.20801287666E+03  0.47000000000E+01 0. -1.
          5    1    5    5  503    0 -0.76230599272E+02  0.78079706588E+01  0.13532025106E+03  0.15558190453E+03  0.47000000000E+01 0.  1.
         -5    1    5    5    0  503  0.39357811691E+02 -0.19798474699E+02  0.19411400637E+03  0.19910638968E+03  0.47000000000E+01 0.  1.
<mgrwt>
<rscale>  0 0.26320101E+03</rscale>
<asrwt>0</asrwt>
<pdfrwt beam="1">  1        2 0.10026731E+00 0.26320101E+03</pdfrwt>
<pdfrwt beam="2">  1       -2 0.40881708E-02 0.26320101E+03</pdfrwt>
<totfact> 0.12080301E+04</totfact>
</mgrwt>
</event>
<event>
 9    1  0.7984035E-001  0.2743816E+03  0.7818608E-02  0.1098798E+00
          2   -1    0    0  501    0  0.00000000000E+00  0.00000000000E+00  0.15435138581E+04  0.15435138581E+04  0.00000000000E+00 0.  1.
         -2   -1    0    0    0  501 -0.00000000000E+00 -0.00000000000E+00 -0.12193812162E+02  0.12193812162E+02  0.00000000000E+00 0.  1.
         35    2    1    2    0    0  0.71054273576E-14  0.00000000000E+00  0.15313200459E+04  0.15557076703E+04  0.27438161786E+03 0.  0.
         25    2    3    3    0    0 -0.43591366828E+02 -0.22241025884E+02  0.93704312697E+03  0.94654058602E+03  0.12447645837E+03 0.  0.
         25    2    3    3    0    0  0.43591366828E+02  0.22241025884E+02  0.59427691898E+03  0.60916708425E+03  0.12459779135E+03 0.  0.
          5    1    4    4  502    0 -0.74290398829E+02 -0.43512289072E+02  0.79248247648E+03  0.79715929913E+03  0.47000000000E+01 0. -1.
         -5    1    4    4    0  502  0.30699032001E+02  0.21271263188E+02  0.14456065048E+03  0.14938128688E+03  0.47000000000E+01 0. -1.
          5    1    5    5  503    0 -0.26275249978E+02 -0.34177791913E+02  0.16784552040E+03  0.17335720042E+03  0.47000000000E+01 0.  1.
         -5    1    5    5    0  503  0.69866616806E+02  0.56418817797E+02  0.42643139858E+03  0.43580988383E+03  0.47000000000E+01 0.  1.
<mgrwt>
<rscale>  0 0.27438162E+03</rscale>
<asrwt>0</asrwt>
<pdfrwt beam="1">  1        2 0.23746352E+00 0.27438162E+03</pdfrwt>
<pdfrwt beam="2">  1       -2 0.18759723E-02 0.27438162E+03</pdfrwt>
<totfact> 0.10985171E+04</totfact>
</mgrwt>
</event>
<event>
 9    1  0.7984035E-001  0.2747935E+03  0.7818608E-02  0.1098567E+00
          1   -1    0    0  501    0  0.00000000000E+00  0.00000000000E+00  0.16916450616E+03  0.16916450616E+03  0.00000000000E+00 0. -1.
         -1   -1    0    0    0  501 -0.00000000000E+00 -0.00000000000E+00 -0.11159474781E+03  0.11159474781E+03  0.00000000000E+00 0. -1.
         35    2    1    2    0    0  0.35527136788E-14  0.00000000000E+00  0.57569758349E+02  0.28075925397E+03  0.27479352542E+03 0.  0.
         25    2    3    3    0    0 -0.29196333235E+02 -0.13285598514E+02  0.77249172422E+02  0.15086741662E+03  0.12555719715E+03 0.  0.
         25    2    3    3    0    0  0.29196333235E+02  0.13285598514E+02 -0.19679414073E+02  0.12989183735E+03  0.12432086337E+03 0.  0.
          5    1    4    4  502    0 -0.37638398167E+02  0.45214866414E+02  0.77699666506E+01  0.59527267224E+02  0.47000000000E+01 0.  1.
         -5    1    4    4    0  502  0.84420649313E+01 -0.58500464928E+02  0.69479205771E+02  0.91340149396E+02  0.47000000000E+01 0.  1.
          5    1    5    5  503    0 -0.27048511074E+02  0.25146667619E+02  0.34502722170E+02  0.50759281721E+02  0.47000000000E+01 0. -1.
         -5    1    5    5    0  503  0.56244844310E+02 -0.11861069106E+02 -0.54182136243E+02  0.79132555624E+02  0.47000000000E+01 0. -1.
<mgrwt>
<rscale>  0 0.27479353E+03</rscale>
<asrwt>0</asrwt>
<pdfrwt beam="1">  1        1 0.26025309E-01 0.27479353E+03</pdfrwt>
<pdfrwt beam="2">  1       -1 0.17168423E-01 0.27479353E+03</pdfrwt>
<totfact> 0.46670178E+03</totfact>
</mgrwt>
</event>
<event>
 9    1  0.7984035E-001  0.3055806E+03  0.7818608E-02  0.1082484E+00
          1   -1    0    0  501    0  0.00000000000E+00  0.00000000000E+00  0.70182981652E+03  0.70182981652E+03  0.00000000000E+00 0.  1.
         -1   -1    0    0    0  501 -0.00000000000E+00 -0.00000000000E+00 -0.33262880468E+02  0.33262880468E+02  0.00000000000E+00 0.  1.
         35    2    1    2    0    0  0.00000000000E+00  0.00000000000E+00  0.66856693605E+03  0.73509269699E+03  0.30558063614E+03 0.  0.
         25    2    3    3    0    0  0.47487343483E+02  0.54762184953E+02  0.44916159957E+03  0.47241931091E+03  0.12720030702E+03 0.  0.
         25    2    3    3    0    0 -0.47487343483E+02 -0.54762184953E+02  0.21940533648E+03  0.26267338608E+03  0.12491861904E+03 0.  0.
          5    1    4    4  502    0  0.43729530339E+02  0.21881095155E+02  0.43211163152E+03  0.43489493701E+03  0.47000000000E+01 0.  1.
         -5    1    4    4    0  502  0.37578131441E+01  0.32881089798E+02  0.17049968052E+02  0.37524373899E+02  0.47000000000E+01 0.  1.
          5    1    5    5  503    0  0.30027715018E+02 -0.36444456632E+02  0.14861670922E+03  0.15600922520E+03  0.47000000000E+01 0. -1.
         -5    1    5    5    0  503 -0.77515058501E+02 -0.18317728321E+02  0.70788627267E+02  0.10666416088E+03  0.47000000000E+01 0. -1.
<mgrwt>
<rscale>  0 0.30558064E+03</rscale>
<asrwt>0</asrwt>
<pdfrwt beam="1">  1        1 0.10797381E+00 0.30558064E+03</pdfrwt>
<pdfrwt beam="2">  1       -1 0.51173668E-02 0.30558064E+03</pdfrwt>
<totfact> 0.47754991E+03</totfact>
</mgrwt>
</event>
<event>
 9    1  0.7984035E-001  0.2762808E+03  0.7818608E-02  0.1097738E+00
         -1   -1    0    0    0  501 -0.00000000000E+00  0.00000000000E+00  0.15835850737E+03  0.15835850737E+03  0.00000000000E+00 0.  1.
          1   -1    0    0  501    0  0.00000000000E+00 -0.00000000000E+00 -0.12050363532E+03  0.12050363532E+03  0.00000000000E+00 0.  1.
         35    2    1    2    0    0  0.00000000000E+00  0.00000000000E+00  0.37854872053E+02  0.27886214269E+03  0.27628084133E+03 0.  0.
         25    2    3    3    0    0 -0.28605104905E+02  0.47429616050E+02  0.32780068187E+02  0.13978523020E+03  0.12408689378E+03 0.  0.
         25    2    3    3    0    0  0.28605104905E+02 -0.47429616050E+02  0.50748038655E+01  0.13907691249E+03  0.12747083371E+03 0.  0.
          5    1    4    4  502    0 -0.11861988852E+02  0.68555338937E+02 -0.26418132713E+02  0.74569088853E+02  0.47000000000E+01 0. -1.
         -5    1    4    4    0  502 -0.16743116052E+02 -0.21125722887E+02  0.59198200900E+02  0.65216141349E+02  0.47000000000E+01 0. -1.
          5    1    5    5  503    0  0.28751568119E+02 -0.66148075868E+02 -0.45183644593E+02  0.85240086515E+02  0.47000000000E+01 0.  1.
         -5    1    5    5    0  503 -0.14646321404E+00  0.18718459818E+02  0.50258448459E+02  0.53836825974E+02  0.47000000000E+01 0.  1.
<mgrwt>
<rscale>  0 0.27628084E+03</rscale>
<asrwt>0</asrwt>
<pdfrwt beam="1">  1        1 0.18539021E-01 0.27628084E+03</pdfrwt>
<pdfrwt beam="2">  1       -1 0.24362847E-01 0.27628084E+03</pdfrwt>
<totfact> 0.40758462E+03</totfact>
</mgrwt>
</event>
<event>
 9    1  0.7984035E-001  0.2672491E+03  0.7818608E-02  0.1102864E+00
          2   -1    0    0  501    0  0.00000000000E+00  0.00000000000E+00  0.37906343672E+04  0.37906343672E+04  0.00000000000E+00 0.  1.
         -2   -1    0    0    0  501 -0.00000000000E+00 -0.00000000000E+00 -0.47104316616E+01  0.47104316616E+01  0.00000000000E+00 0.  1.
         35    2    1    2    0    0  0.00000000000E+00  0.00000000000E+00  0.37859239355E+04  0.37953447988E+04  0.26724912827E+03 0.  0.
         25    2    3    3    0    0 -0.75687458006E+00  0.46455566879E+02  0.17832014128E+04  0.17881722080E+04  0.12487543507E+03 0.  0.
         25    2    3    3    0    0  0.75687458006E+00 -0.46455566879E+02  0.20027225228E+04  0.20071725909E+04  0.12524222086E+03 0.  0.
          5    1    4    4  502    0 -0.43216793177E+02  0.23476120175E+02  0.15023788040E+04  0.15031909327E+04  0.47000000000E+01 0.  1.
         -5    1    4    4    0  502  0.42459918597E+02  0.22979446704E+02  0.28082260879E+03  0.28498127529E+03  0.47000000000E+01 0.  1.
          5    1    5    5  503    0 -0.39268084594E+02 -0.60151759197E+02  0.68692259220E+03  0.69068441004E+03  0.47000000000E+01 0.  1.
         -5    1    5    5    0  503  0.40024959174E+02  0.13696192318E+02  0.13157999306E+04  0.13164881808E+04  0.47000000000E+01 0.  1.
<mgrwt>
<rscale>  0 0.26724913E+03</rscale>
<asrwt>0</asrwt>
<pdfrwt beam="1">  1        2 0.58317208E+00 0.26724913E+03</pdfrwt>
<pdfrwt beam="2">  1       -2 0.72468482E-03 0.26724913E+03</pdfrwt>
<totfact> 0.21777249E+03</totfact>
</mgrwt>
</event>
<event>
 9    1  0.7984035E-001  0.2734229E+03  0.7818608E-02  0.1099336E+00
         -1   -1    0    0    0  501 -0.00000000000E+00  0.00000000000E+00  0.34701022142E+03  0.34701022142E+03  0.00000000000E+00 0.  1.
          1   -1    0    0  501    0  0.00000000000E+00 -0.00000000000E+00 -0.53860130982E+02  0.53860130982E+02  0.00000000000E+00 0.  1.
         35    2    1    2    0    0  0.00000000000E+00  0.00000000000E+00  0.29315009044E+03  0.40087035240E+03  0.27342286647E+03 0.  0.
         25    2    3    3    0    0 -0.15387989034E+02 -0.30497734938E+01  0.69759375066E+02  0.14383530643E+03  0.12480438150E+03 0.  0.
         25    2    3    3    0    0  0.15387989034E+02  0.30497734938E+01  0.22339071537E+03  0.25703504597E+03  0.12616462190E+03 0.  0.
          5    1    4    4  502    0 -0.25186539304E+02  0.57707343096E+02  0.43978003664E+02  0.76945786211E+02  0.47000000000E+01 0.  1.
         -5    1    4    4    0  502  0.97985502698E+01 -0.60757116590E+02  0.25781371402E+02  0.66889520219E+02  0.47000000000E+01 0.  1.
          5    1    5    5  503    0 -0.55245094406E+00 -0.32358368254E+02  0.25992621068E+01  0.32805721477E+02  0.47000000000E+01 0. -1.
         -5    1    5    5    0  503  0.15940439978E+02  0.35408141748E+02  0.22079145326E+03  0.22422932449E+03  0.47000000000E+01 0. -1.
<mgrwt>
<rscale>  0 0.27342287E+03</rscale>
<asrwt>0</asrwt>
<pdfrwt beam="1">  1        1 0.82861742E-02 0.27342287E+03</pdfrwt>
<pdfrwt beam="2">  1       -1 0.53386187E-01 0.27342287E+03</pdfrwt>
<totfact> 0.29995264E+03</totfact>
</mgrwt>
</event>
<event>
 9    1  0.7984035E-001  0.2768999E+03  0.7818608E-02  0.1097394E+00
          1   -1    0    0  501    0  0.00000000000E+00  0.00000000000E+00  0.30654983736E+04  0.30654983736E+04  0.00000000000E+00 0. -1.
         -1   -1    0    0    0  501 -0.00000000000E+00 -0.00000000000E+00 -0.62529428302E+01  0.62529428302E+01  0.00000000000E+00 0. -1.
         35    2    1    2    0    0 -0.71054273576E-14  0.00000000000E+00  0.30592454307E+04  0.30717513164E+04  0.27689988137E+03 0.  0.
         25    2    3    3    0    0 -0.49423095132E+02  0.16613427225E+02  0.12624535124E+04  0.12698653053E+04  0.12669007262E+03 0.  0.
         25    2    3    3    0    0  0.49423095132E+02 -0.16613427225E+02  0.17967919184E+04  0.18018860111E+04  0.12495339395E+03 0.  0.
          5    1    4    4  502    0 -0.82842893318E+02  0.30260526890E+02  0.60591440144E+03  0.61231772498E+03  0.47000000000E+01 0.  1.
         -5    1    4    4    0  502  0.33419798186E+02 -0.13647099665E+02  0.65653911095E+03  0.65754758037E+03  0.47000000000E+01 0.  1.
          5    1    5    5  503    0 -0.38569124431E+02  0.14511773311E+02  0.48569820294E+03  0.48746589959E+03  0.47000000000E+01 0.  1.
         -5    1    5    5    0  503  0.87992219563E+02 -0.31125200536E+02  0.13110937154E+04  0.13144201115E+04  0.47000000000E+01 0.  1.
<mgrwt>
<rscale>  0 0.27689988E+03</rscale>
<asrwt>0</asrwt>
<pdfrwt beam="1">  1        1 0.47161394E+00 0.27689988E+03</pdfrwt>
<pdfrwt beam="2">  1       -1 0.96199365E-03 0.27689988E+03</pdfrwt>
<totfact> 0.12947976E+03</totfact>
</mgrwt>
</event>
<event>
 9    1  0.7984035E-001  0.2781768E+03  0.7818608E-02  0.1096689E+00
          1   -1    0    0  501    0  0.00000000000E+00  0.00000000000E+00  0.14515212964E+03  0.14515212964E+03  0.00000000000E+00 0. -1.
         -1   -1    0    0    0  501 -0.00000000000E+00 -0.00000000000E+00 -0.13327797864E+03  0.13327797864E+03  0.00000000000E+00 0. -1.
         35    2    1    2    0    0  0.71054273576E-14 -0.71054273576E-14  0.11874150997E+02  0.27843010829E+03  0.27817679583E+03 0.  0.
         25    2    3    3    0    0 -0.33915717227E+02 -0.51884647180E+02  0.25291902023E+01  0.13958263945E+03  0.12503848985E+03 0.  0.
         25    2    3    3    0    0  0.33915717227E+02  0.51884647180E+02  0.93449607950E+01  0.13884746884E+03  0.12389107644E+03 0.  0.
          5    1    4    4  502    0 -0.21464013331E+01 -0.16145629804E+02  0.61340024834E+02  0.63639429972E+02  0.47000000000E+01 0. -1.
         -5    1    4    4    0  502 -0.31769315894E+02 -0.35739017376E+02 -0.58810834632E+02  0.75943209476E+02  0.47000000000E+01 0. -1.
          5    1    5    5  503    0  0.64192846207E+02  0.24161282139E+02  0.46727332583E+02  0.83126546116E+02  0.47000000000E+01 0.  1.
         -5    1    5    5    0  503 -0.30277128981E+02  0.27723365041E+02 -0.37382371788E+02  0.55720922722E+02  0.47000000000E+01 0.  1.
<mgrwt>
<rscale>  0 0.27817680E+03</rscale>
<asrwt>0</asrwt>
<pdfrwt beam="1">  1        1 0.22331097E-01 0.27817680E+03</pdfrwt>
<pdfrwt beam="2">  1       -1 0.20504304E-01 0.27817680E+03</pdfrwt>
<totfact> 0.42593774E+03</totfact>
</mgrwt>
</event>
<event>
 9    1  0.7984035E-001  0.2734358E+03  0.7818608E-02  0.1099329E+00
         -1   -1    0    0    0  501 -0.00000000000E+00  0.00000000000E+00  0.10812762545E+04  0.10812762545E+04  0.00000000000E+00 0.  1.
          1   -1    0    0  501    0  0.00000000000E+00 -0.00000000000E+00 -0.17286783972E+02  0.17286783972E+02  0.00000000000E+00 0.  1.
         35    2    1    2    0    0  0.71054273576E-14  0.71054273576E-14  0.10639894705E+04  0.10985630384E+04  0.27343583543E+03 0.  0.
         25    2    3    3    0    0 -0.26855611858E+02 -0.21043418101E+02  0.33202071857E+03  0.35627096859E+03  0.12460817054E+03 0.  0.
         25    2    3    3    0    0  0.26855611858E+02  0.21043418101E+02  0.73196875192E+03  0.74229206984E+03  0.11855468710E+03 0.  0.
          5    1    4    4  502    0 -0.26489224325E+02  0.14320036186E+02  0.97019202762E+01  0.31983741162E+02  0.47000000000E+01 0. -1.
         -5    1    4    4    0  502 -0.36638753373E+00 -0.35363454287E+02  0.32231879829E+03  0.32428722742E+03  0.47000000000E+01 0. -1.
          5    1    5    5  503    0  0.56515213542E+02  0.33745106457E+02  0.23038911498E+03  0.23965378335E+03  0.47000000000E+01 0.  1.
         -5    1    5    5    0  503 -0.29659601684E+02 -0.12701688356E+02  0.50157963694E+03  0.50263828650E+03  0.47000000000E+01 0.  1.
<mgrwt>
<rscale>  0 0.27343584E+03</rscale>
<asrwt>0</asrwt>
<pdfrwt beam="1">  1        1 0.26595061E-02 0.27343584E+03</pdfrwt>
<pdfrwt beam="2">  1       -1 0.16635014E+00 0.27343584E+03</pdfrwt>
<totfact> 0.11548746E+03</totfact>
</mgrwt>
</event>
<event>
 9    1  0.7984035E-001  0.2721598E+03  0.7818608E-02  0.1100050E+00
         -2   -1    0    0    0  501 -0.00000000000E+00  0.00000000000E+00  0.21371085474E+02  0.21371085474E+02  0.00000000000E+00 0. -1.
          2   -1    0    0  501    0  0.00000000000E+00 -0.00000000000E+00 -0.86648539433E+03  0.86648539433E+03  0.00000000000E+00 0. -1.
         35    2    1    2    0    0 -0.71054273576E-14  0.17763568394E-14 -0.84511430885E+03  0.88785647980E+03  0.27215975767E+03 0.  0.
         25    2    3    3    0    0  0.40539095034E+02  0.12061053614E+02 -0.52725540857E+03  0.54356228972E+03  0.12519109273E+03 0.  0.
         25    2    3    3    0    0 -0.40539095034E+02 -0.12061053614E+02 -0.31785890028E+03  0.34429419008E+03  0.12536076577E+03 0.  0.
          5    1    4    4  502    0  0.41754309480E+02  0.77612942940E+01 -0.48000486980E+02  0.64263495078E+02  0.47000000000E+01 0.  1.
         -5    1    4    4    0  502 -0.12152144460E+01  0.42997593200E+01 -0.47925492159E+03  0.47929879464E+03  0.47000000000E+01 0.  1.
          5    1    5    5  503    0 -0.27472834322E+02  0.56168108472E+01 -0.32041131157E+03  0.32167033399E+03  0.47000000000E+01 0. -1.
         -5    1    5    5    0  503 -0.13066260712E+02 -0.17677864461E+02  0.25524112872E+01  0.22623856088E+02  0.47000000000E+01 0. -1.
<mgrwt>
<rscale>  0 0.27215976E+03</rscale>
<asrwt>0</asrwt>
<pdfrwt beam="1">  1        2 0.13330543E+00 0.27215976E+03</pdfrwt>
<pdfrwt beam="2">  1       -2 0.32878596E-02 0.27215976E+03</pdfrwt>
<totfact> 0.11759909E+04</totfact>
</mgrwt>
</event>
<event>
 9    1  0.7984035E-001  0.2654206E+03  0.7818608E-02  0.1103929E+00
          2   -1    0    0  501    0  0.00000000000E+00  0.00000000000E+00  0.32319195711E+02  0.32319195711E+02  0.00000000000E+00 0. -1.
         -2   -1    0    0    0  501 -0.00000000000E+00 -0.00000000000E+00 -0.54494017948E+03  0.54494017948E+03  0.00000000000E+00 0. -1.
         35    2    1    2    0    0 -0.71054273576E-14  0.10658141036E-13 -0.51262098376E+03  0.57725937519E+03  0.26542063455E+03 0.  0.
         25    2    3    3    0    0 -0.21893604889E+02 -0.24385635446E+02 -0.32548244161E+03  0.35018601768E+03  0.12496974847E+03 0.  0.
         25    2    3    3    0    0  0.21893604889E+02  0.24385635446E+02 -0.18713854215E+03  0.22707335751E+03  0.12436835039E+03 0.  0.
          5    1    4    4  502    0 -0.35557235385E+02 -0.31921095853E+02 -0.35417705357E+02  0.59663868475E+02  0.47000000000E+01 0. -1.
         -5    1    4    4    0  502  0.13663630496E+02  0.75354604069E+01 -0.29006473625E+03  0.29052214921E+03  0.47000000000E+01 0. -1.
          5    1    5    5  503    0  0.21875841141E+02  0.72812619767E+02 -0.13971254781E+03  0.15912861477E+03  0.47000000000E+01 0.  1.
         -5    1    5    5    0  503  0.17763748256E-01 -0.48426984321E+02 -0.47425994345E+02  0.67944742736E+02  0.47000000000E+01 0.  1.
<mgrwt>
<rscale>  0 0.26542063E+03</rscale>
<asrwt>0</asrwt>
<pdfrwt beam="1">  1        2 0.49721839E-02 0.26542063E+03</pdfrwt>
<pdfrwt beam="2">  1       -2 0.83836952E-01 0.26542063E+03</pdfrwt>
<totfact> 0.20255209E+03</totfact>
</mgrwt>
</event>
<event>
 9    1  0.7984035E-001  0.2796104E+03  0.7818608E-02  0.1095902E+00
          1   -1    0    0  501    0  0.00000000000E+00  0.00000000000E+00  0.20000265705E+03  0.20000265705E+03  0.00000000000E+00 0. -1.
         -1   -1    0    0    0  501 -0.00000000000E+00 -0.00000000000E+00 -0.97726191685E+02  0.97726191685E+02  0.00000000000E+00 0. -1.
         35    2    1    2    0    0  0.00000000000E+00  0.35527136788E-14  0.10227646536E+03  0.29772884873E+03  0.27961042899E+03 0.  0.
         25    2    3    3    0    0 -0.54415039254E+02  0.29957112466E+02  0.51253281398E+02  0.14899800093E+03  0.12535980353E+03 0.  0.
         25    2    3    3    0    0  0.54415039254E+02 -0.29957112466E+02  0.51023183962E+02  0.14873084780E+03  0.12513622458E+03 0.  0.
          5    1    4    4  502    0 -0.87298888647E+01  0.69843237377E+02  0.17393803589E+01  0.70564893615E+02  0.47000000000E+01 0. -1.
         -5    1    4    4    0  502 -0.45685150389E+02 -0.39886124911E+02  0.49513901039E+02  0.78433107311E+02  0.47000000000E+01 0. -1.
          5    1    5    5  503    0  0.68712794797E+02  0.85847065866E+01  0.73956731081E+02  0.10142402786E+03  0.47000000000E+01 0.  1.
         -5    1    5    5    0  503 -0.14297755543E+02 -0.38541819053E+02 -0.22933547118E+02  0.47306819941E+02  0.47000000000E+01 0.  1.
<mgrwt>
<rscale>  0 0.27961043E+03</rscale>
<asrwt>0</asrwt>
<pdfrwt beam="1">  1        1 0.30769639E-01 0.27961043E+03</pdfrwt>
<pdfrwt beam="2">  1       -1 0.15034799E-01 0.27961043E+03</pdfrwt>
<totfact> 0.46687990E+03</totfact>
</mgrwt>
</event>
<event>
 9    1  0.7984035E-001  0.2778317E+03  0.7818608E-02  0.1096879E+00
         -2   -1    0    0    0  501 -0.00000000000E+00  0.00000000000E+00  0.10867950065E+02  0.10867950065E+02  0.00000000000E+00 0.  1.
          2   -1    0    0  501    0  0.00000000000E+00 -0.00000000000E+00 -0.17756443183E+04  0.17756443183E+04  0.00000000000E+00 0.  1.
         35    2    1    2    0    0  0.71054273576E-14  0.00000000000E+00 -0.17647763682E+04  0.17865122683E+04  0.27783170290E+03 0.  0.
         25    2    3    3    0    0  0.55766752085E+02 -0.11864938472E+02 -0.75979167069E+03  0.77213011468E+03  0.12510325236E+03 0.  0.
         25    2    3    3    0    0 -0.55766752085E+02  0.11864938472E+02 -0.10049846975E+04  0.10143821537E+04  0.12540416262E+03 0.  0.
          5    1    4    4  502    0  0.60070482159E+02 -0.61363553750E+02 -0.42225212129E+03  0.43092098172E+03  0.47000000000E+01 0.  1.
         -5    1    4    4    0  502 -0.43037300747E+01  0.49498615279E+02 -0.33753954940E+03  0.34120913296E+03  0.47000000000E+01 0.  1.
          5    1    5    5  503    0  0.34006888226E+02  0.30280138805E+02 -0.36185336588E+03  0.36473730773E+03  0.47000000000E+01 0. -1.
         -5    1    5    5    0  503 -0.89773640311E+02 -0.18415200333E+02 -0.64313133164E+03  0.64964484592E+03  0.47000000000E+01 0. -1.
<mgrwt>
<rscale>  0 0.27783170E+03</rscale>
<asrwt>0</asrwt>
<pdfrwt beam="1">  1        2 0.27317584E+00 0.27783170E+03</pdfrwt>
<pdfrwt beam="2">  1       -2 0.16719936E-02 0.27783170E+03</pdfrwt>
<totfact> 0.98093458E+03</totfact>
</mgrwt>
</event>
<event>
 9    1  0.7984035E-001  0.2765009E+03  0.7818608E-02  0.1097616E+00
          3   -1    0    0  501    0  0.00000000000E+00  0.00000000000E+00  0.68925307022E+02  0.68925307022E+02  0.00000000000E+00 0.  1.
         -3   -1    0    0    0  501 -0.00000000000E+00 -0.00000000000E+00 -0.27730288959E+03  0.27730288959E+03  0.00000000000E+00 0.  1.
         35    2    1    2    0    0  0.71054273576E-14  0.00000000000E+00 -0.20837758257E+03  0.34622819662E+03  0.27650089912E+03 0.  0.
         25    2    3    3    0    0  0.28250808050E+02 -0.48075002260E+02 -0.75832154476E+02  0.15679208271E+03  0.12539508583E+03 0.  0.
         25    2    3    3    0    0 -0.28250808050E+02  0.48075002260E+02 -0.13254542810E+03  0.18943611391E+03  0.12332249083E+03 0.  0.
          5    1    4    4  502    0 -0.29757517100E+02 -0.68911761298E+02 -0.37307039103E+02  0.83953831573E+02  0.47000000000E+01 0.  1.
         -5    1    4    4    0  502  0.58008325150E+02  0.20836759038E+02 -0.38525115372E+02  0.72838251135E+02  0.47000000000E+01 0.  1.
          5    1    5    5  503    0  0.11997526952E+02 -0.26895970180E+02  0.23070081803E+01  0.29912307695E+02  0.47000000000E+01 0. -1.
         -5    1    5    5    0  503 -0.40248335002E+02  0.74970972440E+02 -0.13485243628E+03  0.15952380621E+03  0.47000000000E+01 0. -1.
<mgrwt>
<rscale>  0 0.27650090E+03</rscale>
<asrwt>0</asrwt>
<pdfrwt beam="1">  1        3 0.10603893E-01 0.27650090E+03</pdfrwt>
<pdfrwt beam="2">  1       -3 0.42661983E-01 0.27650090E+03</pdfrwt>
<totfact> 0.93195610E+02</totfact>
</mgrwt>
</event>
<event>
 9    1  0.7984035E-001  0.2763980E+03  0.7818608E-02  0.1097673E+00
          1   -1    0    0  501    0  0.00000000000E+00  0.00000000000E+00  0.47222895222E+02  0.47222895222E+02  0.00000000000E+00 0. -1.
         -1   -1    0    0    0  501 -0.00000000000E+00 -0.00000000000E+00 -0.40444280864E+03  0.40444280864E+03  0.00000000000E+00 0. -1.
         35    2    1    2    0    0  0.00000000000E+00  0.00000000000E+00 -0.35721991342E+03  0.45166570386E+03  0.27639797666E+03 0.  0.
         25    2    3    3    0    0  0.44532825528E+02  0.63099779066E+01 -0.11660644044E+03  0.17693978238E+03  0.12525029447E+03 0.  0.
         25    2    3    3    0    0 -0.44532825528E+02 -0.63099779066E+01 -0.24061347298E+03  0.27472592149E+03  0.12472569979E+03 0.  0.
          5    1    4    4  502    0 -0.29750488147E+02 -0.36370800922E+02 -0.43900062205E+02  0.64476601696E+02  0.47000000000E+01 0. -1.
         -5    1    4    4    0  502  0.74283313676E+02  0.42680778829E+02 -0.72706378238E+02  0.11246318068E+03  0.47000000000E+01 0. -1.
          5    1    5    5  503    0 -0.28875195390E+02 -0.64566147375E+02 -0.11128378212E+03  0.13194216331E+03  0.47000000000E+01 0. -1.
         -5    1    5    5    0  503 -0.15657630139E+02  0.58256169468E+02 -0.12932969086E+03  0.14278375818E+03  0.47000000000E+01 0. -1.
<mgrwt>
<rscale>  0 0.27639798E+03</rscale>
<asrwt>0</asrwt>
<pdfrwt beam="1">  1        1 0.72650610E-02 0.27639798E+03</pdfrwt>
<pdfrwt beam="2">  1       -1 0.62221969E-01 0.27639798E+03</pdfrwt>
<totfact> 0.26799529E+03</totfact>
</mgrwt>
</event>
<event>
 9    1  0.7984035E-001  0.2881074E+03  0.7818608E-02  0.1091341E+00
         -2   -1    0    0    0  501 -0.00000000000E+00  0.00000000000E+00  0.11294338024E+02  0.11294338024E+02  0.00000000000E+00 0.  1.
          2   -1    0    0  501    0  0.00000000000E+00 -0.00000000000E+00 -0.18373337643E+04  0.18373337643E+04  0.00000000000E+00 0.  1.
         35    2    1    2    0    0  0.00000000000E+00  0.00000000000E+00 -0.18260394263E+04  0.18486281024E+04  0.28810740079E+03 0.  0.
         25    2    3    3    0    0 -0.37291593099E+02  0.44668579629E+02 -0.11932985095E+04  0.12012529770E+04  0.12514566351E+03 0.  0.
         25    2    3    3    0    0  0.37291593099E+02 -0.44668579629E+02 -0.63274091681E+03  0.64737512534E+03  0.12388518952E+03 0.  0.
          5    1    4    4  502    0 -0.66923385768E+02  0.27285003996E+02 -0.10876738416E+04  0.10900824220E+04  0.47000000000E+01 0.  1.
         -5    1    4    4    0  502  0.29631792668E+02  0.17383575633E+02 -0.10562466789E+03  0.11117055503E+03  0.47000000000E+01 0.  1.
          5    1    5    5  503    0 -0.34603574815E+02  0.45585272496E+01 -0.34236093448E+03  0.34416752755E+03  0.47000000000E+01 0. -1.
         -5    1    5    5    0  503  0.71895167914E+02 -0.49227106879E+02 -0.29037998233E+03  0.30320759779E+03  0.47000000000E+01 0. -1.
<mgrwt>
<rscale>  0 0.28810740E+03</rscale>
<asrwt>0</asrwt>
<pdfrwt beam="1">  1        2 0.28266659E+00 0.28810740E+03</pdfrwt>
<pdfrwt beam="2">  1       -2 0.17375914E-02 0.28810740E+03</pdfrwt>
<totfact> 0.86075173E+03</totfact>
</mgrwt>
</event>
<event>
 9    1  0.7984035E-001  0.2778112E+03  0.7818608E-02  0.1096890E+00
          4   -1    0    0  501    0  0.00000000000E+00  0.00000000000E+00  0.97754340752E+03  0.97754340752E+03  0.00000000000E+00 0. -1.
         -4   -1    0    0    0  501 -0.00000000000E+00 -0.00000000000E+00 -0.19738018304E+02  0.19738018304E+02  0.00000000000E+00 0. -1.
         35    2    1    2    0    0 -0.71054273576E-14  0.71054273576E-14  0.95780538922E+03  0.99728142583E+03  0.27781122850E+03 0.  0.
         25    2    3    3    0    0  0.49081228056E+02  0.14327174997E+02  0.36430595253E+03  0.38837701115E+03  0.12451361713E+03 0.  0.
         25    2    3    3    0    0 -0.49081228056E+02 -0.14327174997E+02  0.59349943669E+03  0.60890441468E+03  0.12612997253E+03 0.  0.
          5    1    4    4  502    0  0.33505907017E+02 -0.81768549289E+01  0.14889503312E+02  0.37858870433E+02  0.47000000000E+01 0.  1.
         -5    1    4    4    0  502  0.15575321039E+02  0.22504029926E+02  0.34941644922E+03  0.35051814072E+03  0.47000000000E+01 0.  1.
          5    1    5    5  503    0 -0.87493230983E+01  0.54607661810E+02  0.21568096430E+03  0.22270814027E+03  0.47000000000E+01 0.  1.
         -5    1    5    5    0  503 -0.40331904958E+02 -0.68934836807E+02  0.37781847239E+03  0.38619627440E+03  0.47000000000E+01 0.  1.
<mgrwt>
<rscale>  0 0.27781123E+03</rscale>
<asrwt>0</asrwt>
<pdfrwt beam="1">  1        4 0.15039126E+00 0.27781123E+03</pdfrwt>
<pdfrwt beam="2">  1       -4 0.30366190E-02 0.27781123E+03</pdfrwt>
<totfact> 0.31149159E+02</totfact>
</mgrwt>
</event>
<event>
 9    1  0.7984035E-001  0.2775125E+03  0.7818608E-02  0.1097055E+00
         -2   -1    0    0    0  501 -0.00000000000E+00  0.00000000000E+00  0.58813139015E+02  0.58813139015E+02  0.00000000000E+00 0. -1.
          2   -1    0    0  501    0  0.00000000000E+00 -0.00000000000E+00 -0.32736379401E+03  0.32736379401E+03  0.00000000000E+00 0. -1.
         35    2    1    2    0    0  0.35527136788E-14 -0.71054273576E-14 -0.26855065500E+03  0.38617693303E+03  0.27751246693E+03 0.  0.
         25    2    3    3    0    0  0.20725006754E+02 -0.10032485778E+02 -0.57915610215E+02  0.13974110726E+03  0.12507270876E+03 0.  0.
         25    2    3    3    0    0 -0.20725006754E+02  0.10032485778E+02 -0.21063504478E+03  0.24643582577E+03  0.12583051083E+03 0.  0.
          5    1    4    4  502    0  0.17910734833E+02  0.58293147190E+01  0.37838396622E+02  0.42527750838E+02  0.47000000000E+01 0.  1.
         -5    1    4    4    0  502  0.28142719202E+01 -0.15861800497E+02 -0.95754006837E+02  0.97213356422E+02  0.47000000000E+01 0.  1.
          5    1    5    5  503    0 -0.54072007739E+02 -0.32128533040E+02 -0.62563194673E+02  0.88838437536E+02  0.47000000000E+01 0.  1.
         -5    1    5    5    0  503  0.33347000985E+02  0.42161018819E+02 -0.14807185011E+03  0.15759738823E+03  0.47000000000E+01 0.  1.
<mgrwt>
<rscale>  0 0.27751247E+03</rscale>
<asrwt>0</asrwt>
<pdfrwt beam="1">  1        2 0.50363661E-01 0.27751247E+03</pdfrwt>
<pdfrwt beam="2">  1       -2 0.90481753E-02 0.27751247E+03</pdfrwt>
<totfact> 0.76857992E+03</totfact>
</mgrwt>
</event>
<event>
 9    1  0.7984035E-001  0.2728960E+03  0.7818608E-02  0.1099634E+00
         -2   -1    0    0    0  501 -0.00000000000E+00  0.00000000000E+00  0.11442955111E+02  0.11442955111E+02  0.00000000000E+00 0. -1.
          2   -1    0    0  501    0  0.00000000000E+00 -0.00000000000E+00 -0.16270317003E+04  0.16270317003E+04  0.00000000000E+00 0. -1.
         35    2    1    2    0    0 -0.35527136788E-14  0.53290705182E-14 -0.16155887452E+04  0.16384746554E+04  0.27289595607E+03 0.  0.
         25    2    3    3    0    0  0.44972268982E+00  0.23016904238E+00 -0.11367135541E+04  0.11436007485E+04  0.12531844541E+03 0.  0.
         25    2    3    3    0    0 -0.44972268982E+00 -0.23016904238E+00 -0.47887519110E+03  0.49487390688E+03  0.12481378062E+03 0.  0.
          5    1    4    4  502    0 -0.59495344975E+02 -0.72829948652E+01 -0.71977837073E+03  0.72228507603E+03  0.47000000000E+01 0. -1.
         -5    1    4    4    0  502  0.59945067665E+02  0.75131639076E+01 -0.41693518335E+03  0.42131567249E+03  0.47000000000E+01 0. -1.
          5    1    5    5  503    0  0.31611703020E+02 -0.48815164194E+02 -0.15182120085E+03  0.16264681691E+03  0.47000000000E+01 0.  1.
         -5    1    5    5    0  503 -0.32061425710E+02  0.48584995152E+02 -0.32705399025E+03  0.33222708997E+03  0.47000000000E+01 0.  1.
<mgrwt>
<rscale>  0 0.27289596E+03</rscale>
<asrwt>0</asrwt>
<pdfrwt beam="1">  1        2 0.25031264E+00 0.27289596E+03</pdfrwt>
<pdfrwt beam="2">  1       -2 0.17604541E-02 0.27289596E+03</pdfrwt>
<totfact> 0.10888432E+04</totfact>
</mgrwt>
</event>
<event>
 9    1  0.7984035E-001  0.2762506E+03  0.7818608E-02  0.1097755E+00
          1   -1    0    0  501    0  0.00000000000E+00  0.00000000000E+00  0.45410388752E+03  0.45410388752E+03  0.00000000000E+00 0.  1.
         -1   -1    0    0    0  501 -0.00000000000E+00 -0.00000000000E+00 -0.42013734661E+02  0.42013734661E+02  0.00000000000E+00 0.  1.
         35    2    1    2    0    0  0.00000000000E+00  0.00000000000E+00  0.41209015286E+03  0.49611762218E+03  0.27625061259E+03 0.  0.
         25    2    3    3    0    0  0.81438081720E+01 -0.34274749316E+02  0.29129080753E+03  0.31899120130E+03  0.12515579051E+03 0.  0.
         25    2    3    3    0    0 -0.81438081720E+01  0.34274749316E+02  0.12079934532E+03  0.17712642088E+03  0.12466036697E+03 0.  0.
          5    1    4    4  502    0  0.45252478904E+02 -0.47350449903E+02  0.77587183532E+02  0.10164503432E+03  0.47000000000E+01 0. -1.
         -5    1    4    4    0  502 -0.37108670732E+02  0.13075700587E+02  0.21370362400E+03  0.21734616698E+03  0.47000000000E+01 0. -1.
          5    1    5    5  503    0 -0.36597952775E+02  0.23202433095E+02  0.13591596505E+03  0.14273402749E+03  0.47000000000E+01 0. -1.
         -5    1    5    5    0  503  0.28454144603E+02  0.11072316221E+02 -0.15116619722E+02  0.34392393394E+02  0.47000000000E+01 0. -1.
<mgrwt>
<rscale>  0 0.27625061E+03</rscale>
<asrwt>0</asrwt>
<pdfrwt beam="1">  1        1 0.69862133E-01 0.27625061E+03</pdfrwt>
<pdfrwt beam="2">  1       -1 0.64636518E-02 0.27625061E+03</pdfrwt>
<totfact> 0.60938744E+03</totfact>
</mgrwt>
</event>
<event>
 9    1  0.7984035E-001  0.2746999E+03  0.7818608E-02  0.1098619E+00
         -2   -1    0    0    0  501 -0.00000000000E+00  0.00000000000E+00  0.45714135147E+02  0.45714135147E+02  0.00000000000E+00 0. -1.
          2   -1    0    0  501    0  0.00000000000E+00 -0.00000000000E+00 -0.41267331250E+03  0.41267331250E+03  0.00000000000E+00 0. -1.
         35    2    1    2    0    0  0.00000000000E+00  0.00000000000E+00 -0.36695917736E+03  0.45838744765E+03  0.27469986224E+03 0.  0.
         25    2    3    3    0    0 -0.25420505639E+02  0.45355639803E+02 -0.22772595248E+03  0.26450127527E+03  0.12409060810E+03 0.  0.
         25    2    3    3    0    0  0.25420505639E+02 -0.45355639803E+02 -0.13923322487E+03  0.19388617238E+03  0.12450952077E+03 0.  0.
          5    1    4    4  502    0 -0.29029037714E+02  0.43173692241E+02 -0.18856759086E+02  0.55536655422E+02  0.47000000000E+01 0.  1.
         -5    1    4    4    0  502  0.36085320753E+01  0.21819475622E+01 -0.20886919340E+03  0.20896461985E+03  0.47000000000E+01 0.  1.
          5    1    5    5  503    0  0.70212781262E+02  0.69795860447E+00 -0.68269398264E+02  0.98046532515E+02  0.47000000000E+01 0.  1.
         -5    1    5    5    0  503 -0.44792275624E+02 -0.46053598408E+02 -0.70963826609E+02  0.95839639862E+02  0.47000000000E+01 0.  1.
<mgrwt>
<rscale>  0 0.27469986E+03</rscale>
<asrwt>0</asrwt>
<pdfrwt beam="1">  1        2 0.63488200E-01 0.27469986E+03</pdfrwt>
<pdfrwt beam="2">  1       -2 0.70329441E-02 0.27469986E+03</pdfrwt>
<totfact> 0.88641812E+03</totfact>
</mgrwt>
</event>
<event>
 9    1  0.7984035E-001  0.2728465E+03  0.7818608E-02  0.1099661E+00
          1   -1    0    0  501    0  0.00000000000E+00  0.00000000000E+00  0.48491836621E+03  0.48491836621E+03  0.00000000000E+00 0.  1.
         -1   -1    0    0    0  501 -0.00000000000E+00 -0.00000000000E+00 -0.38380278920E+02  0.38380278920E+02  0.00000000000E+00 0.  1.
         35    2    1    2    0    0 -0.35527136788E-14 -0.71054273576E-14  0.44653808729E+03  0.52329864513E+03  0.27284649273E+03 0.  0.
         25    2    3    3    0    0  0.17987517263E+02  0.19192433313E+01  0.32329052760E+03  0.34689973243E+03  0.12448062039E+03 0.  0.
         25    2    3    3    0    0 -0.17987517263E+02 -0.19192433313E+01  0.12324755969E+03  0.17639891270E+03  0.12489748260E+03 0.  0.
          5    1    4    4  502    0  0.16378237639E+02  0.61573456842E+02  0.13564226993E+03  0.14993482800E+03  0.47000000000E+01 0. -1.
         -5    1    4    4    0  502  0.16092796239E+01 -0.59654213511E+02  0.18764825767E+03  0.19696490443E+03  0.47000000000E+01 0. -1.
          5    1    5    5  503    0 -0.43428482604E+02  0.49470226024E+02  0.47659882410E+02  0.81405716971E+02  0.47000000000E+01 0. -1.
         -5    1    5    5    0  503  0.25440965341E+02 -0.51389469356E+02  0.75587677277E+02  0.94993195727E+02  0.47000000000E+01 0. -1.
<mgrwt>
<rscale>  0 0.27284649E+03</rscale>
<asrwt>0</asrwt>
<pdfrwt beam="1">  1        1 0.74602821E-01 0.27284649E+03</pdfrwt>
<pdfrwt beam="2">  1       -1 0.59046586E-02 0.27284649E+03</pdfrwt>
<totfact> 0.64063872E+03</totfact>
</mgrwt>
</event>
<event>
 9    1  0.7984035E-001  0.2763104E+03  0.7818608E-02  0.1097721E+00
          4   -1    0    0  501    0  0.00000000000E+00  0.00000000000E+00  0.26881332025E+03  0.26881332025E+03  0.00000000000E+00 0. -1.
         -4   -1    0    0    0  501 -0.00000000000E+00 -0.00000000000E+00 -0.71004146282E+02  0.71004146282E+02  0.00000000000E+00 0. -1.
         35    2    1    2    0    0  0.00000000000E+00  0.00000000000E+00  0.19780917397E+03  0.33981746654E+03  0.27631040743E+03 0.  0.
         25    2    3    3    0    0  0.13943428338E+02 -0.44924143427E+01  0.29497102433E+02  0.12957755156E+03  0.12532223201E+03 0.  0.
         25    2    3    3    0    0 -0.13943428338E+02  0.44924143427E+01  0.16831207154E+03  0.21023991498E+03  0.12512900321E+03 0.  0.
          5    1    4    4  502    0  0.42996559923E+02  0.47535349180E+02  0.27117751575E+02  0.69755114776E+02  0.47000000000E+01 0.  1.
         -5    1    4    4    0  502 -0.29053131586E+02 -0.52027763522E+02  0.23793508571E+01  0.59822436782E+02  0.47000000000E+01 0.  1.
          5    1    5    5  503    0 -0.37362167145E+02 -0.47751499238E+02  0.12249911015E+03  0.13676351560E+03  0.47000000000E+01 0. -1.
         -5    1    5    5    0  503  0.23418738807E+02  0.52243913581E+02  0.45812961390E+02  0.73476399373E+02  0.47000000000E+01 0. -1.
<mgrwt>
<rscale>  0 0.27631041E+03</rscale>
<asrwt>0</asrwt>
<pdfrwt beam="1">  1        4 0.41355895E-01 0.27631041E+03</pdfrwt>
<pdfrwt beam="2">  1       -4 0.10923715E-01 0.27631041E+03</pdfrwt>
<totfact> 0.69723188E+02</totfact>
</mgrwt>
</event>
<event>
 9    1  0.7984035E-001  0.2652537E+03  0.7818608E-02  0.1104027E+00
         -1   -1    0    0    0  501 -0.00000000000E+00  0.00000000000E+00  0.19707551926E+03  0.19707551926E+03  0.00000000000E+00 0. -1.
          1   -1    0    0  501    0  0.00000000000E+00 -0.00000000000E+00 -0.89254507511E+02  0.89254507511E+02  0.00000000000E+00 0. -1.
         35    2    1    2    0    0  0.00000000000E+00  0.00000000000E+00  0.10782101175E+03  0.28633002677E+03  0.26525367793E+03 0.  0.
         25    2    3    3    0    0 -0.34592515841E+02 -0.39288918967E+02  0.37992091120E+02  0.14062648570E+03  0.12486852360E+03 0.  0.
         25    2    3    3    0    0  0.34592515841E+02  0.39288918967E+02  0.69828920633E+02  0.14570354107E+03  0.11667554336E+03 0.  0.
          5    1    4    4  502    0  0.20135465995E+02 -0.62950386456E+02  0.45457624158E+02  0.80353430169E+02  0.47000000000E+01 0.  1.
         -5    1    4    4    0  502 -0.54727981836E+02  0.23661467490E+02 -0.74655330380E+01  0.60273055532E+02  0.47000000000E+01 0.  1.
          5    1    5    5  503    0 -0.11667401471E+02 -0.25743900716E+02  0.58260586944E+02  0.64925054272E+02  0.47000000000E+01 0.  1.
         -5    1    5    5    0  503  0.46259917312E+02  0.65032819682E+02  0.11568333689E+02  0.80778486802E+02  0.47000000000E+01 0.  1.
<mgrwt>
<rscale>  0 0.26525368E+03</rscale>
<asrwt>0</asrwt>
<pdfrwt beam="1">  1        1 0.13731463E-01 0.26525368E+03</pdfrwt>
<pdfrwt beam="2">  1       -1 0.30319311E-01 0.26525368E+03</pdfrwt>
<totfact> 0.41731134E+03</totfact>
</mgrwt>
</event>
<event>
 9    1  0.7984035E-001  0.2601476E+03  0.7818608E-02  0.1107055E+00
         -1   -1    0    0    0  501 -0.00000000000E+00  0.00000000000E+00  0.78337817467E+02  0.78337817467E+02  0.00000000000E+00 0. -1.
          1   -1    0    0  501    0  0.00000000000E+00 -0.00000000000E+00 -0.21597728696E+03  0.21597728696E+03  0.00000000000E+00 0. -1.
         35    2    1    2    0    0  0.00000000000E+00  0.00000000000E+00 -0.13763946949E+03  0.29431510443E+03  0.26014756799E+03 0.  0.
         25    2    3    3    0    0 -0.66213730727E+01 -0.18701565588E+02 -0.10302421318E+03  0.16366750991E+03  0.12561637697E+03 0.  0.
         25    2    3    3    0    0  0.66213730727E+01  0.18701565588E+02 -0.34615256310E+02  0.13064759451E+03  0.12440653860E+03 0.  0.
          5    1    4    4  502    0 -0.69973903701E+01  0.52257670885E+02 -0.62171277431E+02  0.81652834462E+02  0.47000000000E+01 0.  1.
         -5    1    4    4    0  502  0.37601729742E+00 -0.70959236473E+02 -0.40852935752E+02  0.82014675451E+02  0.47000000000E+01 0.  1.
          5    1    5    5  503    0  0.12394644826E+02 -0.42675132508E+02 -0.49875072719E+02  0.66965715359E+02  0.47000000000E+01 0. -1.
         -5    1    5    5    0  503 -0.57732717528E+01  0.61376698096E+02  0.15259816409E+02  0.63681879155E+02  0.47000000000E+01 0. -1.
<mgrwt>
<rscale>  0 0.26014757E+03</rscale>
<asrwt>0</asrwt>
<pdfrwt beam="1">  1        1 0.33227275E-01 0.26014757E+03</pdfrwt>
<pdfrwt beam="2">  1       -1 0.12051972E-01 0.26014757E+03</pdfrwt>
<totfact> 0.59881619E+03</totfact>
</mgrwt>
</event>
<event>
 9    1  0.7984035E-001  0.2734092E+03  0.7818608E-02  0.1099344E+00
         -2   -1    0    0    0  501 -0.00000000000E+00  0.00000000000E+00  0.50299277741E+01  0.50299277741E+01  0.00000000000E+00 0.  1.
          2   -1    0    0  501    0  0.00000000000E+00 -0.00000000000E+00 -0.37153913439E+04  0.37153913439E+04  0.00000000000E+00 0.  1.
         35    2    1    2    0    0  0.00000000000E+00  0.53290705182E-14 -0.37103614161E+04  0.37204212717E+04  0.27340921793E+03 0.  0.
         25    2    3    3    0    0 -0.50241865666E+02 -0.10525643761E+02 -0.19995864421E+04  0.20043617022E+04  0.12839337730E+03 0.  0.
         25    2    3    3    0    0  0.50241865666E+02  0.10525643761E+02 -0.17107749740E+04  0.17160595695E+04  0.12439614220E+03 0.  0.
          5    1    4    4  502    0  0.31013877850E+02 -0.18929891511E+02 -0.12084239427E+04  0.12089792044E+04  0.47000000000E+01 0. -1.
         -5    1    4    4    0  502 -0.81255743516E+02  0.84042477503E+01 -0.79116249947E+03  0.79538249780E+03  0.47000000000E+01 0. -1.
          5    1    5    5  503    0  0.19611238060E+02 -0.28168819210E+02 -0.13089158019E+03  0.13539859231E+03  0.47000000000E+01 0. -1.
         -5    1    5    5    0  503  0.30630627606E+02  0.38694462971E+02 -0.15798833938E+04  0.15806609772E+04  0.47000000000E+01 0. -1.
<mgrwt>
<rscale>  0 0.27340922E+03</rscale>
<asrwt>0</asrwt>
<pdfrwt beam="1">  1        2 0.57160028E+00 0.27340922E+03</pdfrwt>
<pdfrwt beam="2">  1       -2 0.77383286E-03 0.27340922E+03</pdfrwt>
<totfact> 0.22371210E+03</totfact>
</mgrwt>
</event>
<event>
 9    1  0.7984035E-001  0.3253773E+03  0.7818608E-02  0.1073201E+00
         -2   -1    0    0    0  501 -0.00000000000E+00  0.00000000000E+00  0.13079366975E+02  0.13079366975E+02  0.00000000000E+00 0.  1.
          2   -1    0    0  501    0  0.00000000000E+00 -0.00000000000E+00 -0.20236149998E+04  0.20236149998E+04  0.00000000000E+00 0.  1.
         35    2    1    2    0    0  0.71054273576E-14  0.14210854715E-13 -0.20105356329E+04  0.20366943668E+04  0.32537733910E+03 0.  0.
         25    2    3    3    0    0 -0.48307486049E+02 -0.91532688727E+02 -0.10398100550E+04  0.10525019616E+04  0.12587129318E+03 0.  0.
         25    2    3    3    0    0  0.48307486049E+02  0.91532688727E+02 -0.97072557791E+03  0.98419240523E+03  0.12495877955E+03 0.  0.
          5    1    4    4  502    0  0.10996014645E+02 -0.54866218333E+01 -0.79906245008E+01  0.15393356915E+02  0.47000000000E+01 0. -1.
         -5    1    4    4    0  502 -0.59303500694E+02 -0.86046066893E+02 -0.10318194305E+04  0.10371086047E+04  0.47000000000E+01 0. -1.
          5    1    5    5  503    0  0.11533517458E+02  0.14503542820E+02 -0.70064126619E+03  0.70090202501E+03  0.47000000000E+01 0.  1.
         -5    1    5    5    0  503  0.36773968592E+02  0.77029145907E+02 -0.27008431172E+03  0.28329038022E+03  0.47000000000E+01 0.  1.
<mgrwt>
<rscale>  0 0.32537734E+03</rscale>
<asrwt>0</asrwt>
<pdfrwt beam="1">  1        2 0.31132528E+00 0.32537734E+03</pdfrwt>
<pdfrwt beam="2">  1       -2 0.20122110E-02 0.32537734E+03</pdfrwt>
<totfact> 0.55315876E+03</totfact>
</mgrwt>
</event>
<event>
 9    1  0.7984035E-001  0.2768830E+03  0.7818608E-02  0.1097404E+00
         -1   -1    0    0    0  501 -0.00000000000E+00  0.00000000000E+00  0.31982179378E+02  0.31982179378E+02  0.00000000000E+00 0. -1.
          1   -1    0    0  501    0  0.00000000000E+00 -0.00000000000E+00 -0.59927284354E+03  0.59927284354E+03  0.00000000000E+00 0. -1.
         35    2    1    2    0    0  0.71054273576E-14  0.00000000000E+00 -0.56729066416E+03  0.63125502291E+03  0.27688301919E+03 0.  0.
         25    2    3    3    0    0  0.47639699503E+02  0.38276463588E+02 -0.28482489312E+03  0.31634761245E+03  0.12335300372E+03 0.  0.
         25    2    3    3    0    0 -0.47639699503E+02 -0.38276463588E+02 -0.28246577104E+03  0.31490741046E+03  0.12508052096E+03 0.  0.
          5    1    4    4  502    0 -0.60729611352E+01  0.17833580785E+01 -0.23299856421E+03  0.23313189860E+03  0.47000000000E+01 0.  1.
         -5    1    4    4    0  502  0.53712660638E+02  0.36493105510E+02 -0.51826328912E+02  0.83215713847E+02  0.47000000000E+01 0.  1.
          5    1    5    5  503    0  0.17961984975E+01 -0.40601302611E+01 -0.24244344464E+03  0.24252963703E+03  0.47000000000E+01 0. -1.
         -5    1    5    5    0  503 -0.49435898000E+02 -0.34216333327E+02 -0.40022326393E+02  0.72377773435E+02  0.47000000000E+01 0. -1.
<mgrwt>
<rscale>  0 0.27688302E+03</rscale>
<asrwt>0</asrwt>
<pdfrwt beam="1">  1        1 0.92195809E-01 0.27688302E+03</pdfrwt>
<pdfrwt beam="2">  1       -1 0.49203360E-02 0.27688302E+03</pdfrwt>
<totfact> 0.63306828E+03</totfact>
</mgrwt>
</event>
<event>
 9    1  0.7984035E-001  0.2757461E+03  0.7818608E-02  0.1098035E+00
          1   -1    0    0  501    0  0.00000000000E+00  0.00000000000E+00  0.10875111490E+04  0.10875111490E+04  0.00000000000E+00 0. -1.
         -1   -1    0    0    0  501 -0.00000000000E+00 -0.00000000000E+00 -0.17479339816E+02  0.17479339816E+02  0.00000000000E+00 0. -1.
         35    2    1    2    0    0 -0.17763568394E-14 -0.71054273576E-14  0.10700318092E+04  0.11049904888E+04  0.27574609282E+03 0.  0.
         25    2    3    3    0    0 -0.22583404708E+01 -0.54230540542E+02  0.61243299433E+03  0.62751769145E+03  0.12553178447E+03 0.  0.
         25    2    3    3    0    0  0.22583404708E+01  0.54230540542E+02  0.45759881488E+03  0.47747279739E+03  0.12505017088E+03 0.  0.
          5    1    4    4  502    0  0.16990556375E+02  0.44630774134E+01  0.79129090587E+01  0.19831848015E+02  0.47000000000E+01 0. -1.
         -5    1    4    4    0  502 -0.19248896846E+02 -0.58693617956E+02  0.60452008527E+03  0.60768584343E+03  0.47000000000E+01 0. -1.
          5    1    5    5  503    0 -0.10741916788E+02  0.89409127713E+02  0.23537024096E+03  0.25205281435E+03  0.47000000000E+01 0.  1.
         -5    1    5    5    0  503  0.13000257259E+02 -0.35178587170E+02  0.22222857392E+03  0.22541998304E+03  0.47000000000E+01 0.  1.
<mgrwt>
<rscale>  0 0.27574609E+03</rscale>
<asrwt>0</asrwt>
<pdfrwt beam="1">  1        1 0.16730935E+00 0.27574609E+03</pdfrwt>
<pdfrwt beam="2">  1       -1 0.26891301E-02 0.27574609E+03</pdfrwt>
<totfact> 0.61074935E+03</totfact>
</mgrwt>
</event>
<event>
 9    1  0.7984035E-001  0.2746585E+03  0.7818608E-02  0.1098643E+00
          2   -1    0    0  501    0  0.00000000000E+00  0.00000000000E+00  0.49374334906E+03  0.49374334906E+03  0.00000000000E+00 0.  1.
         -2   -1    0    0    0  501 -0.00000000000E+00 -0.00000000000E+00 -0.38196611183E+02  0.38196611183E+02  0.00000000000E+00 0.  1.
         35    2    1    2    0    0 -0.35527136788E-14  0.71054273576E-14  0.45554673788E+03  0.53193996024E+03  0.27465849871E+03 0.  0.
         25    2    3    3    0    0 -0.26112550863E+02  0.74188883189E-01  0.12923343512E+03  0.18145652234E+03  0.12467284359E+03 0.  0.
         25    2    3    3    0    0  0.26112550863E+02 -0.74188883189E-01  0.32631330275E+03  0.35048343790E+03  0.12520542270E+03 0.  0.
          5    1    4    4  502    0 -0.29942387241E+02  0.58039258732E+02  0.89605540227E+02  0.11097902931E+03  0.47000000000E+01 0. -1.
         -5    1    4    4    0  502  0.38298363775E+01 -0.57965069849E+02  0.39627894894E+02  0.70477493025E+02  0.47000000000E+01 0. -1.
          5    1    5    5  503    0  0.31598253324E+02 -0.59709727210E+02  0.18014081800E+03  0.19244870862E+03  0.47000000000E+01 0.  1.
         -5    1    5    5    0  503 -0.54857024608E+01  0.59635538327E+02  0.14617248475E+03  0.15803472929E+03  0.47000000000E+01 0.  1.
<mgrwt>
<rscale>  0 0.27465850E+03</rscale>
<asrwt>0</asrwt>
<pdfrwt beam="1">  1        2 0.75960511E-01 0.27465850E+03</pdfrwt>
<pdfrwt beam="2">  1       -2 0.58764021E-02 0.27465850E+03</pdfrwt>
<totfact> 0.95937923E+03</totfact>
</mgrwt>
</event>
<event>
 9    1  0.7984035E-001  0.2755196E+03  0.7818608E-02  0.1098162E+00
          1   -1    0    0  501    0  0.00000000000E+00  0.00000000000E+00  0.19042888551E+04  0.19042888551E+04  0.00000000000E+00 0.  1.
         -1   -1    0    0    0  501 -0.00000000000E+00 -0.00000000000E+00 -0.99657997722E+01  0.99657997722E+01  0.00000000000E+00 0.  1.
         35    2    1    2    0    0  0.00000000000E+00  0.71054273576E-14  0.18943230553E+04  0.19142546548E+04  0.27551959232E+03 0.  0.
         25    2    3    3    0    0  0.28772609138E+02  0.10188482089E+02  0.60319228992E+03  0.61673614462E+03  0.12486338641E+03 0.  0.
         25    2    3    3    0    0 -0.28772609138E+02 -0.10188482089E+02  0.12911307654E+04  0.12975185102E+04  0.12491582303E+03 0.  0.
          5    1    4    4  502    0  0.26785738919E+02  0.64508231439E+02  0.26117885986E+03  0.27039836273E+03  0.47000000000E+01 0. -1.
         -5    1    4    4    0  502  0.19868702189E+01 -0.54319749350E+02  0.34201343006E+03  0.34633778189E+03  0.47000000000E+01 0. -1.
          5    1    5    5  503    0  0.36084201354E+02 -0.31215675827E+02  0.27951927664E+03  0.28360113544E+03  0.47000000000E+01 0. -1.
         -5    1    5    5    0  503 -0.64856810492E+02  0.21027193739E+02  0.10116114887E+04  0.10139173748E+04  0.47000000000E+01 0. -1.
<mgrwt>
<rscale>  0 0.27551959E+03</rscale>
<asrwt>0</asrwt>
<pdfrwt beam="1">  1        1 0.29296723E+00 0.27551959E+03</pdfrwt>
<pdfrwt beam="2">  1       -1 0.15332015E-02 0.27551959E+03</pdfrwt>
<totfact> 0.39355497E+03</totfact>
</mgrwt>
</event>
<event>
 9    1  0.7984035E-001  0.2728780E+03  0.7818608E-02  0.1099644E+00
         -1   -1    0    0    0  501 -0.00000000000E+00  0.00000000000E+00  0.15967548600E+03  0.15967548600E+03  0.00000000000E+00 0.  1.
          1   -1    0    0  501    0  0.00000000000E+00 -0.00000000000E+00 -0.11658393403E+03  0.11658393403E+03  0.00000000000E+00 0.  1.
         35    2    1    2    0    0  0.00000000000E+00  0.71054273576E-14  0.43091551971E+02  0.27625942003E+03  0.27287796778E+03 0.  0.
         25    2    3    3    0    0  0.93290121606E+01  0.51999745259E+02  0.35431605345E+02  0.14035256162E+03  0.12510970754E+03 0.  0.
         25    2    3    3    0    0 -0.93290121606E+01 -0.51999745259E+02  0.76599466261E+01  0.13590685841E+03  0.12498398059E+03 0.  0.
          5    1    4    4  502    0 -0.21356259259E+02  0.16663728823E+02 -0.41737629131E+02  0.49978889076E+02  0.47000000000E+01 0.  1.
         -5    1    4    4    0  502  0.30685271419E+02  0.35336016436E+02  0.77169234476E+02  0.90373672545E+02  0.47000000000E+01 0.  1.
          5    1    5    5  503    0  0.49248335197E+02  0.47759854101E+00  0.24702337916E+02  0.55298482063E+02  0.47000000000E+01 0.  1.
         -5    1    5    5    0  503 -0.58577347357E+02 -0.52477343800E+02 -0.17042391290E+02  0.80608376342E+02  0.47000000000E+01 0.  1.
<mgrwt>
<rscale>  0 0.27287797E+03</rscale>
<asrwt>0</asrwt>
<pdfrwt beam="1">  1        1 0.17935990E-01 0.27287797E+03</pdfrwt>
<pdfrwt beam="2">  1       -1 0.24565459E-01 0.27287797E+03</pdfrwt>
<totfact> 0.41947238E+03</totfact>
</mgrwt>
</event>
<event>
 9    1  0.7984035E-001  0.2743930E+03  0.7818608E-02  0.1098791E+00
         -2   -1    0    0    0  501 -0.00000000000E+00  0.00000000000E+00  0.28288648750E+02  0.28288648750E+02  0.00000000000E+00 0. -1.
          2   -1    0    0  501    0  0.00000000000E+00 -0.00000000000E+00 -0.66538617487E+03  0.66538617487E+03  0.00000000000E+00 0. -1.
         35    2    1    2    0    0  0.00000000000E+00  0.71054273576E-14 -0.63709752612E+03  0.69367482362E+03  0.27439297210E+03 0.  0.
         25    2    3    3    0    0 -0.33624437984E+01  0.57097568752E+02 -0.29772769308E+03  0.32764658503E+03  0.12425404247E+03 0.  0.
         25    2    3    3    0    0  0.33624437984E+01 -0.57097568752E+02 -0.33936983304E+03  0.36602823859E+03  0.12463285876E+03 0.  0.
          5    1    4    4  502    0 -0.36218402115E+02 -0.10558226131E+02 -0.20335261742E+03  0.20687587052E+03  0.47000000000E+01 0.  1.
         -5    1    4    4    0  502  0.32855958316E+02  0.67655794884E+02 -0.94375075661E+02  0.12077071451E+03  0.47000000000E+01 0.  1.
          5    1    5    5  503    0 -0.33482656567E+02 -0.64899347657E+02 -0.30863035731E+03  0.31718732804E+03  0.47000000000E+01 0. -1.
         -5    1    5    5    0  503  0.36845100366E+02  0.78017789050E+01 -0.30739475731E+02  0.48840910549E+02  0.47000000000E+01 0. -1.
<mgrwt>
<rscale>  0 0.27439297E+03</rscale>
<asrwt>0</asrwt>
<pdfrwt beam="1">  1        2 0.10236710E+00 0.27439297E+03</pdfrwt>
<pdfrwt beam="2">  1       -2 0.43520999E-02 0.27439297E+03</pdfrwt>
<totfact> 0.10743006E+04</totfact>
</mgrwt>
</event>
<event>
 9    1  0.7984035E-001  0.2968444E+03  0.7818608E-02  0.1086829E+00
          1   -1    0    0  501    0  0.00000000000E+00  0.00000000000E+00  0.23471646443E+03  0.23471646443E+03  0.00000000000E+00 0. -1.
         -1   -1    0    0    0  501 -0.00000000000E+00 -0.00000000000E+00 -0.93854323948E+02  0.93854323948E+02  0.00000000000E+00 0. -1.
         35    2    1    2    0    0  0.00000000000E+00  0.14210854715E-13  0.14086214048E+03  0.32857078838E+03  0.29684443797E+03 0.  0.
         25    2    3    3    0    0 -0.28577918594E+02  0.59410438439E+02  0.19880228819E+02  0.14301389628E+03  0.12534533659E+03 0.  0.
         25    2    3    3    0    0  0.28577918594E+02 -0.59410438439E+02  0.12098191166E+03  0.18555689210E+03  0.12429175205E+03 0.  0.
          5    1    4    4  502    0  0.39299211143E+02 -0.46237586585E+01  0.28784445256E+02  0.49157313081E+02  0.47000000000E+01 0.  1.
         -5    1    4    4    0  502 -0.67877129737E+02  0.64034197098E+02 -0.89042164376E+01  0.93856583199E+02  0.47000000000E+01 0.  1.
          5    1    5    5  503    0  0.16082928359E+02 -0.23928096347E+01 -0.23900938826E+02  0.29287044906E+02  0.47000000000E+01 0. -1.
         -5    1    5    5    0  503  0.12494990235E+02 -0.57017628805E+02  0.14488285049E+03  0.15626984719E+03  0.47000000000E+01 0. -1.
<mgrwt>
<rscale>  0 0.29684444E+03</rscale>
<asrwt>0</asrwt>
<pdfrwt beam="1">  1        1 0.36110225E-01 0.29684444E+03</pdfrwt>
<pdfrwt beam="2">  1       -1 0.14439127E-01 0.29684444E+03</pdfrwt>
<totfact> 0.40755061E+03</totfact>
</mgrwt>
</event>
<event>
 9    1  0.7984035E-001  0.2748543E+03  0.7818608E-02  0.1098533E+00
          1   -1    0    0  501    0  0.00000000000E+00  0.00000000000E+00  0.43396057228E+02  0.43396057228E+02  0.00000000000E+00 0.  1.
         -1   -1    0    0    0  501 -0.00000000000E+00 -0.00000000000E+00 -0.43520588866E+03  0.43520588866E+03  0.00000000000E+00 0.  1.
         35    2    1    2    0    0  0.00000000000E+00 -0.71054273576E-14 -0.39180983143E+03  0.47860194589E+03  0.27485428613E+03 0.  0.
         25    2    3    3    0    0  0.37273791125E+02  0.23794086903E+02 -0.27030749489E+03  0.30093262858E+03  0.12465476755E+03 0.  0.
         25    2    3    3    0    0 -0.37273791125E+02 -0.23794086903E+02 -0.12150233654E+03  0.17766931731E+03  0.12185267520E+03 0.  0.
          5    1    4    4  502    0  0.58840388471E+02  0.49626556167E+02 -0.94989290081E+02  0.12235212145E+03  0.47000000000E+01 0. -1.
         -5    1    4    4    0  502 -0.21566597346E+02 -0.25832469263E+02 -0.17531820481E+03  0.17858050713E+03  0.47000000000E+01 0. -1.
          5    1    5    5  503    0 -0.26936048062E+02 -0.73465524041E+02 -0.79351244969E+02  0.11154122102E+03  0.47000000000E+01 0.  1.
         -5    1    5    5    0  503 -0.10337743064E+02  0.49671437137E+02 -0.42151091572E+02  0.66128096295E+02  0.47000000000E+01 0.  1.
<mgrwt>
<rscale>  0 0.27485429E+03</rscale>
<asrwt>0</asrwt>
<pdfrwt beam="1">  1        1 0.66763165E-02 0.27485429E+03</pdfrwt>
<pdfrwt beam="2">  1       -1 0.66954752E-01 0.27485429E+03</pdfrwt>
<totfact> 0.26058060E+03</totfact>
</mgrwt>
</event>
<event>
 9    1  0.7984035E-001  0.2813755E+03  0.7818608E-02  0.1094940E+00
          1   -1    0    0  501    0  0.00000000000E+00  0.00000000000E+00  0.14110603423E+04  0.14110603423E+04  0.00000000000E+00 0.  1.
         -1   -1    0    0    0  501 -0.00000000000E+00 -0.00000000000E+00 -0.14027074153E+02  0.14027074153E+02  0.00000000000E+00 0.  1.
         35    2    1    2    0    0  0.00000000000E+00  0.71054273576E-14  0.13970332681E+04  0.14250874164E+04  0.28137553593E+03 0.  0.
         25    2    3    3    0    0  0.53807134144E+02  0.29671004269E+02  0.57811226143E+03  0.59443323988E+03  0.12394157364E+03 0.  0.
         25    2    3    3    0    0 -0.53807134144E+02 -0.29671004269E+02  0.81892100671E+03  0.83065417656E+03  0.12481654393E+03 0.  0.
          5    1    4    4  502    0  0.47886824894E+02 -0.42888194754E+02  0.23711045090E+03  0.24571528478E+03  0.47000000000E+01 0.  1.
         -5    1    4    4    0  502  0.59203092497E+01  0.72559199023E+02  0.34100181053E+03  0.34871795510E+03  0.47000000000E+01 0.  1.
          5    1    5    5  503    0  0.21929515561E+02  0.26630946693E+01  0.52202110887E+03  0.52250944856E+03  0.47000000000E+01 0. -1.
         -5    1    5    5    0  503 -0.75736649705E+02 -0.32334098938E+02  0.29689989783E+03  0.30814472800E+03  0.47000000000E+01 0. -1.
<mgrwt>
<rscale>  0 0.28137554E+03</rscale>
<asrwt>0</asrwt>
<pdfrwt beam="1">  1        1 0.21708609E+00 0.28137554E+03</pdfrwt>
<pdfrwt beam="2">  1       -1 0.21580125E-02 0.28137554E+03</pdfrwt>
<totfact> 0.50338342E+03</totfact>
</mgrwt>
</event>
<event>
 9    1  0.7984035E-001  0.2742663E+03  0.7818608E-02  0.1098862E+00
         -2   -1    0    0    0  501 -0.00000000000E+00  0.00000000000E+00  0.31991544182E+04  0.31991544182E+04  0.00000000000E+00 0.  1.
          2   -1    0    0  501    0  0.00000000000E+00 -0.00000000000E+00 -0.58782735466E+01  0.58782735466E+01  0.00000000000E+00 0.  1.
         35    2    1    2    0    0  0.14210854715E-13  0.00000000000E+00  0.31932761447E+04  0.32050326918E+04  0.27426632887E+03 0.  0.
         25    2    3    3    0    0  0.40356052186E+02  0.39885975831E+02  0.16250443570E+04  0.16307687125E+04  0.12416895462E+03 0.  0.
         25    2    3    3    0    0 -0.40356052186E+02 -0.39885975831E+02  0.15682317876E+04  0.15742639793E+04  0.12544574393E+03 0.  0.
          5    1    4    4  502    0  0.40996736138E+02  0.45476096854E+02  0.32771758628E+03  0.33342122625E+03  0.47000000000E+01 0.  1.
         -5    1    4    4    0  502 -0.64068395174E+00 -0.55901210224E+01  0.12973267707E+04  0.12973474862E+04  0.47000000000E+01 0.  1.
          5    1    5    5  503    0 -0.11973573714E+02 -0.19059761780E+02  0.14633752930E+04  0.14635559365E+04  0.47000000000E+01 0. -1.
         -5    1    5    5    0  503 -0.28382478472E+02 -0.20826214051E+02  0.10485649462E+03  0.11070804280E+03  0.47000000000E+01 0. -1.
<mgrwt>
<rscale>  0 0.27426633E+03</rscale>
<asrwt>0</asrwt>
<pdfrwt beam="1">  1        2 0.90435233E-03 0.27426633E+03</pdfrwt>
<pdfrwt beam="2">  1       -2 0.49217621E+00 0.27426633E+03</pdfrwt>
<totfact> 0.37586418E+01</totfact>
</mgrwt>
</event>
<event>
 9    1  0.7984035E-001  0.2740307E+03  0.7818608E-02  0.1098995E+00
          2   -1    0    0  501    0  0.00000000000E+00  0.00000000000E+00  0.12709211593E+04  0.12709211593E+04  0.00000000000E+00 0.  1.
         -2   -1    0    0    0  501 -0.00000000000E+00 -0.00000000000E+00 -0.14771338606E+02  0.14771338606E+02  0.00000000000E+00 0.  1.
         35    2    1    2    0    0  0.00000000000E+00 -0.71054273576E-14  0.12561498207E+04  0.12856924979E+04  0.27403070474E+03 0.  0.
         25    2    3    3    0    0  0.51384814099E+02  0.10344915692E+02  0.56151669789E+03  0.57753230384E+03  0.12447949053E+03 0.  0.
         25    2    3    3    0    0 -0.51384814099E+02 -0.10344915692E+02  0.69463312277E+03  0.70816019404E+03  0.12739022243E+03 0.  0.
          5    1    4    4  502    0 -0.28202211354E+02  0.39701137971E+02  0.16977909696E+03  0.17668779484E+03  0.47000000000E+01 0.  1.
         -5    1    4    4    0  502  0.79587025453E+02 -0.29356222278E+02  0.39173760093E+03  0.40084450899E+03  0.47000000000E+01 0.  1.
          5    1    5    5  503    0 -0.92967535926E+01  0.26824599437E+02  0.57710967927E+03  0.57782667009E+03  0.47000000000E+01 0. -1.
         -5    1    5    5    0  503 -0.42088060506E+02 -0.37169515129E+02  0.11752344350E+03  0.13033352394E+03  0.47000000000E+01 0. -1.
<mgrwt>
<rscale>  0 0.27403070E+03</rscale>
<asrwt>0</asrwt>
<pdfrwt beam="1">  1        2 0.19552625E+00 0.27403070E+03</pdfrwt>
<pdfrwt beam="2">  1       -2 0.22725146E-02 0.27403070E+03</pdfrwt>
<totfact> 0.11648263E+04</totfact>
</mgrwt>
</event>
<event>
 9    1  0.7984035E-001  0.2743491E+03  0.7818608E-02  0.1098816E+00
          1   -1    0    0  501    0  0.00000000000E+00  0.00000000000E+00  0.42712767422E+02  0.42712767422E+02  0.00000000000E+00 0.  1.
         -1   -1    0    0    0  501 -0.00000000000E+00 -0.00000000000E+00 -0.44054401893E+03  0.44054401893E+03  0.00000000000E+00 0.  1.
         35    2    1    2    0    0  0.00000000000E+00 -0.71054273576E-14 -0.39783125151E+03  0.48325678635E+03  0.27434907851E+03 0.  0.
         25    2    3    3    0    0 -0.30268089454E+02  0.45456640077E+02 -0.22269497215E+03  0.26103472571E+03  0.12475421452E+03 0.  0.
         25    2    3    3    0    0  0.30268089454E+02 -0.45456640077E+02 -0.17513627936E+03  0.22222206064E+03  0.12540918835E+03 0.  0.
          5    1    4    4  502    0 -0.82709582337E+01  0.87339456878E+02 -0.15750381191E+03  0.18035002147E+03  0.47000000000E+01 0. -1.
         -5    1    4    4    0  502 -0.21997131220E+02 -0.41882816800E+02 -0.65191160234E+02  0.80684704236E+02  0.47000000000E+01 0. -1.
          5    1    5    5  503    0  0.18690771213E+02 -0.89209805678E+02 -0.11536485047E+03  0.14710157403E+03  0.47000000000E+01 0.  1.
         -5    1    5    5    0  503  0.11577318241E+02  0.43753165600E+02 -0.59771428891E+02  0.75120486616E+02  0.47000000000E+01 0.  1.
<mgrwt>
<rscale>  0 0.27434908E+03</rscale>
<asrwt>0</asrwt>
<pdfrwt beam="1">  1        1 0.65711948E-02 0.27434908E+03</pdfrwt>
<pdfrwt beam="2">  1       -1 0.67776005E-01 0.27434908E+03</pdfrwt>
<totfact> 0.25995384E+03</totfact>
</mgrwt>
</event>
<event>
 9    1  0.7984035E-001  0.2764981E+03  0.7818608E-02  0.1097617E+00
          2   -1    0    0  501    0  0.00000000000E+00  0.00000000000E+00  0.57449166034E+03  0.57449166034E+03  0.00000000000E+00 0. -1.
         -2   -1    0    0    0  501 -0.00000000000E+00 -0.00000000000E+00 -0.33269059470E+02  0.33269059470E+02  0.00000000000E+00 0. -1.
         35    2    1    2    0    0  0.00000000000E+00  0.14210854715E-13  0.54122260088E+03  0.60776071981E+03  0.27649808110E+03 0.  0.
         25    2    3    3    0    0  0.18732112386E+02 -0.46484800649E+02  0.34334676526E+03  0.36892168947E+03  0.12531752877E+03 0.  0.
         25    2    3    3    0    0 -0.18732112386E+02  0.46484800649E+02  0.19787583561E+03  0.23883903035E+03  0.12400607796E+03 0.  0.
          5    1    4    4  502    0 -0.54881894535E+00  0.15161291150E+01 -0.10323768243E+02  0.11457313842E+02  0.47000000000E+01 0. -1.
         -5    1    4    4    0  502  0.19280931331E+02 -0.48000929764E+02  0.35367053351E+03  0.35746437563E+03  0.47000000000E+01 0. -1.
          5    1    5    5  503    0 -0.52646475001E+02  0.73126946151E+02  0.12846377129E+03  0.15698481492E+03  0.47000000000E+01 0.  1.
         -5    1    5    5    0  503  0.33914362616E+02 -0.26642145502E+02  0.69412064326E+02  0.81854215423E+02  0.47000000000E+01 0.  1.
<mgrwt>
<rscale>  0 0.27649808E+03</rscale>
<asrwt>0</asrwt>
<pdfrwt beam="1">  1        2 0.88383325E-01 0.27649808E+03</pdfrwt>
<pdfrwt beam="2">  1       -2 0.51183173E-02 0.27649808E+03</pdfrwt>
<totfact> 0.99819242E+03</totfact>
</mgrwt>
</event>
<event>
 9    1  0.7984035E-001  0.2754187E+03  0.7818608E-02  0.1098218E+00
          2   -1    0    0  501    0  0.00000000000E+00  0.00000000000E+00  0.45745875962E+03  0.45745875962E+03  0.00000000000E+00 0.  1.
         -2   -1    0    0    0  501 -0.00000000000E+00 -0.00000000000E+00 -0.41454793464E+02  0.41454793464E+02  0.00000000000E+00 0.  1.
         35    2    1    2    0    0  0.35527136788E-14  0.00000000000E+00  0.41600396615E+03  0.49891355308E+03  0.27541865150E+03 0.  0.
         25    2    3    3    0    0 -0.53097444990E+01  0.50352913081E+02  0.26279245301E+03  0.29545016390E+03  0.12516915253E+03 0.  0.
         25    2    3    3    0    0  0.53097444990E+01 -0.50352913081E+02  0.15321151314E+03  0.20346338919E+03  0.12393536112E+03 0.  0.
          5    1    4    4  502    0 -0.40769283207E+02 -0.25609704494E+02  0.12572648339E+03  0.13471165518E+03  0.47000000000E+01 0.  1.
         -5    1    4    4    0  502  0.35459538708E+02  0.75962617575E+02  0.13706596962E+03  0.16073850871E+03  0.47000000000E+01 0.  1.
          5    1    5    5  503    0  0.37179270644E+02  0.25807161932E+02  0.84403257007E+02  0.95886952011E+02  0.47000000000E+01 0.  1.
         -5    1    5    5    0  503 -0.31869526145E+02 -0.76160075013E+02  0.68808256137E+02  0.10757643718E+03  0.47000000000E+01 0.  1.
<mgrwt>
<rscale>  0 0.27541865E+03</rscale>
<asrwt>0</asrwt>
<pdfrwt beam="1">  1        2 0.70378267E-01 0.27541865E+03</pdfrwt>
<pdfrwt beam="2">  1       -2 0.63776609E-02 0.27541865E+03</pdfrwt>
<totfact> 0.92091329E+03</totfact>
</mgrwt>
</event>
<event>
 8    1  0.7984035E-001  0.3579131E+03  0.7818608E-02  0.1059413E+00
          2   -1    0    0  501    0  0.00000000000E+00  0.00000000000E+00  0.27206157252E+03  0.27206157252E+03  0.00000000000E+00 0. -1.
         -2   -1    0    0    0  501 -0.00000000000E+00 -0.00000000000E+00 -0.11771395831E+03  0.11771395831E+03  0.00000000000E+00 0. -1.
         25    2    1    2    0    0 -0.93715184663E+02  0.81604802682E+02  0.11067902228E+03  0.20837231891E+03  0.12540852306E+03 0.  0.
         25    2    1    2    0    0  0.93715184663E+02 -0.81604802682E+02  0.43668591928E+02  0.18140321192E+03  0.12473291352E+03 0.  0.
          5    1    3    3  502    0 -0.48322021648E+02 -0.28878511700E+02  0.28165021568E+02  0.63121665489E+02  0.47000000000E+01 0.  1.
         -5    1    3    3    0  502 -0.45393163014E+02  0.11048331438E+03  0.82514000712E+02  0.14525065342E+03  0.47000000000E+01 0.  1.
          5    1    4    4  503    0  0.33471609173E+02 -0.10487419960E+03  0.37345163459E+02  0.11634301696E+03  0.47000000000E+01 0. -1.
         -5    1    4    4    0  503  0.60243575489E+02  0.23269396913E+02  0.63234284695E+01  0.65060194959E+02  0.47000000000E+01 0. -1.
<mgrwt>
<rscale>  0 0.35791309E+03</rscale>
<asrwt>0</asrwt>
<pdfrwt beam="1">  1        2 0.41855626E-01 0.35791309E+03</pdfrwt>
<pdfrwt beam="2">  1       -2 0.18109840E-01 0.35791309E+03</pdfrwt>
<totfact> 0.30437273E+03</totfact>
</mgrwt>
</event>
<event>
 9    1  0.7984035E-001  0.3127552E+03  0.7818608E-02  0.1079033E+00
         -2   -1    0    0    0  501 -0.00000000000E+00  0.00000000000E+00  0.64460808204E+03  0.64460808204E+03  0.00000000000E+00 0. -1.
          2   -1    0    0  501    0  0.00000000000E+00 -0.00000000000E+00 -0.37936148757E+02  0.37936148757E+02  0.00000000000E+00 0. -1.
         35    2    1    2    0    0  0.00000000000E+00  0.00000000000E+00  0.60667193328E+03  0.68254423080E+03  0.31275516360E+03 0.  0.
         25    2    3    3    0    0 -0.79384718969E+02  0.21620020660E+02  0.40053907197E+03  0.42756816918E+03  0.12495452061E+03 0.  0.
         25    2    3    3    0    0  0.79384718969E+02 -0.21620020660E+02  0.20613286131E+03  0.25497606162E+03  0.12550966730E+03 0.  0.
          5    1    4    4  502    0  0.36456866387E+00 -0.18092888766E+02  0.15886476028E+01  0.18764310150E+02  0.47000000000E+01 0.  1.
         -5    1    4    4    0  502 -0.79749287633E+02  0.39712909426E+02  0.39895042437E+03  0.40880385903E+03  0.47000000000E+01 0.  1.
          5    1    5    5  503    0  0.38110909306E+02  0.14543767134E+02 -0.56572454716E+00  0.41065467425E+02  0.47000000000E+01 0. -1.
         -5    1    5    5    0  503  0.41273809662E+02 -0.36163787794E+02  0.20669858586E+03  0.21391059419E+03  0.47000000000E+01 0. -1.
<mgrwt>
<rscale>  0 0.31275516E+03</rscale>
<asrwt>0</asrwt>
<pdfrwt beam="1">  1        2 0.58363310E-02 0.31275516E+03</pdfrwt>
<pdfrwt beam="2">  1       -2 0.99170466E-01 0.31275516E+03</pdfrwt>
<totfact> 0.11239524E+03</totfact>
</mgrwt>
</event>
