<event>
 9    1  0.2117506E-002  0.2748391E+03  0.7818608E-02  0.1098542E+00
          2   -1    0    0  501    0  0.00000000000E+00  0.00000000000E+00  0.16425663418E+02  0.16425663418E+02  0.00000000000E+00 0.  1.
         -2   -1    0    0    0  501 -0.00000000000E+00 -0.00000000000E+00 -0.11496724191E+04  0.11496724191E+04  0.00000000000E+00 0.  1.
         36    2    1    2    0    0  0.00000000000E+00  0.14210854715E-13 -0.11332467557E+04  0.11660980825E+04  0.27483909618E+03 0.  0.
         25    2    3    3    0    0  0.55200424173E+01  0.53133764137E+02 -0.66558291268E+03  0.67964582643E+03  0.12674449881E+03 0.  0.
         25    2    3    3    0    0 -0.55200424173E+01 -0.53133764137E+02 -0.46766384300E+03  0.48645225608E+03  0.12277076052E+03 0.  0.
          5    1    4    4  502    0  0.30671328527E+02 -0.18412067187E+01 -0.37791211586E+02  0.48932464775E+02  0.47000000000E+01 0.  1.
         -5    1    4    4    0  502 -0.25151286109E+02  0.54974970856E+02 -0.62779170109E+03  0.63071336166E+03  0.47000000000E+01 0.  1.
          5    1    5    5  503    0 -0.37159016824E+01 -0.60764334026E+01  0.59989088183E+01  0.10431101343E+02  0.47000000000E+01 0. -1.
         -5    1    5    5    0  503 -0.18041407349E+01 -0.47057330734E+02 -0.47366275182E+03  0.47602115474E+03  0.47000000000E+01 0. -1.
<mgrwt>
<rscale>  0 0.27483910E+03</rscale>
<asrwt>0</asrwt>
<pdfrwt beam="1">  1        2 0.25270250E-02 0.27483910E+03</pdfrwt>
<pdfrwt beam="2">  1       -2 0.17687269E+00 0.27483910E+03</pdfrwt>
<totfact> 0.80989109E+02</totfact>
</mgrwt>
</event>
<event>
 9    1  0.2117506E-002  0.2762329E+03  0.7818608E-02  0.1097764E+00
         -2   -1    0    0    0  501 -0.00000000000E+00  0.00000000000E+00  0.25689673941E+02  0.25689673941E+02  0.00000000000E+00 0. -1.
          2   -1    0    0  501    0  0.00000000000E+00 -0.00000000000E+00 -0.74256136192E+03  0.74256136192E+03  0.00000000000E+00 0. -1.
         36    2    1    2    0    0  0.00000000000E+00  0.00000000000E+00 -0.71687168798E+03  0.76825103586E+03  0.27623293988E+03 0.  0.
         25    2    3    3    0    0 -0.28051963509E+02 -0.41816752125E+02 -0.27295661914E+03  0.30459934531E+03  0.12545872556E+03 0.  0.
         25    2    3    3    0    0  0.28051963509E+02  0.41816752125E+02 -0.44391506884E+03  0.46365169055E+03  0.12400301766E+03 0.  0.
          5    1    4    4  502    0  0.43802577720E+02 -0.43946876985E+02 -0.10893747694E+03  0.12545699540E+03  0.47000000000E+01 0. -1.
         -5    1    4    4    0  502 -0.71854541228E+02  0.21301248595E+01 -0.16401914220E+03  0.17914234992E+03  0.47000000000E+01 0. -1.
          5    1    5    5  503    0 -0.21351143267E+02  0.71109824698E+02 -0.21163440064E+03  0.22432941854E+03  0.47000000000E+01 0. -1.
         -5    1    5    5    0  503  0.49403106775E+02 -0.29293072573E+02 -0.23228066820E+03  0.23932227201E+03  0.47000000000E+01 0. -1.
<mgrwt>
<rscale>  0 0.27623294E+03</rscale>
<asrwt>0</asrwt>
<pdfrwt beam="1">  1        2 0.11424021E+00 0.27623294E+03</pdfrwt>
<pdfrwt beam="2">  1       -2 0.39522576E-02 0.27623294E+03</pdfrwt>
<totfact> 0.10873153E+04</totfact>
</mgrwt>
</event>
<event>
 9    1  0.2117506E-002  0.2726639E+03  0.7818608E-02  0.1099765E+00
         -1   -1    0    0    0  501 -0.00000000000E+00  0.00000000000E+00  0.52715166430E+02  0.52715166430E+02  0.00000000000E+00 0.  1.
          1   -1    0    0  501    0  0.00000000000E+00 -0.00000000000E+00 -0.35258173911E+03  0.35258173911E+03  0.00000000000E+00 0.  1.
         36    2    1    2    0    0  0.00000000000E+00  0.00000000000E+00 -0.29986657268E+03  0.40529690554E+03  0.27266393276E+03 0.  0.
         25    2    3    3    0    0  0.15449051831E+02 -0.29610655793E+02 -0.20965126741E+03  0.24672135076E+03  0.12570722673E+03 0.  0.
         25    2    3    3    0    0 -0.15449051831E+02  0.29610655793E+02 -0.90215305271E+02  0.15857555479E+03  0.12606324259E+03 0.  0.
          5    1    4    4  502    0 -0.43162053866E+02 -0.52402114000E+01 -0.16036302475E+03  0.16621916982E+03  0.47000000000E+01 0. -1.
         -5    1    4    4    0  502  0.58611105697E+02 -0.24370444393E+02 -0.49288242668E+02  0.80502180941E+02  0.47000000000E+01 0. -1.
          5    1    5    5  503    0 -0.66277979240E+02  0.36970713771E+02 -0.69442965688E+02  0.10297582091E+03  0.47000000000E+01 0.  1.
         -5    1    5    5    0  503  0.50828927410E+02 -0.73600579776E+01 -0.20772339583E+02  0.55599733873E+02  0.47000000000E+01 0.  1.
<mgrwt>
<rscale>  0 0.27266393E+03</rscale>
<asrwt>0</asrwt>
<pdfrwt beam="1">  1        1 0.54243347E-01 0.27266393E+03</pdfrwt>
<pdfrwt beam="2">  1       -1 0.81100252E-02 0.27266393E+03</pdfrwt>
<totfact> 0.59706234E+03</totfact>
</mgrwt>
</event>
<event>
 9    1  0.2117506E-002  0.2750348E+03  0.7818608E-02  0.1098432E+00
         -2   -1    0    0    0  501 -0.00000000000E+00  0.00000000000E+00  0.11574111347E+02  0.11574111347E+02  0.00000000000E+00 0.  1.
          2   -1    0    0  501    0  0.00000000000E+00 -0.00000000000E+00 -0.16339077691E+04  0.16339077691E+04  0.00000000000E+00 0.  1.
         36    2    1    2    0    0 -0.71054273576E-14 -0.71054273576E-14 -0.16223336577E+04  0.16454818804E+04  0.27503476471E+03 0.  0.
         25    2    3    3    0    0  0.75975871379E+01  0.27734947915E+02 -0.52174326447E+03  0.53772422291E+03  0.12690293621E+03 0.  0.
         25    2    3    3    0    0 -0.75975871379E+01 -0.27734947915E+02 -0.11005903933E+04  0.11077576575E+04  0.12247801182E+03 0.  0.
          5    1    4    4  502    0 -0.12156163285E+02 -0.45265047735E+02 -0.29288696192E+03  0.29665056770E+03  0.47000000000E+01 0.  1.
         -5    1    4    4    0  502  0.19753750423E+02  0.72999995650E+02 -0.22885630255E+03  0.24107365521E+03  0.47000000000E+01 0.  1.
          5    1    5    5  503    0 -0.54878268885E+02  0.15290242624E+02 -0.37370601849E+03  0.37805250187E+03  0.47000000000E+01 0. -1.
         -5    1    5    5    0  503  0.47280681747E+02 -0.43025190539E+02 -0.72688437476E+03  0.72970515563E+03  0.47000000000E+01 0. -1.
<mgrwt>
<rscale>  0 0.27503476E+03</rscale>
<asrwt>0</asrwt>
<pdfrwt beam="1">  1        2 0.25137014E+00 0.27503476E+03</pdfrwt>
<pdfrwt beam="2">  1       -2 0.17806345E-02 0.27503476E+03</pdfrwt>
<totfact> 0.10620161E+04</totfact>
</mgrwt>
</event>
<event>
 9    1  0.2117506E-002  0.2688057E+03  0.7818608E-02  0.1101965E+00
          1   -1    0    0  501    0  0.00000000000E+00  0.00000000000E+00  0.79335843711E+02  0.79335843711E+02  0.00000000000E+00 0. -1.
         -1   -1    0    0    0  501 -0.00000000000E+00 -0.00000000000E+00 -0.22769187357E+03  0.22769187357E+03  0.00000000000E+00 0. -1.
         36    2    1    2    0    0  0.35527136788E-14  0.71054273576E-14 -0.14835602986E+03  0.30702771728E+03  0.26880570601E+03 0.  0.
         25    2    3    3    0    0  0.21096776230E+02  0.32221652427E+02 -0.11674712708E+03  0.17403986052E+03  0.12319363829E+03 0.  0.
         25    2    3    3    0    0 -0.21096776230E+02 -0.32221652427E+02 -0.31608902779E+02  0.13298785677E+03  0.12330181856E+03 0.  0.
          5    1    4    4  502    0  0.74027357048E+01  0.63845926356E+02 -0.12285009773E+03  0.13872757231E+03  0.47000000000E+01 0.  1.
         -5    1    4    4    0  502  0.13694040526E+02 -0.31624273929E+02  0.61029706458E+01  0.35312288204E+02  0.47000000000E+01 0.  1.
          5    1    5    5  503    0 -0.91632174165E+01 -0.77212404494E+02 -0.25975251384E+01  0.77939445071E+02  0.47000000000E+01 0. -1.
         -5    1    5    5    0  503 -0.11933558814E+02  0.44990752067E+02 -0.29011377641E+02  0.55048411695E+02  0.47000000000E+01 0. -1.
<mgrwt>
<rscale>  0 0.26880571E+03</rscale>
<asrwt>0</asrwt>
<pdfrwt beam="1">  1        1 0.12205515E-01 0.26880571E+03</pdfrwt>
<pdfrwt beam="2">  1       -1 0.35029518E-01 0.26880571E+03</pdfrwt>
<totfact> 0.38063348E+03</totfact>
</mgrwt>
</event>
<event>
 9    1  0.2117506E-002  0.2760706E+03  0.7818608E-02  0.1097855E+00
          2   -1    0    0  501    0  0.00000000000E+00  0.00000000000E+00  0.10932358028E+04  0.10932358028E+04  0.00000000000E+00 0.  1.
         -2   -1    0    0    0  501 -0.00000000000E+00 -0.00000000000E+00 -0.17428765925E+02  0.17428765925E+02  0.00000000000E+00 0.  1.
         36    2    1    2    0    0  0.71054273576E-14 -0.71054273576E-14  0.10758070369E+04  0.11106645688E+04  0.27607064971E+03 0.  0.
         25    2    3    3    0    0 -0.56199571831E+02 -0.18687616864E+02  0.53868076938E+03  0.55241295667E+03  0.10712368784E+03 0.  0.
         25    2    3    3    0    0  0.56199571831E+02  0.18687616864E+02  0.53712626752E+03  0.55825161208E+03  0.14011643812E+03 0.  0.
          5    1    4    4  502    0 -0.18774158734E+01  0.40521970859E+02  0.14825183666E+03  0.15377337834E+03  0.47000000000E+01 0.  1.
         -5    1    4    4    0  502 -0.54322155957E+02 -0.59209587722E+02  0.39042893272E+03  0.39863957833E+03  0.47000000000E+01 0.  1.
          5    1    5    5  503    0  0.28957531579E+02  0.74140673055E+02  0.19693858611E+03  0.21246711448E+03  0.47000000000E+01 0.  1.
         -5    1    5    5    0  503  0.27242040251E+02 -0.55453056192E+02  0.34018768141E+03  0.34578449761E+03  0.47000000000E+01 0.  1.
<mgrwt>
<rscale>  0 0.27607065E+03</rscale>
<asrwt>0</asrwt>
<pdfrwt beam="1">  1        2 0.16819007E+00 0.27607065E+03</pdfrwt>
<pdfrwt beam="2">  1       -2 0.26813495E-02 0.27607065E+03</pdfrwt>
<totfact> 0.11526245E+04</totfact>
</mgrwt>
</event>
<event>
 9    1  0.2117506E-002  0.2737465E+03  0.7818608E-02  0.1099154E+00
          1   -1    0    0  501    0  0.00000000000E+00  0.00000000000E+00  0.55706559918E+02  0.55706559918E+02  0.00000000000E+00 0. -1.
         -1   -1    0    0    0  501 -0.00000000000E+00 -0.00000000000E+00 -0.33630296363E+03  0.33630296363E+03  0.00000000000E+00 0. -1.
         36    2    1    2    0    0 -0.17763568394E-14 -0.14210854715E-13 -0.28059640371E+03  0.39200952355E+03  0.27374646076E+03 0.  0.
         25    2    3    3    0    0  0.13121426313E+02  0.24816751227E+02 -0.17785625810E+03  0.22162829540E+03  0.12922155317E+03 0.  0.
         25    2    3    3    0    0 -0.13121426313E+02 -0.24816751227E+02 -0.10274014561E+03  0.17038122815E+03  0.13298940716E+03 0.  0.
          5    1    4    4  502    0 -0.17879175289E+02  0.92362126258E+01 -0.18478479231E+03  0.18593676883E+03  0.47000000000E+01 0. -1.
         -5    1    4    4    0  502  0.31000601603E+02  0.15580538601E+02  0.69285342063E+01  0.35691526572E+02  0.47000000000E+01 0. -1.
          5    1    5    5  503    0 -0.13851650330E+02  0.41020462852E+02  0.51977652298E+01  0.43859472783E+02  0.47000000000E+01 0. -1.
         -5    1    5    5    0  503  0.73022401675E+00 -0.65837214079E+02 -0.10793791084E+03  0.12652175537E+03  0.47000000000E+01 0. -1.
<mgrwt>
<rscale>  0 0.27374646E+03</rscale>
<asrwt>0</asrwt>
<pdfrwt beam="1">  1        1 0.85702399E-02 0.27374646E+03</pdfrwt>
<pdfrwt beam="2">  1       -1 0.51738918E-01 0.27374646E+03</pdfrwt>
<totfact> 0.30383339E+03</totfact>
</mgrwt>
</event>
<event>
 9    1  0.2117506E-002  0.2760706E+03  0.7818608E-02  0.1097855E+00
         -2   -1    0    0    0  501 -0.00000000000E+00  0.00000000000E+00  0.18186049584E+02  0.18186049584E+02  0.00000000000E+00 0. -1.
          2   -1    0    0  501    0  0.00000000000E+00 -0.00000000000E+00 -0.10477120351E+04  0.10477120351E+04  0.00000000000E+00 0. -1.
         36    2    1    2    0    0  0.00000000000E+00 -0.35527136788E-14 -0.10295259855E+04  0.10658980847E+04  0.27607059257E+03 0.  0.
         25    2    3    3    0    0  0.25610194603E+02  0.57645790947E+01 -0.63920450374E+03  0.65424264034E+03  0.13697416693E+03 0.  0.
         25    2    3    3    0    0 -0.25610194603E+02 -0.57645790947E+01 -0.39032148179E+03  0.41165544435E+03  0.12814145807E+03 0.  0.
          5    1    4    4  502    0  0.80951677980E+02 -0.10060587772E+02 -0.37151404726E+03  0.38039343699E+03  0.47000000000E+01 0.  1.
         -5    1    4    4    0  502 -0.55341483376E+02  0.15825166867E+02 -0.26769045648E+03  0.27384920335E+03  0.47000000000E+01 0.  1.
          5    1    5    5  503    0 -0.26215180309E+02  0.26701267994E+02 -0.25877617630E+02  0.45737670309E+02  0.47000000000E+01 0. -1.
         -5    1    5    5    0  503  0.60498570572E+00 -0.32465847089E+02 -0.36444386416E+03  0.36591777404E+03  0.47000000000E+01 0. -1.
<mgrwt>
<rscale>  0 0.27607059E+03</rscale>
<asrwt>0</asrwt>
<pdfrwt beam="1">  1        2 0.16118648E+00 0.27607059E+03</pdfrwt>
<pdfrwt beam="2">  1       -2 0.27978536E-02 0.27607059E+03</pdfrwt>
<totfact> 0.11516717E+04</totfact>
</mgrwt>
</event>
<event>
 9    1  0.2117506E-002  0.2743996E+03  0.7818608E-02  0.1098788E+00
          2   -1    0    0  501    0  0.00000000000E+00  0.00000000000E+00  0.93618470282E+02  0.93618470282E+02  0.00000000000E+00 0. -1.
         -2   -1    0    0    0  501 -0.00000000000E+00 -0.00000000000E+00 -0.20106914393E+03  0.20106914393E+03  0.00000000000E+00 0. -1.
         36    2    1    2    0    0  0.71054273576E-14 -0.17763568394E-14 -0.10745067365E+03  0.29468761422E+03  0.27439960405E+03 0.  0.
         25    2    3    3    0    0 -0.49662942895E+02 -0.11785398795E+02 -0.79047801309E+02  0.15560604107E+03  0.12393297222E+03 0.  0.
         25    2    3    3    0    0  0.49662942895E+02  0.11785398795E+02 -0.28402872344E+02  0.13908157315E+03  0.12622066911E+03 0.  0.
          5    1    4    4  502    0  0.19150469313E+02 -0.33611021927E+02  0.10623300547E+02  0.40390416987E+02  0.47000000000E+01 0. -1.
         -5    1    4    4    0  502 -0.68813412208E+02  0.21825623131E+02 -0.89671101856E+02  0.11521562408E+03  0.47000000000E+01 0. -1.
          5    1    5    5  503    0 -0.18464090920E+02  0.39963806192E+01  0.38514267857E+02  0.43154751072E+02  0.47000000000E+01 0.  1.
         -5    1    5    5    0  503  0.68127033815E+02  0.77890181762E+01 -0.66917140201E+02  0.95926822074E+02  0.47000000000E+01 0.  1.
<mgrwt>
<rscale>  0 0.27439960E+03</rscale>
<asrwt>0</asrwt>
<pdfrwt beam="1">  1        2 0.14402842E-01 0.27439960E+03</pdfrwt>
<pdfrwt beam="2">  1       -2 0.30933714E-01 0.27439960E+03</pdfrwt>
<totfact> 0.39334521E+03</totfact>
</mgrwt>
</event>
<event>
 9    1  0.2117506E-002  0.2748503E+03  0.7818608E-02  0.1098535E+00
          2   -1    0    0  501    0  0.00000000000E+00  0.00000000000E+00  0.11191929167E+04  0.11191929167E+04  0.00000000000E+00 0. -1.
         -2   -1    0    0    0  501 -0.00000000000E+00 -0.00000000000E+00 -0.16874366320E+02  0.16874366320E+02  0.00000000000E+00 0. -1.
         36    2    1    2    0    0  0.00000000000E+00  0.00000000000E+00  0.11023185504E+04  0.11360672831E+04  0.27485029569E+03 0.  0.
         25    2    3    3    0    0 -0.41481661640E+02  0.33908895731E+02  0.42958074892E+03  0.45002664798E+03  0.12293828771E+03 0.  0.
         25    2    3    3    0    0  0.41481661640E+02 -0.33908895731E+02  0.67273780150E+03  0.68604063508E+03  0.12330880729E+03 0.  0.
          5    1    4    4  502    0  0.26140266711E+02 -0.30453254628E+01  0.28387435867E+03  0.28513037204E+03  0.47000000000E+01 0.  1.
         -5    1    4    4    0  502 -0.67621928351E+02  0.36954221194E+02  0.14570639025E+03  0.16489627594E+03  0.47000000000E+01 0.  1.
          5    1    5    5  503    0 -0.35583281746E+02  0.19005666396E+02  0.22251601576E+03  0.22619207008E+03  0.47000000000E+01 0. -1.
         -5    1    5    5    0  503  0.77064943386E+02 -0.52914562127E+02  0.45022178574E+03  0.45984856501E+03  0.47000000000E+01 0. -1.
<mgrwt>
<rscale>  0 0.27485030E+03</rscale>
<asrwt>0</asrwt>
<pdfrwt beam="1">  1        2 0.17218347E+00 0.27485030E+03</pdfrwt>
<pdfrwt beam="2">  1       -2 0.25960572E-02 0.27485030E+03</pdfrwt>
<totfact> 0.11674207E+04</totfact>
</mgrwt>
</event>
<event>
 9    1  0.2117506E-002  0.2745786E+03  0.7818608E-02  0.1098687E+00
         -2   -1    0    0    0  501 -0.00000000000E+00  0.00000000000E+00  0.12164248208E+02  0.12164248208E+02  0.00000000000E+00 0.  1.
          2   -1    0    0  501    0  0.00000000000E+00 -0.00000000000E+00 -0.15494876881E+04  0.15494876881E+04  0.00000000000E+00 0.  1.
         36    2    1    2    0    0  0.00000000000E+00  0.00000000000E+00 -0.15373234399E+04  0.15616519363E+04  0.27457860684E+03 0.  0.
         25    2    3    3    0    0 -0.52899863569E+02 -0.15917954363E+02 -0.73541920967E+03  0.74810083079E+03  0.12554545885E+03 0.  0.
         25    2    3    3    0    0  0.52899863569E+02  0.15917954363E+02 -0.80190423019E+03  0.81355110549E+03  0.12555170252E+03 0.  0.
          5    1    4    4  502    0 -0.84079959758E+01  0.37174491724E+02 -0.77138543942E+02  0.86168916628E+02  0.47000000000E+01 0. -1.
         -5    1    4    4    0  502 -0.44491867593E+02 -0.53092446088E+02 -0.65828066573E+03  0.66193191416E+03  0.47000000000E+01 0. -1.
          5    1    5    5  503    0  0.67101131477E+02  0.59699059873E+01 -0.19465251443E+03  0.20603371811E+03  0.47000000000E+01 0. -1.
         -5    1    5    5    0  503 -0.14201267908E+02  0.99480483761E+01 -0.60725171576E+03  0.60751738738E+03  0.47000000000E+01 0. -1.
<mgrwt>
<rscale>  0 0.27457861E+03</rscale>
<asrwt>0</asrwt>
<pdfrwt beam="1">  1        2 0.23838275E+00 0.27457861E+03</pdfrwt>
<pdfrwt beam="2">  1       -2 0.18714226E-02 0.27457861E+03</pdfrwt>
<totfact> 0.10944111E+04</totfact>
</mgrwt>
</event>
<event>
 9    1  0.2117506E-002  0.2757107E+03  0.7818608E-02  0.1098055E+00
         -3   -1    0    0    0  501 -0.00000000000E+00  0.00000000000E+00  0.77692483990E+02  0.77692483990E+02  0.00000000000E+00 0. -1.
          3   -1    0    0  501    0  0.00000000000E+00 -0.00000000000E+00 -0.24460669078E+03  0.24460669078E+03  0.00000000000E+00 0. -1.
         36    2    1    2    0    0  0.71054273576E-14  0.00000000000E+00 -0.16691420679E+03  0.32229917477E+03  0.27571072817E+03 0.  0.
         25    2    3    3    0    0 -0.33983475771E+02  0.30028278254E+02 -0.60875121590E+02  0.15213184552E+03  0.13183984175E+03 0.  0.
         25    2    3    3    0    0  0.33983475771E+02 -0.30028278254E+02 -0.10603908520E+03  0.17016732925E+03  0.12512417126E+03 0.  0.
          5    1    4    4  502    0 -0.62404989924E+02 -0.19189826075E+02  0.42142349086E+01  0.65593307342E+02  0.47000000000E+01 0. -1.
         -5    1    4    4    0  502  0.28421514153E+02  0.49218104328E+02 -0.65089356499E+02  0.86538538177E+02  0.47000000000E+01 0. -1.
          5    1    5    5  503    0  0.79426290600E+02 -0.19366355906E+02 -0.87173928325E+02  0.11960340781E+03  0.47000000000E+01 0. -1.
         -5    1    5    5    0  503 -0.45442814829E+02 -0.10661922347E+02 -0.18865156872E+02  0.50563921442E+02  0.47000000000E+01 0. -1.
<mgrwt>
<rscale>  0 0.27571073E+03</rscale>
<asrwt>0</asrwt>
<pdfrwt beam="1">  1        3 0.37631797E-01 0.27571073E+03</pdfrwt>
<pdfrwt beam="2">  1       -3 0.11952690E-01 0.27571073E+03</pdfrwt>
<totfact> 0.97246076E+02</totfact>
</mgrwt>
</event>
<event>
 9    1  0.2117506E-002  0.2748393E+03  0.7818608E-02  0.1098541E+00
         -2   -1    0    0    0  501 -0.00000000000E+00  0.00000000000E+00  0.94740595944E+01  0.94740595944E+01  0.00000000000E+00 0. -1.
          2   -1    0    0  501    0  0.00000000000E+00 -0.00000000000E+00 -0.19932485939E+04  0.19932485939E+04  0.00000000000E+00 0. -1.
         36    2    1    2    0    0 -0.44408920985E-15  0.00000000000E+00 -0.19837745344E+04  0.20027226535E+04  0.27483926914E+03 0.  0.
         25    2    3    3    0    0  0.10234007701E+01 -0.23797577093E+02 -0.13478598625E+04  0.13538964377E+04  0.12546705961E+03 0.  0.
         25    2    3    3    0    0 -0.10234007701E+01  0.23797577093E+02 -0.63591467183E+03  0.64882621582E+03  0.12657257390E+03 0.  0.
          5    1    4    4  502    0  0.41001846783E+02  0.13012731905E+02 -0.19486306608E+03  0.19961008781E+03  0.47000000000E+01 0.  1.
         -5    1    4    4    0  502 -0.39978446013E+02 -0.36810308998E+02 -0.11529967964E+04  0.11542863499E+04  0.47000000000E+01 0.  1.
          5    1    5    5  503    0  0.28094857659E+01 -0.51292285145E+02 -0.31440413911E+03  0.31860766534E+03  0.47000000000E+01 0.  1.
         -5    1    5    5    0  503 -0.38328865360E+01  0.75089862238E+02 -0.32151053272E+03  0.33021855047E+03  0.47000000000E+01 0.  1.
<mgrwt>
<rscale>  0 0.27483927E+03</rscale>
<asrwt>0</asrwt>
<pdfrwt beam="1">  1        2 0.30665426E+00 0.27483927E+03</pdfrwt>
<pdfrwt beam="2">  1       -2 0.14575446E-02 0.27483927E+03</pdfrwt>
<totfact> 0.92165624E+03</totfact>
</mgrwt>
</event>
<event>
 9    1  0.2117506E-002  0.2745917E+03  0.7818608E-02  0.1098680E+00
          2   -1    0    0  501    0  0.00000000000E+00  0.00000000000E+00  0.99119875314E+03  0.99119875314E+03  0.00000000000E+00 0. -1.
         -2   -1    0    0    0  501 -0.00000000000E+00 -0.00000000000E+00 -0.19017534833E+02  0.19017534833E+02  0.00000000000E+00 0. -1.
         36    2    1    2    0    0 -0.14210854715E-13 -0.35527136788E-14  0.97218121831E+03  0.10102162880E+04  0.27459174652E+03 0.  0.
         25    2    3    3    0    0  0.48389502932E+02  0.22475600845E+02  0.55035496541E+03  0.56716270448E+03  0.12623885606E+03 0.  0.
         25    2    3    3    0    0 -0.48389502932E+02 -0.22475600845E+02  0.42182625290E+03  0.44305358349E+03  0.12454875986E+03 0.  0.
          5    1    4    4  502    0  0.82126214758E+02  0.14145464356E+01  0.47252283895E+03  0.47963177482E+03  0.47000000000E+01 0. -1.
         -5    1    4    4    0  502 -0.33736711826E+02  0.21061054409E+02  0.77832126461E+02  0.87530929660E+02  0.47000000000E+01 0. -1.
          5    1    5    5  503    0 -0.69012734933E+02  0.14747727149E+02  0.36562280884E+03  0.37240083430E+03  0.47000000000E+01 0. -1.
         -5    1    5    5    0  503  0.20623232001E+02 -0.37223327993E+02  0.56203444058E+02  0.70652749196E+02  0.47000000000E+01 0. -1.
<mgrwt>
<rscale>  0 0.27459175E+03</rscale>
<asrwt>0</asrwt>
<pdfrwt beam="1">  1        2 0.15249208E+00 0.27459175E+03</pdfrwt>
<pdfrwt beam="2">  1       -2 0.29257754E-02 0.27459175E+03</pdfrwt>
<totfact> 0.11660647E+04</totfact>
</mgrwt>
</event>
<event>
 9    1  0.2117506E-002  0.2765559E+03  0.7818608E-02  0.1097585E+00
         -2   -1    0    0    0  501 -0.00000000000E+00  0.00000000000E+00  0.26359115809E+02  0.26359115809E+02  0.00000000000E+00 0. -1.
          2   -1    0    0  501    0  0.00000000000E+00 -0.00000000000E+00 -0.72539579154E+03  0.72539579154E+03  0.00000000000E+00 0. -1.
         36    2    1    2    0    0 -0.14210854715E-13 -0.35527136788E-14 -0.69903667573E+03  0.75175490734E+03  0.27655590159E+03 0.  0.
         25    2    3    3    0    0  0.44443657931E+02  0.31329540051E+02 -0.43300323407E+03  0.45415218985E+03  0.12572045190E+03 0.  0.
         25    2    3    3    0    0 -0.44443657931E+02 -0.31329540051E+02 -0.26603344166E+03  0.29760271749E+03  0.12180643073E+03 0.  0.
          5    1    4    4  502    0  0.60578255559E+02 -0.27147596428E+02 -0.30825635843E+03  0.31535819246E+03  0.47000000000E+01 0. -1.
         -5    1    4    4    0  502 -0.16134597628E+02  0.58477136479E+02 -0.12474687564E+03  0.13879399739E+03  0.47000000000E+01 0. -1.
          5    1    5    5  503    0 -0.77173215429E+02 -0.19620175782E+02 -0.10006398090E+03  0.12796697523E+03  0.47000000000E+01 0.  1.
         -5    1    5    5    0  503  0.32729557498E+02 -0.11709364268E+02 -0.16596946076E+03  0.16963574226E+03  0.47000000000E+01 0.  1.
<mgrwt>
<rscale>  0 0.27655590E+03</rscale>
<asrwt>0</asrwt>
<pdfrwt beam="1">  1        2 0.11159933E+00 0.27655590E+03</pdfrwt>
<pdfrwt beam="2">  1       -2 0.40552492E-02 0.27655590E+03</pdfrwt>
<totfact> 0.10766889E+04</totfact>
</mgrwt>
</event>
<event>
 9    1  0.2117506E-002  0.2747124E+03  0.7818608E-02  0.1098612E+00
          4   -1    0    0  501    0  0.00000000000E+00  0.00000000000E+00  0.44523533416E+03  0.44523533416E+03  0.00000000000E+00 0.  1.
         -4   -1    0    0    0  501 -0.00000000000E+00 -0.00000000000E+00 -0.42374740397E+02  0.42374740397E+02  0.00000000000E+00 0.  1.
         36    2    1    2    0    0  0.00000000000E+00  0.00000000000E+00  0.40286059376E+03  0.48761007455E+03  0.27471244384E+03 0.  0.
         25    2    3    3    0    0  0.83443016940E+01 -0.13843384324E+02  0.30965821555E+03  0.33124905830E+03  0.11651807375E+03 0.  0.
         25    2    3    3    0    0 -0.83443016940E+01  0.13843384324E+02  0.93202378214E+02  0.15636101625E+03  0.12450227885E+03 0.  0.
          5    1    4    4  502    0 -0.25557056127E+02 -0.55939343157E+02  0.19246151288E+03  0.20210367926E+03  0.47000000000E+01 0. -1.
         -5    1    4    4    0  502  0.33901357821E+02  0.42095958832E+02  0.11719670266E+03  0.12914537904E+03  0.47000000000E+01 0. -1.
          5    1    5    5  503    0  0.48582069394E+02 -0.20531765060E+02  0.65351931783E+02  0.84111448869E+02  0.47000000000E+01 0. -1.
         -5    1    5    5    0  503 -0.56926371088E+02  0.34375149385E+02  0.27850446431E+02  0.72249567382E+02  0.47000000000E+01 0. -1.
<mgrwt>
<rscale>  0 0.27471244E+03</rscale>
<asrwt>0</asrwt>
<pdfrwt beam="1">  1        4 0.68497741E-01 0.27471244E+03</pdfrwt>
<pdfrwt beam="2">  1       -4 0.65191911E-02 0.27471244E+03</pdfrwt>
<totfact> 0.57997726E+02</totfact>
</mgrwt>
</event>
<event>
 9    1  0.2117506E-002  0.2754563E+03  0.7818608E-02  0.1098197E+00
          2   -1    0    0  501    0  0.00000000000E+00  0.00000000000E+00  0.52003487318E+03  0.52003487318E+03  0.00000000000E+00 0. -1.
         -2   -1    0    0    0  501 -0.00000000000E+00 -0.00000000000E+00 -0.36476473663E+02  0.36476473663E+02  0.00000000000E+00 0. -1.
         36    2    1    2    0    0 -0.35527136788E-14  0.71054273576E-14  0.48355839952E+03  0.55651134685E+03  0.27545626408E+03 0.  0.
         25    2    3    3    0    0 -0.31058971560E+02  0.37301927812E+02  0.18110345597E+03  0.22630090696E+03  0.12671836959E+03 0.  0.
         25    2    3    3    0    0  0.31058971560E+02 -0.37301927812E+02  0.30245494355E+03  0.33021043989E+03  0.12330388559E+03 0.  0.
          5    1    4    4  502    0  0.25185705781E+02 -0.75160698148E+01 -0.46081669304E+01  0.27094949411E+02  0.47000000000E+01 0. -1.
         -5    1    4    4    0  502 -0.56244677341E+02  0.44817997627E+02  0.18571162290E+03  0.19920595754E+03  0.47000000000E+01 0. -1.
          5    1    5    5  503    0  0.17601520706E+02  0.37831695276E+02  0.18748471013E+03  0.19212927219E+03  0.47000000000E+01 0. -1.
         -5    1    5    5    0  503  0.13457450854E+02 -0.75133623088E+02  0.11497023342E+03  0.13808116770E+03  0.47000000000E+01 0. -1.
<mgrwt>
<rscale>  0 0.27545626E+03</rscale>
<asrwt>0</asrwt>
<pdfrwt beam="1">  1        2 0.80005360E-01 0.27545626E+03</pdfrwt>
<pdfrwt beam="2">  1       -2 0.56117655E-02 0.27545626E+03</pdfrwt>
<totfact> 0.97140029E+03</totfact>
</mgrwt>
</event>
<event>
 9    1  0.2117506E-002  0.2755548E+03  0.7818608E-02  0.1098142E+00
          2   -1    0    0  501    0  0.00000000000E+00  0.00000000000E+00  0.12416300924E+04  0.12416300924E+04  0.00000000000E+00 0. -1.
         -2   -1    0    0    0  501 -0.00000000000E+00 -0.00000000000E+00 -0.15288457698E+02  0.15288457698E+02  0.00000000000E+00 0. -1.
         36    2    1    2    0    0 -0.71054273576E-14  0.00000000000E+00  0.12263416347E+04  0.12569185501E+04  0.27555477963E+03 0.  0.
         25    2    3    3    0    0 -0.44128961757E+02 -0.18679274805E+02  0.72248876362E+03  0.73526001261E+03  0.12775363796E+03 0.  0.
         25    2    3    3    0    0  0.44128961757E+02  0.18679274805E+02  0.50385287105E+03  0.52165853746E+03  0.12634727327E+03 0.  0.
          5    1    4    4  502    0  0.45245522531E+02 -0.75430654883E+01  0.26080774851E+03  0.26485246238E+03  0.47000000000E+01 0.  1.
         -5    1    4    4    0  502 -0.89374484288E+02 -0.11136209317E+02  0.46168101511E+03  0.47040755023E+03  0.47000000000E+01 0.  1.
          5    1    5    5  503    0  0.62148465636E+02  0.11052521662E+02  0.49605448015E+03  0.50007672140E+03  0.47000000000E+01 0. -1.
         -5    1    5    5    0  503 -0.18019503880E+02  0.76267531426E+01  0.77983909062E+01  0.21581816056E+02  0.47000000000E+01 0. -1.
<mgrwt>
<rscale>  0 0.27555478E+03</rscale>
<asrwt>0</asrwt>
<pdfrwt beam="1">  1        2 0.19101993E+00 0.27555478E+03</pdfrwt>
<pdfrwt beam="2">  1       -2 0.23520714E-02 0.27555478E+03</pdfrwt>
<totfact> 0.11498701E+04</totfact>
</mgrwt>
</event>
<event>
 9    1  0.2117506E-002  0.2749626E+03  0.7818608E-02  0.1098473E+00
         -2   -1    0    0    0  501 -0.00000000000E+00  0.00000000000E+00  0.12621981514E+02  0.12621981514E+02  0.00000000000E+00 0.  1.
          2   -1    0    0  501    0  0.00000000000E+00 -0.00000000000E+00 -0.14974754491E+04  0.14974754491E+04  0.00000000000E+00 0.  1.
         36    2    1    2    0    0  0.17763568394E-14  0.00000000000E+00 -0.14848534676E+04  0.15100974306E+04  0.27496259700E+03 0.  0.
         25    2    3    3    0    0 -0.12769461340E+02  0.29659872924E+02 -0.10224385348E+04  0.10306850653E+04  0.12604911381E+03 0.  0.
         25    2    3    3    0    0  0.12769461340E+02 -0.29659872924E+02 -0.46241493280E+03  0.47941236537E+03  0.12233510858E+03 0.  0.
          5    1    4    4  502    0 -0.24483555410E+02 -0.10367943037E+02 -0.45955290825E+02  0.53300257815E+02  0.47000000000E+01 0. -1.
         -5    1    4    4    0  502  0.11714094070E+02  0.40027815961E+02 -0.97648324399E+03  0.97738480745E+03  0.47000000000E+01 0. -1.
          5    1    5    5  503    0 -0.37232544577E+02 -0.36490670415E+02 -0.37280207314E+03  0.37645890498E+03  0.47000000000E+01 0. -1.
         -5    1    5    5    0  503  0.50002005917E+02  0.68307974915E+01 -0.89612859662E+02  0.10295346039E+03  0.47000000000E+01 0. -1.
<mgrwt>
<rscale>  0 0.27496260E+03</rscale>
<asrwt>0</asrwt>
<pdfrwt beam="1">  1        2 0.23038066E+00 0.27496260E+03</pdfrwt>
<pdfrwt beam="2">  1       -2 0.19418448E-02 0.27496260E+03</pdfrwt>
<totfact> 0.11050551E+04</totfact>
</mgrwt>
</event>
<event>
 9    1  0.2117506E-002  0.2756761E+03  0.7818608E-02  0.1098074E+00
          1   -1    0    0  501    0  0.00000000000E+00  0.00000000000E+00  0.65648353711E+03  0.65648353711E+03  0.00000000000E+00 0. -1.
         -1   -1    0    0    0  501 -0.00000000000E+00 -0.00000000000E+00 -0.28941054344E+02  0.28941054344E+02  0.00000000000E+00 0. -1.
         36    2    1    2    0    0  0.71054273576E-14 -0.35527136788E-14  0.62754248277E+03  0.68542459146E+03  0.27567608328E+03 0.  0.
         25    2    3    3    0    0 -0.37098811096E+02 -0.44530113922E+01  0.22795281547E+03  0.26345145187E+03  0.12668082063E+03 0.  0.
         25    2    3    3    0    0  0.37098811096E+02  0.44530113922E+01  0.39958966730E+03  0.42197313959E+03  0.13035826489E+03 0.  0.
          5    1    4    4  502    0 -0.30574990077E+02 -0.43923700863E+02  0.21428126887E+03  0.22091327191E+03  0.47000000000E+01 0. -1.
         -5    1    4    4    0  502 -0.65238210187E+01  0.39470689471E+02  0.13671546599E+02  0.42538179961E+02  0.47000000000E+01 0. -1.
          5    1    5    5  503    0  0.77593669403E+02 -0.11987092093E+01  0.14937208805E+03  0.16839336425E+03  0.47000000000E+01 0. -1.
         -5    1    5    5    0  503 -0.40494858307E+02  0.56517206015E+01  0.25021757925E+03  0.25357977534E+03  0.47000000000E+01 0. -1.
<mgrwt>
<rscale>  0 0.27567608E+03</rscale>
<asrwt>0</asrwt>
<pdfrwt beam="1">  1        1 0.10099746E+00 0.27567608E+03</pdfrwt>
<pdfrwt beam="2">  1       -1 0.44524704E-02 0.27567608E+03</pdfrwt>
<totfact> 0.64644519E+03</totfact>
</mgrwt>
</event>
<event>
 9    1  0.2117506E-002  0.2749097E+03  0.7818608E-02  0.1098502E+00
         -2   -1    0    0    0  501 -0.00000000000E+00  0.00000000000E+00  0.33625292915E+02  0.33625292915E+02  0.00000000000E+00 0.  1.
          2   -1    0    0  501    0  0.00000000000E+00 -0.00000000000E+00 -0.56189354222E+03  0.56189354222E+03  0.00000000000E+00 0.  1.
         36    2    1    2    0    0  0.00000000000E+00  0.00000000000E+00 -0.52826824931E+03  0.59551883514E+03  0.27490969386E+03 0.  0.
         25    2    3    3    0    0  0.80380315272E+01 -0.10332140954E+02 -0.37481381275E+03  0.39683138560E+03  0.12968574047E+03 0.  0.
         25    2    3    3    0    0 -0.80380315272E+01  0.10332140954E+02 -0.15345443655E+03  0.19868744953E+03  0.12552718995E+03 0.  0.
          5    1    4    4  502    0 -0.10081768946E+01 -0.69821785859E+02 -0.20199142119E+03  0.21377259514E+03  0.47000000000E+01 0. -1.
         -5    1    4    4    0  502  0.90462084218E+01  0.59489644905E+02 -0.17282239157E+03  0.18305879046E+03  0.47000000000E+01 0. -1.
          5    1    5    5  503    0 -0.88854152220E+01  0.67797630554E+02 -0.84268789371E+02  0.10862222689E+03  0.47000000000E+01 0. -1.
         -5    1    5    5    0  503  0.84738369483E+00 -0.57465489600E+02 -0.69185647181E+02  0.90065222644E+02  0.47000000000E+01 0. -1.
<mgrwt>
<rscale>  0 0.27490969E+03</rscale>
<asrwt>0</asrwt>
<pdfrwt beam="1">  1        2 0.86445158E-01 0.27490969E+03</pdfrwt>
<pdfrwt beam="2">  1       -2 0.51731221E-02 0.27490969E+03</pdfrwt>
<totfact> 0.10072161E+04</totfact>
</mgrwt>
</event>
<event>
 9    1  0.2117506E-002  0.2756844E+03  0.7818608E-02  0.1098070E+00
         -3   -1    0    0    0  501 -0.00000000000E+00  0.00000000000E+00  0.50624109692E+02  0.50624109692E+02  0.00000000000E+00 0. -1.
          3   -1    0    0  501    0  0.00000000000E+00 -0.00000000000E+00 -0.37532459221E+03  0.37532459221E+03  0.00000000000E+00 0. -1.
         36    2    1    2    0    0 -0.17763568394E-14 -0.35527136788E-14 -0.32470048252E+03  0.42594870190E+03  0.27568440889E+03 0.  0.
         25    2    3    3    0    0  0.11822222084E+02  0.25736375064E+02 -0.84382461027E+02  0.15276328571E+03  0.12415351704E+03 0.  0.
         25    2    3    3    0    0 -0.11822222084E+02 -0.25736375064E+02 -0.24031802149E+03  0.27318541619E+03  0.12678877802E+03 0.  0.
          5    1    4    4  502    0  0.47592327321E+02 -0.45788487903E-01  0.96609000955E+01  0.48789903741E+02  0.47000000000E+01 0. -1.
         -5    1    4    4    0  502 -0.35770105237E+02  0.25782163552E+02 -0.94043361123E+02  0.10397338197E+03  0.47000000000E+01 0. -1.
          5    1    5    5  503    0 -0.13946918901E+02 -0.12239867404E+02 -0.25314316936E+03  0.25386588013E+03  0.47000000000E+01 0. -1.
         -5    1    5    5    0  503  0.21246968171E+01 -0.13496507661E+02  0.12825147874E+02  0.19319536060E+02  0.47000000000E+01 0. -1.
<mgrwt>
<rscale>  0 0.27568441E+03</rscale>
<asrwt>0</asrwt>
<pdfrwt beam="1">  1        3 0.57742244E-01 0.27568441E+03</pdfrwt>
<pdfrwt beam="2">  1       -3 0.77883247E-02 0.27568441E+03</pdfrwt>
<totfact> 0.84502416E+02</totfact>
</mgrwt>
</event>
<event>
 9    1  0.2117506E-002  0.2748944E+03  0.7818608E-02  0.1098511E+00
          1   -1    0    0  501    0  0.00000000000E+00  0.00000000000E+00  0.16518932725E+04  0.16518932725E+04  0.00000000000E+00 0. -1.
         -1   -1    0    0    0  501 -0.00000000000E+00 -0.00000000000E+00 -0.11436415343E+02  0.11436415343E+02  0.00000000000E+00 0. -1.
         36    2    1    2    0    0  0.00000000000E+00  0.00000000000E+00  0.16404568572E+04  0.16633296879E+04  0.27489443477E+03 0.  0.
         25    2    3    3    0    0 -0.37154909859E+02 -0.38156500292E+01  0.54621022187E+03  0.56152848087E+03  0.12479415788E+03 0.  0.
         25    2    3    3    0    0  0.37154909859E+02  0.38156500292E+01  0.10942466353E+04  0.11018012070E+04  0.12326862675E+03 0.  0.
          5    1    4    4  502    0 -0.33480313511E+02 -0.10881123258E+02  0.55028015006E+03  0.55142512074E+03  0.47000000000E+01 0. -1.
         -5    1    4    4    0  502 -0.36745963478E+01  0.70654732288E+01 -0.40699281940E+01  0.10103360123E+02  0.47000000000E+01 0. -1.
          5    1    5    5  503    0 -0.43356241423E+02  0.17521265445E+02  0.39882253243E+03  0.40158219680E+03  0.47000000000E+01 0. -1.
         -5    1    5    5    0  503  0.80511151282E+02 -0.13705615416E+02  0.69542410290E+03  0.70021901022E+03  0.47000000000E+01 0. -1.
<mgrwt>
<rscale>  0 0.27489443E+03</rscale>
<asrwt>0</asrwt>
<pdfrwt beam="1">  1        1 0.25413724E+00 0.27489443E+03</pdfrwt>
<pdfrwt beam="2">  1       -1 0.17594498E-02 0.27489443E+03</pdfrwt>
<totfact> 0.47006814E+03</totfact>
</mgrwt>
</event>
<event>
 9    1  0.2117506E-002  0.2749300E+03  0.7818608E-02  0.1098491E+00
          2   -1    0    0  501    0  0.00000000000E+00  0.00000000000E+00  0.25391338251E+02  0.25391338251E+02  0.00000000000E+00 0.  1.
         -2   -1    0    0    0  501 -0.00000000000E+00 -0.00000000000E+00 -0.74421552980E+03  0.74421552980E+03  0.00000000000E+00 0.  1.
         36    2    1    2    0    0  0.00000000000E+00 -0.35527136788E-14 -0.71882419155E+03  0.76960686805E+03  0.27493001472E+03 0.  0.
         25    2    3    3    0    0  0.52461963019E+02 -0.29295108531E+02 -0.59108293721E+03  0.60678733079E+03  0.12329381654E+03 0.  0.
         25    2    3    3    0    0 -0.52461963019E+02  0.29295108531E+02 -0.12774125434E+03  0.16281953726E+03  0.81128988077E+02 0.  0.
          5    1    4    4  502    0  0.66841763002E+02 -0.65297924532E+00 -0.55188081854E+03  0.55593414676E+03  0.47000000000E+01 0. -1.
         -5    1    4    4    0  502 -0.14379799983E+02 -0.28642129286E+02 -0.39202118675E+02  0.50853184032E+02  0.47000000000E+01 0. -1.
          5    1    5    5  503    0 -0.56482196814E+02 -0.48761805998E+01 -0.43221096795E+02  0.71443466478E+02  0.47000000000E+01 0.  1.
         -5    1    5    5    0  503  0.40202337956E+01  0.34171289131E+02 -0.84520157542E+02  0.91376070782E+02  0.47000000000E+01 0.  1.
<mgrwt>
<rscale>  0 0.27493001E+03</rscale>
<asrwt>0</asrwt>
<pdfrwt beam="1">  1        2 0.39063595E-02 0.27493001E+03</pdfrwt>
<pdfrwt beam="2">  1       -2 0.11449471E+00 0.27493001E+03</pdfrwt>
<totfact> 0.13610023E+03</totfact>
</mgrwt>
</event>
<event>
 9    1  0.2117506E-002  0.2748298E+03  0.7818608E-02  0.1098547E+00
          1   -1    0    0  501    0  0.00000000000E+00  0.00000000000E+00  0.35795771011E+03  0.35795771011E+03  0.00000000000E+00 0. -1.
         -1   -1    0    0    0  501 -0.00000000000E+00 -0.00000000000E+00 -0.52751651326E+02  0.52751651326E+02  0.00000000000E+00 0. -1.
         36    2    1    2    0    0  0.71054273576E-14  0.00000000000E+00  0.30520605879E+03  0.41070936144E+03  0.27482984054E+03 0.  0.
         25    2    3    3    0    0  0.41172686574E+02  0.29409654194E+02  0.19046878468E+03  0.23381762079E+03  0.12582608623E+03 0.  0.
         25    2    3    3    0    0 -0.41172686574E+02 -0.29409654194E+02  0.11473727411E+03  0.17689174065E+03  0.12476348809E+03 0.  0.
          5    1    4    4  502    0  0.40521973019E+01  0.15157486151E+02 -0.16359543836E+02  0.23149392302E+02  0.47000000000E+01 0. -1.
         -5    1    4    4    0  502  0.37120489272E+02  0.14252168042E+02  0.20682832852E+03  0.21066822849E+03  0.47000000000E+01 0. -1.
          5    1    5    5  503    0 -0.56949593824E+02  0.22415651778E+02  0.14835520867E+02  0.63149824708E+02  0.47000000000E+01 0. -1.
         -5    1    5    5    0  503  0.15776907250E+02 -0.51825305971E+02  0.99901753240E+02  0.11374191594E+03  0.47000000000E+01 0. -1.
<mgrwt>
<rscale>  0 0.27482984E+03</rscale>
<asrwt>0</asrwt>
<pdfrwt beam="1">  1        1 0.55070415E-01 0.27482984E+03</pdfrwt>
<pdfrwt beam="2">  1       -1 0.81156389E-02 0.27482984E+03</pdfrwt>
<totfact> 0.58523470E+03</totfact>
</mgrwt>
</event>
<event>
 9    1  0.2117506E-002  0.2769640E+03  0.7818608E-02  0.1097359E+00
          1   -1    0    0  501    0  0.00000000000E+00  0.00000000000E+00  0.15480852475E+03  0.15480852475E+03  0.00000000000E+00 0.  1.
         -1   -1    0    0    0  501 -0.00000000000E+00 -0.00000000000E+00 -0.12387732531E+03  0.12387732531E+03  0.00000000000E+00 0.  1.
         36    2    1    2    0    0  0.71054273576E-14  0.17763568394E-14  0.30931199443E+02  0.27868585006E+03  0.27696401196E+03 0.  0.
         25    2    3    3    0    0  0.72364953246E+01  0.45761037108E+01 -0.51262961939E+02  0.13286985158E+03  0.12228327197E+03 0.  0.
         25    2    3    3    0    0 -0.72364953246E+01 -0.45761037108E+01  0.82194161382E+02  0.14581599847E+03  0.12013791098E+03 0.  0.
          5    1    4    4  502    0 -0.51160618179E+02  0.29064990959E+02 -0.22677272842E+02  0.63233940692E+02  0.47000000000E+01 0.  1.
         -5    1    4    4    0  502  0.58397113504E+02 -0.24488887248E+02 -0.28585689097E+02  0.69635910889E+02  0.47000000000E+01 0.  1.
          5    1    5    5  503    0 -0.59248700598E+02 -0.10978341577E+02  0.68691067301E+02  0.91495820852E+02  0.47000000000E+01 0. -1.
         -5    1    5    5    0  503  0.52012205274E+02  0.64022378659E+01  0.13503094081E+02  0.54320177622E+02  0.47000000000E+01 0. -1.
<mgrwt>
<rscale>  0 0.27696401E+03</rscale>
<asrwt>0</asrwt>
<pdfrwt beam="1">  1        1 0.23816696E-01 0.27696401E+03</pdfrwt>
<pdfrwt beam="2">  1       -1 0.19058050E-01 0.27696401E+03</pdfrwt>
<totfact> 0.44170208E+03</totfact>
</mgrwt>
</event>
<event>
 9    1  0.2117506E-002  0.2756073E+03  0.7818608E-02  0.1098113E+00
         -2   -1    0    0    0  501 -0.00000000000E+00  0.00000000000E+00  0.35124204743E+02  0.35124204743E+02  0.00000000000E+00 0.  1.
          2   -1    0    0  501    0  0.00000000000E+00 -0.00000000000E+00 -0.54064831529E+03  0.54064831529E+03  0.00000000000E+00 0.  1.
         36    2    1    2    0    0  0.71054273576E-14 -0.53290705182E-14 -0.50552411055E+03  0.57577252004E+03  0.27560727218E+03 0.  0.
         25    2    3    3    0    0 -0.18061685017E+02 -0.11592818617E+02 -0.37481106273E+03  0.39605097499E+03  0.12614445741E+03 0.  0.
         25    2    3    3    0    0  0.18061685017E+02  0.11592818617E+02 -0.13071304782E+03  0.17972154505E+03  0.12146322478E+03 0.  0.
          5    1    4    4  502    0  0.47902367663E+02 -0.22277401730E+02 -0.23646092366E+03  0.24233608455E+03  0.47000000000E+01 0. -1.
         -5    1    4    4    0  502 -0.65964052680E+02  0.10684583113E+02 -0.13835013907E+03  0.15371489044E+03  0.47000000000E+01 0. -1.
          5    1    5    5  503    0 -0.34867459988E+02 -0.37122941681E+02 -0.58001638838E+02  0.77331317544E+02  0.47000000000E+01 0.  1.
         -5    1    5    5    0  503  0.52929145005E+02  0.48715760298E+02 -0.72711408984E+02  0.10239022751E+03  0.47000000000E+01 0.  1.
<mgrwt>
<rscale>  0 0.27560727E+03</rscale>
<asrwt>0</asrwt>
<pdfrwt beam="1">  1        2 0.83176659E-01 0.27560727E+03</pdfrwt>
<pdfrwt beam="2">  1       -2 0.54037241E-02 0.27560727E+03</pdfrwt>
<totfact> 0.98484866E+03</totfact>
</mgrwt>
</event>
<event>
 9    1  0.2117506E-002  0.2746000E+03  0.7818608E-02  0.1098675E+00
         -1   -1    0    0    0  501 -0.00000000000E+00  0.00000000000E+00  0.20536418886E+02  0.20536418886E+02  0.00000000000E+00 0. -1.
          1   -1    0    0  501    0  0.00000000000E+00 -0.00000000000E+00 -0.91794435201E+03  0.91794435201E+03  0.00000000000E+00 0. -1.
         36    2    1    2    0    0  0.17763568394E-14  0.00000000000E+00 -0.89740793312E+03  0.93848077089E+03  0.27459999801E+03 0.  0.
         25    2    3    3    0    0  0.36763188171E+01 -0.53801001728E+02 -0.49326377324E+03  0.50912824572E+03  0.11399279581E+03 0.  0.
         25    2    3    3    0    0 -0.36763188171E+01  0.53801001728E+02 -0.40414415988E+03  0.42935252517E+03  0.13454748529E+03 0.  0.
          5    1    4    4  502    0 -0.12828771851E+02 -0.12560009232E+02 -0.55465330335E+01  0.19369699219E+02  0.47000000000E+01 0. -1.
         -5    1    4    4    0  502  0.16505090668E+02 -0.41240992495E+02 -0.48771724021E+03  0.48975854650E+03  0.47000000000E+01 0. -1.
          5    1    5    5  503    0 -0.24840491725E+02  0.35910957897E+02 -0.27835769213E+02  0.51995836121E+02  0.47000000000E+01 0.  1.
         -5    1    5    5    0  503  0.21164172908E+02  0.17890043830E+02 -0.37630839067E+03  0.37735668905E+03  0.47000000000E+01 0.  1.
<mgrwt>
<rscale>  0 0.27460000E+03</rscale>
<asrwt>0</asrwt>
<pdfrwt beam="1">  1        1 0.14122222E+00 0.27460000E+03</pdfrwt>
<pdfrwt beam="2">  1       -1 0.31594488E-02 0.27460000E+03</pdfrwt>
<totfact> 0.64505133E+03</totfact>
</mgrwt>
</event>
<event>
 9    1  0.2117506E-002  0.2753761E+03  0.7818608E-02  0.1098242E+00
         -1   -1    0    0    0  501 -0.00000000000E+00  0.00000000000E+00  0.30554624824E+03  0.30554624824E+03  0.00000000000E+00 0. -1.
          1   -1    0    0  501    0  0.00000000000E+00 -0.00000000000E+00 -0.62046269249E+02  0.62046269249E+02  0.00000000000E+00 0. -1.
         36    2    1    2    0    0  0.71054273576E-14  0.00000000000E+00  0.24349997899E+03  0.36759251749E+03  0.27537614120E+03 0.  0.
         25    2    3    3    0    0  0.58563749493E+02 -0.63384513244E+01  0.12380180192E+03  0.18631389393E+03  0.12615899569E+03 0.  0.
         25    2    3    3    0    0 -0.58563749493E+02  0.63384513244E+01  0.11969817708E+03  0.18127862356E+03  0.12273710541E+03 0.  0.
          5    1    4    4  502    0  0.80629806860E+02 -0.42687986007E+02  0.10611237576E+03  0.14001912795E+03  0.47000000000E+01 0. -1.
         -5    1    4    4    0  502 -0.22066057367E+02  0.36349534682E+02  0.17689426159E+02  0.46294765981E+02  0.47000000000E+01 0. -1.
          5    1    5    5  503    0 -0.22450293693E+02 -0.34137765908E+02  0.11997628182E+03  0.12682981096E+03  0.47000000000E+01 0.  1.
         -5    1    5    5    0  503 -0.36113455800E+02  0.40476217232E+02 -0.27810474385E+00  0.54448812599E+02  0.47000000000E+01 0.  1.
<mgrwt>
<rscale>  0 0.27537614E+03</rscale>
<asrwt>0</asrwt>
<pdfrwt beam="1">  1        1 0.95455801E-02 0.27537614E+03</pdfrwt>
<pdfrwt beam="2">  1       -1 0.47007114E-01 0.27537614E+03</pdfrwt>
<totfact> 0.31351973E+03</totfact>
</mgrwt>
</event>
<event>
 9    1  0.2117506E-002  0.2748587E+03  0.7818608E-02  0.1098531E+00
         -1   -1    0    0    0  501 -0.00000000000E+00  0.00000000000E+00  0.58922863250E+01  0.58922863250E+01  0.00000000000E+00 0.  1.
          1   -1    0    0  501    0  0.00000000000E+00 -0.00000000000E+00 -0.32053481237E+04  0.32053481237E+04  0.00000000000E+00 0.  1.
         36    2    1    2    0    0  0.71054273576E-14  0.00000000000E+00 -0.31994558373E+04  0.32112404100E+04  0.27485871946E+03 0.  0.
         25    2    3    3    0    0  0.33647990544E+02  0.18052205862E+02 -0.85622017212E+03  0.86437461453E+03  0.11212681078E+03 0.  0.
         25    2    3    3    0    0 -0.33647990544E+02 -0.18052205862E+02 -0.23432356652E+04  0.23468657955E+04  0.12477022776E+03 0.  0.
          5    1    4    4  502    0 -0.71564993010E+01  0.53427825402E+02 -0.25288452618E+03  0.25860862629E+03  0.47000000000E+01 0.  1.
         -5    1    4    4    0  502  0.40804489845E+02 -0.35375619541E+02 -0.60333564593E+03  0.60576598824E+03  0.47000000000E+01 0.  1.
          5    1    5    5  503    0  0.37010924509E+02  0.27439997493E+02 -0.83723458132E+03  0.83851451755E+03  0.47000000000E+01 0. -1.
         -5    1    5    5    0  503 -0.70658915053E+02 -0.45492203355E+02 -0.15060010839E+04  0.15083512779E+04  0.47000000000E+01 0. -1.
<mgrwt>
<rscale>  0 0.27485872E+03</rscale>
<asrwt>0</asrwt>
<pdfrwt beam="1">  1        1 0.49313015E+00 0.27485872E+03</pdfrwt>
<pdfrwt beam="2">  1       -1 0.90650619E-03 0.27485872E+03</pdfrwt>
<totfact> 0.11217688E+03</totfact>
</mgrwt>
</event>
<event>
 9    1  0.2117506E-002  0.2749217E+03  0.7818608E-02  0.1098495E+00
          2   -1    0    0  501    0  0.00000000000E+00  0.00000000000E+00  0.41171130855E+03  0.41171130855E+03  0.00000000000E+00 0. -1.
         -2   -1    0    0    0  501 -0.00000000000E+00 -0.00000000000E+00 -0.45894977579E+02  0.45894977579E+02  0.00000000000E+00 0. -1.
         36    2    1    2    0    0  0.00000000000E+00  0.00000000000E+00  0.36581633097E+03  0.45760628613E+03  0.27492167084E+03 0.  0.
         25    2    3    3    0    0  0.43746792163E+02  0.20355876169E+02  0.13916989852E+03  0.19375062870E+03  0.12586859000E+03 0.  0.
         25    2    3    3    0    0 -0.43746792163E+02 -0.20355876169E+02  0.22664643245E+03  0.26385565743E+03  0.12618660426E+03 0.  0.
          5    1    4    4  502    0  0.51900822501E+02 -0.35526349950E+02  0.11696549020E+03  0.13288654113E+03  0.47000000000E+01 0. -1.
         -5    1    4    4    0  502 -0.81540303384E+01  0.55882226119E+02  0.22204408325E+02  0.60864087571E+02  0.47000000000E+01 0. -1.
          5    1    5    5  503    0  0.16059799255E+02  0.90222157980E+01 -0.74478015558E+01  0.20417572775E+02  0.47000000000E+01 0.  1.
         -5    1    5    5    0  503 -0.59806591418E+02 -0.29378091967E+02  0.23409423400E+03  0.24343808465E+03  0.47000000000E+01 0.  1.
<mgrwt>
<rscale>  0 0.27492167E+03</rscale>
<asrwt>0</asrwt>
<pdfrwt beam="1">  1        2 0.63340199E-01 0.27492167E+03</pdfrwt>
<pdfrwt beam="2">  1       -2 0.70607661E-02 0.27492167E+03</pdfrwt>
<totfact> 0.88328461E+03</totfact>
</mgrwt>
</event>
<event>
 9    1  0.2117506E-002  0.2750927E+03  0.7818608E-02  0.1098400E+00
         -1   -1    0    0    0  501 -0.00000000000E+00  0.00000000000E+00  0.83713610603E+02  0.83713610603E+02  0.00000000000E+00 0. -1.
          1   -1    0    0  501    0  0.00000000000E+00 -0.00000000000E+00 -0.22599662744E+03  0.22599662744E+03  0.00000000000E+00 0. -1.
         36    2    1    2    0    0  0.71054273576E-14 -0.35527136788E-14 -0.14228301684E+03  0.30971023805E+03  0.27509266560E+03 0.  0.
         25    2    3    3    0    0 -0.52839023151E+02  0.28840681550E+02 -0.49050999847E+02  0.14818104549E+03  0.12620568282E+03 0.  0.
         25    2    3    3    0    0  0.52839023151E+02 -0.28840681550E+02 -0.93232016993E+02  0.16152919256E+03  0.11737002929E+03 0.  0.
          5    1    4    4  502    0 -0.45426243681E+02  0.31966709889E+02  0.33545952850E+02  0.65060242150E+02  0.47000000000E+01 0.  1.
         -5    1    4    4    0  502 -0.74127794696E+01 -0.31260283382E+01 -0.82596952696E+02  0.83120803337E+02  0.47000000000E+01 0.  1.
          5    1    5    5  503    0  0.26515797555E+02  0.21210156693E+02 -0.98735868426E+02  0.10451707985E+03  0.47000000000E+01 0. -1.
         -5    1    5    5    0  503  0.26323225596E+02 -0.50050838244E+02  0.55038514332E+01  0.57012112706E+02  0.47000000000E+01 0. -1.
<mgrwt>
<rscale>  0 0.27509267E+03</rscale>
<asrwt>0</asrwt>
<pdfrwt beam="1">  1        1 0.34768712E-01 0.27509267E+03</pdfrwt>
<pdfrwt beam="2">  1       -1 0.12879017E-01 0.27509267E+03</pdfrwt>
<totfact> 0.51082683E+03</totfact>
</mgrwt>
</event>
<event>
 9    1  0.2117506E-002  0.2758853E+03  0.7818608E-02  0.1097958E+00
         -2   -1    0    0    0  501 -0.00000000000E+00  0.00000000000E+00  0.81260944046E+01  0.81260944046E+01  0.00000000000E+00 0. -1.
          2   -1    0    0  501    0  0.00000000000E+00 -0.00000000000E+00 -0.23416130760E+04  0.23416130760E+04  0.00000000000E+00 0. -1.
         36    2    1    2    0    0 -0.71054273576E-14  0.71054273576E-14 -0.23334869816E+04  0.23497391704E+04  0.27588525814E+03 0.  0.
         25    2    3    3    0    0 -0.50779330988E+02 -0.10883751353E+02 -0.13037370799E+04  0.13108091501E+04  0.12567122966E+03 0.  0.
         25    2    3    3    0    0  0.50779330988E+02  0.10883751353E+02 -0.10297499017E+04  0.10389300203E+04  0.12764689797E+03 0.  0.
          5    1    4    4  502    0 -0.62072004326E+01 -0.56556509694E+02 -0.92031087410E+03  0.92207991145E+03  0.47000000000E+01 0. -1.
         -5    1    4    4    0  502 -0.44572130555E+02  0.45672758341E+02 -0.38342620577E+03  0.38872923860E+03  0.47000000000E+01 0. -1.
          5    1    5    5  503    0 -0.77930963991E+01 -0.49769337253E+02 -0.49125932024E+03  0.49385780241E+03  0.47000000000E+01 0.  1.
         -5    1    5    5    0  503  0.58572427387E+02  0.60653088606E+02 -0.53849058149E+03  0.54507221793E+03  0.47000000000E+01 0.  1.
<mgrwt>
<rscale>  0 0.27588526E+03</rscale>
<asrwt>0</asrwt>
<pdfrwt beam="1">  1        2 0.36024867E+00 0.27588526E+03</pdfrwt>
<pdfrwt beam="2">  1       -2 0.12501666E-02 0.27588526E+03</pdfrwt>
<totfact> 0.75304623E+03</totfact>
</mgrwt>
</event>
<event>
 9    1  0.2117506E-002  0.2749830E+03  0.7818608E-02  0.1098461E+00
         -2   -1    0    0    0  501 -0.00000000000E+00  0.00000000000E+00  0.79877717671E+01  0.79877717671E+01  0.00000000000E+00 0.  1.
          2   -1    0    0  501    0  0.00000000000E+00 -0.00000000000E+00 -0.23666072727E+04  0.23666072727E+04  0.00000000000E+00 0.  1.
         36    2    1    2    0    0  0.71054273576E-14  0.71054273576E-14 -0.23586195009E+04  0.23745950444E+04  0.27498304498E+03 0.  0.
         25    2    3    3    0    0 -0.59486954904E+02  0.50144978030E+01 -0.83787946413E+03  0.84893949677E+03  0.12285125062E+03 0.  0.
         25    2    3    3    0    0  0.59486954904E+02 -0.50144978030E+01 -0.15207400368E+04  0.15256555476E+04  0.10682110130E+03 0.  0.
          5    1    4    4  502    0 -0.37291952325E+02 -0.37142769843E+02 -0.71670786206E+03  0.71865327147E+03  0.47000000000E+01 0. -1.
         -5    1    4    4    0  502 -0.22195002579E+02  0.42157267646E+02 -0.12117160208E+03  0.13028622531E+03  0.47000000000E+01 0. -1.
          5    1    5    5  503    0  0.33236805756E+01 -0.44345533369E+02 -0.90251812698E+03  0.90362527228E+03  0.47000000000E+01 0.  1.
         -5    1    5    5    0  503  0.56163274328E+02  0.39331035566E+02 -0.61822190978E+03  0.62203027537E+03  0.47000000000E+01 0.  1.
<mgrwt>
<rscale>  0 0.27498304E+03</rscale>
<asrwt>0</asrwt>
<pdfrwt beam="1">  1        2 0.36409288E+00 0.27498304E+03</pdfrwt>
<pdfrwt beam="2">  1       -2 0.12288898E-02 0.27498304E+03</pdfrwt>
<totfact> 0.74854421E+03</totfact>
</mgrwt>
</event>
<event>
 9    1  0.2117506E-002  0.2752049E+03  0.7818608E-02  0.1098337E+00
         -2   -1    0    0    0  501 -0.00000000000E+00  0.00000000000E+00  0.23828242183E+03  0.23828242183E+03  0.00000000000E+00 0. -1.
          2   -1    0    0  501    0  0.00000000000E+00 -0.00000000000E+00 -0.79462172858E+02  0.79462172858E+02  0.00000000000E+00 0. -1.
         36    2    1    2    0    0  0.00000000000E+00  0.00000000000E+00  0.15882024897E+03  0.31774459468E+03  0.27520493449E+03 0.  0.
         25    2    3    3    0    0  0.46808607462E+01 -0.70625617216E+02  0.11943052307E+03  0.17126486275E+03  0.10029015459E+03 0.  0.
         25    2    3    3    0    0 -0.46808607462E+01  0.70625617216E+02  0.39389725899E+02  0.14647973194E+03  0.12204455374E+03 0.  0.
          5    1    4    4  502    0 -0.22263454502E+02 -0.44862324591E+02  0.12361516338E+03  0.13345818892E+03  0.47000000000E+01 0.  1.
         -5    1    4    4    0  502  0.26944315249E+02 -0.25763292625E+02 -0.41846403086E+01  0.37806673823E+02  0.47000000000E+01 0.  1.
          5    1    5    5  503    0  0.44071483849E+01 -0.34653528727E+02  0.11729243386E+02  0.37147747718E+02  0.47000000000E+01 0. -1.
         -5    1    5    5    0  503 -0.90880091311E+01  0.10527914594E+03  0.27660482513E+02  0.10933198422E+03  0.47000000000E+01 0. -1.
<mgrwt>
<rscale>  0 0.27520493E+03</rscale>
<asrwt>0</asrwt>
<pdfrwt beam="1">  1        2 0.12224950E-01 0.27520493E+03</pdfrwt>
<pdfrwt beam="2">  1       -2 0.36658834E-01 0.27520493E+03</pdfrwt>
<totfact> 0.34985243E+03</totfact>
</mgrwt>
</event>
<event>
 9    1  0.2117506E-002  0.2631969E+03  0.7818608E-02  0.1105238E+00
          1   -1    0    0  501    0  0.00000000000E+00  0.00000000000E+00  0.13314377130E+04  0.13314377130E+04  0.00000000000E+00 0.  1.
         -1   -1    0    0    0  501 -0.00000000000E+00 -0.00000000000E+00 -0.13007105978E+02  0.13007105978E+02  0.00000000000E+00 0.  1.
         36    2    1    2    0    0 -0.35527136788E-14  0.00000000000E+00  0.13184306070E+04  0.13444448190E+04  0.26319689540E+03 0.  0.
         25    2    3    3    0    0  0.24438294975E+02  0.22706360250E+02  0.70271345827E+03  0.71500006176E+03  0.12769524204E+03 0.  0.
         25    2    3    3    0    0 -0.24438294975E+02 -0.22706360250E+02  0.61571714875E+03  0.62944475721E+03  0.12641315617E+03 0.  0.
          5    1    4    4  502    0  0.44362479203E+02  0.63352724930E+02  0.30487821203E+03  0.31457020121E+03  0.47000000000E+01 0. -1.
         -5    1    4    4    0  502 -0.19924184228E+02 -0.40646364679E+02  0.39783524623E+03  0.40042986055E+03  0.47000000000E+01 0. -1.
          5    1    5    5  503    0 -0.11615761712E+01 -0.41816616345E+01  0.58944203288E+03  0.58947674737E+03  0.47000000000E+01 0. -1.
         -5    1    5    5    0  503 -0.23276718804E+02 -0.18524698616E+02  0.26275115869E+02  0.39968009845E+02  0.47000000000E+01 0. -1.
<mgrwt>
<rscale>  0 0.26319690E+03</rscale>
<asrwt>0</asrwt>
<pdfrwt beam="1">  1        1 0.20483646E+00 0.26319690E+03</pdfrwt>
<pdfrwt beam="2">  1       -1 0.20010943E-02 0.26319690E+03</pdfrwt>
<totfact> 0.63566568E+03</totfact>
</mgrwt>
</event>
<event>
 9    1  0.2117506E-002  0.2754801E+03  0.7818608E-02  0.1098184E+00
         -1   -1    0    0    0  501 -0.00000000000E+00  0.00000000000E+00  0.35776191723E+02  0.35776191723E+02  0.00000000000E+00 0.  1.
          1   -1    0    0  501    0  0.00000000000E+00 -0.00000000000E+00 -0.53030584689E+03  0.53030584689E+03  0.00000000000E+00 0.  1.
         36    2    1    2    0    0  0.00000000000E+00 -0.35527136788E-14 -0.49452965517E+03  0.56608203861E+03  0.27548011652E+03 0.  0.
         25    2    3    3    0    0  0.23059913328E+02  0.29966074046E+02 -0.16445253846E+03  0.21054477993E+03  0.12591561361E+03 0.  0.
         25    2    3    3    0    0 -0.23059913328E+02 -0.29966074046E+02 -0.33007711670E+03  0.35553725869E+03  0.12659428955E+03 0.  0.
          5    1    4    4  502    0 -0.38938811213E+02  0.29692016201E+02 -0.13101683412E+03  0.13994766045E+03  0.47000000000E+01 0.  1.
         -5    1    4    4    0  502  0.61998724541E+02  0.27405784458E+00 -0.33435704349E+02  0.70597119472E+02  0.47000000000E+01 0.  1.
          5    1    5    5  503    0 -0.40623860064E+02 -0.64449729502E+02 -0.12252290191E+03  0.14435379154E+03  0.47000000000E+01 0.  1.
         -5    1    5    5    0  503  0.17563946736E+02  0.34483655456E+02 -0.20755421479E+03  0.21118346715E+03  0.47000000000E+01 0.  1.
<mgrwt>
<rscale>  0 0.27548012E+03</rscale>
<asrwt>0</asrwt>
<pdfrwt beam="1">  1        1 0.81585514E-01 0.27548012E+03</pdfrwt>
<pdfrwt beam="2">  1       -1 0.55040296E-02 0.27548012E+03</pdfrwt>
<totfact> 0.63225171E+03</totfact>
</mgrwt>
</event>
<event>
 9    1  0.2117506E-002  0.2741559E+03  0.7818608E-02  0.1098924E+00
          2   -1    0    0  501    0  0.00000000000E+00  0.00000000000E+00  0.33939181440E+04  0.33939181440E+04  0.00000000000E+00 0.  1.
         -2   -1    0    0    0  501 -0.00000000000E+00 -0.00000000000E+00 -0.55364802534E+01  0.55364802534E+01  0.00000000000E+00 0.  1.
         36    2    1    2    0    0  0.00000000000E+00  0.00000000000E+00  0.33883816638E+04  0.33994546243E+04  0.27415587381E+03 0.  0.
         25    2    3    3    0    0  0.42419210772E+02  0.19936523655E+02  0.21562917407E+04  0.21602688101E+04  0.12235361300E+03 0.  0.
         25    2    3    3    0    0 -0.42419210772E+02 -0.19936523655E+02  0.12320899231E+04  0.12391858142E+04  0.12385091449E+03 0.  0.
          5    1    4    4  502    0 -0.30632856889E+02  0.42965787268E+02  0.10342275960E+04  0.10355835269E+04  0.47000000000E+01 0.  1.
         -5    1    4    4    0  502  0.73052067661E+02 -0.23029263613E+02  0.11220641446E+04  0.11246852832E+04  0.47000000000E+01 0.  1.
          5    1    5    5  503    0  0.10649673353E+02 -0.46993745460E+02  0.92906944624E+03  0.93033002402E+03  0.47000000000E+01 0.  1.
         -5    1    5    5    0  503 -0.53068884125E+02  0.27057221805E+02  0.30302047686E+03  0.30885579015E+03  0.47000000000E+01 0.  1.
<mgrwt>
<rscale>  0 0.27415587E+03</rscale>
<asrwt>0</asrwt>
<pdfrwt beam="1">  1        2 0.52213959E+00 0.27415587E+03</pdfrwt>
<pdfrwt beam="2">  1       -2 0.85176890E-03 0.27415587E+03</pdfrwt>
<totfact> 0.32024097E+03</totfact>
</mgrwt>
</event>
<event>
 9    1  0.2117506E-002  0.2752587E+03  0.7818608E-02  0.1098307E+00
         -1   -1    0    0    0  501 -0.00000000000E+00  0.00000000000E+00  0.91880019252E+02  0.91880019252E+02  0.00000000000E+00 0.  1.
          1   -1    0    0  501    0  0.00000000000E+00 -0.00000000000E+00 -0.20615834199E+03  0.20615834199E+03  0.00000000000E+00 0.  1.
         36    2    1    2    0    0  0.00000000000E+00 -0.71054273576E-14 -0.11427832274E+03  0.29803836125E+03  0.27525865967E+03 0.  0.
         25    2    3    3    0    0 -0.47802205509E+01 -0.10831399781E+00 -0.12013041318E+03  0.17202100081E+03  0.12303270422E+03 0.  0.
         25    2    3    3    0    0  0.47802205509E+01  0.10831399781E+00  0.58520904353E+01  0.12601736044E+03  0.12579056375E+03 0.  0.
          5    1    4    4  502    0  0.12761830891E+01 -0.32697647868E+02 -0.13232379753E+03  0.13639077026E+03  0.47000000000E+01 0.  1.
         -5    1    4    4    0  502 -0.60564036399E+01  0.32589333870E+02  0.12193384349E+02  0.35630230549E+02  0.47000000000E+01 0.  1.
          5    1    5    5  503    0 -0.22507760972E+02  0.55463560347E+02 -0.12766724399E+02  0.61383100950E+02  0.47000000000E+01 0. -1.
         -5    1    5    5    0  503  0.27287981523E+02 -0.55355246349E+02  0.18618814834E+02  0.64634259490E+02  0.47000000000E+01 0. -1.
<mgrwt>
<rscale>  0 0.27525866E+03</rscale>
<asrwt>0</asrwt>
<pdfrwt beam="1">  1        1 0.31716668E-01 0.27525866E+03</pdfrwt>
<pdfrwt beam="2">  1       -1 0.14135388E-01 0.27525866E+03</pdfrwt>
<totfact> 0.49524956E+03</totfact>
</mgrwt>
</event>
<event>
 9    1  0.2117506E-002  0.2763334E+03  0.7818608E-02  0.1097709E+00
          2   -1    0    0  501    0  0.00000000000E+00  0.00000000000E+00  0.61276983598E+03  0.61276983598E+03  0.00000000000E+00 0. -1.
         -2   -1    0    0    0  501 -0.00000000000E+00 -0.00000000000E+00 -0.31153671508E+02  0.31153671508E+02  0.00000000000E+00 0. -1.
         36    2    1    2    0    0  0.14210854715E-13  0.00000000000E+00  0.58161616447E+03  0.64392350748E+03  0.27633335072E+03 0.  0.
         25    2    3    3    0    0 -0.49602484331E+02 -0.17835163975E+02  0.34165507253E+03  0.36805326463E+03  0.12631910975E+03 0.  0.
         25    2    3    3    0    0  0.49602484331E+02  0.17835163975E+02  0.23996109193E+03  0.27587024286E+03  0.12547735144E+03 0.  0.
          5    1    4    4  502    0 -0.50276990769E+02 -0.40711219122E+02  0.70139674736E+02  0.95534512796E+02  0.47000000000E+01 0. -1.
         -5    1    4    4    0  502  0.67450643852E+00  0.22876055148E+02  0.27151539780E+03  0.27251875183E+03  0.47000000000E+01 0. -1.
          5    1    5    5  503    0  0.88545298043E+02 -0.75370718783E+01  0.14717321511E+03  0.17198582064E+03  0.47000000000E+01 0. -1.
         -5    1    5    5    0  503 -0.38942813712E+02  0.25372235853E+02  0.92787876827E+02  0.10388442221E+03  0.47000000000E+01 0. -1.
<mgrwt>
<rscale>  0 0.27633335E+03</rscale>
<asrwt>0</asrwt>
<pdfrwt beam="1">  1        2 0.94272273E-01 0.27633335E+03</pdfrwt>
<pdfrwt beam="2">  1       -2 0.47928730E-02 0.27633335E+03</pdfrwt>
<totfact> 0.10235040E+04</totfact>
</mgrwt>
</event>
<event>
 9    1  0.2117506E-002  0.2743657E+03  0.7818608E-02  0.1098807E+00
          1   -1    0    0  501    0  0.00000000000E+00  0.00000000000E+00  0.13867913259E+03  0.13867913259E+03  0.00000000000E+00 0. -1.
         -1   -1    0    0    0  501 -0.00000000000E+00 -0.00000000000E+00 -0.13570273772E+03  0.13570273772E+03  0.00000000000E+00 0. -1.
         36    2    1    2    0    0  0.00000000000E+00  0.00000000000E+00  0.29763948692E+01  0.27438187031E+03  0.27436572641E+03 0.  0.
         25    2    3    3    0    0  0.33464816541E+02 -0.35637381370E+02 -0.32797142060E+02  0.13556411894E+03  0.12211494961E+03 0.  0.
         25    2    3    3    0    0 -0.33464816541E+02  0.35637381370E+02  0.35773536930E+02  0.13881775138E+03  0.12490278322E+03 0.  0.
          5    1    4    4  502    0  0.61464741185E+02 -0.85956219703E+01  0.23864811267E+02  0.66658970461E+02  0.47000000000E+01 0. -1.
         -5    1    4    4    0  502 -0.27999924644E+02 -0.27041759400E+02 -0.56661953328E+02  0.68905148475E+02  0.47000000000E+01 0. -1.
          5    1    5    5  503    0  0.34368976098E+02  0.53370750513E+02  0.20836387493E+02  0.66976925669E+02  0.47000000000E+01 0. -1.
         -5    1    5    5    0  503 -0.67833792640E+02 -0.17733369142E+02  0.14937149437E+02  0.71840825707E+02  0.47000000000E+01 0. -1.
<mgrwt>
<rscale>  0 0.27436573E+03</rscale>
<asrwt>0</asrwt>
<pdfrwt beam="1">  1        1 0.21335251E-01 0.27436573E+03</pdfrwt>
<pdfrwt beam="2">  1       -1 0.20877344E-01 0.27436573E+03</pdfrwt>
<totfact> 0.43832277E+03</totfact>
</mgrwt>
</event>
<event>
 9    1  0.2117506E-002  0.2743495E+03  0.7818608E-02  0.1098816E+00
          1   -1    0    0  501    0  0.00000000000E+00  0.00000000000E+00  0.26644419114E+03  0.26644419114E+03  0.00000000000E+00 0. -1.
         -1   -1    0    0    0  501 -0.00000000000E+00 -0.00000000000E+00 -0.70622317408E+02  0.70622317408E+02  0.00000000000E+00 0. -1.
         36    2    1    2    0    0  0.00000000000E+00  0.71054273576E-14  0.19582187373E+03  0.33706650855E+03  0.27434945772E+03 0.  0.
         25    2    3    3    0    0 -0.16563754327E+02 -0.58564743734E+02  0.84456180546E+02  0.16038648569E+03  0.12201143878E+03 0.  0.
         25    2    3    3    0    0  0.16563754327E+02  0.58564743734E+02  0.11136569319E+03  0.17668002286E+03  0.12291999712E+03 0.  0.
          5    1    4    4  502    0  0.21479274718E+02  0.21200226669E+02  0.61952623358E+02  0.69072616818E+02  0.47000000000E+01 0. -1.
         -5    1    4    4    0  502 -0.38043029045E+02 -0.79764970403E+02  0.22503557188E+02  0.91313868872E+02  0.47000000000E+01 0. -1.
          5    1    5    5  503    0 -0.84569456551E+01  0.39956381726E+02 -0.17007716227E+02  0.44490277383E+02  0.47000000000E+01 0.  1.
         -5    1    5    5    0  503  0.25020699982E+02  0.18608362008E+02  0.12837340941E+03  0.13218974547E+03  0.47000000000E+01 0.  1.
<mgrwt>
<rscale>  0 0.27434946E+03</rscale>
<asrwt>0</asrwt>
<pdfrwt beam="1">  1        1 0.40991413E-01 0.27434946E+03</pdfrwt>
<pdfrwt beam="2">  1       -1 0.10864972E-01 0.27434946E+03</pdfrwt>
<totfact> 0.54166491E+03</totfact>
</mgrwt>
</event>
<event>
 9    1  0.2117506E-002  0.2744789E+03  0.7818608E-02  0.1098743E+00
          3   -1    0    0  501    0  0.00000000000E+00  0.00000000000E+00  0.81461032165E+03  0.81461032165E+03  0.00000000000E+00 0.  1.
         -3   -1    0    0    0  501 -0.00000000000E+00 -0.00000000000E+00 -0.23121070390E+02  0.23121070390E+02  0.00000000000E+00 0.  1.
         36    2    1    2    0    0 -0.14210854715E-13  0.35527136788E-14  0.79148925126E+03  0.83773139204E+03  0.27447887050E+03 0.  0.
         25    2    3    3    0    0 -0.51773823197E+02 -0.27646402301E+02  0.38138320262E+03  0.40353526750E+03  0.11807926381E+03 0.  0.
         25    2    3    3    0    0  0.51773823197E+02  0.27646402301E+02  0.41010604864E+03  0.43419612454E+03  0.12997865637E+03 0.  0.
          5    1    4    4  502    0  0.22257446669E+02 -0.40921413075E+01  0.24823151436E+03  0.24930526323E+03  0.47000000000E+01 0.  1.
         -5    1    4    4    0  502 -0.74031269866E+02 -0.23554260994E+02  0.13315168827E+03  0.15423000427E+03  0.47000000000E+01 0.  1.
          5    1    5    5  503    0  0.87448295404E+02  0.43358805579E+02  0.23068445607E+03  0.25052863841E+03  0.47000000000E+01 0.  1.
         -5    1    5    5    0  503 -0.35674472207E+02 -0.15712403278E+02  0.17942159257E+03  0.18366748614E+03  0.47000000000E+01 0.  1.
<mgrwt>
<rscale>  0 0.27447887E+03</rscale>
<asrwt>0</asrwt>
<pdfrwt beam="1">  1        3 0.12532464E+00 0.27447887E+03</pdfrwt>
<pdfrwt beam="2">  1       -3 0.35570884E-02 0.27447887E+03</pdfrwt>
<totfact> 0.52887642E+02</totfact>
</mgrwt>
</event>
<event>
 9    1  0.2117506E-002  0.2749251E+03  0.7818608E-02  0.1098493E+00
          1   -1    0    0  501    0  0.00000000000E+00  0.00000000000E+00  0.10974037546E+03  0.10974037546E+03  0.00000000000E+00 0.  1.
         -1   -1    0    0    0  501 -0.00000000000E+00 -0.00000000000E+00 -0.17218776042E+03  0.17218776042E+03  0.00000000000E+00 0.  1.
         36    2    1    2    0    0  0.00000000000E+00  0.71054273576E-14 -0.62447384960E+02  0.28192813589E+03  0.27492507692E+03 0.  0.
         25    2    3    3    0    0 -0.39566797888E+02 -0.27326061662E+02 -0.39828011163E+02  0.14004516639E+03  0.12535602504E+03 0.  0.
         25    2    3    3    0    0  0.39566797888E+02  0.27326061662E+02 -0.22619373797E+02  0.14188296950E+03  0.13155567575E+03 0.  0.
          5    1    4    4  502    0  0.28552393041E+02 -0.18273025010E+02  0.27366438724E+02  0.43819568230E+02  0.47000000000E+01 0. -1.
         -5    1    4    4    0  502 -0.68119190929E+02 -0.90530366521E+01 -0.67194449887E+02  0.96225598159E+02  0.47000000000E+01 0. -1.
          5    1    5    5  503    0  0.19566122688E+02 -0.45406868731E+02 -0.40652846404E+02  0.64182246812E+02  0.47000000000E+01 0. -1.
         -5    1    5    5    0  503  0.20000675200E+02  0.72732930393E+02  0.18033472607E+02  0.77700722688E+02  0.47000000000E+01 0. -1.
<mgrwt>
<rscale>  0 0.27492508E+03</rscale>
<asrwt>0</asrwt>
<pdfrwt beam="1">  1        1 0.16883135E-01 0.27492508E+03</pdfrwt>
<pdfrwt beam="2">  1       -1 0.26490424E-01 0.27492508E+03</pdfrwt>
<totfact> 0.40025461E+03</totfact>
</mgrwt>
</event>
<event>
 9    1  0.2117506E-002  0.2750842E+03  0.7818608E-02  0.1098405E+00
         -2   -1    0    0    0  501 -0.00000000000E+00  0.00000000000E+00  0.11387156233E+02  0.11387156233E+02  0.00000000000E+00 0.  1.
          2   -1    0    0  501    0  0.00000000000E+00 -0.00000000000E+00 -0.16613307144E+04  0.16613307144E+04  0.00000000000E+00 0.  1.
         36    2    1    2    0    0  0.00000000000E+00 -0.14210854715E-13 -0.16499435582E+04  0.16727178707E+04  0.27508422274E+03 0.  0.
         25    2    3    3    0    0 -0.26159896443E+02 -0.50955741427E+02 -0.10714895156E+04  0.10782916277E+04  0.10649988047E+03 0.  0.
         25    2    3    3    0    0  0.26159896443E+02  0.50955741427E+02 -0.57845404256E+03  0.59442624294E+03  0.12430869306E+03 0.  0.
          5    1    4    4  502    0 -0.63207888824E+02 -0.54247464557E+02 -0.73323644186E+03  0.73796733958E+03  0.47000000000E+01 0. -1.
         -5    1    4    4    0  502  0.37047992381E+02  0.32917231303E+01 -0.33825307379E+03  0.34032428815E+03  0.47000000000E+01 0. -1.
          5    1    5    5  503    0  0.85704818485E+01  0.88944473006E+02 -0.46203681647E+03  0.47062159131E+03  0.47000000000E+01 0. -1.
         -5    1    5    5    0  503  0.17589414594E+02 -0.37988731580E+02 -0.11641722609E+03  0.12380465163E+03  0.47000000000E+01 0. -1.
<mgrwt>
<rscale>  0 0.27508422E+03</rscale>
<asrwt>0</asrwt>
<pdfrwt beam="1">  1        2 0.25558922E+00 0.27508422E+03</pdfrwt>
<pdfrwt beam="2">  1       -2 0.17518710E-02 0.27508422E+03</pdfrwt>
<totfact> 0.10520251E+04</totfact>
</mgrwt>
</event>
<event>
 9    1  0.2117506E-002  0.2748077E+03  0.7818608E-02  0.1098559E+00
          1   -1    0    0  501    0  0.00000000000E+00  0.00000000000E+00  0.17216011348E+02  0.17216011348E+02  0.00000000000E+00 0.  1.
         -1   -1    0    0    0  501 -0.00000000000E+00 -0.00000000000E+00 -0.10966429938E+04  0.10966429938E+04  0.00000000000E+00 0.  1.
         36    2    1    2    0    0 -0.71054273576E-14  0.00000000000E+00 -0.10794269824E+04  0.11138590051E+04  0.27480770168E+03 0.  0.
         25    2    3    3    0    0 -0.51208352849E+02 -0.27741788979E+02 -0.60346180071E+03  0.61878794464E+03  0.12385666418E+03 0.  0.
         25    2    3    3    0    0  0.51208352849E+02  0.27741788979E+02 -0.47596518170E+03  0.49507106047E+03  0.12312838203E+03 0.  0.
          5    1    4    4  502    0 -0.62739420930E+02  0.30902010141E+02 -0.41916356044E+03  0.42498394037E+03  0.47000000000E+01 0. -1.
         -5    1    4    4    0  502  0.11531068081E+02 -0.58643799119E+02 -0.18429824027E+03  0.19380400427E+03  0.47000000000E+01 0. -1.
          5    1    5    5  503    0  0.64703826814E+02  0.59512414516E+02 -0.22350055936E+03  0.24021428500E+03  0.47000000000E+01 0. -1.
         -5    1    5    5    0  503 -0.13495473965E+02 -0.31770625537E+02 -0.25246462235E+03  0.25485677546E+03  0.47000000000E+01 0. -1.
<mgrwt>
<rscale>  0 0.27480770E+03</rscale>
<asrwt>0</asrwt>
<pdfrwt beam="1">  1        1 0.26486168E-02 0.27480770E+03</pdfrwt>
<pdfrwt beam="2">  1       -1 0.16871433E+00 0.27480770E+03</pdfrwt>
<totfact> 0.11170245E+03</totfact>
</mgrwt>
</event>
<event>
 9    1  0.2117506E-002  0.2748450E+03  0.7818608E-02  0.1098538E+00
          1   -1    0    0  501    0  0.00000000000E+00  0.00000000000E+00  0.20581034958E+03  0.20581034958E+03  0.00000000000E+00 0. -1.
         -1   -1    0    0    0  501 -0.00000000000E+00 -0.00000000000E+00 -0.91758947249E+02  0.91758947249E+02  0.00000000000E+00 0. -1.
         36    2    1    2    0    0  0.44408920985E-15  0.17763568394E-14  0.11405140233E+03  0.29756929683E+03  0.27484498184E+03 0.  0.
         25    2    3    3    0    0 -0.36858581270E+01  0.43429843289E+01  0.12264697817E+03  0.17612565493E+03  0.12627556377E+03 0.  0.
         25    2    3    3    0    0  0.36858581270E+01 -0.43429843289E+01 -0.85955758408E+01  0.12144364191E+03  0.12100507085E+03 0.  0.
          5    1    4    4  502    0  0.22999751763E+01  0.10825709107E+02 -0.25210238232E+02  0.27930842722E+02  0.47000000000E+01 0.  1.
         -5    1    4    4    0  502 -0.59858333033E+01 -0.64827247777E+01  0.14785721641E+03  0.14819481220E+03  0.47000000000E+01 0.  1.
          5    1    5    5  503    0 -0.11739558875E+02 -0.41278853779E+02 -0.48359647400E+02  0.64826742233E+02  0.47000000000E+01 0. -1.
         -5    1    5    5    0  503  0.15425417002E+02  0.36935869450E+02  0.39764071559E+02  0.56616899674E+02  0.47000000000E+01 0. -1.
<mgrwt>
<rscale>  0 0.27484498E+03</rscale>
<asrwt>0</asrwt>
<pdfrwt beam="1">  1        1 0.31663131E-01 0.27484498E+03</pdfrwt>
<pdfrwt beam="2">  1       -1 0.14116761E-01 0.27484498E+03</pdfrwt>
<totfact> 0.49731539E+03</totfact>
</mgrwt>
</event>
<event>
 9    1  0.2117506E-002  0.2746168E+03  0.7818608E-02  0.1098666E+00
          2   -1    0    0  501    0  0.00000000000E+00  0.00000000000E+00  0.14822463229E+03  0.14822463229E+03  0.00000000000E+00 0.  1.
         -2   -1    0    0    0  501 -0.00000000000E+00 -0.00000000000E+00 -0.12719607806E+03  0.12719607806E+03  0.00000000000E+00 0.  1.
         36    2    1    2    0    0  0.00000000000E+00  0.35527136788E-14  0.21028554232E+02  0.27542071034E+03  0.27461676495E+03 0.  0.
         25    2    3    3    0    0  0.18971490268E+02 -0.57683214378E+01 -0.38872645390E+02  0.13464668989E+03  0.12737918811E+03 0.  0.
         25    2    3    3    0    0 -0.18971490268E+02  0.57683214378E+01  0.59901199622E+02  0.14077402045E+03  0.12584109083E+03 0.  0.
          5    1    4    4  502    0 -0.18510556284E+02  0.34998616520E+02  0.27231929113E+02  0.48282624364E+02  0.47000000000E+01 0.  1.
         -5    1    4    4    0  502  0.37482046552E+02 -0.40766937958E+02 -0.66104574504E+02  0.86364065528E+02  0.47000000000E+01 0.  1.
          5    1    5    5  503    0 -0.52209224060E+02 -0.29906875771E+02  0.68223796833E+02  0.91086775932E+02  0.47000000000E+01 0.  1.
         -5    1    5    5    0  503  0.33237733792E+02  0.35675197209E+02 -0.83225972107E+01  0.49687244518E+02  0.47000000000E+01 0.  1.
<mgrwt>
<rscale>  0 0.27461676E+03</rscale>
<asrwt>0</asrwt>
<pdfrwt beam="1">  1        2 0.22803789E-01 0.27461676E+03</pdfrwt>
<pdfrwt beam="2">  1       -2 0.19568627E-01 0.27461676E+03</pdfrwt>
<totfact> 0.51750911E+03</totfact>
</mgrwt>
</event>
<event>
 9    1  0.2117506E-002  0.2730210E+03  0.7818608E-02  0.1099563E+00
          2   -1    0    0  501    0  0.00000000000E+00  0.00000000000E+00  0.10540760002E+04  0.10540760002E+04  0.00000000000E+00 0. -1.
         -2   -1    0    0    0  501 -0.00000000000E+00 -0.00000000000E+00 -0.17679104125E+02  0.17679104125E+02  0.00000000000E+00 0. -1.
         36    2    1    2    0    0  0.00000000000E+00  0.00000000000E+00  0.10363968961E+04  0.10717551044E+04  0.27302102017E+03 0.  0.
         25    2    3    3    0    0 -0.11156907825E+02 -0.47363793199E+02  0.56872364941E+03  0.58434933761E+03  0.12509897468E+03 0.  0.
         25    2    3    3    0    0  0.11156907825E+02  0.47363793199E+02  0.46767324671E+03  0.48740576676E+03  0.12836787093E+03 0.  0.
          5    1    4    4  502    0  0.25382240374E+02  0.29779521724E+02  0.29405870414E+03  0.29668786548E+03  0.47000000000E+01 0.  1.
         -5    1    4    4    0  502 -0.36539148198E+02 -0.77143314923E+02  0.27466494527E+03  0.28766147213E+03  0.47000000000E+01 0.  1.
          5    1    5    5  503    0  0.58250293875E+02  0.14884353314E+02  0.11268768000E+03  0.12780940472E+03  0.47000000000E+01 0.  1.
         -5    1    5    5    0  503 -0.47093386051E+02  0.32479439885E+02  0.35498556671E+03  0.35959636204E+03  0.47000000000E+01 0.  1.
<mgrwt>
<rscale>  0 0.27302102E+03</rscale>
<asrwt>0</asrwt>
<pdfrwt beam="1">  1        2 0.16216549E+00 0.27302102E+03</pdfrwt>
<pdfrwt beam="2">  1       -2 0.27198630E-02 0.27302102E+03</pdfrwt>
<totfact> 0.11901214E+04</totfact>
</mgrwt>
</event>
<event>
 9    1  0.2117506E-002  0.2751110E+03  0.7818608E-02  0.1098390E+00
          2   -1    0    0  501    0  0.00000000000E+00  0.00000000000E+00  0.17664100049E+02  0.17664100049E+02  0.00000000000E+00 0.  1.
         -2   -1    0    0    0  501 -0.00000000000E+00 -0.00000000000E+00 -0.10711844820E+04  0.10711844820E+04  0.00000000000E+00 0.  1.
         36    2    1    2    0    0 -0.35527136788E-14  0.14210854715E-13 -0.10535203820E+04  0.10888485821E+04  0.27511095843E+03 0.  0.
         25    2    3    3    0    0 -0.16995092545E+02 -0.50471966492E+02 -0.61636360274E+03  0.63135258363E+03  0.12595928509E+03 0.  0.
         25    2    3    3    0    0  0.16995092545E+02  0.50471966492E+02 -0.43715677923E+03  0.45749599844E+03  0.12393662247E+03 0.  0.
          5    1    4    4  502    0 -0.27266558542E+02  0.36636050056E+02 -0.15310607262E+03  0.15984124891E+03  0.47000000000E+01 0. -1.
         -5    1    4    4    0  502  0.10271465997E+02 -0.87108016548E+02 -0.46325753011E+03  0.47151133472E+03  0.47000000000E+01 0. -1.
          5    1    5    5  503    0 -0.12276249608E+02 -0.38305607107E+02 -0.15590852953E+03  0.16108254226E+03  0.47000000000E+01 0.  1.
         -5    1    5    5    0  503  0.29271342153E+02  0.88777573599E+02 -0.28124824970E+03  0.29641345618E+03  0.47000000000E+01 0.  1.
<mgrwt>
<rscale>  0 0.27511096E+03</rscale>
<asrwt>0</asrwt>
<pdfrwt beam="1">  1        2 0.27175542E-02 0.27511096E+03</pdfrwt>
<pdfrwt beam="2">  1       -2 0.16479759E+00 0.27511096E+03</pdfrwt>
<totfact> 0.88804044E+02</totfact>
</mgrwt>
</event>
<event>
 9    1  0.2117506E-002  0.2741426E+03  0.7818608E-02  0.1098932E+00
          3   -1    0    0  501    0  0.00000000000E+00  0.00000000000E+00  0.18634152851E+03  0.18634152851E+03  0.00000000000E+00 0. -1.
         -3   -1    0    0    0  501 -0.00000000000E+00 -0.00000000000E+00 -0.10082853145E+03  0.10082853145E+03  0.00000000000E+00 0. -1.
         36    2    1    2    0    0  0.71054273576E-14  0.00000000000E+00  0.85512997067E+02  0.28717005996E+03  0.27414261009E+03 0.  0.
         25    2    3    3    0    0  0.30057430240E+02 -0.50693968772E+02  0.30790131082E+02  0.13842184932E+03  0.12140530720E+03 0.  0.
         25    2    3    3    0    0 -0.30057430240E+02  0.50693968772E+02  0.54722865985E+02  0.14874821063E+03  0.12513237200E+03 0.  0.
          5    1    4    4  502    0 -0.71768455141E+01 -0.79040625838E+02 -0.44848410351E+01  0.79631221537E+02  0.47000000000E+01 0. -1.
         -5    1    4    4    0  502  0.37234275754E+02  0.28346657067E+02  0.35274972117E+02  0.58790627787E+02  0.47000000000E+01 0. -1.
          5    1    5    5  503    0  0.37918641992E+02  0.10036533174E+02 -0.15842098556E+02  0.42563100161E+02  0.47000000000E+01 0.  1.
         -5    1    5    5    0  503 -0.67976072232E+02  0.40657435598E+02  0.70564964542E+02  0.10618511047E+03  0.47000000000E+01 0.  1.
<mgrwt>
<rscale>  0 0.27414261E+03</rscale>
<asrwt>0</asrwt>
<pdfrwt beam="1">  1        3 0.28667927E-01 0.27414261E+03</pdfrwt>
<pdfrwt beam="2">  1       -3 0.15512082E-01 0.27414261E+03</pdfrwt>
<totfact> 0.10404721E+03</totfact>
</mgrwt>
</event>
<event>
 9    1  0.2117506E-002  0.2748769E+03  0.7818608E-02  0.1098520E+00
          3   -1    0    0  501    0  0.00000000000E+00  0.00000000000E+00  0.69664267964E+02  0.69664267964E+02  0.00000000000E+00 0. -1.
         -3   -1    0    0    0  501 -0.00000000000E+00 -0.00000000000E+00 -0.27114801889E+03  0.27114801889E+03  0.00000000000E+00 0. -1.
         36    2    1    2    0    0 -0.71054273576E-14 -0.71054273576E-14 -0.20148375093E+03  0.34081228686E+03  0.27487690515E+03 0.  0.
         25    2    3    3    0    0 -0.28854696644E+02 -0.27436960549E+02 -0.15487028951E+03  0.20245262728E+03  0.12416472686E+03 0.  0.
         25    2    3    3    0    0  0.28854696644E+02  0.27436960549E+02 -0.46613461417E+02  0.13835965958E+03  0.12403709240E+03 0.  0.
          5    1    4    4  502    0  0.33702804485E+02 -0.37436644316E+02 -0.21980979014E+02  0.55160083450E+02  0.47000000000E+01 0. -1.
         -5    1    4    4    0  502 -0.62557501129E+02  0.99996837669E+01 -0.13288931050E+03  0.14729254383E+03  0.47000000000E+01 0. -1.
          5    1    5    5  503    0  0.22460529540E+02 -0.23817677874E+02  0.30789369492E+02  0.45186640064E+02  0.47000000000E+01 0.  1.
         -5    1    5    5    0  503  0.63941671045E+01  0.51254638423E+02 -0.77402830909E+02  0.93173019515E+02  0.47000000000E+01 0.  1.
<mgrwt>
<rscale>  0 0.27487691E+03</rscale>
<asrwt>0</asrwt>
<pdfrwt beam="1">  1        3 0.10717580E-01 0.27487691E+03</pdfrwt>
<pdfrwt beam="2">  1       -3 0.41715080E-01 0.27487691E+03</pdfrwt>
<totfact> 0.95606270E+02</totfact>
</mgrwt>
</event>
<event>
 9    1  0.2117506E-002  0.2755622E+03  0.7818608E-02  0.1098138E+00
          2   -1    0    0  501    0  0.00000000000E+00  0.00000000000E+00  0.54505423595E+02  0.54505423595E+02  0.00000000000E+00 0.  1.
         -2   -1    0    0    0  501 -0.00000000000E+00 -0.00000000000E+00 -0.34828883539E+03  0.34828883539E+03  0.00000000000E+00 0.  1.
         36    2    1    2    0    0 -0.71054273576E-14  0.35527136788E-14 -0.29378341179E+03  0.40279425898E+03  0.27556219266E+03 0.  0.
         25    2    3    3    0    0 -0.51835643541E+02 -0.17728318094E+02 -0.17935592918E+03  0.22479271188E+03  0.12394348219E+03 0.  0.
         25    2    3    3    0    0  0.51835643541E+02  0.17728318094E+02 -0.11442748261E+03  0.17800154711E+03  0.12485861921E+03 0.  0.
          5    1    4    4  502    0 -0.36166932628E+02  0.46304496335E+02 -0.12859254859E+03  0.14145772142E+03  0.47000000000E+01 0.  1.
         -5    1    4    4    0  502 -0.15668710913E+02 -0.64032814429E+02 -0.50763380586E+02  0.83334990454E+02  0.47000000000E+01 0.  1.
          5    1    5    5  503    0  0.87935665354E+02  0.36511693890E+02 -0.82299056618E+02  0.12594050084E+03  0.47000000000E+01 0.  1.
         -5    1    5    5    0  503 -0.36100021813E+02 -0.18783375796E+02 -0.32128425997E+02  0.52061046265E+02  0.47000000000E+01 0.  1.
<mgrwt>
<rscale>  0 0.27556219E+03</rscale>
<asrwt>0</asrwt>
<pdfrwt beam="1">  1        2 0.83854498E-02 0.27556219E+03</pdfrwt>
<pdfrwt beam="2">  1       -2 0.53582898E-01 0.27556219E+03</pdfrwt>
<totfact> 0.26649855E+03</totfact>
</mgrwt>
</event>
<event>
 9    1  0.2117506E-002  0.2756313E+03  0.7818608E-02  0.1098099E+00
         -4   -1    0    0    0  501 -0.00000000000E+00  0.00000000000E+00  0.33224243520E+03  0.33224243520E+03  0.00000000000E+00 0. -1.
          4   -1    0    0  501    0  0.00000000000E+00 -0.00000000000E+00 -0.57166531543E+02  0.57166531543E+02  0.00000000000E+00 0. -1.
         36    2    1    2    0    0  0.00000000000E+00  0.35527136788E-14  0.27507590366E+03  0.38940896674E+03  0.27563125840E+03 0.  0.
         25    2    3    3    0    0 -0.35827163828E+02  0.16608877033E+01  0.17079705288E+03  0.22511306576E+03  0.14218971441E+03 0.  0.
         25    2    3    3    0    0  0.35827163828E+02 -0.16608877033E+01  0.10427885077E+03  0.16429590098E+03  0.12178965533E+03 0.  0.
          5    1    4    4  502    0  0.87848581834E+01 -0.25990735672E+02 -0.15255749107E+02  0.31741454832E+02  0.47000000000E+01 0. -1.
         -5    1    4    4    0  502 -0.44612022011E+02  0.27651623375E+02  0.18605280199E+03  0.19337161093E+03  0.47000000000E+01 0. -1.
          5    1    5    5  503    0  0.58982978672E+02 -0.39418003081E+02  0.28911874155E+02  0.76751268440E+02  0.47000000000E+01 0.  1.
         -5    1    5    5    0  503 -0.23155814845E+02  0.37757115378E+02  0.75366976618E+02  0.87544632544E+02  0.47000000000E+01 0.  1.
<mgrwt>
<rscale>  0 0.27563126E+03</rscale>
<asrwt>0</asrwt>
<pdfrwt beam="1">  1        4 0.87948512E-02 0.27563126E+03</pdfrwt>
<pdfrwt beam="2">  1       -4 0.51114220E-01 0.27563126E+03</pdfrwt>
<totfact> 0.65500429E+02</totfact>
</mgrwt>
</event>
<event>
 9    1  0.2117506E-002  0.2771956E+03  0.7818608E-02  0.1097231E+00
         -2   -1    0    0    0  501 -0.00000000000E+00  0.00000000000E+00  0.22851764818E+03  0.22851764818E+03  0.00000000000E+00 0.  1.
          2   -1    0    0  501    0  0.00000000000E+00 -0.00000000000E+00 -0.84060682167E+02  0.84060682167E+02  0.00000000000E+00 0.  1.
         36    2    1    2    0    0  0.17763568394E-14  0.00000000000E+00  0.14445696601E+03  0.31257833035E+03  0.27719559443E+03 0.  0.
         25    2    3    3    0    0  0.12690903518E+02 -0.77583363524E+02  0.10172531510E+03  0.16777578645E+03  0.10779813292E+03 0.  0.
         25    2    3    3    0    0 -0.12690903518E+02  0.77583363524E+02  0.42731650916E+02  0.14480254389E+03  0.11384878304E+03 0.  0.
          5    1    4    4  502    0  0.58945761889E+01 -0.10225732399E+03  0.97354170597E+02  0.14139034929E+03  0.47000000000E+01 0.  1.
         -5    1    4    4    0  502  0.67963273294E+01  0.24673960468E+02  0.43711445001E+01  0.26385437169E+02  0.47000000000E+01 0.  1.
          5    1    5    5  503    0 -0.28869653105E+01  0.88733056354E+02  0.70165226209E+02  0.11325695929E+03  0.47000000000E+01 0.  1.
         -5    1    5    5    0  503 -0.98039382078E+01 -0.11149692829E+02 -0.27433575293E+02  0.31545584603E+02  0.47000000000E+01 0.  1.
<mgrwt>
<rscale>  0 0.27719559E+03</rscale>
<asrwt>0</asrwt>
<pdfrwt beam="1">  1        2 0.12932413E-01 0.27719559E+03</pdfrwt>
<pdfrwt beam="2">  1       -2 0.35156561E-01 0.27719559E+03</pdfrwt>
<totfact> 0.35353276E+03</totfact>
</mgrwt>
</event>
<event>
 9    1  0.2117506E-002  0.2757719E+03  0.7818608E-02  0.1098021E+00
          4   -1    0    0  501    0  0.00000000000E+00  0.00000000000E+00  0.35569745000E+03  0.35569745000E+03  0.00000000000E+00 0. -1.
         -4   -1    0    0    0  501 -0.00000000000E+00 -0.00000000000E+00 -0.53451413476E+02  0.53451413476E+02  0.00000000000E+00 0. -1.
         36    2    1    2    0    0 -0.71054273576E-14 -0.71054273576E-14  0.30224603652E+03  0.40914886347E+03  0.27577187291E+03 0.  0.
         25    2    3    3    0    0  0.50483228088E+02 -0.36685850787E+02  0.18704082785E+03  0.22869420006E+03  0.11585490016E+03 0.  0.
         25    2    3    3    0    0 -0.50483228088E+02  0.36685850787E+02  0.11520520867E+03  0.18045466341E+03  0.12408560544E+03 0.  0.
          5    1    4    4  502    0  0.39587023470E+02 -0.76714194871E+02  0.14872225765E+03  0.17202499830E+03  0.47000000000E+01 0.  1.
         -5    1    4    4    0  502  0.10896204618E+02  0.40028344084E+02  0.38318570203E+02  0.56669201755E+02  0.47000000000E+01 0.  1.
          5    1    5    5  503    0  0.41286173197E+02  0.14871481618E+02  0.31107249592E+02  0.53995000139E+02  0.47000000000E+01 0. -1.
         -5    1    5    5    0  503 -0.91769401285E+02  0.21814369169E+02  0.84097959079E+02  0.12645966328E+03  0.47000000000E+01 0. -1.
<mgrwt>
<rscale>  0 0.27577187E+03</rscale>
<asrwt>0</asrwt>
<pdfrwt beam="1">  1        4 0.54722683E-01 0.27577187E+03</pdfrwt>
<pdfrwt beam="2">  1       -4 0.82232946E-02 0.27577187E+03</pdfrwt>
<totfact> 0.63642388E+02</totfact>
</mgrwt>
</event>
<event>
 9    1  0.2117506E-002  0.2724050E+03  0.7818608E-02  0.1099911E+00
         -2   -1    0    0    0  501 -0.00000000000E+00  0.00000000000E+00  0.55051276652E+02  0.55051276652E+02  0.00000000000E+00 0. -1.
          2   -1    0    0  501    0  0.00000000000E+00 -0.00000000000E+00 -0.33697898732E+03  0.33697898732E+03  0.00000000000E+00 0. -1.
         36    2    1    2    0    0  0.00000000000E+00  0.00000000000E+00 -0.28192771067E+03  0.39203026398E+03  0.27240501799E+03 0.  0.
         25    2    3    3    0    0  0.46012270446E+02 -0.29505220478E+02 -0.14092373976E+03  0.19554230655E+03  0.12405485140E+03 0.  0.
         25    2    3    3    0    0 -0.46012270446E+02  0.29505220478E+02 -0.14100397092E+03  0.19648795743E+03  0.12545003202E+03 0.  0.
          5    1    4    4  502    0  0.42928605849E+02  0.17455984674E+02 -0.14073755719E+03  0.14824549438E+03  0.47000000000E+01 0. -1.
         -5    1    4    4    0  502  0.30836645973E+01 -0.46961205152E+02 -0.18618256391E+00  0.47296812161E+02  0.47000000000E+01 0. -1.
          5    1    5    5  503    0  0.35340240551E+02  0.35524360752E+02 -0.29792054806E+02  0.58485633609E+02  0.47000000000E+01 0.  1.
         -5    1    5    5    0  503 -0.81352510997E+02 -0.60191402741E+01 -0.11121191611E+03  0.13800232382E+03  0.47000000000E+01 0.  1.
<mgrwt>
<rscale>  0 0.27240502E+03</rscale>
<asrwt>0</asrwt>
<pdfrwt beam="1">  1        2 0.51842920E-01 0.27240502E+03</pdfrwt>
<pdfrwt beam="2">  1       -2 0.84694274E-02 0.27240502E+03</pdfrwt>
<totfact> 0.82599642E+03</totfact>
</mgrwt>
</event>
<event>
 9    1  0.2117506E-002  0.2689594E+03  0.7818608E-02  0.1101877E+00
         -2   -1    0    0    0  501 -0.00000000000E+00  0.00000000000E+00  0.25710433949E+02  0.25710433949E+02  0.00000000000E+00 0.  1.
          2   -1    0    0  501    0  0.00000000000E+00 -0.00000000000E+00 -0.70340255609E+03  0.70340255609E+03  0.00000000000E+00 0.  1.
         36    2    1    2    0    0  0.71054273576E-14  0.00000000000E+00 -0.67769212215E+03  0.72911299004E+03  0.26895936465E+03 0.  0.
         25    2    3    3    0    0  0.68762271113E+00  0.38039241473E+02 -0.41796753133E+03  0.43810663399E+03  0.12567063612E+03 0.  0.
         25    2    3    3    0    0 -0.68762271113E+00 -0.38039241473E+02 -0.25972459081E+03  0.29100635605E+03  0.12561998039E+03 0.  0.
          5    1    4    4  502    0 -0.32380199923E+02 -0.26290472723E+01 -0.35288994655E+03  0.35441330902E+03  0.47000000000E+01 0. -1.
         -5    1    4    4    0  502  0.33067822634E+02  0.40668288745E+02 -0.65077584782E+02  0.83693324969E+02  0.47000000000E+01 0. -1.
          5    1    5    5  503    0 -0.53313976766E+02 -0.44318890631E+00 -0.57121307003E+02  0.78278414961E+02  0.47000000000E+01 0.  1.
         -5    1    5    5    0  503  0.52626354055E+02 -0.37596052567E+02 -0.20260328381E+03  0.21272794109E+03  0.47000000000E+01 0.  1.
<mgrwt>
<rscale>  0 0.26895936E+03</rscale>
<asrwt>0</asrwt>
<pdfrwt beam="1">  1        2 0.10821576E+00 0.26895936E+03</pdfrwt>
<pdfrwt beam="2">  1       -2 0.39554520E-02 0.26895936E+03</pdfrwt>
<totfact> 0.11594358E+04</totfact>
</mgrwt>
</event>
<event>
 9    1  0.2117506E-002  0.2651980E+03  0.7818608E-02  0.1104060E+00
          2   -1    0    0  501    0  0.00000000000E+00  0.00000000000E+00  0.15143858120E+04  0.15143858120E+04  0.00000000000E+00 0.  1.
         -2   -1    0    0    0  501 -0.00000000000E+00 -0.00000000000E+00 -0.11610314762E+02  0.11610314762E+02  0.00000000000E+00 0.  1.
         36    2    1    2    0    0  0.00000000000E+00 -0.17763568394E-14  0.15027754972E+04  0.15259961268E+04  0.26519800865E+03 0.  0.
         25    2    3    3    0    0  0.59754310437E+01  0.14628928265E+02  0.96982269818E+03  0.97830069674E+03  0.12754009567E+03 0.  0.
         25    2    3    3    0    0 -0.59754310437E+01 -0.14628928265E+02  0.53295279905E+03  0.54769543002E+03  0.12522734019E+03 0.  0.
          5    1    4    4  502    0 -0.56620985966E+02  0.29265025689E+02  0.50641196476E+03  0.51042878625E+03  0.47000000000E+01 0. -1.
         -5    1    4    4    0  502  0.62596417009E+02 -0.14636097424E+02  0.46341073343E+03  0.46787191049E+03  0.47000000000E+01 0. -1.
          5    1    5    5  503    0 -0.53670234320E+02 -0.41215933263E+02  0.35761794217E+03  0.36399440898E+03  0.47000000000E+01 0. -1.
         -5    1    5    5    0  503  0.47694803276E+02  0.26587004998E+02  0.17533485688E+03  0.18370102104E+03  0.47000000000E+01 0. -1.
<mgrwt>
<rscale>  0 0.26519801E+03</rscale>
<asrwt>0</asrwt>
<pdfrwt beam="1">  1        2 0.23298228E+00 0.26519801E+03</pdfrwt>
<pdfrwt beam="2">  1       -2 0.17862035E-02 0.26519801E+03</pdfrwt>
<totfact> 0.12225388E+04</totfact>
</mgrwt>
</event>
<event>
 9    1  0.2117506E-002  0.2679595E+03  0.7818608E-02  0.1102453E+00
         -1   -1    0    0    0  501 -0.00000000000E+00  0.00000000000E+00  0.63405920107E+02  0.63405920107E+02  0.00000000000E+00 0. -1.
          1   -1    0    0  501    0  0.00000000000E+00 -0.00000000000E+00 -0.28310569758E+03  0.28310569758E+03  0.00000000000E+00 0. -1.
         36    2    1    2    0    0  0.71054273576E-14 -0.71054273576E-14 -0.21969977747E+03  0.34651161768E+03  0.26795952860E+03 0.  0.
         25    2    3    3    0    0 -0.23013034460E+02 -0.41287607989E+02 -0.89041451828E+02  0.15958445678E+03  0.12371156928E+03 0.  0.
         25    2    3    3    0    0  0.23013034460E+02  0.41287607989E+02 -0.13065832564E+03  0.18692716091E+03  0.12504358879E+03 0.  0.
          5    1    4    4  502    0 -0.89978582029E+01  0.37082101785E+02 -0.66321804329E+02  0.76659738158E+02  0.47000000000E+01 0.  1.
         -5    1    4    4    0  502 -0.14015176257E+02 -0.78369709774E+02 -0.22719647499E+02  0.82924718619E+02  0.47000000000E+01 0.  1.
          5    1    5    5  503    0 -0.14551658223E+02 -0.39750346029E+02 -0.29025421258E+02  0.51540332223E+02  0.47000000000E+01 0. -1.
         -5    1    5    5    0  503  0.37564692683E+02  0.81037954018E+02 -0.10163290438E+03  0.13538682868E+03  0.47000000000E+01 0. -1.
<mgrwt>
<rscale>  0 0.26795953E+03</rscale>
<asrwt>0</asrwt>
<pdfrwt beam="1">  1        1 0.43554723E-01 0.26795953E+03</pdfrwt>
<pdfrwt beam="2">  1       -1 0.97547568E-02 0.26795953E+03</pdfrwt>
<totfact> 0.59262737E+03</totfact>
</mgrwt>
</event>
<event>
 9    1  0.2117506E-002  0.2750743E+03  0.7818608E-02  0.1098410E+00
         -2   -1    0    0    0  501 -0.00000000000E+00  0.00000000000E+00  0.12908425023E+02  0.12908425023E+02  0.00000000000E+00 0. -1.
          2   -1    0    0  501    0  0.00000000000E+00 -0.00000000000E+00 -0.14654357638E+04  0.14654357638E+04  0.00000000000E+00 0. -1.
         36    2    1    2    0    0 -0.71054273576E-14 -0.71054273576E-14 -0.14525273388E+04  0.14783441888E+04  0.27507430038E+03 0.  0.
         25    2    3    3    0    0 -0.37523820246E+02 -0.16760998494E+02 -0.84883665406E+03  0.86011813899E+03  0.13262948230E+03 0.  0.
         25    2    3    3    0    0  0.37523820246E+02  0.16760998494E+02 -0.60369068471E+03  0.61822604984E+03  0.12677554074E+03 0.  0.
          5    1    4    4  502    0 -0.82274257200E+02  0.31543585725E+01 -0.65332032732E+03  0.65850477862E+03  0.47000000000E+01 0.  1.
         -5    1    4    4    0  502  0.44750436954E+02 -0.19915357067E+02 -0.19551632675E+03  0.20161336037E+03  0.47000000000E+01 0.  1.
          5    1    5    5  503    0  0.32063271224E+02  0.28204192061E+02 -0.57042049432E+02  0.71410189853E+02  0.47000000000E+01 0. -1.
         -5    1    5    5    0  503  0.54605490222E+01 -0.11443193567E+02 -0.54664863528E+03  0.54681585998E+03  0.47000000000E+01 0. -1.
<mgrwt>
<rscale>  0 0.27507430E+03</rscale>
<asrwt>0</asrwt>
<pdfrwt beam="1">  1        2 0.22545156E+00 0.27507430E+03</pdfrwt>
<pdfrwt beam="2">  1       -2 0.19859124E-02 0.27507430E+03</pdfrwt>
<totfact> 0.11123640E+04</totfact>
</mgrwt>
</event>
<event>
 9    1  0.2117506E-002  0.2750197E+03  0.7818608E-02  0.1098441E+00
          4   -1    0    0  501    0  0.00000000000E+00  0.00000000000E+00  0.19821125995E+02  0.19821125995E+02  0.00000000000E+00 0. -1.
         -4   -1    0    0    0  501 -0.00000000000E+00 -0.00000000000E+00 -0.95398012562E+03  0.95398012562E+03  0.00000000000E+00 0. -1.
         36    2    1    2    0    0 -0.35527136788E-14 -0.35527136788E-14 -0.93415899963E+03  0.97380125162E+03  0.27501971033E+03 0.  0.
         25    2    3    3    0    0  0.30750209867E+02 -0.16804719231E+02 -0.41988333307E+03  0.44335877168E+03  0.13797468261E+03 0.  0.
         25    2    3    3    0    0 -0.30750209867E+02  0.16804719231E+02 -0.51427566656E+03  0.53044247994E+03  0.12514707073E+03 0.  0.
          5    1    4    4  502    0  0.37525739944E+02  0.15489061330E+02 -0.40465710840E+03  0.40671557329E+03  0.47000000000E+01 0. -1.
         -5    1    4    4    0  502 -0.67755300774E+01 -0.32293780561E+02 -0.15226224674E+02  0.36643198394E+02  0.47000000000E+01 0. -1.
          5    1    5    5  503    0  0.88805748065E+01  0.15557122280E+02 -0.47173750801E+03  0.47210089507E+03  0.47000000000E+01 0. -1.
         -5    1    5    5    0  503 -0.39630784673E+02  0.12475969510E+01 -0.42538158544E+02  0.58341584862E+02  0.47000000000E+01 0. -1.
<mgrwt>
<rscale>  0 0.27501971E+03</rscale>
<asrwt>0</asrwt>
<pdfrwt beam="1">  1        4 0.30494032E-02 0.27501971E+03</pdfrwt>
<pdfrwt beam="2">  1       -4 0.14676621E+00 0.27501971E+03</pdfrwt>
<totfact> 0.32918176E+02</totfact>
</mgrwt>
</event>
<event>
 9    1  0.2117506E-002  0.2854007E+03  0.7818608E-02  0.1092775E+00
          2   -1    0    0  501    0  0.00000000000E+00  0.00000000000E+00  0.92538247881E+03  0.92538247881E+03  0.00000000000E+00 0. -1.
         -2   -1    0    0    0  501 -0.00000000000E+00 -0.00000000000E+00 -0.22005371507E+02  0.22005371507E+02  0.00000000000E+00 0. -1.
         36    2    1    2    0    0 -0.14210854715E-13  0.00000000000E+00  0.90337710731E+03  0.94738785032E+03  0.28540066736E+03 0.  0.
         25    2    3    3    0    0  0.54749048239E+02 -0.16140414299E+02  0.35202283102E+03  0.37878810112E+03  0.12768077667E+03 0.  0.
         25    2    3    3    0    0 -0.54749048239E+02  0.16140414299E+02  0.55135427629E+03  0.56859974920E+03  0.12671292577E+03 0.  0.
          5    1    4    4  502    0  0.38244706758E+02  0.47593422704E+02  0.91981868215E+02  0.11050133737E+03  0.47000000000E+01 0. -1.
         -5    1    4    4    0  502  0.16504341481E+02 -0.63733837004E+02  0.26004096281E+03  0.26828676375E+03  0.47000000000E+01 0. -1.
          5    1    5    5  503    0  0.25578300542E+02 -0.23907391551E+02  0.29166170951E+03  0.29379321916E+03  0.47000000000E+01 0.  1.
         -5    1    5    5    0  503 -0.80327348781E+02  0.40047805850E+02  0.25969256677E+03  0.27480653004E+03  0.47000000000E+01 0.  1.
<mgrwt>
<rscale>  0 0.28540067E+03</rscale>
<asrwt>0</asrwt>
<pdfrwt beam="1">  1        2 0.14236650E+00 0.28540067E+03</pdfrwt>
<pdfrwt beam="2">  1       -2 0.33854425E-02 0.28540067E+03</pdfrwt>
<totfact> 0.10325491E+04</totfact>
</mgrwt>
</event>
<event>
 9    1  0.2117506E-002  0.2760530E+03  0.7818608E-02  0.1097864E+00
          1   -1    0    0  501    0  0.00000000000E+00  0.00000000000E+00  0.10932096029E+04  0.10932096029E+04  0.00000000000E+00 0. -1.
         -1   -1    0    0    0  501 -0.00000000000E+00 -0.00000000000E+00 -0.17426954231E+02  0.17426954231E+02  0.00000000000E+00 0. -1.
         36    2    1    2    0    0  0.00000000000E+00  0.14210854715E-13  0.10757826487E+04  0.11106365571E+04  0.27605299285E+03 0.  0.
         25    2    3    3    0    0  0.53466183555E+01  0.57344825173E+02  0.58835211744E+03  0.60439323586E+03  0.12576149714E+03 0.  0.
         25    2    3    3    0    0 -0.53466183555E+01 -0.57344825173E+02  0.48743053124E+03  0.50624332127E+03  0.12400307355E+03 0.  0.
          5    1    4    4  502    0 -0.16018198731E+02  0.88181079904E+02  0.28770148471E+03  0.30137471667E+03  0.47000000000E+01 0.  1.
         -5    1    4    4    0  502  0.21364817087E+02 -0.30836254731E+02  0.30065063272E+03  0.30301851919E+03  0.47000000000E+01 0.  1.
          5    1    5    5  503    0 -0.58707711153E+02 -0.10234110393E+02  0.29546623367E+03  0.30145267888E+03  0.47000000000E+01 0. -1.
         -5    1    5    5    0  503  0.53361092798E+02 -0.47110714780E+02  0.19196429757E+03  0.20479064240E+03  0.47000000000E+01 0. -1.
<mgrwt>
<rscale>  0 0.27605299E+03</rscale>
<asrwt>0</asrwt>
<pdfrwt beam="1">  1        1 0.16818604E+00 0.27605299E+03</pdfrwt>
<pdfrwt beam="2">  1       -1 0.26810707E-02 0.27605299E+03</pdfrwt>
<totfact> 0.60767148E+03</totfact>
</mgrwt>
</event>
<event>
 9    1  0.2117506E-002  0.2739652E+03  0.7818608E-02  0.1099031E+00
          2   -1    0    0  501    0  0.00000000000E+00  0.00000000000E+00  0.76157008499E+03  0.76157008499E+03  0.00000000000E+00 0.  1.
         -2   -1    0    0    0  501 -0.00000000000E+00 -0.00000000000E+00 -0.24638887370E+02  0.24638887370E+02  0.00000000000E+00 0.  1.
         36    2    1    2    0    0 -0.71054273576E-14  0.35527136788E-14  0.73693119762E+03  0.78620897236E+03  0.27396524997E+03 0.  0.
         25    2    3    3    0    0  0.23090764063E+02 -0.15934098104E+02  0.27622961421E+03  0.30433474509E+03  0.12461845143E+03 0.  0.
         25    2    3    3    0    0 -0.23090764063E+02  0.15934098104E+02  0.46070158341E+03  0.48187422727E+03  0.13845484130E+03 0.  0.
          5    1    4    4  502    0  0.45760374511E+02  0.24581490583E+02  0.23904038341E+03  0.24466437512E+03  0.47000000000E+01 0.  1.
         -5    1    4    4    0  502 -0.22669610448E+02 -0.40515588687E+02  0.37189230798E+02  0.59670369966E+02  0.47000000000E+01 0.  1.
          5    1    5    5  503    0  0.41083982210E+02  0.44471751391E+02  0.12625247694E+03  0.14009785223E+03  0.47000000000E+01 0.  1.
         -5    1    5    5    0  503 -0.64174746273E+02 -0.28537653286E+02  0.33444910647E+03  0.34177637504E+03  0.47000000000E+01 0.  1.
<mgrwt>
<rscale>  0 0.27396525E+03</rscale>
<asrwt>0</asrwt>
<pdfrwt beam="1">  1        2 0.11716461E+00 0.27396525E+03</pdfrwt>
<pdfrwt beam="2">  1       -2 0.37905986E-02 0.27396525E+03</pdfrwt>
<totfact> 0.11215630E+04</totfact>
</mgrwt>
</event>
<event>
 9    1  0.2117506E-002  0.2752882E+03  0.7818608E-02  0.1098291E+00
          2   -1    0    0  501    0  0.00000000000E+00  0.00000000000E+00  0.69423117781E+03  0.69423117781E+03  0.00000000000E+00 0. -1.
         -2   -1    0    0    0  501 -0.00000000000E+00 -0.00000000000E+00 -0.27290464647E+02  0.27290464647E+02  0.00000000000E+00 0. -1.
         36    2    1    2    0    0 -0.35527136788E-14 -0.71054273576E-14  0.66694071317E+03  0.72152164246E+03  0.27528815024E+03 0.  0.
         25    2    3    3    0    0 -0.23602102669E+02 -0.49284273139E+02  0.27198651957E+03  0.30409106498E+03  0.12453397184E+03 0.  0.
         25    2    3    3    0    0  0.23602102669E+02  0.49284273139E+02  0.39495419359E+03  0.41743057748E+03  0.12358589381E+03 0.  0.
          5    1    4    4  502    0 -0.30914373905E+02 -0.42171656984E+02  0.28331519594E+03  0.28813839977E+03  0.47000000000E+01 0. -1.
         -5    1    4    4    0  502  0.73122712355E+01 -0.71126161555E+01 -0.11328676370E+02  0.15952665216E+02  0.47000000000E+01 0. -1.
          5    1    5    5  503    0  0.52354271918E+02  0.40517825658E+02  0.37549610333E+03  0.38131624356E+03  0.47000000000E+01 0. -1.
         -5    1    5    5    0  503 -0.28752169249E+02  0.87664474810E+01  0.19458090260E+02  0.36114333920E+02  0.47000000000E+01 0. -1.
<mgrwt>
<rscale>  0 0.27528815E+03</rscale>
<asrwt>0</asrwt>
<pdfrwt beam="1">  1        2 0.10680478E+00 0.27528815E+03</pdfrwt>
<pdfrwt beam="2">  1       -2 0.41985335E-02 0.27528815E+03</pdfrwt>
<totfact> 0.10778384E+04</totfact>
</mgrwt>
</event>
<event>
 9    1  0.2117506E-002  0.2747295E+03  0.7818608E-02  0.1098603E+00
          4   -1    0    0  501    0  0.00000000000E+00  0.00000000000E+00  0.14140404567E+03  0.14140404567E+03  0.00000000000E+00 0.  1.
         -4   -1    0    0    0  501 -0.00000000000E+00 -0.00000000000E+00 -0.13344087707E+03  0.13344087707E+03  0.00000000000E+00 0.  1.
         36    2    1    2    0    0  0.00000000000E+00  0.00000000000E+00  0.79631685991E+01  0.27484492274E+03  0.27472953882E+03 0.  0.
         25    2    3    3    0    0  0.27027929512E+02  0.18028254025E+02 -0.24849304599E+01  0.14646175834E+03  0.14279126324E+03 0.  0.
         25    2    3    3    0    0 -0.27027929512E+02 -0.18028254025E+02  0.10448099059E+02  0.12838316440E+03  0.12376407884E+03 0.  0.
          5    1    4    4  502    0  0.65193404421E+02 -0.37228757509E+02  0.15453687623E+02  0.76792361774E+02  0.47000000000E+01 0.  1.
         -5    1    4    4    0  502 -0.38165474909E+02  0.55257011534E+02 -0.17938618083E+02  0.69669396563E+02  0.47000000000E+01 0.  1.
          5    1    5    5  503    0  0.13342893121E+02 -0.48131757957E+02  0.44786312950E+02  0.67250299245E+02  0.47000000000E+01 0. -1.
         -5    1    5    5    0  503 -0.40370822633E+02  0.30103503933E+02 -0.34338213891E+02  0.61132865157E+02  0.47000000000E+01 0. -1.
<mgrwt>
<rscale>  0 0.27472954E+03</rscale>
<asrwt>0</asrwt>
<pdfrwt beam="1">  1        4 0.21754468E-01 0.27472954E+03</pdfrwt>
<pdfrwt beam="2">  1       -4 0.20529366E-01 0.27472954E+03</pdfrwt>
<totfact> 0.78119296E+02</totfact>
</mgrwt>
</event>
<event>
 9    1  0.2117506E-002  0.2770385E+03  0.7818608E-02  0.1097318E+00
         -2   -1    0    0    0  501 -0.00000000000E+00  0.00000000000E+00  0.47764919513E+02  0.47764919513E+02  0.00000000000E+00 0. -1.
          2   -1    0    0  501    0  0.00000000000E+00 -0.00000000000E+00 -0.40170857634E+03  0.40170857634E+03  0.00000000000E+00 0. -1.
         36    2    1    2    0    0  0.71054273576E-14  0.00000000000E+00 -0.35394365682E+03  0.44947349585E+03  0.27703846532E+03 0.  0.
         25    2    3    3    0    0 -0.10312499691E+02  0.38891660232E+02 -0.16637336340E+03  0.20993123048E+03  0.12154059649E+03 0.  0.
         25    2    3    3    0    0  0.10312499691E+02 -0.38891660232E+02 -0.18757029342E+03  0.23954226537E+03  0.14345373135E+03 0.  0.
          5    1    4    4  502    0 -0.48708975636E+02 -0.22623407674E+02 -0.86714800044E+02  0.10210744061E+03  0.47000000000E+01 0. -1.
         -5    1    4    4    0  502  0.38396475944E+02  0.61515067907E+02 -0.79658563355E+02  0.10782378986E+03  0.47000000000E+01 0. -1.
          5    1    5    5  503    0 -0.58774131745E+02  0.99309281758E+00 -0.38564158256E+02  0.70460408016E+02  0.47000000000E+01 0.  1.
         -5    1    5    5    0  503  0.69086631436E+02 -0.39884753050E+02 -0.14900613517E+03  0.16908185736E+03  0.47000000000E+01 0.  1.
<mgrwt>
<rscale>  0 0.27703847E+03</rscale>
<asrwt>0</asrwt>
<pdfrwt beam="1">  1        2 0.61801315E-01 0.27703847E+03</pdfrwt>
<pdfrwt beam="2">  1       -2 0.73484496E-02 0.27703847E+03</pdfrwt>
<totfact> 0.85299979E+03</totfact>
</mgrwt>
</event>
<event>
 9    1  0.2117506E-002  0.2746815E+03  0.7818608E-02  0.1098630E+00
         -2   -1    0    0    0  501 -0.00000000000E+00  0.00000000000E+00  0.17025812555E+02  0.17025812555E+02  0.00000000000E+00 0.  1.
          2   -1    0    0  501    0  0.00000000000E+00 -0.00000000000E+00 -0.11078753454E+04  0.11078753454E+04  0.00000000000E+00 0.  1.
         36    2    1    2    0    0  0.00000000000E+00  0.00000000000E+00 -0.10908495328E+04  0.11249011579E+04  0.27468147346E+03 0.  0.
         25    2    3    3    0    0 -0.17925486726E+02  0.49180130304E+02 -0.59654162688E+03  0.61229333214E+03  0.12767616725E+03 0.  0.
         25    2    3    3    0    0  0.17925486726E+02 -0.49180130304E+02 -0.49430790593E+03  0.51260782579E+03  0.12524563427E+03 0.  0.
          5    1    4    4  502    0  0.27443836040E+02 -0.10214259797E+02 -0.41297803052E+03  0.41404159083E+03  0.47000000000E+01 0. -1.
         -5    1    4    4    0  502 -0.45369322766E+02  0.59394390100E+02 -0.18356359636E+03  0.19825174131E+03  0.47000000000E+01 0. -1.
          5    1    5    5  503    0 -0.11812858293E+02 -0.40234971070E+02 -0.43130200499E+02  0.60338219340E+02  0.47000000000E+01 0. -1.
         -5    1    5    5    0  503  0.29738345019E+02 -0.89451592338E+01 -0.45117770543E+03  0.45226960645E+03  0.47000000000E+01 0. -1.
<mgrwt>
<rscale>  0 0.27468147E+03</rscale>
<asrwt>0</asrwt>
<pdfrwt beam="1">  1        2 0.17044234E+00 0.27468147E+03</pdfrwt>
<pdfrwt beam="2">  1       -2 0.26193561E-02 0.27468147E+03</pdfrwt>
<totfact> 0.11697282E+04</totfact>
</mgrwt>
</event>
<event>
 9    1  0.2117506E-002  0.2750173E+03  0.7818608E-02  0.1098442E+00
         -2   -1    0    0    0  501 -0.00000000000E+00  0.00000000000E+00  0.19355321931E+02  0.19355321931E+02  0.00000000000E+00 0.  1.
          2   -1    0    0  501    0  0.00000000000E+00 -0.00000000000E+00 -0.97692154671E+03  0.97692154671E+03  0.00000000000E+00 0.  1.
         36    2    1    2    0    0  0.10658141036E-13 -0.71054273576E-14 -0.95756622478E+03  0.99627686864E+03  0.27501731610E+03 0.  0.
         25    2    3    3    0    0 -0.24603695657E+02  0.42246784113E+02 -0.59067484045E+03  0.60608283153E+03  0.12668661702E+03 0.  0.
         25    2    3    3    0    0  0.24603695657E+02 -0.42246784113E+02 -0.36689138433E+03  0.39019403711E+03  0.12349885057E+03 0.  0.
          5    1    4    4  502    0 -0.50609432820E+02  0.58281129727E+02 -0.20385197548E+03  0.21802688522E+03  0.47000000000E+01 0.  1.
         -5    1    4    4    0  502  0.26005737163E+02 -0.16034345615E+02 -0.38682286497E+03  0.38805594631E+03  0.47000000000E+01 0.  1.
          5    1    5    5  503    0  0.65577381622E+02 -0.31580018017E+02 -0.31359324109E+03  0.32196350939E+03  0.47000000000E+01 0.  1.
         -5    1    5    5    0  503 -0.40973685965E+02 -0.10666766095E+02 -0.53298143240E+02  0.68230527723E+02  0.47000000000E+01 0.  1.
<mgrwt>
<rscale>  0 0.27501732E+03</rscale>
<asrwt>0</asrwt>
<pdfrwt beam="1">  1        2 0.15029565E+00 0.27501732E+03</pdfrwt>
<pdfrwt beam="2">  1       -2 0.29777413E-02 0.27501732E+03</pdfrwt>
<totfact> 0.11592657E+04</totfact>
</mgrwt>
</event>
<event>
 9    1  0.2117506E-002  0.2755298E+03  0.7818608E-02  0.1098156E+00
          1   -1    0    0  501    0  0.00000000000E+00  0.00000000000E+00  0.27320932699E+02  0.27320932699E+02  0.00000000000E+00 0.  1.
         -1   -1    0    0    0  501 -0.00000000000E+00 -0.00000000000E+00 -0.69467514307E+03  0.69467514307E+03  0.00000000000E+00 0.  1.
         36    2    1    2    0    0  0.00000000000E+00  0.00000000000E+00 -0.66735421038E+03  0.72199607577E+03  0.27552983745E+03 0.  0.
         25    2    3    3    0    0 -0.51961795745E+01  0.21163723617E+00 -0.48508942799E+03  0.50082652822E+03  0.12445245335E+03 0.  0.
         25    2    3    3    0    0  0.51961795745E+01 -0.21163723617E+00 -0.18226478238E+03  0.22116954756E+03  0.12517377040E+03 0.  0.
          5    1    4    4  502    0 -0.28991000372E+02  0.26401346097E+02 -0.44656134424E+03  0.44830417503E+03  0.47000000000E+01 0.  1.
         -5    1    4    4    0  502  0.23794820798E+02 -0.26189708861E+02 -0.38528083750E+02  0.52522353189E+02  0.47000000000E+01 0.  1.
          5    1    5    5  503    0 -0.34444887561E+02 -0.70080931030E+01 -0.10428778452E+01  0.35478743526E+02  0.47000000000E+01 0.  1.
         -5    1    5    5    0  503  0.39641067135E+02  0.67964558669E+01 -0.18122190454E+03  0.18569080403E+03  0.47000000000E+01 0.  1.
<mgrwt>
<rscale>  0 0.27552984E+03</rscale>
<asrwt>0</asrwt>
<pdfrwt beam="1">  1        1 0.42032206E-02 0.27552984E+03</pdfrwt>
<pdfrwt beam="2">  1       -1 0.10687309E+00 0.27552984E+03</pdfrwt>
<totfact> 0.18376696E+03</totfact>
</mgrwt>
</event>
<event>
 9    1  0.2117506E-002  0.2750054E+03  0.7818608E-02  0.1098449E+00
          2   -1    0    0  501    0  0.00000000000E+00  0.00000000000E+00  0.16859004720E+04  0.16859004720E+04  0.00000000000E+00 0. -1.
         -2   -1    0    0    0  501 -0.00000000000E+00 -0.00000000000E+00 -0.11214771370E+02  0.11214771370E+02  0.00000000000E+00 0. -1.
         36    2    1    2    0    0  0.00000000000E+00  0.00000000000E+00  0.16746857006E+04  0.16971152434E+04  0.27500536973E+03 0.  0.
         25    2    3    3    0    0  0.45050488133E+01 -0.52591501849E+02  0.72171380525E+03  0.73435039649E+03  0.12495409795E+03 0.  0.
         25    2    3    3    0    0 -0.45050488133E+01  0.52591501849E+02  0.95297189537E+03  0.96276484687E+03  0.12639048811E+03 0.  0.
          5    1    4    4  502    0 -0.32325862567E+02 -0.81766007890E+02  0.49521115246E+03  0.50297794878E+03  0.47000000000E+01 0. -1.
         -5    1    4    4    0  502  0.36830911380E+02  0.29174506041E+02  0.22650265279E+03  0.23137244771E+03  0.47000000000E+01 0. -1.
          5    1    5    5  503    0 -0.63058132200E+02  0.40933390992E+02  0.45313812323E+03  0.45935620085E+03  0.47000000000E+01 0.  1.
         -5    1    5    5    0  503  0.58553083387E+02  0.11658110857E+02  0.49983377214E+03  0.50340864603E+03  0.47000000000E+01 0.  1.
<mgrwt>
<rscale>  0 0.27500537E+03</rscale>
<asrwt>0</asrwt>
<pdfrwt beam="1">  1        2 0.25936910E+00 0.27500537E+03</pdfrwt>
<pdfrwt beam="2">  1       -2 0.17253508E-02 0.27500537E+03</pdfrwt>
<totfact> 0.10442022E+04</totfact>
</mgrwt>
</event>
<event>
 9    1  0.2117506E-002  0.2754145E+03  0.7818608E-02  0.1098220E+00
         -1   -1    0    0    0  501 -0.00000000000E+00  0.00000000000E+00  0.24245247630E+02  0.24245247630E+02  0.00000000000E+00 0.  1.
          1   -1    0    0  501    0  0.00000000000E+00 -0.00000000000E+00 -0.78214427456E+03  0.78214427456E+03  0.00000000000E+00 0.  1.
         36    2    1    2    0    0  0.00000000000E+00  0.00000000000E+00 -0.75789902693E+03  0.80638952219E+03  0.27541446308E+03 0.  0.
         25    2    3    3    0    0  0.40200878510E+02 -0.41097341856E+02 -0.35890048476E+03  0.38358338915E+03  0.12256245889E+03 0.  0.
         25    2    3    3    0    0 -0.40200878510E+02  0.41097341856E+02 -0.39899854218E+03  0.42280613305E+03  0.12751504751E+03 0.  0.
          5    1    4    4  502    0  0.99747628140E+01 -0.71516877227E+02 -0.11482019084E+03  0.13572002743E+03  0.47000000000E+01 0.  1.
         -5    1    4    4    0  502  0.30226115696E+02  0.30419535371E+02 -0.24408029392E+03  0.24786336172E+03  0.47000000000E+01 0.  1.
          5    1    5    5  503    0 -0.58469634587E+02  0.16137221581E+02 -0.38274442214E+03  0.38754933979E+03  0.47000000000E+01 0.  1.
         -5    1    5    5    0  503  0.18268756077E+02  0.24960120275E+02 -0.16254120034E+02  0.35256793258E+02  0.47000000000E+01 0.  1.
<mgrwt>
<rscale>  0 0.27541446E+03</rscale>
<asrwt>0</asrwt>
<pdfrwt beam="1">  1        1 0.12032990E+00 0.27541446E+03</pdfrwt>
<pdfrwt beam="2">  1       -1 0.37300377E-02 0.27541446E+03</pdfrwt>
<totfact> 0.64992379E+03</totfact>
</mgrwt>
</event>
<event>
 9    1  0.2117506E-002  0.2751544E+03  0.7818608E-02  0.1098365E+00
         -1   -1    0    0    0  501 -0.00000000000E+00  0.00000000000E+00  0.53276377205E+02  0.53276377205E+02  0.00000000000E+00 0. -1.
          1   -1    0    0  501    0  0.00000000000E+00 -0.00000000000E+00 -0.35526963936E+03  0.35526963936E+03  0.00000000000E+00 0. -1.
         36    2    1    2    0    0  0.00000000000E+00  0.00000000000E+00 -0.30199326215E+03  0.40854601656E+03  0.27515435171E+03 0.  0.
         25    2    3    3    0    0 -0.12102989077E+02 -0.22949417234E+02 -0.22340918615E+03  0.25707187690E+03  0.12450352340E+03 0.  0.
         25    2    3    3    0    0  0.12102989077E+02  0.22949417234E+02 -0.78584076000E+02  0.15147413966E+03  0.12686922357E+03 0.  0.
          5    1    4    4  502    0 -0.10193687362E+02 -0.19479535993E+02 -0.23913403955E+03  0.24018855604E+03  0.47000000000E+01 0.  1.
         -5    1    4    4    0  502 -0.19093017150E+01 -0.34698812414E+01  0.15724853393E+02  0.16883320855E+02  0.47000000000E+01 0.  1.
          5    1    5    5  503    0 -0.35025513273E+02 -0.15724537623E+02 -0.81547732695E+02  0.90256137582E+02  0.47000000000E+01 0. -1.
         -5    1    5    5    0  503  0.47128502350E+02  0.38673954857E+02  0.29636566946E+01  0.61218002083E+02  0.47000000000E+01 0. -1.
<mgrwt>
<rscale>  0 0.27515435E+03</rscale>
<asrwt>0</asrwt>
<pdfrwt beam="1">  1        1 0.54656868E-01 0.27515435E+03</pdfrwt>
<pdfrwt beam="2">  1       -1 0.81963657E-02 0.27515435E+03</pdfrwt>
<totfact> 0.58201224E+03</totfact>
</mgrwt>
</event>
<event>
 9    1  0.2117506E-002  0.2741232E+03  0.7818608E-02  0.1098943E+00
          2   -1    0    0  501    0  0.00000000000E+00  0.00000000000E+00  0.15669995015E+03  0.15669995015E+03  0.00000000000E+00 0.  1.
         -2   -1    0    0    0  501 -0.00000000000E+00 -0.00000000000E+00 -0.11988438927E+03  0.11988438927E+03  0.00000000000E+00 0.  1.
         36    2    1    2    0    0 -0.88817841970E-15  0.14210854715E-13  0.36815560877E+02  0.27658433941E+03  0.27412316810E+03 0.  0.
         25    2    3    3    0    0 -0.43769763053E+00  0.54189730738E+02  0.16043298880E+02  0.13744741944E+03  0.12529041134E+03 0.  0.
         25    2    3    3    0    0  0.43769763053E+00 -0.54189730738E+02  0.20772261997E+02  0.13913691998E+03  0.12645503998E+03 0.  0.
          5    1    4    4  502    0 -0.36915739159E+02  0.75364846177E+02  0.34897009972E+02  0.91008368527E+02  0.47000000000E+01 0. -1.
         -5    1    4    4    0  502  0.36478041528E+02 -0.21175115439E+02 -0.18853711092E+02  0.46439050911E+02  0.47000000000E+01 0. -1.
          5    1    5    5  503    0  0.61883434747E+01  0.40912365387E+02  0.12024077118E+02  0.43344961265E+02  0.47000000000E+01 0.  1.
         -5    1    5    5    0  503 -0.57506458442E+01 -0.95102096125E+02  0.87481848794E+01  0.95791958711E+02  0.47000000000E+01 0.  1.
<mgrwt>
<rscale>  0 0.27412317E+03</rscale>
<asrwt>0</asrwt>
<pdfrwt beam="1">  1        2 0.24107685E-01 0.27412317E+03</pdfrwt>
<pdfrwt beam="2">  1       -2 0.18443752E-01 0.27412317E+03</pdfrwt>
<totfact> 0.53753771E+03</totfact>
</mgrwt>
</event>
<event>
 9    1  0.2117506E-002  0.2734481E+03  0.7818608E-02  0.1099322E+00
          1   -1    0    0  501    0  0.00000000000E+00  0.00000000000E+00  0.27036587938E+03  0.27036587938E+03  0.00000000000E+00 0.  1.
         -1   -1    0    0    0  501 -0.00000000000E+00 -0.00000000000E+00 -0.69141371135E+02  0.69141371135E+02  0.00000000000E+00 0.  1.
         36    2    1    2    0    0  0.00000000000E+00  0.00000000000E+00  0.20122450824E+03  0.33950725051E+03  0.27344811287E+03 0.  0.
         25    2    3    3    0    0  0.26661143022E+02 -0.46253164566E+02  0.13599234580E+03  0.18665609534E+03  0.11617404199E+03 0.  0.
         25    2    3    3    0    0 -0.26661143022E+02  0.46253164566E+02  0.65232162447E+02  0.15285115517E+03  0.12750713251E+03 0.  0.
          5    1    4    4  502    0  0.46191450210E+02 -0.28283809750E+02  0.69262688573E+01  0.54805904488E+02  0.47000000000E+01 0.  1.
         -5    1    4    4    0  502 -0.19530307189E+02 -0.17969354816E+02  0.12906607694E+03  0.13185019085E+03  0.47000000000E+01 0.  1.
          5    1    5    5  503    0  0.10615896556E+02  0.75332948997E+02  0.53490791602E+01  0.76409771052E+02  0.47000000000E+01 0. -1.
         -5    1    5    5    0  503 -0.37277039578E+02 -0.29079784431E+02  0.59883083287E+02  0.76441384120E+02  0.47000000000E+01 0. -1.
<mgrwt>
<rscale>  0 0.27344811E+03</rscale>
<asrwt>0</asrwt>
<pdfrwt beam="1">  1        1 0.41594750E-01 0.27344811E+03</pdfrwt>
<pdfrwt beam="2">  1       -1 0.10637134E-01 0.27344811E+03</pdfrwt>
<totfact> 0.54954735E+03</totfact>
</mgrwt>
</event>
<event>
 9    1  0.2117506E-002  0.2755055E+03  0.7818608E-02  0.1098169E+00
         -2   -1    0    0    0  501 -0.00000000000E+00  0.00000000000E+00  0.87400998639E+01  0.87400998639E+01  0.00000000000E+00 0. -1.
          2   -1    0    0  501    0  0.00000000000E+00 -0.00000000000E+00 -0.21711212407E+04  0.21711212407E+04  0.00000000000E+00 0. -1.
         36    2    1    2    0    0  0.71054273576E-14 -0.35527136788E-14 -0.21623811408E+04  0.21798613405E+04  0.27550547334E+03 0.  0.
         25    2    3    3    0    0  0.26146728079E+02  0.91813841251E+01 -0.71328952167E+03  0.72349887379E+03  0.11790135475E+03 0.  0.
         25    2    3    3    0    0 -0.26146728079E+02 -0.91813841251E+01 -0.14490916191E+04  0.14563624667E+04  0.14267853614E+03 0.  0.
          5    1    4    4  502    0  0.62557129374E+02  0.38804397073E+02 -0.45385316093E+03  0.45980860948E+03  0.47000000000E+01 0.  1.
         -5    1    4    4    0  502 -0.36410401296E+02 -0.29623012948E+02 -0.25943636074E+03  0.26369026431E+03  0.47000000000E+01 0.  1.
          5    1    5    5  503    0 -0.17132152301E+02  0.57369610590E+02 -0.34256132995E+03  0.34778605153E+03  0.47000000000E+01 0.  1.
         -5    1    5    5    0  503 -0.90145757775E+01 -0.66550994715E+02 -0.11065302892E+04  0.11085764152E+04  0.47000000000E+01 0.  1.
<mgrwt>
<rscale>  0 0.27550547E+03</rscale>
<asrwt>0</asrwt>
<pdfrwt beam="1">  1        2 0.33401822E+00 0.27550547E+03</pdfrwt>
<pdfrwt beam="2">  1       -2 0.13446325E-02 0.27550547E+03</pdfrwt>
<totfact> 0.83521148E+03</totfact>
</mgrwt>
</event>
<event>
 9    1  0.2117506E-002  0.2749423E+03  0.7818608E-02  0.1098484E+00
         -1   -1    0    0    0  501 -0.00000000000E+00  0.00000000000E+00  0.19516131631E+03  0.19516131631E+03  0.00000000000E+00 0. -1.
          1   -1    0    0  501    0  0.00000000000E+00 -0.00000000000E+00 -0.96834336555E+02  0.96834336555E+02  0.00000000000E+00 0. -1.
         36    2    1    2    0    0  0.71054273576E-14  0.00000000000E+00  0.98326979755E+02  0.29199565287E+03  0.27494229639E+03 0.  0.
         25    2    3    3    0    0  0.60996598255E+02  0.54025152968E+01  0.67671442095E+02  0.15186831430E+03  0.12138693769E+03 0.  0.
         25    2    3    3    0    0 -0.60996598255E+02 -0.54025152968E+01  0.30655537660E+02  0.14012733857E+03  0.12225439401E+03 0.  0.
          5    1    4    4  502    0  0.61191454494E+02  0.56966246854E+02  0.47726725763E+02  0.96381936771E+02  0.47000000000E+01 0. -1.
         -5    1    4    4    0  502 -0.19485623914E+00 -0.51563731558E+02  0.19944716333E+02  0.55486377524E+02  0.47000000000E+01 0. -1.
          5    1    5    5  503    0 -0.41376663866E+02  0.57157879996E+02  0.20373473731E+02  0.73594972588E+02  0.47000000000E+01 0. -1.
         -5    1    5    5    0  503 -0.19619934389E+02 -0.62560395293E+02  0.10282063929E+02  0.66532365982E+02  0.47000000000E+01 0. -1.
<mgrwt>
<rscale>  0 0.27494230E+03</rscale>
<asrwt>0</asrwt>
<pdfrwt beam="1">  1        1 0.14897590E-01 0.27494230E+03</pdfrwt>
<pdfrwt beam="2">  1       -1 0.30024818E-01 0.27494230E+03</pdfrwt>
<totfact> 0.38157955E+03</totfact>
</mgrwt>
</event>
<event>
 9    1  0.2117506E-002  0.2751695E+03  0.7818608E-02  0.1098357E+00
          2   -1    0    0  501    0  0.00000000000E+00  0.00000000000E+00  0.82261903448E+03  0.82261903448E+03  0.00000000000E+00 0. -1.
         -2   -1    0    0    0  501 -0.00000000000E+00 -0.00000000000E+00 -0.23011329880E+02  0.23011329880E+02  0.00000000000E+00 0. -1.
         36    2    1    2    0    0  0.00000000000E+00  0.00000000000E+00  0.79960770460E+03  0.84563036436E+03  0.27516946028E+03 0.  0.
         25    2    3    3    0    0 -0.66372110529E+01  0.50054350262E+01  0.56960971061E+03  0.58392831411E+03  0.12824954835E+03 0.  0.
         25    2    3    3    0    0  0.66372110529E+01 -0.50054350262E+01  0.22999799399E+03  0.26170205025E+03  0.12457840468E+03 0.  0.
          5    1    4    4  502    0 -0.58187345533E+02 -0.30366917202E+02  0.29690688745E+03  0.30411133924E+03  0.47000000000E+01 0. -1.
         -5    1    4    4    0  502  0.51550134480E+02  0.35372352228E+02  0.27270282316E+03  0.27981697487E+03  0.47000000000E+01 0. -1.
          5    1    5    5  503    0 -0.38279020420E+02  0.20787893458E+02  0.19291420958E+03  0.19782669733E+03  0.47000000000E+01 0.  1.
         -5    1    5    5    0  503  0.44916231473E+02 -0.25793328484E+02  0.37083784410E+02  0.63875352916E+02  0.47000000000E+01 0.  1.
<mgrwt>
<rscale>  0 0.27516946E+03</rscale>
<asrwt>0</asrwt>
<pdfrwt beam="1">  1        2 0.12655675E+00 0.27516946E+03</pdfrwt>
<pdfrwt beam="2">  1       -2 0.35402052E-02 0.27516946E+03</pdfrwt>
<totfact> 0.11269926E+04</totfact>
</mgrwt>
</event>
<event>
 9    1  0.2117506E-002  0.2737719E+03  0.7818608E-02  0.1099140E+00
         -2   -1    0    0    0  501 -0.00000000000E+00  0.00000000000E+00  0.18402177762E+02  0.18402177762E+02  0.00000000000E+00 0.  1.
          2   -1    0    0  501    0  0.00000000000E+00 -0.00000000000E+00 -0.10182361706E+04  0.10182361706E+04  0.00000000000E+00 0.  1.
         36    2    1    2    0    0 -0.71054273576E-14  0.35527136788E-14 -0.99983399281E+03  0.10366383483E+04  0.27377189786E+03 0.  0.
         25    2    3    3    0    0  0.54626453674E+02 -0.17115912355E+02 -0.64420932482E+03  0.65865165221E+03  0.12465689263E+03 0.  0.
         25    2    3    3    0    0 -0.54626453674E+02  0.17115912355E+02 -0.35562466799E+03  0.37798669612E+03  0.11457763335E+03 0.  0.
          5    1    4    4  502    0 -0.84467116388E+01  0.22830576902E+02 -0.25974576727E+02  0.35907531457E+02  0.47000000000E+01 0. -1.
         -5    1    4    4    0  502  0.63073165313E+02 -0.39946489256E+02 -0.61823474809E+03  0.62274412075E+03  0.47000000000E+01 0. -1.
          5    1    5    5  503    0 -0.42035242013E+02 -0.16967039898E+02 -0.41203685959E+02  0.61438389876E+02  0.47000000000E+01 0.  1.
         -5    1    5    5    0  503 -0.12591211661E+02  0.34082952252E+02 -0.31442098203E+03  0.31654830625E+03  0.47000000000E+01 0.  1.
<mgrwt>
<rscale>  0 0.27377190E+03</rscale>
<asrwt>0</asrwt>
<pdfrwt beam="1">  1        2 0.15665175E+00 0.27377190E+03</pdfrwt>
<pdfrwt beam="2">  1       -2 0.28311038E-02 0.27377190E+03</pdfrwt>
<totfact> 0.11786501E+04</totfact>
</mgrwt>
</event>
<event>
 9    1  0.2117506E-002  0.2750429E+03  0.7818608E-02  0.1098428E+00
         -1   -1    0    0    0  501 -0.00000000000E+00  0.00000000000E+00  0.14169366327E+02  0.14169366327E+02  0.00000000000E+00 0. -1.
          1   -1    0    0  501    0  0.00000000000E+00 -0.00000000000E+00 -0.13347207282E+04  0.13347207282E+04  0.00000000000E+00 0. -1.
         36    2    1    2    0    0 -0.71054273576E-14 -0.10658141036E-13 -0.13205513619E+04  0.13488900945E+04  0.27504288351E+03 0.  0.
         25    2    3    3    0    0  0.10503261055E+02  0.16724553998E+02 -0.50361222103E+03  0.51911687179E+03  0.12436650755E+03 0.  0.
         25    2    3    3    0    0 -0.10503261055E+02 -0.16724553998E+02 -0.81693914085E+03  0.82977322276E+03  0.14402781725E+03 0.  0.
          5    1    4    4  502    0 -0.94471100155E+01  0.68925245460E+02 -0.29014914493E+03  0.29841004282E+03  0.47000000000E+01 0.  1.
         -5    1    4    4    0  502  0.19950371070E+02 -0.52200691462E+02 -0.21346307610E+03  0.22070682897E+03  0.47000000000E+01 0.  1.
          5    1    5    5  503    0 -0.76148636341E+02 -0.15188627576E+02 -0.50569334116E+03  0.51164162703E+03  0.47000000000E+01 0.  1.
         -5    1    5    5    0  503  0.65645375287E+02 -0.15359264227E+01 -0.31124579970E+03  0.31813159572E+03  0.47000000000E+01 0.  1.
<mgrwt>
<rscale>  0 0.27504288E+03</rscale>
<asrwt>0</asrwt>
<pdfrwt beam="1">  1        1 0.20534162E+00 0.27504288E+03</pdfrwt>
<pdfrwt beam="2">  1       -1 0.21799029E-02 0.27504288E+03</pdfrwt>
<totfact> 0.55834389E+03</totfact>
</mgrwt>
</event>
<event>
 9    1  0.2117506E-002  0.2764275E+03  0.7818608E-02  0.1097656E+00
          1   -1    0    0  501    0  0.00000000000E+00  0.00000000000E+00  0.24479449452E+03  0.24479449452E+03  0.00000000000E+00 0. -1.
         -1   -1    0    0    0  501 -0.00000000000E+00 -0.00000000000E+00 -0.78037047403E+02  0.78037047403E+02  0.00000000000E+00 0. -1.
         36    2    1    2    0    0  0.00000000000E+00  0.14210854715E-13  0.16675744712E+03  0.32283154193E+03  0.27642749193E+03 0.  0.
         25    2    3    3    0    0  0.23649560288E+02 -0.48132264993E+02  0.11164530137E+03  0.17625970702E+03  0.12540651644E+03 0.  0.
         25    2    3    3    0    0 -0.23649560288E+02  0.48132264993E+02  0.55112145750E+02  0.14657183490E+03  0.12477955579E+03 0.  0.
          5    1    4    4  502    0 -0.39303260899E+02 -0.58001784666E+02  0.42353685566E+02  0.82005353622E+02  0.47000000000E+01 0.  1.
         -5    1    4    4    0  502  0.62952821186E+02  0.98695196731E+01  0.69291615805E+02  0.94254353400E+02  0.47000000000E+01 0.  1.
          5    1    5    5  503    0  0.47033350722E+02 -0.22252883012E+01  0.30284606183E+02  0.56181272323E+02  0.47000000000E+01 0.  1.
         -5    1    5    5    0  503 -0.70682911010E+02  0.50357553294E+02  0.24827539566E+02  0.90390562580E+02  0.47000000000E+01 0.  1.
<mgrwt>
<rscale>  0 0.27642749E+03</rscale>
<asrwt>0</asrwt>
<pdfrwt beam="1">  1        1 0.37660691E-01 0.27642749E+03</pdfrwt>
<pdfrwt beam="2">  1       -1 0.12005700E-01 0.27642749E+03</pdfrwt>
<totfact> 0.51582126E+03</totfact>
</mgrwt>
</event>
<event>
 9    1  0.2117506E-002  0.2735526E+03  0.7818608E-02  0.1099263E+00
          2   -1    0    0  501    0  0.00000000000E+00  0.00000000000E+00  0.24765645259E+03  0.24765645259E+03  0.00000000000E+00 0.  1.
         -2   -1    0    0    0  501 -0.00000000000E+00 -0.00000000000E+00 -0.75539167054E+02  0.75539167054E+02  0.00000000000E+00 0.  1.
         36    2    1    2    0    0 -0.71054273576E-14  0.00000000000E+00  0.17211728554E+03  0.32319561965E+03  0.27355264316E+03 0.  0.
         25    2    3    3    0    0 -0.35039550893E+02 -0.14555869208E+02  0.11150405364E+03  0.17632746355E+03  0.13121957540E+03 0.  0.
         25    2    3    3    0    0  0.35039550893E+02  0.14555869208E+02  0.60613231894E+02  0.14686815610E+03  0.12828346713E+03 0.  0.
          5    1    4    4  502    0  0.39092632954E+02  0.24823212374E+02  0.65903837956E+02  0.80683527942E+02  0.47000000000E+01 0. -1.
         -5    1    4    4    0  502 -0.74132183847E+02 -0.39379081582E+02  0.45600215689E+02  0.95643935610E+02  0.47000000000E+01 0. -1.
          5    1    5    5  503    0  0.72822295210E+02  0.18191997186E+02  0.74802964230E+02  0.10607360133E+03  0.47000000000E+01 0. -1.
         -5    1    5    5    0  503 -0.37782744317E+02 -0.36361279783E+01 -0.14189732336E+02  0.40794554766E+02  0.47000000000E+01 0. -1.
<mgrwt>
<rscale>  0 0.27355264E+03</rscale>
<asrwt>0</asrwt>
<pdfrwt beam="1">  1        2 0.38100992E-01 0.27355264E+03</pdfrwt>
<pdfrwt beam="2">  1       -2 0.11621410E-01 0.27355264E+03</pdfrwt>
<totfact> 0.69626047E+03</totfact>
</mgrwt>
</event>
<event>
 9    1  0.2117506E-002  0.2754881E+03  0.7818608E-02  0.1098179E+00
          1   -1    0    0  501    0  0.00000000000E+00  0.00000000000E+00  0.25169243940E+04  0.25169243940E+04  0.00000000000E+00 0.  1.
         -1   -1    0    0    0  501 -0.00000000000E+00 -0.00000000000E+00 -0.75383361309E+01  0.75383361309E+01  0.00000000000E+00 0.  1.
         36    2    1    2    0    0  0.35527136788E-14  0.00000000000E+00  0.25093860579E+04  0.25244627301E+04  0.27548809120E+03 0.  0.
         25    2    3    3    0    0 -0.30589516247E+02  0.51840625704E+02  0.12471367035E+04  0.12546551582E+04  0.12323327414E+03 0.  0.
         25    2    3    3    0    0  0.30589516247E+02 -0.51840625704E+02  0.12622493544E+04  0.12698075720E+04  0.12455789054E+03 0.  0.
          5    1    4    4  502    0  0.22248485869E+02 -0.28497683681E+02  0.50251696684E+03  0.50383777653E+03  0.47000000000E+01 0. -1.
         -5    1    4    4    0  502 -0.52838002116E+02  0.80338309386E+02  0.74461973663E+03  0.75081738165E+03  0.47000000000E+01 0. -1.
          5    1    5    5  503    0  0.42302408752E+02  0.10121646753E+02  0.96088728812E+03  0.96188274337E+03  0.47000000000E+01 0. -1.
         -5    1    5    5    0  503 -0.11712892505E+02 -0.61962272457E+02  0.30136206630E+03  0.30792482859E+03  0.47000000000E+01 0. -1.
<mgrwt>
<rscale>  0 0.27548809E+03</rscale>
<asrwt>0</asrwt>
<pdfrwt beam="1">  1        1 0.38721847E+00 0.27548809E+03</pdfrwt>
<pdfrwt beam="2">  1       -1 0.11597460E-02 0.27548809E+03</pdfrwt>
<totfact> 0.23443804E+03</totfact>
</mgrwt>
</event>
<event>
 9    1  0.2117506E-002  0.2752450E+03  0.7818608E-02  0.1098315E+00
          2   -1    0    0  501    0  0.00000000000E+00  0.00000000000E+00  0.18128507322E+02  0.18128507322E+02  0.00000000000E+00 0.  1.
         -2   -1    0    0    0  501 -0.00000000000E+00 -0.00000000000E+00 -0.10447609686E+04  0.10447609686E+04  0.00000000000E+00 0.  1.
         36    2    1    2    0    0  0.71054273576E-14  0.35527136788E-14 -0.10266324612E+04  0.10628894759E+04  0.27524503170E+03 0.  0.
         25    2    3    3    0    0  0.37838303492E+02  0.13814183279E+02 -0.71790897129E+03  0.72963958014E+03  0.12392762797E+03 0.  0.
         25    2    3    3    0    0 -0.37838303492E+02 -0.13814183279E+02 -0.30872348996E+03  0.33324989575E+03  0.11883909667E+03 0.  0.
          5    1    4    4  502    0  0.59730686809E+02 -0.74706836930E+01 -0.66947119860E+03  0.67218847195E+03  0.47000000000E+01 0.  1.
         -5    1    4    4    0  502 -0.21892383317E+02  0.21284866972E+02 -0.48437772686E+02  0.57451108189E+02  0.47000000000E+01 0.  1.
          5    1    5    5  503    0  0.19253653682E+01  0.49253202371E+02 -0.14677402049E+03  0.15490089757E+03  0.47000000000E+01 0. -1.
         -5    1    5    5    0  503 -0.39763668860E+02 -0.63067385650E+02 -0.16194946947E+03  0.17834899819E+03  0.47000000000E+01 0. -1.
<mgrwt>
<rscale>  0 0.27524503E+03</rscale>
<asrwt>0</asrwt>
<pdfrwt beam="1">  1        2 0.27890012E-02 0.27524503E+03</pdfrwt>
<pdfrwt beam="2">  1       -2 0.16073245E+00 0.27524503E+03</pdfrwt>
<totfact> 0.91604977E+02</totfact>
</mgrwt>
</event>
<event>
 9    1  0.2117506E-002  0.2690862E+03  0.7818608E-02  0.1101804E+00
          2   -1    0    0  501    0  0.00000000000E+00  0.00000000000E+00  0.10283601679E+04  0.10283601679E+04  0.00000000000E+00 0. -1.
         -2   -1    0    0    0  501 -0.00000000000E+00 -0.00000000000E+00 -0.17602636843E+02  0.17602636843E+02  0.00000000000E+00 0. -1.
         36    2    1    2    0    0  0.53290705182E-14  0.00000000000E+00  0.10107575310E+04  0.10459628047E+04  0.26908623583E+03 0.  0.
         25    2    3    3    0    0  0.11367258244E+02 -0.65787891098E+02  0.41918771509E+03  0.43698549030E+03  0.10383023201E+03 0.  0.
         25    2    3    3    0    0 -0.11367258244E+02  0.65787891098E+02  0.59156981595E+03  0.60897731442E+03  0.12822348132E+03 0.  0.
          5    1    4    4  502    0  0.53607961201E+02 -0.28127600397E+02  0.14905481851E+03  0.16094845240E+03  0.47000000000E+01 0. -1.
         -5    1    4    4    0  502 -0.42240702956E+02 -0.37660290701E+02  0.27013289657E+03  0.27603703790E+03  0.47000000000E+01 0. -1.
          5    1    5    5  503    0 -0.19339622473E+02  0.88409122639E+02  0.56744375112E+03  0.57463440085E+03  0.47000000000E+01 0.  1.
         -5    1    5    5    0  503  0.79723642287E+01 -0.22621231541E+02  0.24126064829E+02  0.34342913563E+02  0.47000000000E+01 0.  1.
<mgrwt>
<rscale>  0 0.26908624E+03</rscale>
<asrwt>0</asrwt>
<pdfrwt beam="1">  1        2 0.15820921E+00 0.26908624E+03</pdfrwt>
<pdfrwt beam="2">  1       -2 0.27080988E-02 0.26908624E+03</pdfrwt>
<totfact> 0.12406137E+04</totfact>
</mgrwt>
</event>
<event>
 9    1  0.2117506E-002  0.2836467E+03  0.7818608E-02  0.1093714E+00
         -2   -1    0    0    0  501 -0.00000000000E+00  0.00000000000E+00  0.46027903895E+02  0.46027903895E+02  0.00000000000E+00 0.  1.
          2   -1    0    0  501    0  0.00000000000E+00 -0.00000000000E+00 -0.43699277427E+03  0.43699277427E+03  0.00000000000E+00 0.  1.
         36    2    1    2    0    0  0.71054273576E-14  0.00000000000E+00 -0.39096487038E+03  0.48302067817E+03  0.28364669162E+03 0.  0.
         25    2    3    3    0    0 -0.60986860269E+01 -0.66343738578E+02 -0.24366524693E+03  0.27890974635E+03  0.11823370259E+03 0.  0.
         25    2    3    3    0    0  0.60986860269E+01  0.66343738578E+02 -0.14729962345E+03  0.20411093181E+03  0.12460099437E+03 0.  0.
          5    1    4    4  502    0 -0.55076027347E+02 -0.13477548257E+02 -0.15142076559E+03  0.16175707511E+03  0.47000000000E+01 0.  1.
         -5    1    4    4    0  502  0.48977341321E+02 -0.52866190321E+02 -0.92244481334E+02  0.11715267124E+03  0.47000000000E+01 0.  1.
          5    1    5    5  503    0  0.53777881631E+02  0.91998747936E+01 -0.10488865325E+03  0.11832336130E+03  0.47000000000E+01 0.  1.
         -5    1    5    5    0  503 -0.47679195604E+02  0.57143863784E+02 -0.42410970196E+02  0.85787570513E+02  0.47000000000E+01 0.  1.
<mgrwt>
<rscale>  0 0.28364669E+03</rscale>
<asrwt>0</asrwt>
<pdfrwt beam="1">  1        2 0.67229661E-01 0.28364669E+03</pdfrwt>
<pdfrwt beam="2">  1       -2 0.70812157E-02 0.28364669E+03</pdfrwt>
<totfact> 0.82478592E+03</totfact>
</mgrwt>
</event>
<event>
 9    1  0.2117506E-002  0.2750509E+03  0.7818608E-02  0.1098423E+00
          1   -1    0    0  501    0  0.00000000000E+00  0.00000000000E+00  0.15966350937E+03  0.15966350937E+03  0.00000000000E+00 0. -1.
         -1   -1    0    0    0  501 -0.00000000000E+00 -0.00000000000E+00 -0.11845696408E+03  0.11845696408E+03  0.00000000000E+00 0. -1.
         36    2    1    2    0    0  0.71054273576E-14  0.00000000000E+00  0.41206545289E+02  0.27812047344E+03  0.27505093778E+03 0.  0.
         25    2    3    3    0    0 -0.32524904501E+02 -0.46867110443E+02  0.18536188218E+01  0.13751195211E+03  0.12510677686E+03 0.  0.
         25    2    3    3    0    0  0.32524904501E+02  0.46867110443E+02  0.39352926467E+02  0.14060852133E+03  0.12234258455E+03 0.  0.
          5    1    4    4  502    0 -0.43711115667E+01  0.27265864622E+02 -0.39131681007E+02  0.48123928023E+02  0.47000000000E+01 0. -1.
         -5    1    4    4    0  502 -0.28153792935E+02 -0.74132975065E+02  0.40985299829E+02  0.89388024089E+02  0.47000000000E+01 0. -1.
          5    1    5    5  503    0  0.65458014872E+02  0.52444343829E+02 -0.58459623163E+01  0.84210606137E+02  0.47000000000E+01 0. -1.
         -5    1    5    5    0  503 -0.32933110371E+02 -0.55772333858E+01  0.45198888784E+02  0.56397915194E+02  0.47000000000E+01 0. -1.
<mgrwt>
<rscale>  0 0.27505094E+03</rscale>
<asrwt>0</asrwt>
<pdfrwt beam="1">  1        1 0.24563617E-01 0.27505094E+03</pdfrwt>
<pdfrwt beam="2">  1       -1 0.18224148E-01 0.27505094E+03</pdfrwt>
<totfact> 0.45637524E+03</totfact>
</mgrwt>
</event>
<event>
 9    1  0.2117506E-002  0.2782954E+03  0.7818608E-02  0.1096624E+00
         -2   -1    0    0    0  501 -0.00000000000E+00  0.00000000000E+00  0.13854686618E+02  0.13854686618E+02  0.00000000000E+00 0.  1.
          2   -1    0    0  501    0  0.00000000000E+00 -0.00000000000E+00 -0.13975114062E+04  0.13975114062E+04  0.00000000000E+00 0.  1.
         36    2    1    2    0    0  0.00000000000E+00  0.00000000000E+00 -0.13836567196E+04  0.14113660928E+04  0.27829540117E+03 0.  0.
         25    2    3    3    0    0  0.40079443804E+02  0.38007584629E+01 -0.73791193311E+03  0.74946185434E+03  0.12473268419E+03 0.  0.
         25    2    3    3    0    0 -0.40079443804E+02 -0.38007584629E+01 -0.64574478649E+03  0.66190423850E+03  0.13967850256E+03 0.  0.
          5    1    4    4  502    0  0.79730593666E+02  0.23770023317E+02 -0.55262220529E+03  0.55886972843E+03  0.47000000000E+01 0.  1.
         -5    1    4    4    0  502 -0.39651149862E+02 -0.19969264854E+02 -0.18528972782E+03  0.19059212591E+03  0.47000000000E+01 0.  1.
          5    1    5    5  503    0  0.24041157132E+02 -0.52758157119E+02 -0.37062236851E+03  0.37515920677E+03  0.47000000000E+01 0. -1.
         -5    1    5    5    0  503 -0.64120600936E+02  0.48957398656E+02 -0.27512241798E+03  0.28674503173E+03  0.47000000000E+01 0. -1.
<mgrwt>
<rscale>  0 0.27829540E+03</rscale>
<asrwt>0</asrwt>
<pdfrwt beam="1">  1        2 0.21500184E+00 0.27829540E+03</pdfrwt>
<pdfrwt beam="2">  1       -2 0.21314894E-02 0.27829540E+03</pdfrwt>
<totfact> 0.10910088E+04</totfact>
</mgrwt>
</event>
<event>
 9    1  0.2117506E-002  0.2750075E+03  0.7818608E-02  0.1098447E+00
         -2   -1    0    0    0  501 -0.00000000000E+00  0.00000000000E+00  0.45545195212E+02  0.45545195212E+02  0.00000000000E+00 0.  1.
          2   -1    0    0  501    0  0.00000000000E+00 -0.00000000000E+00 -0.41513223292E+03  0.41513223292E+03  0.00000000000E+00 0.  1.
         36    2    1    2    0    0  0.17763568394E-14 -0.71054273576E-14 -0.36958703770E+03  0.46067742813E+03  0.27500748053E+03 0.  0.
         25    2    3    3    0    0  0.14441564441E+02 -0.44312602368E+02 -0.18212778773E+03  0.22400604699E+03  0.12180317119E+03 0.  0.
         25    2    3    3    0    0 -0.14441564441E+02  0.44312602368E+02 -0.18745924997E+03  0.23667138114E+03  0.13674869921E+03 0.  0.
          5    1    4    4  502    0 -0.27469396225E+02 -0.37522842463E+02 -0.11529351908E+02  0.48140911820E+02  0.47000000000E+01 0. -1.
         -5    1    4    4    0  502  0.41910960666E+02 -0.67897599045E+01 -0.17059843582E+03  0.17586513517E+03  0.47000000000E+01 0. -1.
          5    1    5    5  503    0 -0.70682532908E+01 -0.40722276336E+02 -0.12231557143E+03  0.12919540630E+03  0.47000000000E+01 0. -1.
         -5    1    5    5    0  503 -0.73733111500E+01  0.85034878703E+02 -0.65143678547E+02  0.10747597484E+03  0.47000000000E+01 0. -1.
<mgrwt>
<rscale>  0 0.27500748E+03</rscale>
<asrwt>0</asrwt>
<pdfrwt beam="1">  1        2 0.63866498E-01 0.27500748E+03</pdfrwt>
<pdfrwt beam="2">  1       -2 0.70069531E-02 0.27500748E+03</pdfrwt>
<totfact> 0.88579740E+03</totfact>
</mgrwt>
</event>
<event>
 9    1  0.2117506E-002  0.2854887E+03  0.7818608E-02  0.1092728E+00
         -3   -1    0    0    0  501 -0.00000000000E+00  0.00000000000E+00  0.42831114247E+03  0.42831114247E+03  0.00000000000E+00 0. -1.
          3   -1    0    0  501    0  0.00000000000E+00 -0.00000000000E+00 -0.47572778149E+02  0.47572778149E+02  0.00000000000E+00 0. -1.
         36    2    1    2    0    0  0.00000000000E+00  0.71054273576E-14  0.38073836433E+03  0.47588392062E+03  0.28548871053E+03 0.  0.
         25    2    3    3    0    0  0.13558767345E+02 -0.49476227069E+02  0.20620150984E+03  0.24618257588E+03  0.12431838476E+03 0.  0.
         25    2    3    3    0    0 -0.13558767345E+02  0.49476227069E+02  0.17453685449E+03  0.22970134475E+03  0.14024213699E+03 0.  0.
          5    1    4    4  502    0  0.38744561876E+02 -0.52964684759E+02  0.37942018375E+02  0.75947914158E+02  0.47000000000E+01 0.  1.
         -5    1    4    4    0  502 -0.25185794531E+02  0.34884576900E+01  0.16825949146E+03  0.17023466172E+03  0.47000000000E+01 0.  1.
          5    1    5    5  503    0  0.40502596685E+02 -0.27888033105E+02  0.32607704658E+02  0.59190836553E+02  0.47000000000E+01 0. -1.
         -5    1    5    5    0  503 -0.54061364031E+02  0.77364260174E+02  0.14192914983E+03  0.17051050820E+03  0.47000000000E+01 0. -1.
<mgrwt>
<rscale>  0 0.28548871E+03</rscale>
<asrwt>0</asrwt>
<pdfrwt beam="1">  1        3 0.73188892E-02 0.28548871E+03</pdfrwt>
<pdfrwt beam="2">  1       -3 0.65894019E-01 0.28548871E+03</pdfrwt>
<totfact> 0.71164475E+02</totfact>
</mgrwt>
</event>
<event>
 9    1  0.2117506E-002  0.2746096E+03  0.7818608E-02  0.1098670E+00
          1   -1    0    0  501    0  0.00000000000E+00  0.00000000000E+00  0.73958659115E+03  0.73958659115E+03  0.00000000000E+00 0.  1.
         -1   -1    0    0    0  501 -0.00000000000E+00 -0.00000000000E+00 -0.25490732378E+02  0.25490732378E+02  0.00000000000E+00 0.  1.
         36    2    1    2    0    0 -0.14210854715E-13  0.35527136788E-14  0.71409585878E+03  0.76507732353E+03  0.27460956914E+03 0.  0.
         25    2    3    3    0    0 -0.50118726791E+02  0.31378138457E+02  0.38777094731E+03  0.41114487921E+03  0.12319630586E+03 0.  0.
         25    2    3    3    0    0  0.50118726791E+02 -0.31378138457E+02  0.32632491147E+03  0.35393244432E+03  0.12362747652E+03 0.  0.
          5    1    4    4  502    0 -0.83142506073E+02  0.47541986974E+02  0.31794659509E+03  0.33209192127E+03  0.47000000000E+01 0.  1.
         -5    1    4    4    0  502  0.33023779282E+02 -0.16163848517E+02  0.69824352213E+02  0.79052957940E+02  0.47000000000E+01 0.  1.
          5    1    5    5  503    0  0.49339601802E+02  0.95013335534E+01  0.39276066938E+02  0.63948190588E+02  0.47000000000E+01 0.  1.
         -5    1    5    5    0  503  0.77912498830E+00 -0.40879472010E+02  0.28704884453E+03  0.28998425374E+03  0.47000000000E+01 0.  1.
<mgrwt>
<rscale>  0 0.27460957E+03</rscale>
<asrwt>0</asrwt>
<pdfrwt beam="1">  1        1 0.11378254E+00 0.27460957E+03</pdfrwt>
<pdfrwt beam="2">  1       -1 0.39216517E-02 0.27460957E+03</pdfrwt>
<totfact> 0.65634115E+03</totfact>
</mgrwt>
</event>
<event>
 9    1  0.2117506E-002  0.2752911E+03  0.7818608E-02  0.1098289E+00
         -1   -1    0    0    0  501 -0.00000000000E+00  0.00000000000E+00  0.15561447379E+03  0.15561447379E+03  0.00000000000E+00 0. -1.
          1   -1    0    0  501    0  0.00000000000E+00 -0.00000000000E+00 -0.12175154405E+03  0.12175154405E+03  0.00000000000E+00 0. -1.
         36    2    1    2    0    0  0.00000000000E+00 -0.71054273576E-14  0.33862929743E+02  0.27736601783E+03  0.27529113650E+03 0.  0.
         25    2    3    3    0    0 -0.17732009165E+02 -0.46530126420E+02  0.17693660504E+02  0.14033768187E+03  0.13000816327E+03 0.  0.
         25    2    3    3    0    0  0.17732009165E+02  0.46530126420E+02  0.16169269239E+02  0.13702833597E+03  0.12663270816E+03 0.  0.
          5    1    4    4  502    0 -0.51849919366E+02 -0.39458298948E+01 -0.36173379560E+02  0.63518399701E+02  0.47000000000E+01 0.  1.
         -5    1    4    4    0  502  0.34117910200E+02 -0.42584296525E+02  0.53867040065E+02  0.76819282165E+02  0.47000000000E+01 0.  1.
          5    1    5    5  503    0  0.15632909518E+02  0.72567748084E+02 -0.32828619178E+02  0.81303592536E+02  0.47000000000E+01 0. -1.
         -5    1    5    5    0  503  0.20990996472E+01 -0.26037621664E+02  0.48997888417E+02  0.55724743432E+02  0.47000000000E+01 0. -1.
<mgrwt>
<rscale>  0 0.27529114E+03</rscale>
<asrwt>0</asrwt>
<pdfrwt beam="1">  1        1 0.18731007E-01 0.27529114E+03</pdfrwt>
<pdfrwt beam="2">  1       -1 0.23940688E-01 0.27529114E+03</pdfrwt>
<totfact> 0.41395958E+03</totfact>
</mgrwt>
</event>
<event>
 9    1  0.2117506E-002  0.2748320E+03  0.7818608E-02  0.1098546E+00
         -1   -1    0    0    0  501 -0.00000000000E+00  0.00000000000E+00  0.31976874699E+02  0.31976874699E+02  0.00000000000E+00 0. -1.
          1   -1    0    0  501    0  0.00000000000E+00 -0.00000000000E+00 -0.59052562440E+03  0.59052562440E+03  0.00000000000E+00 0. -1.
         36    2    1    2    0    0  0.00000000000E+00  0.71054273576E-14 -0.55854874970E+03  0.62250249910E+03  0.27483204979E+03 0.  0.
         25    2    3    3    0    0  0.27080284769E+02 -0.53802968136E+02 -0.29041884745E+03  0.32161445931E+03  0.12435695508E+03 0.  0.
         25    2    3    3    0    0 -0.27080284769E+02  0.53802968136E+02 -0.26812990224E+03  0.30088803979E+03  0.12252292359E+03 0.  0.
          5    1    4    4  502    0  0.20823135263E+02 -0.72363639479E+02 -0.29182734390E+03  0.30142227511E+03  0.47000000000E+01 0.  1.
         -5    1    4    4    0  502  0.62571495052E+01  0.18560671343E+02  0.14084964496E+01  0.20192184203E+02  0.47000000000E+01 0.  1.
          5    1    5    5  503    0 -0.83122438756E+01  0.56631124108E+02 -0.27440667095E+03  0.28035207985E+03  0.47000000000E+01 0. -1.
         -5    1    5    5    0  503 -0.18768040893E+02 -0.28281559729E+01  0.62767687026E+01  0.20535959937E+02  0.47000000000E+01 0. -1.
<mgrwt>
<rscale>  0 0.27483205E+03</rscale>
<asrwt>0</asrwt>
<pdfrwt beam="1">  1        1 0.90850096E-01 0.27483205E+03</pdfrwt>
<pdfrwt beam="2">  1       -1 0.49195192E-02 0.27483205E+03</pdfrwt>
<totfact> 0.64612063E+03</totfact>
</mgrwt>
</event>
<event>
 9    1  0.2117506E-002  0.2733747E+03  0.7818608E-02  0.1099364E+00
         -1   -1    0    0    0  501 -0.00000000000E+00  0.00000000000E+00  0.48767618872E+02  0.48767618872E+02  0.00000000000E+00 0. -1.
          1   -1    0    0  501    0  0.00000000000E+00 -0.00000000000E+00 -0.38311134220E+03  0.38311134220E+03  0.00000000000E+00 0. -1.
         36    2    1    2    0    0  0.14210854715E-13  0.00000000000E+00 -0.33434372333E+03  0.43187896107E+03  0.27337467273E+03 0.  0.
         25    2    3    3    0    0 -0.71211042875E+02 -0.15620785832E+02 -0.14382767727E+03  0.19246964430E+03  0.10508635330E+03 0.  0.
         25    2    3    3    0    0  0.71211042875E+02  0.15620785832E+02 -0.19051604606E+03  0.23940931677E+03  0.12532132929E+03 0.  0.
          5    1    4    4  502    0 -0.42220509040E+02  0.80225164231E+01  0.56474088436E+00  0.43235877296E+02  0.47000000000E+01 0. -1.
         -5    1    4    4    0  502 -0.28990533836E+02 -0.23643302255E+02 -0.14439241816E+03  0.14923376701E+03  0.47000000000E+01 0. -1.
          5    1    5    5  503    0  0.54878149036E+02 -0.38836439090E+02 -0.16235981917E+03  0.17579158434E+03  0.47000000000E+01 0.  1.
         -5    1    5    5    0  503  0.16332893839E+02  0.54457224922E+02 -0.28156226885E+02  0.63617732431E+02  0.47000000000E+01 0.  1.
<mgrwt>
<rscale>  0 0.27337467E+03</rscale>
<asrwt>0</asrwt>
<pdfrwt beam="1">  1        1 0.58940207E-01 0.27337467E+03</pdfrwt>
<pdfrwt beam="2">  1       -1 0.75027106E-02 0.27337467E+03</pdfrwt>
<totfact> 0.60495815E+03</totfact>
</mgrwt>
</event>
<event>
 9    1  0.2117506E-002  0.2753200E+03  0.7818608E-02  0.1098273E+00
         -1   -1    0    0    0  501 -0.00000000000E+00  0.00000000000E+00  0.22284350907E+02  0.22284350907E+02  0.00000000000E+00 0. -1.
          1   -1    0    0  501    0  0.00000000000E+00 -0.00000000000E+00 -0.85038502415E+03  0.85038502415E+03  0.00000000000E+00 0. -1.
         36    2    1    2    0    0 -0.14210854715E-13  0.35527136788E-14 -0.82810067325E+03  0.87266937506E+03  0.27532001950E+03 0.  0.
         25    2    3    3    0    0  0.59571336820E+02  0.13105804846E+02 -0.38170305600E+03  0.40642672857E+03  0.12555857773E+03 0.  0.
         25    2    3    3    0    0 -0.59571336820E+02 -0.13105804846E+02 -0.44639761724E+03  0.46624264649E+03  0.11996193744E+03 0.  0.
          5    1    4    4  502    0  0.62268210975E+02 -0.26107814451E+02 -0.34774634164E+03  0.35427186764E+03  0.47000000000E+01 0. -1.
         -5    1    4    4    0  502 -0.26968741549E+01  0.39213619297E+02 -0.33956714357E+02  0.52154860929E+02  0.47000000000E+01 0. -1.
          5    1    5    5  503    0 -0.54635020586E+02  0.17906406602E+02 -0.42271005563E+03  0.42662806519E+03  0.47000000000E+01 0. -1.
         -5    1    5    5    0  503 -0.49363162339E+01 -0.31012211448E+02 -0.23687561613E+02  0.39614581306E+02  0.47000000000E+01 0. -1.
<mgrwt>
<rscale>  0 0.27532002E+03</rscale>
<asrwt>0</asrwt>
<pdfrwt beam="1">  1        1 0.13082849E+00 0.27532002E+03</pdfrwt>
<pdfrwt beam="2">  1       -1 0.34283610E-02 0.27532002E+03</pdfrwt>
<totfact> 0.64671770E+03</totfact>
</mgrwt>
</event>
<event>
 9    1  0.2117506E-002  0.2752702E+03  0.7818608E-02  0.1098301E+00
         -3   -1    0    0    0  501 -0.00000000000E+00  0.00000000000E+00  0.63800863397E+02  0.63800863397E+02  0.00000000000E+00 0. -1.
          3   -1    0    0  501    0  0.00000000000E+00 -0.00000000000E+00 -0.29691489600E+03  0.29691489600E+03  0.00000000000E+00 0. -1.
         36    2    1    2    0    0  0.71054273576E-14 -0.71054273576E-14 -0.23311403260E+03  0.36071575939E+03  0.27527024336E+03 0.  0.
         25    2    3    3    0    0  0.41897146943E+02 -0.27791164187E+02 -0.13734580893E+03  0.19364250641E+03  0.12690874410E+03 0.  0.
         25    2    3    3    0    0 -0.41897146943E+02  0.27791164187E+02 -0.95768223672E+02  0.16707325298E+03  0.12733498918E+03 0.  0.
          5    1    4    4  502    0  0.24575452644E+02 -0.73173378224E+02 -0.11813340920E+03  0.14119450599E+03  0.47000000000E+01 0. -1.
         -5    1    4    4    0  502  0.17321694298E+02  0.45382214037E+02 -0.19212399729E+02  0.52448000416E+02  0.47000000000E+01 0. -1.
          5    1    5    5  503    0 -0.58418057278E+02 -0.73762373793E+01 -0.11046535479E+03  0.12526676695E+03  0.47000000000E+01 0. -1.
         -5    1    5    5    0  503  0.16520910335E+02  0.35167401566E+02  0.14697131118E+02  0.41806486032E+02  0.47000000000E+01 0. -1.
<mgrwt>
<rscale>  0 0.27527024E+03</rscale>
<asrwt>0</asrwt>
<pdfrwt beam="1">  1        3 0.45679215E-01 0.27527024E+03</pdfrwt>
<pdfrwt beam="2">  1       -3 0.98155173E-02 0.27527024E+03</pdfrwt>
<totfact> 0.92644428E+02</totfact>
</mgrwt>
</event>
<event>
 9    1  0.2117506E-002  0.2757725E+03  0.7818608E-02  0.1098021E+00
         -2   -1    0    0    0  501 -0.00000000000E+00  0.00000000000E+00  0.54179543561E+02  0.54179543561E+02  0.00000000000E+00 0.  1.
          2   -1    0    0  501    0  0.00000000000E+00 -0.00000000000E+00 -0.35091863322E+03  0.35091863322E+03  0.00000000000E+00 0.  1.
         36    2    1    2    0    0 -0.71054273576E-14  0.71054273576E-14 -0.29673908966E+03  0.40509817678E+03  0.27577245239E+03 0.  0.
         25    2    3    3    0    0 -0.38185209485E+02  0.32576606205E+02 -0.18542564873E+03  0.23091839012E+03  0.12814556643E+03 0.  0.
         25    2    3    3    0    0  0.38185209485E+02 -0.32576606205E+02 -0.11131344093E+03  0.17417978666E+03  0.12421179675E+03 0.  0.
          5    1    4    4  502    0 -0.42264664997E+02  0.10765005408E+02  0.24514539619E+00  0.43867269632E+02  0.47000000000E+01 0. -1.
         -5    1    4    4    0  502  0.40794555121E+01  0.21811600797E+02 -0.18567079412E+03  0.18705112049E+03  0.47000000000E+01 0. -1.
          5    1    5    5  503    0  0.75207332187E+02 -0.50719147825E+02 -0.88537334562E+02  0.12684448897E+03  0.47000000000E+01 0.  1.
         -5    1    5    5    0  503 -0.37022122702E+02  0.18142541620E+02 -0.22776106372E+02  0.47335297689E+02  0.47000000000E+01 0.  1.
<mgrwt>
<rscale>  0 0.27577245E+03</rscale>
<asrwt>0</asrwt>
<pdfrwt beam="1">  1        2 0.53987480E-01 0.27577245E+03</pdfrwt>
<pdfrwt beam="2">  1       -2 0.83353148E-02 0.27577245E+03</pdfrwt>
<totfact> 0.81108482E+03</totfact>
</mgrwt>
</event>
<event>
 9    1  0.2117506E-002  0.2752546E+03  0.7818608E-02  0.1098309E+00
          2   -1    0    0  501    0  0.00000000000E+00  0.00000000000E+00  0.15506434366E+04  0.15506434366E+04  0.00000000000E+00 0.  1.
         -2   -1    0    0    0  501 -0.00000000000E+00 -0.00000000000E+00 -0.12215106283E+02  0.12215106283E+02  0.00000000000E+00 0.  1.
         36    2    1    2    0    0  0.71054273576E-14  0.35527136788E-14  0.15384283303E+04  0.15628585429E+04  0.27525460494E+03 0.  0.
         25    2    3    3    0    0  0.38006732543E+02 -0.23252711729E+01  0.99522372595E+03  0.10040905686E+04  0.12758403735E+03 0.  0.
         25    2    3    3    0    0 -0.38006732543E+02  0.23252711729E+01  0.54320460436E+03  0.55876797431E+03  0.12530158942E+03 0.  0.
          5    1    4    4  502    0  0.13183515010E+02  0.49305664070E+02  0.18918426938E+03  0.19600416158E+03  0.47000000000E+01 0.  1.
         -5    1    4    4    0  502  0.24823217533E+02 -0.51630935243E+02  0.80603945657E+03  0.80808640698E+03  0.47000000000E+01 0.  1.
          5    1    5    5  503    0  0.13031203919E+01  0.22083314970E+01  0.50052476115E+03  0.50055339513E+03  0.47000000000E+01 0. -1.
         -5    1    5    5    0  503 -0.39309852935E+02  0.11693967590E+00  0.42679843205E+02  0.58214579176E+02  0.47000000000E+01 0. -1.
<mgrwt>
<rscale>  0 0.27525460E+03</rscale>
<asrwt>0</asrwt>
<pdfrwt beam="1">  1        2 0.23856037E+00 0.27525460E+03</pdfrwt>
<pdfrwt beam="2">  1       -2 0.18792483E-02 0.27525460E+03</pdfrwt>
<totfact> 0.10862373E+04</totfact>
</mgrwt>
</event>
<event>
 9    1  0.2117506E-002  0.2755570E+03  0.7818608E-02  0.1098141E+00
         -1   -1    0    0    0  501 -0.00000000000E+00  0.00000000000E+00  0.12965820078E+03  0.12965820078E+03  0.00000000000E+00 0.  1.
          1   -1    0    0  501    0  0.00000000000E+00 -0.00000000000E+00 -0.14640732195E+03  0.14640732195E+03  0.00000000000E+00 0.  1.
         36    2    1    2    0    0  0.00000000000E+00 -0.35527136788E-14 -0.16749121172E+02  0.27606552273E+03  0.27555696286E+03 0.  0.
         25    2    3    3    0    0  0.64515650250E+02 -0.12803093752E+02 -0.27081149411E+02  0.14159497170E+03  0.12243185460E+03 0.  0.
         25    2    3    3    0    0 -0.64515650250E+02  0.12803093752E+02  0.10332028240E+02  0.13447055103E+03  0.11683060365E+03 0.  0.
          5    1    4    4  502    0  0.53598891301E+02 -0.82750986354E+01 -0.74629970480E+02  0.92374460215E+02  0.47000000000E+01 0. -1.
         -5    1    4    4    0  502  0.10916758948E+02 -0.45279951161E+01  0.47548821069E+02  0.49220511484E+02  0.47000000000E+01 0. -1.
          5    1    5    5  503    0 -0.39683274553E+02 -0.47606011806E+02  0.25618492190E+02  0.67227165502E+02  0.47000000000E+01 0.  1.
         -5    1    5    5    0  503 -0.24832375697E+02  0.60409105558E+02 -0.15286463950E+02  0.67243385527E+02  0.47000000000E+01 0.  1.
<mgrwt>
<rscale>  0 0.27555696E+03</rscale>
<asrwt>0</asrwt>
<pdfrwt beam="1">  1        1 0.22524203E-01 0.27555696E+03</pdfrwt>
<pdfrwt beam="2">  1       -1 0.19947416E-01 0.27555696E+03</pdfrwt>
<totfact> 0.44045206E+03</totfact>
</mgrwt>
</event>
<event>
 9    1  0.2117506E-002  0.2738298E+03  0.7818608E-02  0.1099107E+00
         -1   -1    0    0    0  501 -0.00000000000E+00  0.00000000000E+00  0.77469044561E+02  0.77469044561E+02  0.00000000000E+00 0.  1.
          1   -1    0    0  501    0  0.00000000000E+00 -0.00000000000E+00 -0.24197654749E+03  0.24197654749E+03  0.00000000000E+00 0.  1.
         36    2    1    2    0    0  0.35527136788E-14  0.35527136788E-14 -0.16450750293E+03  0.31944559205E+03  0.27382981533E+03 0.  0.
         25    2    3    3    0    0  0.31120799728E+02  0.28329670857E+02 -0.80280455401E+01  0.12684684853E+03  0.11939262556E+03 0.  0.
         25    2    3    3    0    0 -0.31120799728E+02 -0.28329670857E+02 -0.15647945739E+03  0.19259874353E+03  0.10410274250E+03 0.  0.
          5    1    4    4  502    0 -0.18061912987E+01 -0.13393512766E+02  0.47636375584E+02  0.49738946410E+02  0.47000000000E+01 0.  1.
         -5    1    4    4    0  502  0.32926991027E+02  0.41723183623E+02 -0.55664421124E+02  0.77107902116E+02  0.47000000000E+01 0.  1.
          5    1    5    5  503    0 -0.73396452867E+01 -0.42299442367E+02 -0.11154728525E+02  0.44605282041E+02  0.47000000000E+01 0. -1.
         -5    1    5    5    0  503 -0.23781154441E+02  0.13969771510E+02 -0.14532472887E+03  0.14799346149E+03  0.47000000000E+01 0. -1.
<mgrwt>
<rscale>  0 0.27382982E+03</rscale>
<asrwt>0</asrwt>
<pdfrwt beam="1">  1        1 0.37227160E-01 0.27382982E+03</pdfrwt>
<pdfrwt beam="2">  1       -1 0.11918315E-01 0.27382982E+03</pdfrwt>
<totfact> 0.52921928E+03</totfact>
</mgrwt>
</event>
<event>
 9    1  0.2117506E-002  0.2766532E+03  0.7818608E-02  0.1097531E+00
         -2   -1    0    0    0  501 -0.00000000000E+00  0.00000000000E+00  0.11101323840E+02  0.11101323840E+02  0.00000000000E+00 0.  1.
          2   -1    0    0  501    0  0.00000000000E+00 -0.00000000000E+00 -0.17236002695E+04  0.17236002695E+04  0.00000000000E+00 0.  1.
         36    2    1    2    0    0 -0.71054273576E-14  0.71054273576E-14 -0.17124989457E+04  0.17347015934E+04  0.27665317467E+03 0.  0.
         25    2    3    3    0    0  0.52643241933E+02 -0.57942708111E+02 -0.91219523911E+03  0.92398683701E+03  0.12459073952E+03 0.  0.
         25    2    3    3    0    0 -0.52643241933E+02  0.57942708111E+02 -0.80030370659E+03  0.81071475637E+03  0.10316843057E+03 0.  0.
          5    1    4    4  502    0  0.26872910335E+02 -0.57008512562E+02 -0.88090117171E+03  0.88316537983E+03  0.47000000000E+01 0. -1.
         -5    1    4    4    0  502  0.25770331597E+02 -0.93419554899E+00 -0.31294067401E+02  0.40821457182E+02  0.47000000000E+01 0. -1.
          5    1    5    5  503    0 -0.29979909117E+01  0.62600153375E+02 -0.63199468020E+03  0.63511190585E+03  0.47000000000E+01 0. -1.
         -5    1    5    5    0  503 -0.49645251021E+02 -0.46574452645E+01 -0.16830902639E+03  0.17560285052E+03  0.47000000000E+01 0. -1.
<mgrwt>
<rscale>  0 0.27665317E+03</rscale>
<asrwt>0</asrwt>
<pdfrwt beam="1">  1        2 0.26516936E+00 0.27665317E+03</pdfrwt>
<pdfrwt beam="2">  1       -2 0.17078954E-02 0.27665317E+03</pdfrwt>
<totfact> 0.10126244E+04</totfact>
</mgrwt>
</event>
<event>
 9    1  0.2117506E-002  0.2768193E+03  0.7818608E-02  0.1097439E+00
         -2   -1    0    0    0  501 -0.00000000000E+00  0.00000000000E+00  0.14129331504E+02  0.14129331504E+02  0.00000000000E+00 0. -1.
          2   -1    0    0  501    0  0.00000000000E+00 -0.00000000000E+00 -0.13558481900E+04  0.13558481900E+04  0.00000000000E+00 0. -1.
         36    2    1    2    0    0 -0.71054273576E-14  0.71054273576E-14 -0.13417188585E+04  0.13699775215E+04  0.27681928072E+03 0.  0.
         25    2    3    3    0    0 -0.37088249554E+02 -0.14796177104E+02 -0.65933662928E+03  0.67237651395E+03  0.12558232630E+03 0.  0.
         25    2    3    3    0    0  0.37088249554E+02  0.14796177104E+02 -0.68238222918E+03  0.69760100753E+03  0.13930970493E+03 0.  0.
          5    1    4    4  502    0 -0.37671081263E+02  0.42157611266E+02 -0.49791668567E+03  0.50113819493E+03  0.47000000000E+01 0. -1.
         -5    1    4    4    0  502  0.58283170844E+00 -0.56953788371E+02 -0.16141994361E+03  0.17123831901E+03  0.47000000000E+01 0. -1.
          5    1    5    5  503    0  0.48964476143E+01  0.73389569570E+02 -0.43972178407E+03  0.44585574069E+03  0.47000000000E+01 0. -1.
         -5    1    5    5    0  503  0.32191801940E+02 -0.58593392465E+02 -0.24266044511E+03  0.25174526684E+03  0.47000000000E+01 0. -1.
<mgrwt>
<rscale>  0 0.27681928E+03</rscale>
<asrwt>0</asrwt>
<pdfrwt beam="1">  1        2 0.20859209E+00 0.27681928E+03</pdfrwt>
<pdfrwt beam="2">  1       -2 0.21737427E-02 0.27681928E+03</pdfrwt>
<totfact> 0.11166927E+04</totfact>
</mgrwt>
</event>
<event>
 9    1  0.2117506E-002  0.2724632E+03  0.7818608E-02  0.1099878E+00
         -1   -1    0    0    0  501 -0.00000000000E+00  0.00000000000E+00  0.85072197014E+01  0.85072197014E+01  0.00000000000E+00 0.  1.
          1   -1    0    0  501    0  0.00000000000E+00 -0.00000000000E+00 -0.21815649413E+04  0.21815649413E+04  0.00000000000E+00 0.  1.
         36    2    1    2    0    0 -0.71054273576E-14  0.71054273576E-14 -0.21730577216E+04  0.21900721610E+04  0.27246322503E+03 0.  0.
         25    2    3    3    0    0  0.24113069697E+02  0.38982788732E+02 -0.90157931557E+03  0.91105712209E+03  0.12279543758E+03 0.  0.
         25    2    3    3    0    0 -0.24113069697E+02 -0.38982788732E+02 -0.12714784060E+04  0.12790150389E+04  0.13084737227E+03 0.  0.
          5    1    4    4  502    0 -0.44240823293E+02  0.43730960471E+02 -0.43428761183E+03  0.43874533290E+03  0.47000000000E+01 0.  1.
         -5    1    4    4    0  502  0.68353892990E+02 -0.47481717399E+01 -0.46729170374E+03  0.47231178919E+03  0.47000000000E+01 0.  1.
          5    1    5    5  503    0 -0.31475293880E+02 -0.82143100873E+02 -0.10119729494E+04  0.10157999426E+04  0.47000000000E+01 0. -1.
         -5    1    5    5    0  503  0.73622241826E+01  0.43160312142E+02 -0.25950545662E+03  0.26321509627E+03  0.47000000000E+01 0. -1.
<mgrwt>
<rscale>  0 0.27246323E+03</rscale>
<asrwt>0</asrwt>
<pdfrwt beam="1">  1        1 0.33562571E+00 0.27246323E+03</pdfrwt>
<pdfrwt beam="2">  1       -1 0.13088017E-02 0.27246323E+03</pdfrwt>
<totfact> 0.32712417E+03</totfact>
</mgrwt>
</event>
<event>
 9    1  0.2117506E-002  0.2744652E+03  0.7818608E-02  0.1098751E+00
         -1   -1    0    0    0  501 -0.00000000000E+00  0.00000000000E+00  0.21768204341E+03  0.21768204341E+03  0.00000000000E+00 0.  1.
          1   -1    0    0  501    0  0.00000000000E+00 -0.00000000000E+00 -0.86515130232E+02  0.86515130232E+02  0.00000000000E+00 0.  1.
         36    2    1    2    0    0  0.00000000000E+00 -0.35527136788E-14  0.13116691318E+03  0.30419717365E+03  0.27446522793E+03 0.  0.
         25    2    3    3    0    0  0.33825586166E+01 -0.46103359960E+01  0.10725176697E+02  0.12743854030E+03  0.12685761797E+03 0.  0.
         25    2    3    3    0    0 -0.33825586166E+01  0.46103359960E+01  0.12044173648E+03  0.17675863335E+03  0.12924668535E+03 0.  0.
          5    1    4    4  502    0  0.98021876127E+01  0.22926391820E+02 -0.52339656815E+02  0.58165556813E+02  0.47000000000E+01 0.  1.
         -5    1    4    4    0  502 -0.64196289960E+01 -0.27536727816E+02  0.63064833512E+02  0.69272983487E+02  0.47000000000E+01 0.  1.
          5    1    5    5  503    0 -0.14064410212E+02 -0.60928100164E+02  0.61845432214E+02  0.88073767433E+02  0.47000000000E+01 0. -1.
         -5    1    5    5    0  503  0.10681851596E+02  0.65538436160E+02  0.58596304271E+02  0.88684865913E+02  0.47000000000E+01 0. -1.
<mgrwt>
<rscale>  0 0.27446523E+03</rscale>
<asrwt>0</asrwt>
<pdfrwt beam="1">  1        1 0.13310020E-01 0.27446523E+03</pdfrwt>
<pdfrwt beam="2">  1       -1 0.33489545E-01 0.27446523E+03</pdfrwt>
<totfact> 0.36706278E+03</totfact>
</mgrwt>
</event>
<event>
 9    1  0.2117506E-002  0.2751424E+03  0.7818608E-02  0.1098372E+00
          2   -1    0    0  501    0  0.00000000000E+00  0.00000000000E+00  0.19928173903E+03  0.19928173903E+03  0.00000000000E+00 0.  1.
         -2   -1    0    0    0  501 -0.00000000000E+00 -0.00000000000E+00 -0.94970263286E+02  0.94970263286E+02  0.00000000000E+00 0.  1.
         36    2    1    2    0    0  0.00000000000E+00  0.00000000000E+00  0.10431147574E+03  0.29425200231E+03  0.27514243020E+03 0.  0.
         25    2    3    3    0    0 -0.17276543481E+02  0.26674218480E+02  0.13019444327E+03  0.17886592043E+03  0.11845856468E+03 0.  0.
         25    2    3    3    0    0  0.17276543481E+02 -0.26674218480E+02 -0.25882967527E+02  0.11538608188E+03  0.10786114684E+03 0.  0.
          5    1    4    4  502    0  0.36883457133E+01 -0.44405238909E+02  0.70764451012E+02  0.83756352975E+02  0.47000000000E+01 0. -1.
         -5    1    4    4    0  502 -0.20964889194E+02  0.71079457389E+02  0.59429992256E+02  0.95109567453E+02  0.47000000000E+01 0. -1.
          5    1    5    5  503    0  0.28569571363E+02  0.36875714374E+02 -0.17874783821E+02  0.50176056193E+02  0.47000000000E+01 0. -1.
         -5    1    5    5    0  503 -0.11293027883E+02 -0.63549932854E+02 -0.80081837061E+01  0.65210025692E+02  0.47000000000E+01 0. -1.
<mgrwt>
<rscale>  0 0.27514243E+03</rscale>
<asrwt>0</asrwt>
<pdfrwt beam="1">  1        2 0.30658729E-01 0.27514243E+03</pdfrwt>
<pdfrwt beam="2">  1       -2 0.14610810E-01 0.27514243E+03</pdfrwt>
<totfact> 0.60766356E+03</totfact>
</mgrwt>
</event>
<event>
 9    1  0.2117506E-002  0.2749841E+03  0.7818608E-02  0.1098460E+00
          1   -1    0    0  501    0  0.00000000000E+00  0.00000000000E+00  0.39894652020E+02  0.39894652020E+02  0.00000000000E+00 0. -1.
         -1   -1    0    0    0  501 -0.00000000000E+00 -0.00000000000E+00 -0.47384959690E+03  0.47384959690E+03  0.00000000000E+00 0. -1.
         36    2    1    2    0    0  0.71054273576E-14  0.53290705182E-14 -0.43395494488E+03  0.51374424892E+03  0.27498410702E+03 0.  0.
         25    2    3    3    0    0 -0.38611146168E+02 -0.72674502484E+01 -0.28740903965E+03  0.31758703026E+03  0.12928236259E+03 0.  0.
         25    2    3    3    0    0  0.38611146168E+02  0.72674502484E+01 -0.14654590523E+03  0.19615721866E+03  0.12433147490E+03 0.  0.
          5    1    4    4  502    0 -0.28385423095E+02 -0.46455529722E+01  0.79115953583E+00  0.29155262649E+02  0.47000000000E+01 0. -1.
         -5    1    4    4    0  502 -0.10225723072E+02 -0.26218972762E+01 -0.28820019919E+03  0.28843176761E+03  0.47000000000E+01 0. -1.
          5    1    5    5  503    0 -0.19332413697E+02  0.52771881858E+02 -0.58554696177E+02  0.81297946952E+02  0.47000000000E+01 0.  1.
         -5    1    5    5    0  503  0.57943559865E+02 -0.45504431610E+02 -0.87991209052E+02  0.11485927170E+03  0.47000000000E+01 0.  1.
<mgrwt>
<rscale>  0 0.27498411E+03</rscale>
<asrwt>0</asrwt>
<pdfrwt beam="1">  1        1 0.61376385E-02 0.27498411E+03</pdfrwt>
<pdfrwt beam="2">  1       -1 0.72899941E-01 0.27498411E+03</pdfrwt>
<totfact> 0.24677992E+03</totfact>
</mgrwt>
</event>
<event>
 9    1  0.2117506E-002  0.2751250E+03  0.7818608E-02  0.1098382E+00
          2   -1    0    0  501    0  0.00000000000E+00  0.00000000000E+00  0.90428636228E+02  0.90428636228E+02  0.00000000000E+00 0. -1.
         -2   -1    0    0    0  501 -0.00000000000E+00 -0.00000000000E+00 -0.20926381598E+03  0.20926381598E+03  0.00000000000E+00 0. -1.
         36    2    1    2    0    0  0.00000000000E+00  0.14210854715E-13 -0.11883517975E+03  0.29969245220E+03  0.27512500061E+03 0.  0.
         25    2    3    3    0    0 -0.38254361277E+02 -0.33610982776E+02 -0.77507300260E+02  0.15874940551E+03  0.12884447151E+03 0.  0.
         25    2    3    3    0    0  0.38254361277E+02  0.33610982776E+02 -0.41327879488E+02  0.14094304669E+03  0.12475517812E+03 0.  0.
          5    1    4    4  502    0  0.22799246266E+02 -0.39952113796E+02  0.14133178805E+02  0.48350943840E+02  0.47000000000E+01 0.  1.
         -5    1    4    4    0  502 -0.61053607543E+02  0.63411310200E+01 -0.91640479065E+02  0.11039846167E+03  0.47000000000E+01 0.  1.
          5    1    5    5  503    0  0.73636534605E+02  0.43813378620E+02 -0.54379371540E+02  0.10159309732E+03  0.47000000000E+01 0.  1.
         -5    1    5    5    0  503 -0.35382173328E+02 -0.10202395844E+02  0.13051492053E+02  0.39349949367E+02  0.47000000000E+01 0.  1.
<mgrwt>
<rscale>  0 0.27512500E+03</rscale>
<asrwt>0</asrwt>
<pdfrwt beam="1">  1        2 0.13912098E-01 0.27512500E+03</pdfrwt>
<pdfrwt beam="2">  1       -2 0.32194433E-01 0.27512500E+03</pdfrwt>
<totfact> 0.38107315E+03</totfact>
</mgrwt>
</event>
<event>
 9    1  0.2117506E-002  0.2754729E+03  0.7818608E-02  0.1098188E+00
          2   -1    0    0  501    0  0.00000000000E+00  0.00000000000E+00  0.10022846439E+03  0.10022846439E+03  0.00000000000E+00 0.  1.
         -2   -1    0    0    0  501 -0.00000000000E+00 -0.00000000000E+00 -0.18928090809E+03  0.18928090809E+03  0.00000000000E+00 0.  1.
         36    2    1    2    0    0 -0.77715611724E-15 -0.71054273576E-14 -0.89052443704E+02  0.28950937248E+03  0.27547293701E+03 0.  0.
         25    2    3    3    0    0 -0.94152083982E+00 -0.58505023952E+02 -0.47494398593E+02  0.14354250616E+03  0.12216795360E+03 0.  0.
         25    2    3    3    0    0  0.94152083982E+00  0.58505023952E+02 -0.41558045111E+02  0.14596686632E+03  0.12710440851E+03 0.  0.
          5    1    4    4  502    0 -0.27602879883E+02 -0.39152502223E+02  0.31703450592E+02  0.57637107731E+02  0.47000000000E+01 0.  1.
         -5    1    4    4    0  502  0.26661359043E+02 -0.19352521730E+02 -0.79197849185E+02  0.85905398427E+02  0.47000000000E+01 0.  1.
          5    1    5    5  503    0  0.29505724052E+00  0.59075234036E+02  0.35287466080E+02  0.68972933803E+02  0.47000000000E+01 0. -1.
         -5    1    5    5    0  503  0.64646359930E+00 -0.57021008322E+00 -0.76845511191E+02  0.76993932520E+02  0.47000000000E+01 0. -1.
<mgrwt>
<rscale>  0 0.27547294E+03</rscale>
<asrwt>0</asrwt>
<pdfrwt beam="1">  1        2 0.15419764E-01 0.27547294E+03</pdfrwt>
<pdfrwt beam="2">  1       -2 0.29120139E-01 0.27547294E+03</pdfrwt>
<totfact> 0.40488871E+03</totfact>
</mgrwt>
</event>
<event>
 9    1  0.2117506E-002  0.2711188E+03  0.7818608E-02  0.1100641E+00
         -2   -1    0    0    0  501 -0.00000000000E+00  0.00000000000E+00  0.51275817328E+01  0.51275817328E+01  0.00000000000E+00 0. -1.
          2   -1    0    0  501    0  0.00000000000E+00 -0.00000000000E+00 -0.35838238288E+04  0.35838238288E+04  0.00000000000E+00 0. -1.
         36    2    1    2    0    0  0.71054273576E-14  0.00000000000E+00 -0.35786962470E+04  0.35889514105E+04  0.27111879019E+03 0.  0.
         25    2    3    3    0    0 -0.21831698530E+02  0.70518914276E+02 -0.19386193724E+04  0.19440754212E+04  0.12543776079E+03 0.  0.
         25    2    3    3    0    0  0.21831698530E+02 -0.70518914276E+02 -0.16400768746E+04  0.16448759893E+04  0.10156438955E+03 0.  0.
          5    1    4    4  502    0 -0.26804489059E+02  0.23473018407E+02 -0.13126086786E+03  0.13609176558E+03  0.47000000000E+01 0.  1.
         -5    1    4    4    0  502  0.49727905287E+01  0.47045895870E+02 -0.18073585045E+04  0.18079836556E+04  0.47000000000E+01 0.  1.
          5    1    5    5  503    0  0.28067856043E+02 -0.65579646972E+02 -0.16284791781E+04  0.16300475509E+04  0.47000000000E+01 0.  1.
         -5    1    5    5    0  503 -0.62361575127E+01 -0.49392673044E+01 -0.11597696577E+02  0.14828438486E+02  0.47000000000E+01 0.  1.
<mgrwt>
<rscale>  0 0.27111879E+03</rscale>
<asrwt>0</asrwt>
<pdfrwt beam="1">  1        2 0.55135692E+00 0.27111879E+03</pdfrwt>
<pdfrwt beam="2">  1       -2 0.78885958E-03 0.27111879E+03</pdfrwt>
<totfact> 0.26819863E+03</totfact>
</mgrwt>
</event>
<event>
 9    1  0.2117506E-002  0.2748265E+03  0.7818608E-02  0.1098549E+00
          1   -1    0    0  501    0  0.00000000000E+00  0.00000000000E+00  0.11628535343E+03  0.11628535343E+03  0.00000000000E+00 0. -1.
         -1   -1    0    0    0  501 -0.00000000000E+00 -0.00000000000E+00 -0.16237982374E+03  0.16237982374E+03  0.00000000000E+00 0. -1.
         36    2    1    2    0    0  0.14210854715E-13  0.00000000000E+00 -0.46094470304E+02  0.27866517717E+03  0.27482645574E+03 0.  0.
         25    2    3    3    0    0  0.43817234137E+02  0.29758776337E+02 -0.33025109869E+02  0.13857183859E+03  0.12371726554E+03 0.  0.
         25    2    3    3    0    0 -0.43817234137E+02 -0.29758776337E+02 -0.13069360435E+02  0.14009333858E+03  0.12903410617E+03 0.  0.
          5    1    4    4  502    0  0.25262861188E+02  0.25241060082E+02  0.45266105251E+02  0.57848366909E+02  0.47000000000E+01 0. -1.
         -5    1    4    4    0  502  0.18554372949E+02  0.45177162550E+01 -0.78291215119E+02  0.80723471683E+02  0.47000000000E+01 0. -1.
          5    1    5    5  503    0  0.11206677843E+01  0.41889176561E+02 -0.32440213120E+02  0.53201658212E+02  0.47000000000E+01 0. -1.
         -5    1    5    5    0  503 -0.44937901922E+02 -0.71647952898E+02  0.19370852684E+02  0.86891680369E+02  0.47000000000E+01 0. -1.
<mgrwt>
<rscale>  0 0.27482646E+03</rscale>
<asrwt>0</asrwt>
<pdfrwt beam="1">  1        1 0.17890054E-01 0.27482646E+03</pdfrwt>
<pdfrwt beam="2">  1       -1 0.24981511E-01 0.27482646E+03</pdfrwt>
<totfact> 0.40937737E+03</totfact>
</mgrwt>
</event>
<event>
 9    1  0.2117506E-002  0.2751962E+03  0.7818608E-02  0.1098342E+00
          1   -1    0    0  501    0  0.00000000000E+00  0.00000000000E+00  0.10847665104E+02  0.10847665104E+02  0.00000000000E+00 0. -1.
         -1   -1    0    0    0  501 -0.00000000000E+00 -0.00000000000E+00 -0.17453738806E+04  0.17453738806E+04  0.00000000000E+00 0. -1.
         36    2    1    2    0    0  0.00000000000E+00  0.17763568394E-14 -0.17345262155E+04  0.17562215457E+04  0.27519615795E+03 0.  0.
         25    2    3    3    0    0 -0.17782686809E+02  0.38371034696E+00 -0.52249491787E+03  0.53766155174E+03  0.12554932831E+03 0.  0.
         25    2    3    3    0    0  0.17782686809E+02 -0.38371034696E+00 -0.12120312976E+04  0.12185599940E+04  0.12470854531E+03 0.  0.
          5    1    4    4  502    0 -0.68345584287E+02  0.90657893273E+01 -0.37782199950E+03  0.38408965195E+03  0.47000000000E+01 0. -1.
         -5    1    4    4    0  502  0.50562897478E+02 -0.86820789803E+01 -0.14467291836E+03  0.15357189979E+03  0.47000000000E+01 0. -1.
          5    1    5    5  503    0 -0.30630614445E+02 -0.70985675090E+01 -0.10151609078E+04  0.10156585956E+04  0.47000000000E+01 0. -1.
         -5    1    5    5    0  503  0.48413301254E+02  0.67148571621E+01 -0.19687038989E+03  0.20290139837E+03  0.47000000000E+01 0. -1.
<mgrwt>
<rscale>  0 0.27519616E+03</rscale>
<asrwt>0</asrwt>
<pdfrwt beam="1">  1        1 0.16688724E-02 0.27519616E+03</pdfrwt>
<pdfrwt beam="2">  1       -1 0.26851892E+00 0.27519616E+03</pdfrwt>
<totfact> 0.47484095E+02</totfact>
</mgrwt>
</event>
<event>
 9    1  0.2117506E-002  0.2748689E+03  0.7818608E-02  0.1098525E+00
          2   -1    0    0  501    0  0.00000000000E+00  0.00000000000E+00  0.95003505567E+02  0.95003505567E+02  0.00000000000E+00 0. -1.
         -2   -1    0    0    0  501 -0.00000000000E+00 -0.00000000000E+00 -0.19881606665E+03  0.19881606665E+03  0.00000000000E+00 0. -1.
         36    2    1    2    0    0 -0.35527136788E-14  0.00000000000E+00 -0.10381256108E+03  0.29381957221E+03  0.27486886542E+03 0.  0.
         25    2    3    3    0    0 -0.23720175311E+02  0.24289803015E+02 -0.71042776956E+02  0.15445868444E+03  0.13288253382E+03 0.  0.
         25    2    3    3    0    0  0.23720175311E+02 -0.24289803015E+02 -0.32769784122E+02  0.13936088777E+03  0.13112954298E+03 0.  0.
          5    1    4    4  502    0 -0.66703858558E+02  0.14194424067E+01  0.15746230510E+01  0.66902832533E+02  0.47000000000E+01 0. -1.
         -5    1    4    4    0  502  0.42983683247E+02  0.22870360608E+02 -0.72617400007E+02  0.87555851909E+02  0.47000000000E+01 0. -1.
          5    1    5    5  503    0  0.12518613003E+02 -0.75267279743E+02 -0.40299755137E+02  0.86417818391E+02  0.47000000000E+01 0. -1.
         -5    1    5    5    0  503  0.11201562308E+02  0.50977476728E+02  0.75299710148E+01  0.52943069378E+02  0.47000000000E+01 0. -1.
<mgrwt>
<rscale>  0 0.27486887E+03</rscale>
<asrwt>0</asrwt>
<pdfrwt beam="1">  1        2 0.14615924E-01 0.27486887E+03</pdfrwt>
<pdfrwt beam="2">  1       -2 0.30587087E-01 0.27486887E+03</pdfrwt>
<totfact> 0.39457717E+03</totfact>
</mgrwt>
</event>
<event>
 9    1  0.2117506E-002  0.2770206E+03  0.7818608E-02  0.1097327E+00
          2   -1    0    0  501    0  0.00000000000E+00  0.00000000000E+00  0.11047619674E+03  0.11047619674E+03  0.00000000000E+00 0.  1.
         -2   -1    0    0    0  501 -0.00000000000E+00 -0.00000000000E+00 -0.17365825196E+03  0.17365825196E+03  0.00000000000E+00 0.  1.
         36    2    1    2    0    0  0.71054273576E-14  0.00000000000E+00 -0.63182055220E+02  0.28413444871E+03  0.27702060003E+03 0.  0.
         25    2    3    3    0    0 -0.51646535839E+02  0.24869694767E+02 -0.16605927838E+01  0.13486709333E+03  0.12206764073E+03 0.  0.
         25    2    3    3    0    0  0.51646535839E+02 -0.24869694767E+02 -0.61521462436E+02  0.14926735538E+03  0.12332877466E+03 0.  0.
          5    1    4    4  502    0 -0.84275042605E+02  0.45426813600E+02  0.17314100763E+01  0.95869525819E+02  0.47000000000E+01 0. -1.
         -5    1    4    4    0  502  0.32628506766E+02 -0.20557118833E+02 -0.33920028601E+01  0.38997567512E+02  0.47000000000E+01 0. -1.
          5    1    5    5  503    0  0.15863951997E+02 -0.21495113343E+02 -0.95686179899E+02  0.99456723726E+02  0.47000000000E+01 0. -1.
         -5    1    5    5    0  503  0.35782583842E+02 -0.33745814240E+01  0.34164717463E+02  0.49810631651E+02  0.47000000000E+01 0. -1.
<mgrwt>
<rscale>  0 0.27702060E+03</rscale>
<asrwt>0</asrwt>
<pdfrwt beam="1">  1        2 0.16996338E-01 0.27702060E+03</pdfrwt>
<pdfrwt beam="2">  1       -2 0.26716654E-01 0.27702060E+03</pdfrwt>
<totfact> 0.42160098E+03</totfact>
</mgrwt>
</event>
<event>
 9    1  0.2117506E-002  0.2752204E+03  0.7818608E-02  0.1098328E+00
         -2   -1    0    0    0  501 -0.00000000000E+00  0.00000000000E+00  0.14420872951E+02  0.14420872951E+02  0.00000000000E+00 0. -1.
          2   -1    0    0  501    0  0.00000000000E+00 -0.00000000000E+00 -0.13131357081E+04  0.13131357081E+04  0.00000000000E+00 0. -1.
         36    2    1    2    0    0  0.35527136788E-14  0.00000000000E+00 -0.12987148352E+04  0.13275565811E+04  0.27522037145E+03 0.  0.
         25    2    3    3    0    0 -0.30853361110E+02 -0.40477597800E+02 -0.82744696907E+03  0.83759404189E+03  0.11960320463E+03 0.  0.
         25    2    3    3    0    0  0.30853361110E+02  0.40477597800E+02 -0.47126786612E+03  0.48996253921E+03  0.12401420231E+03 0.  0.
          5    1    4    4  502    0 -0.59987904239E+02 -0.43945975599E+02 -0.29314063543E+03  0.30246209608E+03  0.47000000000E+01 0. -1.
         -5    1    4    4    0  502  0.29134543129E+02  0.34683777985E+01 -0.53430633364E+03  0.53513194580E+03  0.47000000000E+01 0. -1.
          5    1    5    5  503    0  0.69184066711E+02  0.58851915220E+02 -0.33626451782E+03  0.34834738259E+03  0.47000000000E+01 0.  1.
         -5    1    5    5    0  503 -0.38330705600E+02 -0.18374317420E+02 -0.13500334830E+03  0.14161515662E+03  0.47000000000E+01 0.  1.
<mgrwt>
<rscale>  0 0.27522037E+03</rscale>
<asrwt>0</asrwt>
<pdfrwt beam="1">  1        2 0.20202096E+00 0.27522037E+03</pdfrwt>
<pdfrwt beam="2">  1       -2 0.22185949E-02 0.27522037E+03</pdfrwt>
<totfact> 0.11436044E+04</totfact>
</mgrwt>
</event>
<event>
 9    1  0.2117506E-002  0.2745302E+03  0.7818608E-02  0.1098715E+00
         -1   -1    0    0    0  501 -0.00000000000E+00  0.00000000000E+00  0.26385442756E+02  0.26385442756E+02  0.00000000000E+00 0.  1.
          1   -1    0    0  501    0  0.00000000000E+00 -0.00000000000E+00 -0.71409466956E+03  0.71409466956E+03  0.00000000000E+00 0.  1.
         36    2    1    2    0    0  0.35527136788E-14  0.14210854715E-13 -0.68770922681E+03  0.74048011232E+03  0.27453017339E+03 0.  0.
         25    2    3    3    0    0  0.16001691364E+02  0.58382095141E+02 -0.33728377527E+03  0.36546031320E+03  0.12702902148E+03 0.  0.
         25    2    3    3    0    0 -0.16001691364E+02 -0.58382095141E+02 -0.35042545153E+03  0.37501979912E+03  0.11906859154E+03 0.  0.
          5    1    4    4  502    0  0.18662125317E+02  0.11442369657E+02 -0.31018403179E+03  0.31099103897E+03  0.47000000000E+01 0. -1.
         -5    1    4    4    0  502 -0.26604339533E+01  0.46939725484E+02 -0.27099743483E+02  0.54469274221E+02  0.47000000000E+01 0. -1.
          5    1    5    5  503    0  0.44729931085E+02 -0.56475790672E+02 -0.17488399368E+03  0.18920037768E+03  0.47000000000E+01 0.  1.
         -5    1    5    5    0  503 -0.60731622449E+02 -0.19063044688E+01 -0.17554145785E+03  0.18581942145E+03  0.47000000000E+01 0.  1.
<mgrwt>
<rscale>  0 0.27453017E+03</rscale>
<asrwt>0</asrwt>
<pdfrwt beam="1">  1        1 0.10986072E+00 0.27453017E+03</pdfrwt>
<pdfrwt beam="2">  1       -1 0.40592987E-02 0.27453017E+03</pdfrwt>
<totfact> 0.65673234E+03</totfact>
</mgrwt>
</event>
<event>
 9    1  0.2117506E-002  0.2751012E+03  0.7818608E-02  0.1098395E+00
         -2   -1    0    0    0  501 -0.00000000000E+00  0.00000000000E+00  0.24931501237E+02  0.24931501237E+02  0.00000000000E+00 0. -1.
          2   -1    0    0  501    0  0.00000000000E+00 -0.00000000000E+00 -0.75888605451E+03  0.75888605451E+03  0.00000000000E+00 0. -1.
         36    2    1    2    0    0 -0.71054273576E-14  0.00000000000E+00 -0.73395455327E+03  0.78381755574E+03  0.27510120760E+03 0.  0.
         25    2    3    3    0    0  0.32265560890E+02 -0.29405730968E+02 -0.37608112707E+03  0.40237057463E+03  0.13623252827E+03 0.  0.
         25    2    3    3    0    0 -0.32265560890E+02  0.29405730968E+02 -0.35787342620E+03  0.38144698111E+03  0.12458991446E+03 0.  0.
          5    1    4    4  502    0  0.58552497265E+02 -0.11329486879E+02 -0.36246243800E+03  0.36736611325E+03  0.47000000000E+01 0.  1.
         -5    1    4    4    0  502 -0.26286936376E+02 -0.18076244089E+02 -0.13618689072E+02  0.35004461379E+02  0.47000000000E+01 0.  1.
          5    1    5    5  503    0 -0.76856956582E+02  0.17623072939E+02 -0.16295593581E+03  0.18109194210E+03  0.47000000000E+01 0. -1.
         -5    1    5    5    0  503  0.44591395692E+02  0.11782658029E+02 -0.19491749039E+03  0.20035503902E+03  0.47000000000E+01 0. -1.
<mgrwt>
<rscale>  0 0.27510121E+03</rscale>
<asrwt>0</asrwt>
<pdfrwt beam="1">  1        2 0.11675171E+00 0.27510121E+03</pdfrwt>
<pdfrwt beam="2">  1       -2 0.38356154E-02 0.27510121E+03</pdfrwt>
<totfact> 0.11068905E+04</totfact>
</mgrwt>
</event>
<event>
 9    1  0.2117506E-002  0.2750809E+03  0.7818608E-02  0.1098406E+00
          3   -1    0    0  501    0  0.00000000000E+00  0.00000000000E+00  0.85486113460E+02  0.85486113460E+02  0.00000000000E+00 0. -1.
         -3   -1    0    0    0  501 -0.00000000000E+00 -0.00000000000E+00 -0.22129186702E+03  0.22129186702E+03  0.00000000000E+00 0. -1.
         36    2    1    2    0    0 -0.71054273576E-14  0.00000000000E+00 -0.13580575356E+03  0.30677798048E+03  0.27508094555E+03 0.  0.
         25    2    3    3    0    0  0.43632471987E+02 -0.55955028122E+01 -0.23941701751E+02  0.13524469674E+03  0.12562969653E+03 0.  0.
         25    2    3    3    0    0 -0.43632471987E+02  0.55955028122E+01 -0.11186405180E+03  0.17153328373E+03  0.12237237874E+03 0.  0.
          5    1    4    4  502    0  0.65616629339E+02  0.40046280171E+02  0.41494997003E+01  0.77126875660E+02  0.47000000000E+01 0.  1.
         -5    1    4    4    0  502 -0.21984157351E+02 -0.45641782983E+02 -0.28091201452E+02  0.58117821082E+02  0.47000000000E+01 0.  1.
          5    1    5    5  503    0 -0.68857939493E+02 -0.32608679226E+02 -0.96444291932E+02  0.12299728956E+03  0.47000000000E+01 0. -1.
         -5    1    5    5    0  503  0.25225467506E+02  0.38204182038E+02 -0.15419759873E+02  0.48535994176E+02  0.47000000000E+01 0. -1.
<mgrwt>
<rscale>  0 0.27508095E+03</rscale>
<asrwt>0</asrwt>
<pdfrwt beam="1">  1        3 0.13151710E-01 0.27508095E+03</pdfrwt>
<pdfrwt beam="2">  1       -3 0.34044902E-01 0.27508095E+03</pdfrwt>
<totfact> 0.10008436E+03</totfact>
</mgrwt>
</event>
<event>
 9    1  0.2117506E-002  0.2753489E+03  0.7818608E-02  0.1098257E+00
          2   -1    0    0  501    0  0.00000000000E+00  0.00000000000E+00  0.30077868501E+03  0.30077868501E+03  0.00000000000E+00 0.  1.
         -2   -1    0    0    0  501 -0.00000000000E+00 -0.00000000000E+00 -0.63017265841E+02  0.63017265841E+02  0.00000000000E+00 0.  1.
         36    2    1    2    0    0  0.00000000000E+00  0.53290705182E-14  0.23776141916E+03  0.36379595085E+03  0.27534887218E+03 0.  0.
         25    2    3    3    0    0  0.30793290669E+02 -0.99563640786E+01  0.17262046315E+03  0.21833142843E+03  0.12970517493E+03 0.  0.
         25    2    3    3    0    0 -0.30793290669E+02  0.99563640786E+01  0.65140956017E+02  0.14546452242E+03  0.12597312093E+03 0.  0.
          5    1    4    4  502    0 -0.27651560833E+02  0.34549687816E+02  0.11960573186E+03  0.12761626401E+03  0.47000000000E+01 0.  1.
         -5    1    4    4    0  502  0.58444851502E+02 -0.44506051894E+02  0.53014731286E+02  0.90715164419E+02  0.47000000000E+01 0.  1.
          5    1    5    5  503    0  0.29389472666E+02  0.66728274717E+00  0.77613748315E+02  0.83127434084E+02  0.47000000000E+01 0.  1.
         -5    1    5    5    0  503 -0.60182763335E+02  0.92890813314E+01 -0.12472792298E+02  0.62337088337E+02  0.47000000000E+01 0.  1.
<mgrwt>
<rscale>  0 0.27534887E+03</rscale>
<asrwt>0</asrwt>
<pdfrwt beam="1">  1        2 0.46273643E-01 0.27534887E+03</pdfrwt>
<pdfrwt beam="2">  1       -2 0.96949641E-02 0.27534887E+03</pdfrwt>
<totfact> 0.75461675E+03</totfact>
</mgrwt>
</event>
<event>
 9    1  0.2117506E-002  0.2740755E+03  0.7818608E-02  0.1098969E+00
          2   -1    0    0  501    0  0.00000000000E+00  0.00000000000E+00  0.69310996481E+03  0.69310996481E+03  0.00000000000E+00 0. -1.
         -2   -1    0    0    0  501 -0.00000000000E+00 -0.00000000000E+00 -0.27094330889E+02  0.27094330889E+02  0.00000000000E+00 0. -1.
         36    2    1    2    0    0  0.00000000000E+00  0.00000000000E+00  0.66601563392E+03  0.72020429570E+03  0.27407554236E+03 0.  0.
         25    2    3    3    0    0 -0.12900094190E+02 -0.44256175636E+02  0.39004138805E+03  0.41182327413E+03  0.12385920723E+03 0.  0.
         25    2    3    3    0    0  0.12900094190E+02  0.44256175636E+02  0.27597424588E+03  0.30838102157E+03  0.12966128399E+03 0.  0.
          5    1    4    4  502    0 -0.63241613505E+02 -0.34920691927E+01  0.14457911708E+03  0.15791424040E+03  0.47000000000E+01 0.  1.
         -5    1    4    4    0  502  0.50341519315E+02 -0.40764106443E+02  0.24546227097E+03  0.25390903373E+03  0.47000000000E+01 0.  1.
          5    1    5    5  503    0  0.52937640794E+02 -0.12509062485E+01  0.45343016481E+02  0.69871580223E+02  0.47000000000E+01 0. -1.
         -5    1    5    5    0  503 -0.40037546604E+02  0.45507081884E+02  0.23063122940E+03  0.23850944135E+03  0.47000000000E+01 0. -1.
<mgrwt>
<rscale>  0 0.27407554E+03</rscale>
<asrwt>0</asrwt>
<pdfrwt beam="1">  1        2 0.10663229E+00 0.27407554E+03</pdfrwt>
<pdfrwt beam="2">  1       -2 0.41683591E-02 0.27407554E+03</pdfrwt>
<totfact> 0.10915740E+04</totfact>
</mgrwt>
</event>
<event>
 9    1  0.2117506E-002  0.2757380E+03  0.7818608E-02  0.1098040E+00
          2   -1    0    0  501    0  0.00000000000E+00  0.00000000000E+00  0.24099176067E+03  0.24099176067E+03  0.00000000000E+00 0. -1.
         -2   -1    0    0    0  501 -0.00000000000E+00 -0.00000000000E+00 -0.78873504031E+02  0.78873504031E+02  0.00000000000E+00 0. -1.
         36    2    1    2    0    0  0.00000000000E+00 -0.71054273576E-14  0.16211825664E+03  0.31986526470E+03  0.27573802499E+03 0.  0.
         25    2    3    3    0    0  0.33902568394E+02 -0.36203849340E+02  0.42563409256E+02  0.14157318868E+03  0.12558352239E+03 0.  0.
         25    2    3    3    0    0 -0.33902568394E+02  0.36203849340E+02  0.11955484738E+03  0.17829207601E+03  0.12261565963E+03 0.  0.
          5    1    4    4  502    0  0.19500146458E+02 -0.83227062065E+02  0.27811841397E+02  0.90014377150E+02  0.47000000000E+01 0. -1.
         -5    1    4    4    0  502  0.14402421936E+02  0.47023212725E+02  0.14751567859E+02  0.51558811535E+02  0.47000000000E+01 0. -1.
          5    1    5    5  503    0 -0.13901457549E+02 -0.42844751730E+02  0.19963960734E+02  0.49493161153E+02  0.47000000000E+01 0. -1.
         -5    1    5    5    0  503 -0.20001110845E+02  0.79048601070E+02  0.99590886648E+02  0.12879891486E+03  0.47000000000E+01 0. -1.
<mgrwt>
<rscale>  0 0.27573802E+03</rscale>
<asrwt>0</asrwt>
<pdfrwt beam="1">  1        2 0.37075655E-01 0.27573802E+03</pdfrwt>
<pdfrwt beam="2">  1       -2 0.12134385E-01 0.27573802E+03</pdfrwt>
<totfact> 0.66904997E+03</totfact>
</mgrwt>
</event>
<event>
 9    1  0.2117506E-002  0.2773262E+03  0.7818608E-02  0.1097158E+00
         -1   -1    0    0    0  501 -0.00000000000E+00  0.00000000000E+00  0.18787819616E+02  0.18787819616E+02  0.00000000000E+00 0. -1.
          1   -1    0    0  501    0  0.00000000000E+00 -0.00000000000E+00 -0.10234002743E+04  0.10234002743E+04  0.00000000000E+00 0. -1.
         36    2    1    2    0    0  0.35527136788E-14  0.17763568394E-14 -0.10046124546E+04  0.10421880939E+04  0.27732623206E+03 0.  0.
         25    2    3    3    0    0  0.21577369981E+02  0.10043397539E+02 -0.71135936715E+03  0.72258177751E+03  0.12460266140E+03 0.  0.
         25    2    3    3    0    0 -0.21577369981E+02 -0.10043397539E+02 -0.29325308749E+03  0.31960631636E+03  0.12483737985E+03 0.  0.
          5    1    4    4  502    0 -0.79688403189E+01  0.18240905271E+02 -0.14593075860E+02  0.25125304062E+02  0.47000000000E+01 0. -1.
         -5    1    4    4    0  502  0.29546210300E+02 -0.81975077320E+01 -0.69676629129E+03  0.69745647345E+03  0.47000000000E+01 0. -1.
          5    1    5    5  503    0  0.22082725703E+02  0.24032155138E+02 -0.24123884460E+03  0.24348195293E+03  0.47000000000E+01 0. -1.
         -5    1    5    5    0  503 -0.43660095684E+02 -0.34075552677E+02 -0.52014242885E+02  0.76124363435E+02  0.47000000000E+01 0. -1.
<mgrwt>
<rscale>  0 0.27732623E+03</rscale>
<asrwt>0</asrwt>
<pdfrwt beam="1">  1        1 0.15744622E+00 0.27732623E+03</pdfrwt>
<pdfrwt beam="2">  1       -1 0.28904334E-02 0.27732623E+03</pdfrwt>
<totfact> 0.61192063E+03</totfact>
</mgrwt>
</event>
<event>
 9    1  0.2117506E-002  0.2752044E+03  0.7818608E-02  0.1098337E+00
          1   -1    0    0  501    0  0.00000000000E+00  0.00000000000E+00  0.12980095648E+02  0.12980095648E+02  0.00000000000E+00 0.  1.
         -1   -1    0    0    0  501 -0.00000000000E+00 -0.00000000000E+00 -0.14587235384E+04  0.14587235384E+04  0.00000000000E+00 0.  1.
         36    2    1    2    0    0 -0.71054273576E-14  0.00000000000E+00 -0.14457434427E+04  0.14717036340E+04  0.27520444075E+03 0.  0.
         25    2    3    3    0    0  0.55293652261E+02  0.33758366321E+02 -0.65273300052E+03  0.66692627903E+03  0.12055403938E+03 0.  0.
         25    2    3    3    0    0 -0.55293652261E+02 -0.33758366321E+02 -0.79301044219E+03  0.80477735498E+03  0.12084707026E+03 0.  0.
          5    1    4    4  502    0  0.95805761117E+00  0.63711945127E+02 -0.20053334768E+03  0.21046577717E+03  0.47000000000E+01 0.  1.
         -5    1    4    4    0  502  0.54335594650E+02 -0.29953578806E+02 -0.45219965284E+03  0.45646050186E+03  0.47000000000E+01 0.  1.
          5    1    5    5  503    0 -0.77096351613E+02 -0.55940412488E+02 -0.70277066524E+03  0.70921215098E+03  0.47000000000E+01 0. -1.
         -5    1    5    5    0  503  0.21802699351E+02  0.22182046166E+02 -0.90239776955E+02  0.95565204003E+02  0.47000000000E+01 0. -1.
<mgrwt>
<rscale>  0 0.27520444E+03</rscale>
<asrwt>0</asrwt>
<pdfrwt beam="1">  1        1 0.19969391E-02 0.27520444E+03</pdfrwt>
<pdfrwt beam="2">  1       -1 0.22441886E+00 0.27520444E+03</pdfrwt>
<totfact> 0.69998534E+02</totfact>
</mgrwt>
</event>
<event>
 9    1  0.2117506E-002  0.2747386E+03  0.7818608E-02  0.1098598E+00
         -1   -1    0    0    0  501 -0.00000000000E+00  0.00000000000E+00  0.46777015306E+02  0.46777015306E+02  0.00000000000E+00 0. -1.
          1   -1    0    0  501    0  0.00000000000E+00 -0.00000000000E+00 -0.40341018061E+03  0.40341018061E+03  0.00000000000E+00 0. -1.
         36    2    1    2    0    0  0.00000000000E+00  0.00000000000E+00 -0.35663316531E+03  0.45018719592E+03  0.27473859716E+03 0.  0.
         25    2    3    3    0    0 -0.34221107246E+02 -0.28693614407E+02 -0.12731603526E+03  0.18333124328E+03  0.12412318172E+03 0.  0.
         25    2    3    3    0    0  0.34221107246E+02  0.28693614407E+02 -0.22931713005E+03  0.26685595264E+03  0.12896257456E+03 0.  0.
          5    1    4    4  502    0 -0.21501624272E+02  0.24590866446E+02 -0.12392492945E+03  0.12824394215E+03  0.47000000000E+01 0.  1.
         -5    1    4    4    0  502 -0.12719482974E+02 -0.53284480853E+02 -0.33911058065E+01  0.55087301127E+02  0.47000000000E+01 0.  1.
          5    1    5    5  503    0  0.66542385654E+01 -0.25355214917E+02 -0.19536255810E+03  0.19716943202E+03  0.47000000000E+01 0. -1.
         -5    1    5    5    0  503  0.27566868681E+02  0.54048829325E+02 -0.33954571948E+02  0.69686520622E+02  0.47000000000E+01 0. -1.
<mgrwt>
<rscale>  0 0.27473860E+03</rscale>
<asrwt>0</asrwt>
<pdfrwt beam="1">  1        1 0.62063105E-01 0.27473860E+03</pdfrwt>
<pdfrwt beam="2">  1       -1 0.71964638E-02 0.27473860E+03</pdfrwt>
<totfact> 0.60342527E+03</totfact>
</mgrwt>
</event>
<event>
 9    1  0.2117506E-002  0.2747661E+03  0.7818608E-02  0.1098582E+00
         -2   -1    0    0    0  501 -0.00000000000E+00  0.00000000000E+00  0.81631164935E+02  0.81631164935E+02  0.00000000000E+00 0. -1.
          2   -1    0    0  501    0  0.00000000000E+00 -0.00000000000E+00 -0.23121189289E+03  0.23121189289E+03  0.00000000000E+00 0. -1.
         36    2    1    2    0    0  0.00000000000E+00  0.00000000000E+00 -0.14958072796E+03  0.31284305783E+03  0.27476605441E+03 0.  0.
         25    2    3    3    0    0  0.51860233633E+02  0.98125032179E+01 -0.44088645219E+02  0.14106579756E+03  0.12316647901E+03 0.  0.
         25    2    3    3    0    0 -0.51860233633E+02 -0.98125032179E+01 -0.10549208274E+03  0.17177726027E+03  0.12487224902E+03 0.  0.
          5    1    4    4  502    0  0.39118597315E+02  0.40455624613E+02 -0.76068824807E+02  0.94739001083E+02  0.47000000000E+01 0.  1.
         -5    1    4    4    0  502  0.12741636318E+02 -0.30643121395E+02  0.31980179588E+02  0.46326796472E+02  0.47000000000E+01 0.  1.
          5    1    5    5  503    0 -0.64553589657E+02  0.17672754300E+02 -0.56397610616E+01  0.67330446954E+02  0.47000000000E+01 0. -1.
         -5    1    5    5    0  503  0.12693356023E+02 -0.27485257518E+02 -0.99852321679E+02  0.10444681332E+03  0.47000000000E+01 0. -1.
<mgrwt>
<rscale>  0 0.27476605E+03</rscale>
<asrwt>0</asrwt>
<pdfrwt beam="1">  1        2 0.35571060E-01 0.27476605E+03</pdfrwt>
<pdfrwt beam="2">  1       -2 0.12558641E-01 0.27476605E+03</pdfrwt>
<totfact> 0.66181433E+03</totfact>
</mgrwt>
</event>
<event>
 9    1  0.2117506E-002  0.2751664E+03  0.7818608E-02  0.1098359E+00
         -2   -1    0    0    0  501 -0.00000000000E+00  0.00000000000E+00  0.14447500197E+02  0.14447500197E+02  0.00000000000E+00 0. -1.
          2   -1    0    0  501    0  0.00000000000E+00 -0.00000000000E+00 -0.13102014364E+04  0.13102014364E+04  0.00000000000E+00 0. -1.
         36    2    1    2    0    0  0.14210854715E-13  0.00000000000E+00 -0.12957539362E+04  0.13246489366E+04  0.27516638973E+03 0.  0.
         25    2    3    3    0    0 -0.45799331139E+02  0.79462920045E+01 -0.74999127361E+03  0.76181649947E+03  0.12536644725E+03 0.  0.
         25    2    3    3    0    0  0.45799331139E+02 -0.79462920045E+01 -0.54576266255E+03  0.56283243708E+03  0.12947102418E+03 0.  0.
          5    1    4    4  502    0 -0.71890390163E+02 -0.25081313867E+02 -0.28951101182E+03  0.29939274618E+03  0.47000000000E+01 0.  1.
         -5    1    4    4    0  502  0.26091059024E+02  0.33027605871E+02 -0.46048026179E+03  0.46242375329E+03  0.47000000000E+01 0.  1.
          5    1    5    5  503    0  0.76557601777E+02 -0.39297153558E+02 -0.26623903313E+03  0.27984039278E+03  0.47000000000E+01 0.  1.
         -5    1    5    5    0  503 -0.30758270637E+02  0.31350861553E+02 -0.27952362942E+03  0.28299204430E+03  0.47000000000E+01 0.  1.
<mgrwt>
<rscale>  0 0.27516639E+03</rscale>
<asrwt>0</asrwt>
<pdfrwt beam="1">  1        2 0.20156950E+00 0.27516639E+03</pdfrwt>
<pdfrwt beam="2">  1       -2 0.22226918E-02 0.27516639E+03</pdfrwt>
<totfact> 0.11447554E+04</totfact>
</mgrwt>
</event>
<event>
 9    1  0.2117506E-002  0.2750829E+03  0.7818608E-02  0.1098405E+00
         -2   -1    0    0    0  501 -0.00000000000E+00  0.00000000000E+00  0.10037842728E+03  0.10037842728E+03  0.00000000000E+00 0. -1.
          2   -1    0    0  501    0  0.00000000000E+00 -0.00000000000E+00 -0.18846336231E+03  0.18846336231E+03  0.00000000000E+00 0. -1.
         36    2    1    2    0    0  0.71054273576E-14 -0.53290705182E-14 -0.88084935029E+02  0.28884178959E+03  0.27508293956E+03 0.  0.
         25    2    3    3    0    0 -0.39830711002E+02  0.13873140614E+02  0.14982131695E+02  0.12402848450E+03  0.11567044189E+03 0.  0.
         25    2    3    3    0    0  0.39830711002E+02 -0.13873140614E+02 -0.10306706672E+03  0.16481330510E+03  0.12149755440E+03 0.  0.
          5    1    4    4  502    0 -0.27451477762E+02  0.28524428436E+02  0.61614379971E+02  0.73386977510E+02  0.47000000000E+01 0.  1.
         -5    1    4    4    0  502 -0.12379233240E+02 -0.14651287822E+02 -0.46632248276E+02  0.50641506985E+02  0.47000000000E+01 0.  1.
          5    1    5    5  503    0  0.80048167163E+02 -0.26046802836E+02 -0.81853680033E+02  0.11750855262E+03  0.47000000000E+01 0. -1.
         -5    1    5    5    0  503 -0.40217456161E+02  0.12173662223E+02 -0.21213386691E+02  0.47304752477E+02  0.47000000000E+01 0. -1.
<mgrwt>
<rscale>  0 0.27508294E+03</rscale>
<asrwt>0</asrwt>
<pdfrwt beam="1">  1        2 0.28994363E-01 0.27508294E+03</pdfrwt>
<pdfrwt beam="2">  1       -2 0.15442835E-01 0.27508294E+03</pdfrwt>
<totfact> 0.58956797E+03</totfact>
</mgrwt>
</event>
<event>
 9    1  0.2117506E-002  0.2751010E+03  0.7818608E-02  0.1098395E+00
         -2   -1    0    0    0  501 -0.00000000000E+00  0.00000000000E+00  0.27604704163E+02  0.27604704163E+02  0.00000000000E+00 0. -1.
          2   -1    0    0  501    0  0.00000000000E+00 -0.00000000000E+00 -0.68539566820E+03  0.68539566820E+03  0.00000000000E+00 0. -1.
         36    2    1    2    0    0  0.14210854715E-13  0.35527136788E-14 -0.65779096404E+03  0.71300037236E+03  0.27510103348E+03 0.  0.
         25    2    3    3    0    0  0.58813279258E+02  0.20481598995E+02 -0.35517762283E+03  0.38208519059E+03  0.12633072227E+03 0.  0.
         25    2    3    3    0    0 -0.58813279258E+02 -0.20481598995E+02 -0.30261334120E+03  0.33091518178E+03  0.11853913085E+03 0.  0.
          5    1    4    4  502    0  0.84662598375E+01  0.57887996223E+02 -0.26939298333E+03  0.27571247185E+03  0.47000000000E+01 0. -1.
         -5    1    4    4    0  502  0.50347019420E+02 -0.37406397229E+02 -0.85784639502E+02  0.10637271874E+03  0.47000000000E+01 0. -1.
          5    1    5    5  503    0 -0.50156894034E+02 -0.33208013594E+02 -0.30806936096E+03  0.31392245435E+03  0.47000000000E+01 0. -1.
         -5    1    5    5    0  503 -0.86563852233E+01  0.12726414599E+02  0.54560197561E+01  0.16992727422E+02  0.47000000000E+01 0. -1.
<mgrwt>
<rscale>  0 0.27510103E+03</rscale>
<asrwt>0</asrwt>
<pdfrwt beam="1">  1        2 0.10544550E+00 0.27510103E+03</pdfrwt>
<pdfrwt beam="2">  1       -2 0.42468772E-02 0.27510103E+03</pdfrwt>
<totfact> 0.10758844E+04</totfact>
</mgrwt>
</event>
<event>
 9    1  0.2117506E-002  0.2750482E+03  0.7818608E-02  0.1098425E+00
          2   -1    0    0  501    0  0.00000000000E+00  0.00000000000E+00  0.18331908663E+03  0.18331908663E+03  0.00000000000E+00 0.  1.
         -2   -1    0    0    0  501 -0.00000000000E+00 -0.00000000000E+00 -0.10316919253E+03  0.10316919253E+03  0.00000000000E+00 0.  1.
         36    2    1    2    0    0  0.00000000000E+00  0.00000000000E+00  0.80149894095E+02  0.28648827916E+03  0.27504822954E+03 0.  0.
         25    2    3    3    0    0 -0.14224875491E+02 -0.56970238923E+02  0.48691872867E+02  0.14632935472E+03  0.12487364159E+03 0.  0.
         25    2    3    3    0    0  0.14224875491E+02  0.56970238923E+02  0.31458021228E+02  0.14015892444E+03  0.12331651064E+03 0.  0.
          5    1    4    4  502    0 -0.26366432204E+02  0.26526675905E+02 -0.14937175593E+02  0.40547040539E+02  0.47000000000E+01 0. -1.
         -5    1    4    4    0  502  0.12141556713E+02 -0.83496914829E+02  0.63629048460E+02  0.10578231418E+03  0.47000000000E+01 0. -1.
          5    1    5    5  503    0 -0.20208726234E+02  0.84588724269E+02  0.38476929099E+02  0.95216642255E+02  0.47000000000E+01 0.  1.
         -5    1    5    5    0  503  0.34433601725E+02 -0.27618485346E+02 -0.70189078709E+01  0.44942282188E+02  0.47000000000E+01 0.  1.
<mgrwt>
<rscale>  0 0.27504823E+03</rscale>
<asrwt>0</asrwt>
<pdfrwt beam="1">  1        2 0.28202936E-01 0.27504823E+03</pdfrwt>
<pdfrwt beam="2">  1       -2 0.15872184E-01 0.27504823E+03</pdfrwt>
<totfact> 0.58077553E+03</totfact>
</mgrwt>
</event>
<event>
 9    1  0.2117506E-002  0.2752034E+03  0.7818608E-02  0.1098338E+00
          2   -1    0    0  501    0  0.00000000000E+00  0.00000000000E+00  0.46226294663E+04  0.46226294663E+04  0.00000000000E+00 0.  1.
         -2   -1    0    0    0  501 -0.00000000000E+00 -0.00000000000E+00 -0.40959879165E+01  0.40959879165E+01  0.00000000000E+00 0.  1.
         36    2    1    2    0    0 -0.35527136788E-14  0.71054273576E-14  0.46185334784E+04  0.46267254542E+04  0.27520344792E+03 0.  0.
         25    2    3    3    0    0  0.27271032295E+02 -0.58389229232E+02  0.22273877895E+04  0.22316469383E+04  0.12181412535E+03 0.  0.
         25    2    3    3    0    0 -0.27271032295E+02  0.58389229232E+02  0.23911456889E+04  0.23950785159E+04  0.12112134670E+03 0.  0.
          5    1    4    4  502    0  0.35726467311E+02  0.16546527149E+02  0.27997417258E+03  0.28276809463E+03  0.47000000000E+01 0.  1.
         -5    1    4    4    0  502 -0.84554350159E+01 -0.74935756382E+02  0.19474136169E+04  0.19488788436E+04  0.47000000000E+01 0.  1.
          5    1    5    5  503    0 -0.49601894114E+02 -0.13561894652E+00  0.17832458520E+04  0.17839417661E+04  0.47000000000E+01 0. -1.
         -5    1    5    5    0  503  0.22330861819E+02  0.58524848179E+02  0.60789983695E+03  0.61113674985E+03  0.47000000000E+01 0. -1.
<mgrwt>
<rscale>  0 0.27520345E+03</rscale>
<asrwt>0</asrwt>
<pdfrwt beam="1">  1        2 0.71116959E+00 0.27520345E+03</pdfrwt>
<pdfrwt beam="2">  1       -2 0.63015569E-03 0.27520345E+03</pdfrwt>
<totfact> 0.53977569E+02</totfact>
</mgrwt>
</event>
<event>
 9    1  0.2117506E-002  0.2746908E+03  0.7818608E-02  0.1098625E+00
         -2   -1    0    0    0  501 -0.00000000000E+00  0.00000000000E+00  0.85778299244E+01  0.85778299244E+01  0.00000000000E+00 0. -1.
          2   -1    0    0  501    0  0.00000000000E+00 -0.00000000000E+00 -0.21991302212E+04  0.21991302212E+04  0.00000000000E+00 0. -1.
         36    2    1    2    0    0 -0.26645352591E-14 -0.14210854715E-13 -0.21905523912E+04  0.22077080511E+04  0.27469084454E+03 0.  0.
         25    2    3    3    0    0  0.28816963012E+01  0.71074588178E+02 -0.12066883047E+04  0.12153916735E+04  0.12657153719E+03 0.  0.
         25    2    3    3    0    0 -0.28816963012E+01 -0.71074588178E+02 -0.98386408650E+03  0.99231637756E+03  0.10790436142E+03 0.  0.
          5    1    4    4  502    0  0.85297774381E+01  0.10607029463E+03 -0.99727825162E+03  0.10029504802E+04  0.47000000000E+01 0. -1.
         -5    1    4    4    0  502 -0.56480811370E+01 -0.34995706449E+02 -0.20941005312E+03  0.21244119336E+03  0.47000000000E+01 0. -1.
          5    1    5    5  503    0 -0.51297170778E+02 -0.19303879990E+02 -0.54119567029E+03  0.54398426729E+03  0.47000000000E+01 0. -1.
         -5    1    5    5    0  503  0.48415474476E+02 -0.51770708187E+02 -0.44266841621E+03  0.44833211027E+03  0.47000000000E+01 0. -1.
<mgrwt>
<rscale>  0 0.27469084E+03</rscale>
<asrwt>0</asrwt>
<pdfrwt beam="1">  1        2 0.33832750E+00 0.27469084E+03</pdfrwt>
<pdfrwt beam="2">  1       -2 0.13196670E-02 0.27469084E+03</pdfrwt>
<totfact> 0.82944223E+03</totfact>
</mgrwt>
</event>
<event>
 9    1  0.2117506E-002  0.2755069E+03  0.7818608E-02  0.1098169E+00
          1   -1    0    0  501    0  0.00000000000E+00  0.00000000000E+00  0.18837774430E+04  0.18837774430E+04  0.00000000000E+00 0. -1.
         -1   -1    0    0    0  501 -0.00000000000E+00 -0.00000000000E+00 -0.10073384984E+02  0.10073384984E+02  0.00000000000E+00 0. -1.
         36    2    1    2    0    0 -0.71054273576E-14 -0.35527136788E-14  0.18737040580E+04  0.18938508280E+04  0.27550691758E+03 0.  0.
         25    2    3    3    0    0 -0.50701729540E+02 -0.13737607936E+02  0.88406788093E+03  0.89428871143E+03  0.12416478586E+03 0.  0.
         25    2    3    3    0    0  0.50701729540E+02  0.13737607936E+02  0.98963617707E+03  0.99956211653E+03  0.13032756656E+03 0.  0.
          5    1    4    4  502    0 -0.65189552396E+02  0.60640177940E+01  0.84728902688E+03  0.84982776792E+03  0.47000000000E+01 0. -1.
         -5    1    4    4    0  502  0.14487822856E+02 -0.19801625730E+02  0.36778854049E+02  0.44460943510E+02  0.47000000000E+01 0. -1.
          5    1    5    5  503    0  0.60588809469E+02  0.20348931788E+02  0.98312418926E+03  0.98521081214E+03  0.47000000000E+01 0. -1.
         -5    1    5    5    0  503 -0.98870799289E+01 -0.66113238513E+01  0.65119878089E+01  0.14351304394E+02  0.47000000000E+01 0. -1.
<mgrwt>
<rscale>  0 0.27550692E+03</rscale>
<asrwt>0</asrwt>
<pdfrwt beam="1">  1        1 0.28981164E+00 0.27550692E+03</pdfrwt>
<pdfrwt beam="2">  1       -1 0.15497530E-02 0.27550692E+03</pdfrwt>
<totfact> 0.39951179E+03</totfact>
</mgrwt>
</event>
<event>
 9    1  0.2117506E-002  0.2747453E+03  0.7818608E-02  0.1098594E+00
         -1   -1    0    0    0  501 -0.00000000000E+00  0.00000000000E+00  0.40610731091E+03  0.40610731091E+03  0.00000000000E+00 0. -1.
          1   -1    0    0  501    0  0.00000000000E+00 -0.00000000000E+00 -0.46468617842E+02  0.46468617842E+02  0.00000000000E+00 0. -1.
         36    2    1    2    0    0  0.00000000000E+00  0.00000000000E+00  0.35963869306E+03  0.45257592875E+03  0.27474530339E+03 0.  0.
         25    2    3    3    0    0 -0.23784566060E+02  0.54188155728E+02  0.12250573944E+03  0.18593206447E+03  0.12673205829E+03 0.  0.
         25    2    3    3    0    0  0.23784566060E+02 -0.54188155728E+02  0.23713295362E+03  0.26664386427E+03  0.10660605451E+03 0.  0.
          5    1    4    4  502    0 -0.12431471958E+02 -0.41209963427E+02  0.44510620724E+02  0.62097406853E+02  0.47000000000E+01 0. -1.
         -5    1    4    4    0  502 -0.11353094102E+02  0.95398119156E+02  0.77995118718E+02  0.12383465762E+03  0.47000000000E+01 0. -1.
          5    1    5    5  503    0  0.52271528182E+02 -0.56852033997E+02  0.99780544391E+02  0.12626445845E+03  0.47000000000E+01 0. -1.
         -5    1    5    5    0  503 -0.28486962123E+02  0.26638782691E+01  0.13735240923E+03  0.14037940583E+03  0.47000000000E+01 0. -1.
<mgrwt>
<rscale>  0 0.27474530E+03</rscale>
<asrwt>0</asrwt>
<pdfrwt beam="1">  1        1 0.71490184E-02 0.27474530E+03</pdfrwt>
<pdfrwt beam="2">  1       -1 0.62478046E-01 0.27474530E+03</pdfrwt>
<totfact> 0.27174006E+03</totfact>
</mgrwt>
</event>
<event>
 9    1  0.2117506E-002  0.2733604E+03  0.7818608E-02  0.1099372E+00
         -2   -1    0    0    0  501 -0.00000000000E+00  0.00000000000E+00  0.61933258351E+02  0.61933258351E+02  0.00000000000E+00 0. -1.
          2   -1    0    0  501    0  0.00000000000E+00 -0.00000000000E+00 -0.30163889266E+03  0.30163889266E+03  0.00000000000E+00 0. -1.
         36    2    1    2    0    0 -0.35527136788E-14  0.00000000000E+00 -0.23970563431E+03  0.36357215101E+03  0.27336041753E+03 0.  0.
         25    2    3    3    0    0 -0.24820200933E+02  0.46820321928E+02 -0.12776675742E+03  0.18794715558E+03  0.12724623400E+03 0.  0.
         25    2    3    3    0    0  0.24820200933E+02 -0.46820321928E+02 -0.11193887689E+03  0.17562499544E+03  0.12452165250E+03 0.  0.
          5    1    4    4  502    0  0.22732413915E+02 -0.71457935176E+01 -0.11141893052E+03  0.11403549046E+03  0.47000000000E+01 0.  1.
         -5    1    4    4    0  502 -0.47552614849E+02  0.53966115445E+02 -0.16347826898E+02  0.73911665111E+02  0.47000000000E+01 0.  1.
          5    1    5    5  503    0 -0.43889728848E+02 -0.24859564350E+02 -0.84066079983E+02  0.98150405204E+02  0.47000000000E+01 0.  1.
         -5    1    5    5    0  503  0.68709929782E+02 -0.21960757578E+02 -0.27872796909E+02  0.77474590231E+02  0.47000000000E+01 0.  1.
<mgrwt>
<rscale>  0 0.27336042E+03</rscale>
<asrwt>0</asrwt>
<pdfrwt beam="1">  1        2 0.46405984E-01 0.27336042E+03</pdfrwt>
<pdfrwt beam="2">  1       -2 0.95281935E-02 0.27336042E+03</pdfrwt>
<totfact> 0.77305425E+03</totfact>
</mgrwt>
</event>
<event>
 9    1  0.2117506E-002  0.2737125E+03  0.7818608E-02  0.1099173E+00
         -1   -1    0    0    0  501 -0.00000000000E+00  0.00000000000E+00  0.77154554326E+03  0.77154554326E+03  0.00000000000E+00 0. -1.
          1   -1    0    0  501    0  0.00000000000E+00 -0.00000000000E+00 -0.24275474761E+02  0.24275474761E+02  0.00000000000E+00 0. -1.
         36    2    1    2    0    0  0.00000000000E+00  0.00000000000E+00  0.74727006850E+03  0.79582101802E+03  0.27371250876E+03 0.  0.
         25    2    3    3    0    0 -0.25196563779E+02 -0.54421108563E+02  0.37414100020E+03  0.39946951713E+03  0.12648273878E+03 0.  0.
         25    2    3    3    0    0  0.25196563779E+02  0.54421108563E+02  0.37312906831E+03  0.39635150089E+03  0.11946835045E+03 0.  0.
          5    1    4    4  502    0 -0.11670260178E+01 -0.23625794810E+02  0.35481963558E+03  0.35563830491E+03  0.47000000000E+01 0. -1.
         -5    1    4    4    0  502 -0.24029537761E+02 -0.30795313752E+02  0.19321364620E+02  0.43831212223E+02  0.47000000000E+01 0. -1.
          5    1    5    5  503    0 -0.33228850813E+02  0.37191157486E+01  0.31965357129E+02  0.46495832121E+02  0.47000000000E+01 0. -1.
         -5    1    5    5    0  503  0.58425414592E+02  0.50701992814E+02  0.34116371118E+03  0.34985566877E+03  0.47000000000E+01 0. -1.
<mgrwt>
<rscale>  0 0.27371251E+03</rscale>
<asrwt>0</asrwt>
<pdfrwt beam="1">  1        1 0.37346890E-02 0.27371251E+03</pdfrwt>
<pdfrwt beam="2">  1       -1 0.11869930E+00 0.27371251E+03</pdfrwt>
<totfact> 0.16982179E+03</totfact>
</mgrwt>
</event>
<event>
 9    1  0.2117506E-002  0.2708757E+03  0.7818608E-02  0.1100779E+00
         -2   -1    0    0    0  501 -0.00000000000E+00  0.00000000000E+00  0.12057610746E+02  0.12057610746E+02  0.00000000000E+00 0.  1.
          2   -1    0    0  501    0  0.00000000000E+00 -0.00000000000E+00 -0.15213135432E+04  0.15213135432E+04  0.00000000000E+00 0.  1.
         36    2    1    2    0    0  0.00000000000E+00 -0.53290705182E-14 -0.15092559325E+04  0.15333711540E+04  0.27087566540E+03 0.  0.
         25    2    3    3    0    0 -0.23233289533E+02 -0.48524543457E+01 -0.56833414999E+03  0.58379028053E+03  0.13131661560E+03 0.  0.
         25    2    3    3    0    0  0.23233289533E+02  0.48524543457E+01 -0.94092178250E+03  0.94958087346E+03  0.12572470880E+03 0.  0.
          5    1    4    4  502    0  0.20175383125E+02 -0.14715489113E+02 -0.16843078627E+02  0.30485586786E+02  0.47000000000E+01 0.  1.
         -5    1    4    4    0  502 -0.43408672658E+02  0.98630347677E+01 -0.55149107137E+03  0.55330469374E+03  0.47000000000E+01 0.  1.
          5    1    5    5  503    0  0.47648574298E+02  0.32935841179E+02 -0.83842523419E+03  0.84043686235E+03  0.47000000000E+01 0. -1.
         -5    1    5    5    0  503 -0.24415284765E+02 -0.28083386833E+02 -0.10249654831E+03  0.10914401111E+03  0.47000000000E+01 0. -1.
<mgrwt>
<rscale>  0 0.27087567E+03</rscale>
<asrwt>0</asrwt>
<pdfrwt beam="1">  1        2 0.23404810E+00 0.27087567E+03</pdfrwt>
<pdfrwt beam="2">  1       -2 0.18550181E-02 0.27087567E+03</pdfrwt>
<totfact> 0.11473327E+04</totfact>
</mgrwt>
</event>
<event>
 9    1  0.2117506E-002  0.2751467E+03  0.7818608E-02  0.1098370E+00
         -1   -1    0    0    0  501 -0.00000000000E+00  0.00000000000E+00  0.34611047561E+02  0.34611047561E+02  0.00000000000E+00 0. -1.
          1   -1    0    0  501    0  0.00000000000E+00 -0.00000000000E+00 -0.54683213723E+03  0.54683213723E+03  0.00000000000E+00 0. -1.
         36    2    1    2    0    0  0.35527136788E-14  0.00000000000E+00 -0.51222108967E+03  0.58144318480E+03  0.27514674710E+03 0.  0.
         25    2    3    3    0    0  0.20086556133E+01 -0.18921172739E+02 -0.30774911802E+03  0.33256359172E+03  0.12460729281E+03 0.  0.
         25    2    3    3    0    0 -0.20086556133E+01  0.18921172739E+02 -0.20447197165E+03  0.24887959308E+03  0.14060661145E+03 0.  0.
          5    1    4    4  502    0  0.42348210460E+02 -0.35953003601E+02 -0.26634554810E+03  0.27211767747E+03  0.47000000000E+01 0. -1.
         -5    1    4    4    0  502 -0.40339554847E+02  0.17031830862E+02 -0.41403569917E+02  0.60445914251E+02  0.47000000000E+01 0. -1.
          5    1    5    5  503    0 -0.30991657278E+02 -0.31342353775E+02 -0.18060571325E+03  0.18596596360E+03  0.47000000000E+01 0. -1.
         -5    1    5    5    0  503  0.28983001665E+02  0.50263526514E+02 -0.23866258405E+02  0.62913629472E+02  0.47000000000E+01 0. -1.
<mgrwt>
<rscale>  0 0.27514675E+03</rscale>
<asrwt>0</asrwt>
<pdfrwt beam="1">  1        1 0.84128022E-01 0.27514675E+03</pdfrwt>
<pdfrwt beam="2">  1       -1 0.53247765E-02 0.27514675E+03</pdfrwt>
<totfact> 0.63749766E+03</totfact>
</mgrwt>
</event>
<event>
 9    1  0.2117506E-002  0.2753871E+03  0.7818608E-02  0.1098235E+00
          4   -1    0    0  501    0  0.00000000000E+00  0.00000000000E+00  0.50710794432E+03  0.50710794432E+03  0.00000000000E+00 0. -1.
         -4   -1    0    0    0  501 -0.00000000000E+00 -0.00000000000E+00 -0.37387540666E+02  0.37387540666E+02  0.00000000000E+00 0. -1.
         36    2    1    2    0    0  0.00000000000E+00  0.71054273576E-14  0.46972040365E+03  0.54449548498E+03  0.27538713761E+03 0.  0.
         25    2    3    3    0    0 -0.13756410073E+02 -0.52231046469E+02  0.19056513157E+03  0.23375617251E+03  0.12413523989E+03 0.  0.
         25    2    3    3    0    0  0.13756410073E+02  0.52231046469E+02  0.27915527209E+03  0.31073931247E+03  0.12535522865E+03 0.  0.
          5    1    4    4  502    0 -0.59267565177E+02 -0.18476458715E+02  0.15412304921E+03  0.16622282667E+03  0.47000000000E+01 0.  1.
         -5    1    4    4    0  502  0.45511155103E+02 -0.33754587755E+02  0.36442082354E+02  0.67533345835E+02  0.47000000000E+01 0.  1.
          5    1    5    5  503    0  0.49977413383E+02  0.46837039028E+02  0.26045702952E+03  0.26935367883E+03  0.47000000000E+01 0.  1.
         -5    1    5    5    0  503 -0.36221003309E+02  0.53940074413E+01  0.18698242564E+02  0.41385633642E+02  0.47000000000E+01 0.  1.
<mgrwt>
<rscale>  0 0.27538714E+03</rscale>
<asrwt>0</asrwt>
<pdfrwt beam="1">  1        4 0.78016602E-01 0.27538714E+03</pdfrwt>
<pdfrwt beam="2">  1       -4 0.57519297E-02 0.27538714E+03</pdfrwt>
<totfact> 0.53528620E+02</totfact>
</mgrwt>
</event>
<event>
 9    1  0.2117506E-002  0.2750872E+03  0.7818608E-02  0.1098403E+00
          1   -1    0    0  501    0  0.00000000000E+00  0.00000000000E+00  0.22864249144E+03  0.22864249144E+03  0.00000000000E+00 0.  1.
         -1   -1    0    0    0  501 -0.00000000000E+00 -0.00000000000E+00 -0.82741610807E+02  0.82741610807E+02  0.00000000000E+00 0.  1.
         36    2    1    2    0    0 -0.35527136788E-14  0.00000000000E+00  0.14590088063E+03  0.31138410225E+03  0.27508724464E+03 0.  0.
         25    2    3    3    0    0 -0.15675021830E+02 -0.42419006143E+02  0.11575531762E+03  0.17513231821E+03  0.12339755644E+03 0.  0.
         25    2    3    3    0    0  0.15675021830E+02  0.42419006143E+02  0.30145563012E+02  0.13625178403E+03  0.12494284810E+03 0.  0.
          5    1    4    4  502    0 -0.67228419947E+02 -0.40914014700E+02  0.60311638639E+02  0.99263290308E+02  0.47000000000E+01 0.  1.
         -5    1    4    4    0  502  0.51553398118E+02 -0.15049914431E+01  0.55443678980E+02  0.75869027907E+02  0.47000000000E+01 0.  1.
          5    1    5    5  503    0  0.92613775806E+01  0.15298002665E+02  0.78279570699E+02  0.80433719229E+02  0.47000000000E+01 0.  1.
         -5    1    5    5    0  503  0.64136442491E+01  0.27121003478E+02 -0.48134007687E+02  0.55818064802E+02  0.47000000000E+01 0.  1.
<mgrwt>
<rscale>  0 0.27508724E+03</rscale>
<asrwt>0</asrwt>
<pdfrwt beam="1">  1        1 0.35175768E-01 0.27508724E+03</pdfrwt>
<pdfrwt beam="2">  1       -1 0.12729479E-01 0.27508724E+03</pdfrwt>
<totfact> 0.51271657E+03</totfact>
</mgrwt>
</event>
<event>
 9    1  0.2117506E-002  0.2743234E+03  0.7818608E-02  0.1098830E+00
          1   -1    0    0  501    0  0.00000000000E+00  0.00000000000E+00  0.42503950619E+02  0.42503950619E+02  0.00000000000E+00 0.  1.
         -1   -1    0    0    0  501 -0.00000000000E+00 -0.00000000000E+00 -0.44262537217E+03  0.44262537217E+03  0.00000000000E+00 0.  1.
         36    2    1    2    0    0 -0.53290705182E-14  0.00000000000E+00 -0.40012142155E+03  0.48512932279E+03  0.27432336365E+03 0.  0.
         25    2    3    3    0    0  0.11216852658E+02  0.48870261791E+02 -0.16097969538E+03  0.20878246705E+03  0.12313218893E+03 0.  0.
         25    2    3    3    0    0 -0.11216852658E+02 -0.48870261791E+02 -0.23914172617E+03  0.27634685574E+03  0.12909182472E+03 0.  0.
          5    1    4    4  502    0  0.15281637411E+02  0.44883754901E+02 -0.12745057604E-01  0.47646301623E+02  0.47000000000E+01 0. -1.
         -5    1    4    4    0  502 -0.40647847530E+01  0.39865068905E+01 -0.16096695032E+03  0.16113616543E+03  0.47000000000E+01 0. -1.
          5    1    5    5  503    0  0.58970905851E+02 -0.24424501986E+02 -0.11252079897E+03  0.12944938870E+03  0.47000000000E+01 0. -1.
         -5    1    5    5    0  503 -0.70187758509E+02 -0.24445759806E+02 -0.12662092720E+03  0.14689746703E+03  0.47000000000E+01 0. -1.
<mgrwt>
<rscale>  0 0.27432336E+03</rscale>
<asrwt>0</asrwt>
<pdfrwt beam="1">  1        1 0.65390693E-02 0.27432336E+03</pdfrwt>
<pdfrwt beam="2">  1       -1 0.68096212E-01 0.27432336E+03</pdfrwt>
<totfact> 0.25927190E+03</totfact>
</mgrwt>
</event>
<event>
 9    1  0.2117506E-002  0.2750196E+03  0.7818608E-02  0.1098441E+00
          2   -1    0    0  501    0  0.00000000000E+00  0.00000000000E+00  0.44004728626E+03  0.44004728626E+03  0.00000000000E+00 0. -1.
         -2   -1    0    0    0  501 -0.00000000000E+00 -0.00000000000E+00 -0.42970259989E+02  0.42970259989E+02  0.00000000000E+00 0. -1.
         36    2    1    2    0    0  0.00000000000E+00 -0.71054273576E-14  0.39707702627E+03  0.48301754625E+03  0.27501960874E+03 0.  0.
         25    2    3    3    0    0 -0.66710610821E+01 -0.56531485652E+02  0.14986788990E+03  0.19911073560E+03  0.11808636112E+03 0.  0.
         25    2    3    3    0    0  0.66710610821E+01  0.56531485652E+02  0.24720913636E+03  0.28390681064E+03  0.12747708853E+03 0.  0.
          5    1    4    4  502    0  0.35669422727E+02  0.54680561388E+01  0.10590209944E+03  0.11198014119E+03  0.47000000000E+01 0.  1.
         -5    1    4    4    0  502 -0.42340483809E+02 -0.61999541791E+02  0.43965790465E+02  0.87130594412E+02  0.47000000000E+01 0.  1.
          5    1    5    5  503    0  0.35425080477E+02  0.89041897252E+02  0.16845693861E+03  0.19386393672E+03  0.47000000000E+01 0.  1.
         -5    1    5    5    0  503 -0.28754019395E+02 -0.32510411600E+02  0.78752197754E+02  0.90042873926E+02  0.47000000000E+01 0.  1.
<mgrwt>
<rscale>  0 0.27501961E+03</rscale>
<asrwt>0</asrwt>
<pdfrwt beam="1">  1        2 0.67699579E-01 0.27501961E+03</pdfrwt>
<pdfrwt beam="2">  1       -2 0.66108095E-02 0.27501961E+03</pdfrwt>
<totfact> 0.90930063E+03</totfact>
</mgrwt>
</event>
<event>
 9    1  0.2117506E-002  0.2746801E+03  0.7818608E-02  0.1098631E+00
          2   -1    0    0  501    0  0.00000000000E+00  0.00000000000E+00  0.32492992208E+03  0.32492992208E+03  0.00000000000E+00 0. -1.
         -2   -1    0    0    0  501 -0.00000000000E+00 -0.00000000000E+00 -0.58050329023E+02  0.58050329023E+02  0.00000000000E+00 0. -1.
         36    2    1    2    0    0  0.00000000000E+00 -0.71054273576E-14  0.26687959305E+03  0.38298025110E+03  0.27468009674E+03 0.  0.
         25    2    3    3    0    0 -0.32470583148E+02  0.50830531093E+02  0.19213144467E+03  0.22916376110E+03  0.10937758322E+03 0.  0.
         25    2    3    3    0    0  0.32470583148E+02 -0.50830531093E+02  0.74748148381E+02  0.15381648999E+03  0.12014218762E+03 0.  0.
          5    1    4    4  502    0  0.35637808329E+01  0.63585311470E+02  0.17632670593E+03  0.18753396917E+03  0.47000000000E+01 0. -1.
         -5    1    4    4    0  502 -0.36034363981E+02 -0.12754780377E+02  0.15804738744E+02  0.41629791937E+02  0.47000000000E+01 0. -1.
          5    1    5    5  503    0  0.26440638441E+02  0.11080326035E+02 -0.23548395463E+02  0.37396496027E+02  0.47000000000E+01 0.  1.
         -5    1    5    5    0  503  0.60299447069E+01 -0.61910857128E+02  0.98296543845E+02  0.11641999397E+03  0.47000000000E+01 0.  1.
<mgrwt>
<rscale>  0 0.27468010E+03</rscale>
<asrwt>0</asrwt>
<pdfrwt beam="1">  1        2 0.49989218E-01 0.27468010E+03</pdfrwt>
<pdfrwt beam="2">  1       -2 0.89308200E-02 0.27468010E+03</pdfrwt>
<totfact> 0.79057935E+03</totfact>
</mgrwt>
</event>
<event>
 9    1  0.2117506E-002  0.2682429E+03  0.7818608E-02  0.1102289E+00
         -2   -1    0    0    0  501 -0.00000000000E+00  0.00000000000E+00  0.89258580092E+01  0.89258580092E+01  0.00000000000E+00 0.  1.
          2   -1    0    0  501    0  0.00000000000E+00 -0.00000000000E+00 -0.20153314183E+04  0.20153314183E+04  0.00000000000E+00 0.  1.
         36    2    1    2    0    0  0.00000000000E+00  0.00000000000E+00 -0.20064055603E+04  0.20242572763E+04  0.26824289054E+03 0.  0.
         25    2    3    3    0    0 -0.37337234263E+02  0.30380627050E+02 -0.68941249718E+03  0.70035690182E+03  0.11354799471E+03 0.  0.
         25    2    3    3    0    0  0.37337234263E+02 -0.30380627050E+02 -0.13169930631E+04  0.13239003745E+04  0.12619200338E+03 0.  0.
          5    1    4    4  502    0  0.25917288303E+02 -0.25837294262E+02 -0.15972405991E+03  0.16393028067E+03  0.47000000000E+01 0. -1.
         -5    1    4    4    0  502 -0.63254522566E+02  0.56217921312E+02 -0.52968843727E+03  0.53642662115E+03  0.47000000000E+01 0. -1.
          5    1    5    5  503    0  0.19992355756E+02 -0.69666340435E+02 -0.11138021812E+04  0.11161677661E+04  0.47000000000E+01 0. -1.
         -5    1    5    5    0  503  0.17344878507E+02  0.39285713385E+02 -0.20319088193E+03  0.20773260839E+03  0.47000000000E+01 0. -1.
<mgrwt>
<rscale>  0 0.26824289E+03</rscale>
<asrwt>0</asrwt>
<pdfrwt beam="1">  1        2 0.31005129E+00 0.26824289E+03</pdfrwt>
<pdfrwt beam="2">  1       -2 0.13732076E-02 0.26824289E+03</pdfrwt>
<totfact> 0.97872390E+03</totfact>
</mgrwt>
</event>
<event>
 9    1  0.2117506E-002  0.2720214E+03  0.7818608E-02  0.1100128E+00
          2   -1    0    0  501    0  0.00000000000E+00  0.00000000000E+00  0.57403299140E+03  0.57403299140E+03  0.00000000000E+00 0. -1.
         -2   -1    0    0    0  501 -0.00000000000E+00 -0.00000000000E+00 -0.32226218442E+02  0.32226218442E+02  0.00000000000E+00 0. -1.
         36    2    1    2    0    0  0.00000000000E+00 -0.17763568394E-14  0.54180677296E+03  0.60625920984E+03  0.27202141514E+03 0.  0.
         25    2    3    3    0    0  0.44015701590E+02  0.10331586943E+02  0.24955946401E+03  0.28496562436E+03  0.12992827757E+03 0.  0.
         25    2    3    3    0    0 -0.44015701590E+02 -0.10331586943E+02  0.29224730895E+03  0.32129358548E+03  0.12560634861E+03 0.  0.
          5    1    4    4  502    0  0.89962185120E+02  0.74233014212E+01  0.14909952195E+03  0.17435899060E+03  0.47000000000E+01 0.  1.
         -5    1    4    4    0  502 -0.45946483531E+02  0.29082855218E+01  0.10045994206E+03  0.11060663376E+03  0.47000000000E+01 0.  1.
          5    1    5    5  503    0 -0.68103015444E+01 -0.48517305349E+02  0.39975629757E+02  0.63407019327E+02  0.47000000000E+01 0. -1.
         -5    1    5    5    0  503 -0.37205400045E+02  0.38185718406E+02  0.25227167919E+03  0.25788656616E+03  0.47000000000E+01 0. -1.
<mgrwt>
<rscale>  0 0.27202142E+03</rscale>
<asrwt>0</asrwt>
<pdfrwt beam="1">  1        2 0.88312760E-01 0.27202142E+03</pdfrwt>
<pdfrwt beam="2">  1       -2 0.49578802E-02 0.27202142E+03</pdfrwt>
<totfact> 0.10480129E+04</totfact>
</mgrwt>
</event>
<event>
 9    1  0.2117506E-002  0.2750826E+03  0.7818608E-02  0.1098405E+00
          2   -1    0    0  501    0  0.00000000000E+00  0.00000000000E+00  0.14123036975E+04  0.14123036975E+04  0.00000000000E+00 0. -1.
         -2   -1    0    0    0  501 -0.00000000000E+00 -0.00000000000E+00 -0.13394862231E+02  0.13394862231E+02  0.00000000000E+00 0. -1.
         36    2    1    2    0    0  0.00000000000E+00  0.00000000000E+00  0.13989088353E+04  0.14256985597E+04  0.27508263091E+03 0.  0.
         25    2    3    3    0    0 -0.95650682349E+01  0.64512340562E+02  0.81713590748E+03  0.82949384523E+03  0.12686849637E+03 0.  0.
         25    2    3    3    0    0  0.95650682349E+01 -0.64512340562E+02  0.58177292778E+03  0.59620471449E+03  0.11290256626E+03 0.  0.
          5    1    4    4  502    0 -0.34529652838E+02 -0.16254130778E+02  0.49249474005E+03  0.49399357553E+03  0.47000000000E+01 0. -1.
         -5    1    4    4    0  502  0.24964584603E+02  0.80766471340E+02  0.32464116743E+03  0.33550026970E+03  0.47000000000E+01 0. -1.
          5    1    5    5  503    0  0.45217024442E+02 -0.74870829446E+02  0.47636113652E+03  0.48434723369E+03  0.47000000000E+01 0.  1.
         -5    1    5    5    0  503 -0.35651956207E+02  0.10358488884E+02  0.10541179127E+03  0.11185748080E+03  0.47000000000E+01 0.  1.
<mgrwt>
<rscale>  0 0.27508263E+03</rscale>
<asrwt>0</asrwt>
<pdfrwt beam="1">  1        2 0.21727737E+00 0.27508263E+03</pdfrwt>
<pdfrwt beam="2">  1       -2 0.20607492E-02 0.27508263E+03</pdfrwt>
<totfact> 0.11253368E+04</totfact>
</mgrwt>
</event>
<event>
 9    1  0.2117506E-002  0.2747375E+03  0.7818608E-02  0.1098598E+00
         -1   -1    0    0    0  501 -0.00000000000E+00  0.00000000000E+00  0.16948695593E+03  0.16948695593E+03  0.00000000000E+00 0. -1.
          1   -1    0    0  501    0  0.00000000000E+00 -0.00000000000E+00 -0.11133706045E+03  0.11133706045E+03  0.00000000000E+00 0. -1.
         36    2    1    2    0    0  0.35527136788E-14  0.00000000000E+00  0.58149895476E+02  0.28082401637E+03  0.27473754354E+03 0.  0.
         25    2    3    3    0    0 -0.19234813702E+02  0.34801472846E+02 -0.48573043639E+01  0.13201936083E+03  0.12579506214E+03 0.  0.
         25    2    3    3    0    0  0.19234813702E+02 -0.34801472846E+02  0.63007199840E+02  0.14880465554E+03  0.12880915227E+03 0.  0.
          5    1    4    4  502    0  0.44175368060E+02 -0.13106896086E+02 -0.20886279975E+02  0.50809256631E+02  0.47000000000E+01 0. -1.
         -5    1    4    4    0  502 -0.63410181762E+02  0.47908368932E+02  0.16028975612E+02  0.81210104199E+02  0.47000000000E+01 0. -1.
          5    1    5    5  503    0  0.26112411887E+02  0.35527819964E+02  0.64139530740E+02  0.77974697495E+02  0.47000000000E+01 0. -1.
         -5    1    5    5    0  503 -0.68775981850E+01 -0.70329292810E+02 -0.11323308999E+01  0.70829958049E+02  0.47000000000E+01 0. -1.
<mgrwt>
<rscale>  0 0.27473754E+03</rscale>
<asrwt>0</asrwt>
<pdfrwt beam="1">  1        1 0.17128779E-01 0.27473754E+03</pdfrwt>
<pdfrwt beam="2">  1       -1 0.26074916E-01 0.27473754E+03</pdfrwt>
<totfact> 0.40331631E+03</totfact>
</mgrwt>
</event>
<event>
 9    1  0.2117506E-002  0.2752343E+03  0.7818608E-02  0.1098321E+00
          2   -1    0    0  501    0  0.00000000000E+00  0.00000000000E+00  0.27208557595E+03  0.27208557595E+03  0.00000000000E+00 0.  1.
         -2   -1    0    0    0  501 -0.00000000000E+00 -0.00000000000E+00 -0.69604863890E+02  0.69604863890E+02  0.00000000000E+00 0.  1.
         36    2    1    2    0    0 -0.71054273576E-14  0.14210854715E-13  0.20248071206E+03  0.34169043984E+03  0.27523429641E+03 0.  0.
         25    2    3    3    0    0  0.48151956379E+02 -0.46024956721E+02  0.11625318326E+03  0.17666143537E+03  0.11514144599E+03 0.  0.
         25    2    3    3    0    0 -0.48151956379E+02  0.46024956721E+02  0.86227528797E+02  0.16502900447E+03  0.12394546401E+03 0.  0.
          5    1    4    4  502    0 -0.22408863649E+02  0.16933721669E+02  0.23943227974E+01  0.28578503832E+02  0.47000000000E+01 0.  1.
         -5    1    4    4    0  502  0.70560820028E+02 -0.62958678390E+02  0.11385886047E+03  0.14808293154E+03  0.47000000000E+01 0.  1.
          5    1    5    5  503    0 -0.88964629400E+01  0.81909559317E+02  0.30847297302E+02  0.88102035795E+02  0.47000000000E+01 0. -1.
         -5    1    5    5    0  503 -0.39255493439E+02 -0.35884602596E+02  0.55380231495E+02  0.76926968672E+02  0.47000000000E+01 0. -1.
<mgrwt>
<rscale>  0 0.27523430E+03</rscale>
<asrwt>0</asrwt>
<pdfrwt beam="1">  1        2 0.41859319E-01 0.27523430E+03</pdfrwt>
<pdfrwt beam="2">  1       -2 0.10708441E-01 0.27523430E+03</pdfrwt>
<totfact> 0.71748870E+03</totfact>
</mgrwt>
</event>
<event>
 9    1  0.2117506E-002  0.2750549E+03  0.7818608E-02  0.1098421E+00
          2   -1    0    0  501    0  0.00000000000E+00  0.00000000000E+00  0.14364969502E+03  0.14364969502E+03  0.00000000000E+00 0.  1.
         -2   -1    0    0    0  501 -0.00000000000E+00 -0.00000000000E+00 -0.13166610425E+03  0.13166610425E+03  0.00000000000E+00 0.  1.
         36    2    1    2    0    0  0.00000000000E+00  0.00000000000E+00  0.11983590771E+02  0.27531579927E+03  0.27505487249E+03 0.  0.
         25    2    3    3    0    0 -0.81997259792E+02  0.37287839639E+01  0.24432173159E+02  0.12731467210E+03  0.94205308789E+02 0.  0.
         25    2    3    3    0    0  0.81997259792E+02 -0.37287839639E+01 -0.12448582388E+02  0.14800112717E+03  0.12252310801E+03 0.  0.
          5    1    4    4  502    0 -0.30115443132E+02  0.42110903804E+02 -0.11584398224E+02  0.53259331731E+02  0.47000000000E+01 0.  1.
         -5    1    4    4    0  502 -0.51881816661E+02 -0.38382119840E+02  0.36016571384E+02  0.74055340372E+02  0.47000000000E+01 0.  1.
          5    1    5    5  503    0  0.23327719603E+01 -0.34229912223E+02 -0.44820809744E+02  0.56640301040E+02  0.47000000000E+01 0.  1.
         -5    1    5    5    0  503  0.79664487832E+02  0.30501128259E+02  0.32372227356E+02  0.91360826127E+02  0.47000000000E+01 0.  1.
<mgrwt>
<rscale>  0 0.27505487E+03</rscale>
<asrwt>0</asrwt>
<pdfrwt beam="1">  1        2 0.22099953E-01 0.27505487E+03</pdfrwt>
<pdfrwt beam="2">  1       -2 0.20256324E-01 0.27505487E+03</pdfrwt>
<totfact> 0.50546040E+03</totfact>
</mgrwt>
</event>
<event>
 9    1  0.2117506E-002  0.2750210E+03  0.7818608E-02  0.1098440E+00
         -2   -1    0    0    0  501 -0.00000000000E+00  0.00000000000E+00  0.12495041068E+02  0.12495041068E+02  0.00000000000E+00 0.  1.
          2   -1    0    0  501    0  0.00000000000E+00 -0.00000000000E+00 -0.15133317385E+04  0.15133317385E+04  0.00000000000E+00 0.  1.
         36    2    1    2    0    0  0.00000000000E+00  0.35527136788E-14 -0.15008366974E+04  0.15258267796E+04  0.27502103354E+03 0.  0.
         25    2    3    3    0    0 -0.49463966644E+02 -0.89763138120E+00 -0.89792880253E+03  0.90853929450E+03  0.12930593757E+03 0.  0.
         25    2    3    3    0    0  0.49463966644E+02  0.89763138120E+00 -0.60290789489E+03  0.61728748506E+03  0.12287562718E+03 0.  0.
          5    1    4    4  502    0  0.11133925543E+02  0.37464390691E+02 -0.62714169908E+03  0.62837595880E+03  0.47000000000E+01 0. -1.
         -5    1    4    4    0  502 -0.60597892187E+02 -0.38362022072E+02 -0.27078710345E+03  0.28016333570E+03  0.47000000000E+01 0. -1.
          5    1    5    5  503    0  0.18519374647E+02 -0.31857916982E+02 -0.48799633967E+02  0.61330158871E+02  0.47000000000E+01 0. -1.
         -5    1    5    5    0  503  0.30944591997E+02  0.32755548363E+02 -0.55410826093E+03  0.55595732619E+03  0.47000000000E+01 0. -1.
<mgrwt>
<rscale>  0 0.27502103E+03</rscale>
<asrwt>0</asrwt>
<pdfrwt beam="1">  1        2 0.23282020E+00 0.27502103E+03</pdfrwt>
<pdfrwt beam="2">  1       -2 0.19223146E-02 0.27502103E+03</pdfrwt>
<totfact> 0.10999096E+04</totfact>
</mgrwt>
</event>
<event>
 9    1  0.2117506E-002  0.2749277E+03  0.7818608E-02  0.1098492E+00
          2   -1    0    0  501    0  0.00000000000E+00  0.00000000000E+00  0.82943053179E+03  0.82943053179E+03  0.00000000000E+00 0. -1.
         -2   -1    0    0    0  501 -0.00000000000E+00 -0.00000000000E+00 -0.22782263960E+02  0.22782263960E+02  0.00000000000E+00 0. -1.
         36    2    1    2    0    0 -0.71054273576E-14  0.00000000000E+00  0.80664826783E+03  0.85221279575E+03  0.27492766548E+03 0.  0.
         25    2    3    3    0    0 -0.60507332227E+02  0.34650072704E+02  0.31248659477E+03  0.34130461370E+03  0.11823367806E+03 0.  0.
         25    2    3    3    0    0  0.60507332227E+02 -0.34650072704E+02  0.49416167306E+03  0.51090818205E+03  0.10940587998E+03 0.  0.
          5    1    4    4  502    0 -0.34307618601E+02  0.31519051404E+02  0.31095357622E+03  0.31445934532E+03  0.47000000000E+01 0.  1.
         -5    1    4    4    0  502 -0.26199713626E+02  0.31310213007E+01  0.15330185519E+01  0.26845268379E+02  0.47000000000E+01 0.  1.
          5    1    5    5  503    0 -0.63349502811E+01 -0.52619378394E+02  0.30099060010E+03  0.30565726219E+03  0.47000000000E+01 0.  1.
         -5    1    5    5    0  503  0.66842282508E+02  0.17969305689E+02  0.19317107295E+03  0.20525091986E+03  0.47000000000E+01 0.  1.
<mgrwt>
<rscale>  0 0.27492767E+03</rscale>
<asrwt>0</asrwt>
<pdfrwt beam="1">  1        2 0.12760467E+00 0.27492767E+03</pdfrwt>
<pdfrwt beam="2">  1       -2 0.35049643E-02 0.27492767E+03</pdfrwt>
<totfact> 0.11318607E+04</totfact>
</mgrwt>
</event>
<event>
 9    1  0.2117506E-002  0.2730388E+03  0.7818608E-02  0.1099553E+00
         -2   -1    0    0    0  501 -0.00000000000E+00  0.00000000000E+00  0.55288150331E+01  0.55288150331E+01  0.00000000000E+00 0. -1.
          2   -1    0    0  501    0  0.00000000000E+00 -0.00000000000E+00 -0.33709846799E+04  0.33709846799E+04  0.00000000000E+00 0. -1.
         36    2    1    2    0    0  0.00000000000E+00 -0.71054273576E-14 -0.33654558648E+04  0.33765134949E+04  0.27303883075E+03 0.  0.
         25    2    3    3    0    0 -0.19069314197E+02  0.43824277611E+02 -0.18159766391E+04  0.18208504191E+04  0.12426137373E+03 0.  0.
         25    2    3    3    0    0  0.19069314197E+02 -0.43824277611E+02 -0.15494792257E+04  0.15556630758E+04  0.13006739911E+03 0.  0.
          5    1    4    4  502    0  0.47232636113E+02  0.31025556617E+02 -0.11613256080E+04  0.11627092348E+04  0.47000000000E+01 0.  1.
         -5    1    4    4    0  502 -0.66301950310E+02  0.12798720993E+02 -0.65465103113E+03  0.65814118427E+03  0.47000000000E+01 0.  1.
          5    1    5    5  503    0 -0.10657238313E+02 -0.80777688727E+02 -0.68024325778E+03  0.68512158883E+03  0.47000000000E+01 0.  1.
         -5    1    5    5    0  503  0.29726552510E+02  0.36953411117E+02 -0.86923596796E+03  0.87054148695E+03  0.47000000000E+01 0.  1.
<mgrwt>
<rscale>  0 0.27303883E+03</rscale>
<asrwt>0</asrwt>
<pdfrwt beam="1">  1        2 0.51861298E+00 0.27303883E+03</pdfrwt>
<pdfrwt beam="2">  1       -2 0.85058701E-03 0.27303883E+03</pdfrwt>
<totfact> 0.33201757E+03</totfact>
</mgrwt>
</event>
<event>
 9    1  0.2117506E-002  0.2748152E+03  0.7818608E-02  0.1098555E+00
          1   -1    0    0  501    0  0.00000000000E+00  0.00000000000E+00  0.12124615437E+03  0.12124615437E+03  0.00000000000E+00 0. -1.
         -1   -1    0    0    0  501 -0.00000000000E+00 -0.00000000000E+00 -0.15572325064E+03  0.15572325064E+03  0.00000000000E+00 0. -1.
         36    2    1    2    0    0 -0.14210854715E-13  0.00000000000E+00 -0.34477096275E+02  0.27696940501E+03  0.27481517633E+03 0.  0.
         25    2    3    3    0    0  0.33840910494E+02  0.35588684232E+02  0.76935660718E+01  0.13697425086E+03  0.12763617344E+03 0.  0.
         25    2    3    3    0    0 -0.33840910494E+02 -0.35588684232E+02 -0.42170662346E+02  0.13999515415E+03  0.12413104670E+03 0.  0.
          5    1    4    4  502    0  0.52327337501E+02  0.23643369220E+02 -0.49218242219E+02  0.75773903985E+02  0.47000000000E+01 0.  1.
         -5    1    4    4    0  502 -0.18486427007E+02  0.11945315012E+02  0.56911808291E+02  0.61200346871E+02  0.47000000000E+01 0.  1.
          5    1    5    5  503    0  0.24802111286E+02 -0.60194647027E+02 -0.33943123966E+01  0.65361698353E+02  0.47000000000E+01 0.  1.
         -5    1    5    5    0  503 -0.58643021780E+02  0.24605962795E+02 -0.38776349950E+02  0.74633455796E+02  0.47000000000E+01 0.  1.
<mgrwt>
<rscale>  0 0.27481518E+03</rscale>
<asrwt>0</asrwt>
<pdfrwt beam="1">  1        1 0.18653255E-01 0.27481518E+03</pdfrwt>
<pdfrwt beam="2">  1       -1 0.23957423E-01 0.27481518E+03</pdfrwt>
<totfact> 0.41569147E+03</totfact>
</mgrwt>
</event>
<event>
 9    1  0.2117506E-002  0.2759198E+03  0.7818608E-02  0.1097939E+00
         -1   -1    0    0    0  501 -0.00000000000E+00  0.00000000000E+00  0.45877457439E+02  0.45877457439E+02  0.00000000000E+00 0.  1.
          1   -1    0    0  501    0  0.00000000000E+00 -0.00000000000E+00 -0.41486461095E+03  0.41486461095E+03  0.00000000000E+00 0.  1.
         36    2    1    2    0    0  0.71054273576E-14 -0.71054273576E-14 -0.36898715352E+03  0.46074206839E+03  0.27591979655E+03 0.  0.
         25    2    3    3    0    0 -0.55491054511E+02  0.54504988054E+01 -0.21094469084E+03  0.25184032662E+03  0.12576534678E+03 0.  0.
         25    2    3    3    0    0  0.55491054511E+02 -0.54504988054E+01 -0.15804246268E+03  0.20890174178E+03  0.12471388311E+03 0.  0.
          5    1    4    4  502    0  0.19459354339E+02  0.35952156619E+02 -0.22952205111E+02  0.47118125560E+02  0.47000000000E+01 0.  1.
         -5    1    4    4    0  502 -0.74950408850E+02 -0.30501657814E+02 -0.18799248573E+03  0.20472220106E+03  0.47000000000E+01 0.  1.
          5    1    5    5  503    0 -0.12462141743E+02 -0.51887094870E+02 -0.71979190364E+02  0.89725522770E+02  0.47000000000E+01 0.  1.
         -5    1    5    5    0  503  0.67953196253E+02  0.46436596065E+02 -0.86063272314E+02  0.11917621901E+03  0.47000000000E+01 0.  1.
<mgrwt>
<rscale>  0 0.27591980E+03</rscale>
<asrwt>0</asrwt>
<pdfrwt beam="1">  1        1 0.63825326E-01 0.27591980E+03</pdfrwt>
<pdfrwt beam="2">  1       -1 0.70580702E-02 0.27591980E+03</pdfrwt>
<totfact> 0.59959025E+03</totfact>
</mgrwt>
</event>
<event>
 9    1  0.2117506E-002  0.2745298E+03  0.7818608E-02  0.1098715E+00
         -1   -1    0    0    0  501 -0.00000000000E+00  0.00000000000E+00  0.11980647863E+02  0.11980647863E+02  0.00000000000E+00 0. -1.
          1   -1    0    0  501    0  0.00000000000E+00 -0.00000000000E+00 -0.15726739543E+04  0.15726739543E+04  0.00000000000E+00 0. -1.
         36    2    1    2    0    0  0.00000000000E+00 -0.71054273576E-14 -0.15606933064E+04  0.15846546021E+04  0.27452980057E+03 0.  0.
         25    2    3    3    0    0  0.32426292656E+02  0.43596852728E+02 -0.81217094440E+03  0.82352398896E+03  0.12497186659E+03 0.  0.
         25    2    3    3    0    0 -0.32426292656E+02 -0.43596852728E+02 -0.74852236199E+03  0.76113061316E+03  0.12681456487E+03 0.  0.
          5    1    4    4  502    0  0.48662703091E+02  0.28802190873E+02 -0.78975107593E+03  0.79178688850E+03  0.47000000000E+01 0.  1.
         -5    1    4    4    0  502 -0.16236410435E+02  0.14794661855E+02 -0.22419868473E+02  0.31737100459E+02  0.47000000000E+01 0.  1.
          5    1    5    5  503    0 -0.25694905101E+02  0.27177734299E+02 -0.52886767793E+03  0.53020936257E+03  0.47000000000E+01 0. -1.
         -5    1    5    5    0  503 -0.67313875553E+01 -0.70774587027E+02 -0.21965468406E+03  0.23092125060E+03  0.47000000000E+01 0. -1.
<mgrwt>
<rscale>  0 0.27452980E+03</rscale>
<asrwt>0</asrwt>
<pdfrwt beam="1">  1        1 0.24195000E+00 0.27452980E+03</pdfrwt>
<pdfrwt beam="2">  1       -1 0.18431754E-02 0.27452980E+03</pdfrwt>
<totfact> 0.49506904E+03</totfact>
</mgrwt>
</event>
<event>
 9    1  0.2117506E-002  0.2739370E+03  0.7818608E-02  0.1099047E+00
          2   -1    0    0  501    0  0.00000000000E+00  0.00000000000E+00  0.10237804310E+04  0.10237804310E+04  0.00000000000E+00 0. -1.
         -2   -1    0    0    0  501 -0.00000000000E+00 -0.00000000000E+00 -0.18324597618E+02  0.18324597618E+02  0.00000000000E+00 0. -1.
         36    2    1    2    0    0 -0.71054273576E-14  0.00000000000E+00  0.10054558334E+04  0.10421050286E+04  0.27393695952E+03 0.  0.
         25    2    3    3    0    0 -0.46989334288E+02 -0.19161002658E+02  0.43605080476E+03  0.45568311209E+03  0.12219514211E+03 0.  0.
         25    2    3    3    0    0  0.46989334288E+02  0.19161002658E+02  0.56940502864E+03  0.58642191655E+03  0.13074186782E+03 0.  0.
          5    1    4    4  502    0  0.11593626806E+02 -0.35708456514E+02  0.40408682239E+02  0.55357543745E+02  0.47000000000E+01 0. -1.
         -5    1    4    4    0  502 -0.58582961094E+02  0.16547453856E+02  0.39564212252E+03  0.40032556835E+03  0.47000000000E+01 0. -1.
          5    1    5    5  503    0 -0.38097097040E+02  0.29561297120E+02  0.29341858326E+03  0.29739168464E+03  0.47000000000E+01 0. -1.
         -5    1    5    5    0  503  0.85086431327E+02 -0.10400294462E+02  0.27598644538E+03  0.28903023191E+03  0.47000000000E+01 0. -1.
<mgrwt>
<rscale>  0 0.27393696E+03</rscale>
<asrwt>0</asrwt>
<pdfrwt beam="1">  1        2 0.15750464E+00 0.27393696E+03</pdfrwt>
<pdfrwt beam="2">  1       -2 0.28191697E-02 0.27393696E+03</pdfrwt>
<totfact> 0.11769417E+04</totfact>
</mgrwt>
</event>
<event>
 9    1  0.2117506E-002  0.2742037E+03  0.7818608E-02  0.1098898E+00
          2   -1    0    0  501    0  0.00000000000E+00  0.00000000000E+00  0.49887442763E+03  0.49887442763E+03  0.00000000000E+00 0.  1.
         -2   -1    0    0    0  501 -0.00000000000E+00 -0.00000000000E+00 -0.37678645121E+02  0.37678645121E+02  0.00000000000E+00 0.  1.
         36    2    1    2    0    0 -0.71054273576E-14  0.35527136788E-14  0.46119578251E+03  0.53655307275E+03  0.27420366532E+03 0.  0.
         25    2    3    3    0    0  0.25548891299E+02 -0.31634705532E+02  0.31091437762E+03  0.33865032087E+03  0.12791711839E+03 0.  0.
         25    2    3    3    0    0 -0.25548891299E+02  0.31634705532E+02  0.15028140489E+03  0.19790275188E+03  0.12217814086E+03 0.  0.
          5    1    4    4  502    0 -0.39125864115E+02 -0.43040093707E+00  0.32487328192E+02  0.51073818937E+02  0.47000000000E+01 0. -1.
         -5    1    4    4    0  502  0.64674755414E+02 -0.31204304595E+02  0.27842704943E+03  0.28757650194E+03  0.47000000000E+01 0. -1.
          5    1    5    5  503    0 -0.70766420425E+00  0.70628011074E+02  0.47909404706E+02  0.85476416608E+02  0.47000000000E+01 0. -1.
         -5    1    5    5    0  503 -0.24841227095E+02 -0.38993305541E+02  0.10237200019E+03  0.11242633527E+03  0.47000000000E+01 0. -1.
<mgrwt>
<rscale>  0 0.27420367E+03</rscale>
<asrwt>0</asrwt>
<pdfrwt beam="1">  1        2 0.76749907E-01 0.27420367E+03</pdfrwt>
<pdfrwt beam="2">  1       -2 0.57967150E-02 0.27420367E+03</pdfrwt>
<totfact> 0.96834024E+03</totfact>
</mgrwt>
</event>
<event>
 9    1  0.2117506E-002  0.2886345E+03  0.7818608E-02  0.1091064E+00
          2   -1    0    0  501    0  0.00000000000E+00  0.00000000000E+00  0.26684060504E+03  0.26684060504E+03  0.00000000000E+00 0.  1.
         -2   -1    0    0    0  501 -0.00000000000E+00 -0.00000000000E+00 -0.78052087814E+02  0.78052087814E+02  0.00000000000E+00 0.  1.
         36    2    1    2    0    0  0.71054273576E-14 -0.14210854715E-13  0.18878851722E+03  0.34489269285E+03  0.28863448399E+03 0.  0.
         25    2    3    3    0    0  0.33169503742E+02 -0.65026807062E+02  0.12769375387E+03  0.19388289876E+03  0.12631778196E+03 0.  0.
         25    2    3    3    0    0 -0.33169503742E+02  0.65026807062E+02  0.61094763349E+02  0.15100979409E+03  0.11722920364E+03 0.  0.
          5    1    4    4  502    0 -0.85588299542E+01 -0.93469223441E+02  0.94461054289E+02  0.13324687643E+03  0.47000000000E+01 0. -1.
         -5    1    4    4    0  502  0.41728333696E+02  0.28442416379E+02  0.33232699584E+02  0.60636022331E+02  0.47000000000E+01 0. -1.
          5    1    5    5  503    0 -0.49856111364E+02  0.74640573131E+02  0.82379745348E+02  0.12192358033E+03  0.47000000000E+01 0. -1.
         -5    1    5    5    0  503  0.16686607622E+02 -0.96137660694E+01 -0.21284981998E+02  0.29086213756E+02  0.47000000000E+01 0. -1.
<mgrwt>
<rscale>  0 0.28863448E+03</rscale>
<asrwt>0</asrwt>
<pdfrwt beam="1">  1        2 0.41052400E-01 0.28863448E+03</pdfrwt>
<pdfrwt beam="2">  1       -2 0.12008014E-01 0.28863448E+03</pdfrwt>
<totfact> 0.61048450E+03</totfact>
</mgrwt>
</event>
<event>
 9    1  0.2117506E-002  0.2749032E+03  0.7818608E-02  0.1098506E+00
         -2   -1    0    0    0  501 -0.00000000000E+00  0.00000000000E+00  0.13424283987E+02  0.13424283987E+02  0.00000000000E+00 0.  1.
          2   -1    0    0  501    0  0.00000000000E+00 -0.00000000000E+00 -0.14073705315E+04  0.14073705315E+04  0.00000000000E+00 0.  1.
         36    2    1    2    0    0 -0.14210854715E-13  0.35527136788E-14 -0.13939462476E+04  0.14207948155E+04  0.27490319526E+03 0.  0.
         25    2    3    3    0    0 -0.41099873449E+02  0.21401389017E+01 -0.49564088186E+03  0.51277081222E+03  0.12482084080E+03 0.  0.
         25    2    3    3    0    0  0.41099873449E+02 -0.21401389017E+01 -0.89830536570E+03  0.90802400332E+03  0.12594157679E+03 0.  0.
          5    1    4    4  502    0 -0.66362933432E+02 -0.19379227929E+02 -0.45427919296E+03  0.45953375128E+03  0.47000000000E+01 0. -1.
         -5    1    4    4    0  502  0.25263059983E+02  0.21519366831E+02 -0.41361688898E+02  0.53237060935E+02  0.47000000000E+01 0. -1.
          5    1    5    5  503    0 -0.39920137344E+02 -0.23769392293E+02 -0.39620076624E+03  0.39894327735E+03  0.47000000000E+01 0. -1.
         -5    1    5    5    0  503  0.81020010793E+02  0.21629253391E+02 -0.50210459947E+03  0.50908072597E+03  0.47000000000E+01 0. -1.
<mgrwt>
<rscale>  0 0.27490320E+03</rscale>
<asrwt>0</asrwt>
<pdfrwt beam="1">  1        2 0.21651847E+00 0.27490320E+03</pdfrwt>
<pdfrwt beam="2">  1       -2 0.20652752E-02 0.27490320E+03</pdfrwt>
<totfact> 0.11286193E+04</totfact>
</mgrwt>
</event>
<event>
 9    1  0.2117506E-002  0.2747119E+03  0.7818608E-02  0.1098613E+00
          4   -1    0    0  501    0  0.00000000000E+00  0.00000000000E+00  0.83552037189E+03  0.83552037189E+03  0.00000000000E+00 0. -1.
         -4   -1    0    0    0  501 -0.00000000000E+00 -0.00000000000E+00 -0.22580733021E+02  0.22580733021E+02  0.00000000000E+00 0. -1.
         36    2    1    2    0    0  0.00000000000E+00  0.00000000000E+00  0.81293963887E+03  0.85810110491E+03  0.27471193969E+03 0.  0.
         25    2    3    3    0    0  0.54079031833E+02  0.20309122035E+02  0.37406290000E+03  0.39865221574E+03  0.12515404043E+03 0.  0.
         25    2    3    3    0    0 -0.54079031833E+02 -0.20309122035E+02  0.43887673886E+03  0.45944888917E+03  0.12305887908E+03 0.  0.
          5    1    4    4  502    0 -0.33330089059E+02  0.87474447874E+01  0.39473278094E+02  0.52608386313E+02  0.47000000000E+01 0.  1.
         -5    1    4    4    0  502  0.87409120892E+02  0.11561677247E+02  0.33458962191E+03  0.34604382943E+03  0.47000000000E+01 0.  1.
          5    1    5    5  503    0 -0.47504715601E+02  0.36498288576E+02  0.33881680587E+03  0.34410425893E+03  0.47000000000E+01 0. -1.
         -5    1    5    5    0  503 -0.65743162327E+01 -0.56807410611E+02  0.10005993299E+03  0.11534463024E+03  0.47000000000E+01 0. -1.
<mgrwt>
<rscale>  0 0.27471194E+03</rscale>
<asrwt>0</asrwt>
<pdfrwt beam="1">  1        4 0.12854157E+00 0.27471194E+03</pdfrwt>
<pdfrwt beam="2">  1       -4 0.34739596E-02 0.27471194E+03</pdfrwt>
<totfact> 0.37414414E+02</totfact>
</mgrwt>
</event>
<event>
 9    1  0.2117506E-002  0.2742037E+03  0.7818608E-02  0.1098898E+00
         -2   -1    0    0    0  501 -0.00000000000E+00  0.00000000000E+00  0.22235810165E+02  0.22235810165E+02  0.00000000000E+00 0. -1.
          2   -1    0    0  501    0  0.00000000000E+00 -0.00000000000E+00 -0.84534418170E+03  0.84534418170E+03  0.00000000000E+00 0. -1.
         36    2    1    2    0    0  0.00000000000E+00  0.17763568394E-14 -0.82310837154E+03  0.86757999187E+03  0.27420366700E+03 0.  0.
         25    2    3    3    0    0 -0.59582009897E+02 -0.46909151679E+01 -0.39412919111E+03  0.41724598126E+03  0.12322487172E+03 0.  0.
         25    2    3    3    0    0  0.59582009897E+02  0.46909151679E+01 -0.42897918043E+03  0.45033401060E+03  0.12331084006E+03 0.  0.
          5    1    4    4  502    0  0.32530960027E+02 -0.68199492901E+01 -0.19390546585E+03  0.19678972217E+03  0.47000000000E+01 0.  1.
         -5    1    4    4    0  502 -0.92112969924E+02  0.21290341222E+01 -0.20022372526E+03  0.22045625909E+03  0.47000000000E+01 0.  1.
          5    1    5    5  503    0 -0.22910061514E+02  0.23921956438E+02 -0.25044232493E+03  0.25266693300E+03  0.47000000000E+01 0.  1.
         -5    1    5    5    0  503  0.82492071411E+02 -0.19231041271E+02 -0.17853685550E+03  0.19766707760E+03  0.47000000000E+01 0.  1.
<mgrwt>
<rscale>  0 0.27420367E+03</rscale>
<asrwt>0</asrwt>
<pdfrwt beam="1">  1        2 0.13005293E+00 0.27420367E+03</pdfrwt>
<pdfrwt beam="2">  1       -2 0.34208943E-02 0.27420367E+03</pdfrwt>
<totfact> 0.11450428E+04</totfact>
</mgrwt>
</event>
<event>
 9    1  0.2117506E-002  0.2724241E+03  0.7818608E-02  0.1099900E+00
         -3   -1    0    0    0  501 -0.00000000000E+00  0.00000000000E+00  0.12200641183E+03  0.12200641183E+03  0.00000000000E+00 0.  1.
          3   -1    0    0  501    0  0.00000000000E+00 -0.00000000000E+00 -0.15207173520E+03  0.15207173520E+03  0.00000000000E+00 0.  1.
         36    2    1    2    0    0 -0.14210854715E-13  0.00000000000E+00 -0.30065323372E+02  0.27407814702E+03  0.27242413074E+03 0.  0.
         25    2    3    3    0    0 -0.63309565266E+02 -0.28173558735E+02 -0.16828650132E+02  0.13110036118E+03  0.11001023030E+03 0.  0.
         25    2    3    3    0    0  0.63309565266E+02  0.28173558735E+02 -0.13236673240E+02  0.14297778584E+03  0.12436071430E+03 0.  0.
          5    1    4    4  502    0  0.37286583487E+01 -0.98149099021E+01 -0.51861860534E+02  0.53122292190E+02  0.47000000000E+01 0. -1.
         -5    1    4    4    0  502 -0.67038223614E+02 -0.18358648832E+02  0.35033210402E+02  0.77978068990E+02  0.47000000000E+01 0. -1.
          5    1    5    5  503    0 -0.21169642326E+01 -0.28487951823E+02  0.33682785806E+02  0.44414693472E+02  0.47000000000E+01 0.  1.
         -5    1    5    5    0  503  0.65426529498E+02  0.56661510557E+02 -0.46919459046E+02  0.98563092372E+02  0.47000000000E+01 0.  1.
<mgrwt>
<rscale>  0 0.27242413E+03</rscale>
<asrwt>0</asrwt>
<pdfrwt beam="1">  1        3 0.23395652E-01 0.27242413E+03</pdfrwt>
<pdfrwt beam="2">  1       -3 0.18770217E-01 0.27242413E+03</pdfrwt>
<totfact> 0.10811260E+03</totfact>
</mgrwt>
</event>
<event>
 9    1  0.2117506E-002  0.2748119E+03  0.7818608E-02  0.1098557E+00
          1   -1    0    0  501    0  0.00000000000E+00  0.00000000000E+00  0.12201589977E+03  0.12201589977E+03  0.00000000000E+00 0.  1.
         -1   -1    0    0    0  501 -0.00000000000E+00 -0.00000000000E+00 -0.15473718324E+03  0.15473718324E+03  0.00000000000E+00 0.  1.
         36    2    1    2    0    0  0.00000000000E+00  0.00000000000E+00 -0.32721283465E+02  0.27675308301E+03  0.27481191125E+03 0.  0.
         25    2    3    3    0    0 -0.62044615120E+01  0.41755026183E+02  0.17779958270E+02  0.13315839204E+03  0.12503220745E+03 0.  0.
         25    2    3    3    0    0  0.62044615120E+01 -0.41755026183E+02 -0.50501241735E+02  0.14359469098E+03  0.12762085372E+03 0.  0.
          5    1    4    4  502    0  0.33456090788E+02 -0.16181834636E+02 -0.30092119460E+02  0.48049843252E+02  0.47000000000E+01 0.  1.
         -5    1    4    4    0  502 -0.39660552300E+02  0.57936860819E+02  0.47872077730E+02  0.85108548786E+02  0.47000000000E+01 0.  1.
          5    1    5    5  503    0  0.36549862180E+02 -0.16561160579E+02 -0.82975957966E+02  0.92289024621E+02  0.47000000000E+01 0. -1.
         -5    1    5    5    0  503 -0.30345400668E+02 -0.25193865605E+02  0.32474716231E+02  0.51305666355E+02  0.47000000000E+01 0. -1.
<mgrwt>
<rscale>  0 0.27481191E+03</rscale>
<asrwt>0</asrwt>
<pdfrwt beam="1">  1        1 0.18771677E-01 0.27481191E+03</pdfrwt>
<pdfrwt beam="2">  1       -1 0.23805721E-01 0.27481191E+03</pdfrwt>
<totfact> 0.41665809E+03</totfact>
</mgrwt>
</event>
<event>
 9    1  0.2117506E-002  0.2750914E+03  0.7818608E-02  0.1098401E+00
          2   -1    0    0  501    0  0.00000000000E+00  0.00000000000E+00  0.48208793812E+03  0.48208793812E+03  0.00000000000E+00 0. -1.
         -2   -1    0    0    0  501 -0.00000000000E+00 -0.00000000000E+00 -0.39243502488E+02  0.39243502488E+02  0.00000000000E+00 0. -1.
         36    2    1    2    0    0 -0.35527136788E-14  0.00000000000E+00  0.44284443563E+03  0.52133144061E+03  0.27509139717E+03 0.  0.
         25    2    3    3    0    0  0.31739362125E+02 -0.32437004048E+02  0.23677238821E+03  0.27250575719E+03  0.12703809485E+03 0.  0.
         25    2    3    3    0    0 -0.31739362125E+02  0.32437004048E+02  0.20607204742E+03  0.24882568342E+03  0.13186730323E+03 0.  0.
          5    1    4    4  502    0  0.49424493011E+02 -0.69892005872E+02  0.19719381050E+03  0.21502363101E+03  0.47000000000E+01 0.  1.
         -5    1    4    4    0  502 -0.17685130886E+02  0.37455001824E+02  0.39578577712E+02  0.57482126177E+02  0.47000000000E+01 0.  1.
          5    1    5    5  503    0  0.27771157108E+02  0.18089080238E+02 -0.34000340693E+00  0.33476224299E+02  0.47000000000E+01 0.  1.
         -5    1    5    5    0  503 -0.59510519233E+02  0.14347923810E+02  0.20641205083E+03  0.21534945912E+03  0.47000000000E+01 0.  1.
<mgrwt>
<rscale>  0 0.27509140E+03</rscale>
<asrwt>0</asrwt>
<pdfrwt beam="1">  1        2 0.74167371E-01 0.27509140E+03</pdfrwt>
<pdfrwt beam="2">  1       -2 0.60374623E-02 0.27509140E+03</pdfrwt>
<totfact> 0.94529984E+03</totfact>
</mgrwt>
</event>
<event>
 9    1  0.2117506E-002  0.2730664E+03  0.7818608E-02  0.1099537E+00
          3   -1    0    0  501    0  0.00000000000E+00  0.00000000000E+00  0.12948209914E+04  0.12948209914E+04  0.00000000000E+00 0. -1.
         -3   -1    0    0    0  501 -0.00000000000E+00 -0.00000000000E+00 -0.14396829543E+02  0.14396829543E+02  0.00000000000E+00 0. -1.
         36    2    1    2    0    0  0.00000000000E+00  0.71054273576E-14  0.12804241618E+04  0.13092178209E+04  0.27306641757E+03 0.  0.
         25    2    3    3    0    0 -0.40622747964E+02 -0.34703648988E+01  0.66060812872E+03  0.67461593184E+03  0.13054234820E+03 0.  0.
         25    2    3    3    0    0  0.40622747964E+02  0.34703648988E+01  0.61981603311E+03  0.63460188908E+03  0.12994380184E+03 0.  0.
          5    1    4    4  502    0 -0.51843905579E+02  0.50185259996E+02  0.24705340447E+03  0.25741760920E+03  0.47000000000E+01 0. -1.
         -5    1    4    4    0  502  0.11221157614E+02 -0.53655624895E+02  0.41355472425E+03  0.41719832263E+03  0.47000000000E+01 0. -1.
          5    1    5    5  503    0 -0.57228994043E+01 -0.36447872329E+02  0.54585740997E+02  0.66052192205E+02  0.47000000000E+01 0.  1.
         -5    1    5    5    0  503  0.46345647369E+02  0.39918237227E+02  0.56523029211E+03  0.56854969687E+03  0.47000000000E+01 0.  1.
<mgrwt>
<rscale>  0 0.27306642E+03</rscale>
<asrwt>0</asrwt>
<pdfrwt beam="1">  1        3 0.19920314E+00 0.27306642E+03</pdfrwt>
<pdfrwt beam="2">  1       -3 0.22148979E-02 0.27306642E+03</pdfrwt>
<totfact> 0.33457685E+02</totfact>
</mgrwt>
</event>
<event>
 9    1  0.2117506E-002  0.2744737E+03  0.7818608E-02  0.1098746E+00
          2   -1    0    0  501    0  0.00000000000E+00  0.00000000000E+00  0.86061432120E+03  0.86061432120E+03  0.00000000000E+00 0. -1.
         -2   -1    0    0    0  501 -0.00000000000E+00 -0.00000000000E+00 -0.21884309320E+02  0.21884309320E+02  0.00000000000E+00 0. -1.
         36    2    1    2    0    0 -0.71054273576E-14  0.00000000000E+00  0.83873001188E+03  0.88249863052E+03  0.27447367823E+03 0.  0.
         25    2    3    3    0    0 -0.47833548105E+02  0.30004100244E+02  0.29159672353E+03  0.32047385427E+03  0.12036007536E+03 0.  0.
         25    2    3    3    0    0  0.47833548105E+02 -0.30004100244E+02  0.54713328834E+03  0.56202477624E+03  0.11545007381E+03 0.  0.
          5    1    4    4  502    0  0.19469025261E+02  0.53337610487E+02  0.89062644951E+02  0.10572695192E+03  0.47000000000E+01 0.  1.
         -5    1    4    4    0  502 -0.67302573367E+02 -0.23333510243E+02  0.20253407858E+03  0.21474690235E+03  0.47000000000E+01 0.  1.
          5    1    5    5  503    0  0.68849140669E+02 -0.40003098974E+02  0.51951859537E+03  0.52560642408E+03  0.47000000000E+01 0.  1.
         -5    1    5    5    0  503 -0.21015592564E+02  0.99989987302E+01  0.27614692975E+02  0.36418352167E+02  0.47000000000E+01 0.  1.
<mgrwt>
<rscale>  0 0.27447368E+03</rscale>
<asrwt>0</asrwt>
<pdfrwt beam="1">  1        2 0.13240218E+00 0.27447368E+03</pdfrwt>
<pdfrwt beam="2">  1       -2 0.33668175E-02 0.27447368E+03</pdfrwt>
<totfact> 0.11455609E+04</totfact>
</mgrwt>
</event>
<event>
 9    1  0.2117506E-002  0.2749202E+03  0.7818608E-02  0.1098496E+00
         -2   -1    0    0    0  501 -0.00000000000E+00  0.00000000000E+00  0.56305432580E+01  0.56305432580E+01  0.00000000000E+00 0. -1.
          2   -1    0    0  501    0  0.00000000000E+00 -0.00000000000E+00 -0.33558545517E+04  0.33558545517E+04  0.00000000000E+00 0. -1.
         36    2    1    2    0    0  0.00000000000E+00  0.00000000000E+00 -0.33502240084E+04  0.33614850949E+04  0.27492023731E+03 0.  0.
         25    2    3    3    0    0 -0.50474629557E+02  0.55612525583E+01 -0.18427571175E+04  0.18479921009E+04  0.12939240782E+03 0.  0.
         25    2    3    3    0    0  0.50474629557E+02 -0.55612525583E+01 -0.15074668909E+04  0.15134929940E+04  0.12500399978E+03 0.  0.
          5    1    4    4  502    0 -0.13628979142E+02 -0.52208120328E+02 -0.40631530918E+03  0.40990932824E+03  0.47000000000E+01 0. -1.
         -5    1    4    4    0  502 -0.36845650415E+02  0.57769372887E+02 -0.14364418083E+04  0.14380827727E+04  0.47000000000E+01 0. -1.
          5    1    5    5  503    0  0.51915341873E+02 -0.25607431273E+02 -0.28527726864E+03  0.29112910068E+03  0.47000000000E+01 0. -1.
         -5    1    5    5    0  503 -0.14407123161E+01  0.20046178715E+02 -0.12221896223E+04  0.12223638933E+04  0.47000000000E+01 0. -1.
<mgrwt>
<rscale>  0 0.27492024E+03</rscale>
<asrwt>0</asrwt>
<pdfrwt beam="1">  1        2 0.51628601E+00 0.27492024E+03</pdfrwt>
<pdfrwt beam="2">  1       -2 0.86623626E-03 0.27492024E+03</pdfrwt>
<totfact> 0.33057739E+03</totfact>
</mgrwt>
</event>
<event>
 9    1  0.2117506E-002  0.2748728E+03  0.7818608E-02  0.1098523E+00
          2   -1    0    0  501    0  0.00000000000E+00  0.00000000000E+00  0.16058847978E+04  0.16058847978E+04  0.00000000000E+00 0.  1.
         -2   -1    0    0    0  501 -0.00000000000E+00 -0.00000000000E+00 -0.11762212352E+02  0.11762212352E+02  0.00000000000E+00 0.  1.
         36    2    1    2    0    0  0.00000000000E+00  0.71054273576E-14  0.15941225855E+04  0.16176470102E+04  0.27487275606E+03 0.  0.
         25    2    3    3    0    0  0.26050141038E+02 -0.49028611136E+02  0.83602612407E+03  0.84671912265E+03  0.12211133440E+03 0.  0.
         25    2    3    3    0    0 -0.26050141038E+02  0.49028611136E+02  0.75809646141E+03  0.77092788753E+03  0.12859684447E+03 0.  0.
          5    1    4    4  502    0 -0.27457661890E+02 -0.64847670324E+02  0.60025015538E+03  0.60438521042E+03  0.47000000000E+01 0.  1.
         -5    1    4    4    0  502  0.53507802928E+02  0.15819059188E+02  0.23577596868E+03  0.24233391223E+03  0.47000000000E+01 0.  1.
          5    1    5    5  503    0 -0.41094550964E+02 -0.35132256325E+02  0.31317324743E+03  0.31784054250E+03  0.47000000000E+01 0. -1.
         -5    1    5    5    0  503  0.15044409926E+02  0.84160867460E+02  0.44492321399E+03  0.45308734503E+03  0.47000000000E+01 0. -1.
<mgrwt>
<rscale>  0 0.27487276E+03</rscale>
<asrwt>0</asrwt>
<pdfrwt beam="1">  1        2 0.24705903E+00 0.27487276E+03</pdfrwt>
<pdfrwt beam="2">  1       -2 0.18095724E-02 0.27487276E+03</pdfrwt>
<totfact> 0.10731932E+04</totfact>
</mgrwt>
</event>
<event>
 9    1  0.2117506E-002  0.2750936E+03  0.7818608E-02  0.1098399E+00
          2   -1    0    0  501    0  0.00000000000E+00  0.00000000000E+00  0.84793987180E+03  0.84793987180E+03  0.00000000000E+00 0. -1.
         -2   -1    0    0    0  501 -0.00000000000E+00 -0.00000000000E+00 -0.22311869181E+02  0.22311869181E+02  0.00000000000E+00 0. -1.
         36    2    1    2    0    0  0.71054273576E-14  0.17763568394E-14  0.82562800262E+03  0.87025174098E+03  0.27509360947E+03 0.  0.
         25    2    3    3    0    0  0.45483642264E+02 -0.57709412480E+01  0.33741220759E+03  0.36450141165E+03  0.13004697531E+03 0.  0.
         25    2    3    3    0    0 -0.45483642264E+02  0.57709412480E+01  0.48821579502E+03  0.50575032933E+03  0.12380091932E+03 0.  0.
          5    1    4    4  502    0 -0.36651783873E+02  0.11944155132E+02  0.19708170343E+03  0.20087136165E+03  0.47000000000E+01 0. -1.
         -5    1    4    4    0  502  0.82135426137E+02 -0.17715096379E+02  0.14033050416E+03  0.16363005001E+03  0.47000000000E+01 0. -1.
          5    1    5    5  503    0 -0.81414959160E+02  0.20803846831E+02  0.40628981860E+03  0.41491529535E+03  0.47000000000E+01 0.  1.
         -5    1    5    5    0  503  0.35931316896E+02 -0.15032905583E+02  0.81925976423E+02  0.90835033974E+02  0.47000000000E+01 0.  1.
<mgrwt>
<rscale>  0 0.27509361E+03</rscale>
<asrwt>0</asrwt>
<pdfrwt beam="1">  1        2 0.13045226E+00 0.27509361E+03</pdfrwt>
<pdfrwt beam="2">  1       -2 0.34325959E-02 0.27509361E+03</pdfrwt>
<totfact> 0.11347968E+04</totfact>
</mgrwt>
</event>
<event>
 9    1  0.2117506E-002  0.2750984E+03  0.7818608E-02  0.1098397E+00
          2   -1    0    0  501    0  0.00000000000E+00  0.00000000000E+00  0.56161177134E+02  0.56161177134E+02  0.00000000000E+00 0. -1.
         -2   -1    0    0    0  501 -0.00000000000E+00 -0.00000000000E+00 -0.33688375799E+03  0.33688375799E+03  0.00000000000E+00 0. -1.
         36    2    1    2    0    0 -0.71054273576E-14  0.71054273576E-14 -0.28072258086E+03  0.39304493512E+03  0.27509844351E+03 0.  0.
         25    2    3    3    0    0 -0.48807305931E+02  0.46543681703E+02 -0.11473720950E+03  0.17668275912E+03  0.11620543321E+03 0.  0.
         25    2    3    3    0    0  0.48807305931E+02 -0.46543681703E+02 -0.16598537135E+03  0.21636217600E+03  0.12129707450E+03 0.  0.
          5    1    4    4  502    0  0.35787631057E+02  0.30658277773E+02 -0.31674225296E+02  0.56973950897E+02  0.47000000000E+01 0. -1.
         -5    1    4    4    0  502 -0.84594936988E+02  0.15885403930E+02 -0.83062984207E+02  0.11970880823E+03  0.47000000000E+01 0. -1.
          5    1    5    5  503    0 -0.38661470547E+02 -0.66164124802E+01 -0.70255715237E+02  0.80600507085E+02  0.47000000000E+01 0.  1.
         -5    1    5    5    0  503  0.87468776478E+02 -0.39927269222E+02 -0.95729656117E+02  0.13576166891E+03  0.47000000000E+01 0.  1.
<mgrwt>
<rscale>  0 0.27509844E+03</rscale>
<asrwt>0</asrwt>
<pdfrwt beam="1">  1        2 0.86401811E-02 0.27509844E+03</pdfrwt>
<pdfrwt beam="2">  1       -2 0.51828270E-01 0.27509844E+03</pdfrwt>
<totfact> 0.27441739E+03</totfact>
</mgrwt>
</event>
<event>
 9    1  0.2117506E-002  0.2731654E+03  0.7818608E-02  0.1099482E+00
          2   -1    0    0  501    0  0.00000000000E+00  0.00000000000E+00  0.20497958174E+04  0.20497958174E+04  0.00000000000E+00 0.  1.
         -2   -1    0    0    0  501 -0.00000000000E+00 -0.00000000000E+00 -0.91008244777E+01  0.91008244777E+01  0.00000000000E+00 0.  1.
         36    2    1    2    0    0  0.71054273576E-14 -0.71054273576E-14  0.20406949929E+04  0.20588966418E+04  0.27316538543E+03 0.  0.
         25    2    3    3    0    0 -0.57029860659E+02  0.27786190607E+02  0.11794968207E+04  0.11874564350E+04  0.12171917536E+03 0.  0.
         25    2    3    3    0    0  0.57029860659E+02 -0.27786190607E+02  0.86119817219E+03  0.87144020682E+03  0.11713780296E+03 0.  0.
          5    1    4    4  502    0  0.24367788236E+02 -0.22800500082E+02  0.16339354269E+03  0.16683282561E+03  0.47000000000E+01 0. -1.
         -5    1    4    4    0  502 -0.81397648895E+02  0.50586690688E+02  0.10161032780E+04  0.10206236094E+04  0.47000000000E+01 0. -1.
          5    1    5    5  503    0  0.78472463302E+01  0.44346988277E+02  0.33069314216E+03  0.33377878740E+03  0.47000000000E+01 0.  1.
         -5    1    5    5    0  503  0.49182614329E+02 -0.72133178884E+02  0.53050503003E+03  0.53766141942E+03  0.47000000000E+01 0.  1.
<mgrwt>
<rscale>  0 0.27316539E+03</rscale>
<asrwt>0</asrwt>
<pdfrwt beam="1">  1        2 0.31535284E+00 0.27316539E+03</pdfrwt>
<pdfrwt beam="2">  1       -2 0.14001285E-02 0.27316539E+03</pdfrwt>
<totfact> 0.91260847E+03</totfact>
</mgrwt>
</event>
<event>
 9    1  0.2117506E-002  0.2757130E+03  0.7818608E-02  0.1098054E+00
          1   -1    0    0  501    0  0.00000000000E+00  0.00000000000E+00  0.46496974494E+03  0.46496974494E+03  0.00000000000E+00 0.  1.
         -1   -1    0    0    0  501 -0.00000000000E+00 -0.00000000000E+00 -0.40872355465E+02  0.40872355465E+02  0.00000000000E+00 0.  1.
         36    2    1    2    0    0 -0.71054273576E-14 -0.71054273576E-14  0.42409738947E+03  0.50584210040E+03  0.27571295723E+03 0.  0.
         25    2    3    3    0    0  0.25011772283E+02 -0.60944497574E+02  0.20033572650E+03  0.24076692332E+03  0.11616577600E+03 0.  0.
         25    2    3    3    0    0 -0.25011772283E+02  0.60944497574E+02  0.22376166297E+03  0.26507517708E+03  0.12591960591E+03 0.  0.
          5    1    4    4  502    0 -0.23631136875E+00 -0.64450312708E+02  0.20454241243E+03  0.21450777873E+03  0.47000000000E+01 0.  1.
         -5    1    4    4    0  502  0.25248083652E+02  0.35058151334E+01 -0.42066859363E+01  0.26259144587E+02  0.47000000000E+01 0.  1.
          5    1    5    5  503    0  0.40941434688E+02  0.39367566063E+02  0.42998761495E+02  0.71393205715E+02  0.47000000000E+01 0.  1.
         -5    1    5    5    0  503 -0.65953206972E+02  0.21576931511E+02  0.18076290148E+03  0.19368197137E+03  0.47000000000E+01 0.  1.
<mgrwt>
<rscale>  0 0.27571296E+03</rscale>
<asrwt>0</asrwt>
<pdfrwt beam="1">  1        1 0.71533803E-01 0.27571296E+03</pdfrwt>
<pdfrwt beam="2">  1       -1 0.62880550E-02 0.27571296E+03</pdfrwt>
<totfact> 0.61591657E+03</totfact>
</mgrwt>
</event>
<event>
 9    1  0.2117506E-002  0.2749354E+03  0.7818608E-02  0.1098488E+00
         -1   -1    0    0    0  501 -0.00000000000E+00  0.00000000000E+00  0.41583571538E+03  0.41583571538E+03  0.00000000000E+00 0.  1.
          1   -1    0    0  501    0  0.00000000000E+00 -0.00000000000E+00 -0.45444321156E+02  0.45444321156E+02  0.00000000000E+00 0.  1.
         36    2    1    2    0    0  0.00000000000E+00  0.00000000000E+00  0.37039139422E+03  0.46128003653E+03  0.27493542367E+03 0.  0.
         25    2    3    3    0    0  0.21257108663E+02  0.47537132584E+02  0.20762777736E+03  0.24853659953E+03  0.12629134463E+03 0.  0.
         25    2    3    3    0    0 -0.21257108663E+02 -0.47537132584E+02  0.16276361686E+03  0.21274343700E+03  0.12671279088E+03 0.  0.
          5    1    4    4  502    0  0.19856101539E+02  0.83985098263E+02  0.18785126513E+03  0.20677995384E+03  0.47000000000E+01 0. -1.
         -5    1    4    4    0  502  0.14010071246E+01 -0.36447965679E+02  0.19776512232E+02  0.41756645689E+02  0.47000000000E+01 0. -1.
          5    1    5    5  503    0 -0.44152723184E+02 -0.75337275550E+02  0.66516180416E+02  0.10987110771E+03  0.47000000000E+01 0. -1.
         -5    1    5    5    0  503  0.22895614520E+02  0.27800142966E+02  0.96247436443E+02  0.10287232930E+03  0.47000000000E+01 0. -1.
<mgrwt>
<rscale>  0 0.27493542E+03</rscale>
<asrwt>0</asrwt>
<pdfrwt beam="1">  1        1 0.69914343E-02 0.27493542E+03</pdfrwt>
<pdfrwt beam="2">  1       -1 0.63974723E-01 0.27493542E+03</pdfrwt>
<totfact> 0.26752667E+03</totfact>
</mgrwt>
</event>
<event>
 9    1  0.2117506E-002  0.2749348E+03  0.7818608E-02  0.1098488E+00
         -1   -1    0    0    0  501 -0.00000000000E+00  0.00000000000E+00  0.62145688796E+02  0.62145688796E+02  0.00000000000E+00 0.  1.
          1   -1    0    0  501    0  0.00000000000E+00 -0.00000000000E+00 -0.30408046905E+03  0.30408046905E+03  0.00000000000E+00 0.  1.
         36    2    1    2    0    0  0.00000000000E+00  0.00000000000E+00 -0.24193478025E+03  0.36622615784E+03  0.27493483008E+03 0.  0.
         25    2    3    3    0    0 -0.11515265389E+02  0.41741278753E+02 -0.18146717188E+03  0.22408826219E+03  0.12413814518E+03 0.  0.
         25    2    3    3    0    0  0.11515265389E+02 -0.41741278753E+02 -0.60467608365E+02  0.14213789565E+03  0.12112767657E+03 0.  0.
          5    1    4    4  502    0  0.28325127210E+02 -0.61009686985E+01 -0.15242996160E+03  0.15523053129E+03  0.47000000000E+01 0. -1.
         -5    1    4    4    0  502 -0.39840392598E+02  0.47842247451E+02 -0.29037210283E+02  0.68857730899E+02  0.47000000000E+01 0. -1.
          5    1    5    5  503    0  0.61377225351E+02  0.27319204759E+01 -0.30703762303E+02  0.68843577775E+02  0.47000000000E+01 0. -1.
         -5    1    5    5    0  503 -0.49861959963E+02 -0.44473199229E+02 -0.29763846063E+02  0.73294317879E+02  0.47000000000E+01 0. -1.
<mgrwt>
<rscale>  0 0.27493483E+03</rscale>
<asrwt>0</asrwt>
<pdfrwt beam="1">  1        1 0.46781610E-01 0.27493483E+03</pdfrwt>
<pdfrwt beam="2">  1       -1 0.95608754E-02 0.27493483E+03</pdfrwt>
<totfact> 0.55924844E+03</totfact>
</mgrwt>
</event>
<event>
 9    1  0.2117506E-002  0.2748879E+03  0.7818608E-02  0.1098514E+00
         -2   -1    0    0    0  501 -0.00000000000E+00  0.00000000000E+00  0.28457966786E+03  0.28457966786E+03  0.00000000000E+00 0. -1.
          2   -1    0    0  501    0  0.00000000000E+00 -0.00000000000E+00 -0.66381556220E+02  0.66381556220E+02  0.00000000000E+00 0. -1.
         36    2    1    2    0    0 -0.35527136788E-14  0.00000000000E+00  0.21819811164E+03  0.35096122408E+03  0.27488791331E+03 0.  0.
         25    2    3    3    0    0 -0.28375729950E+02 -0.50571937554E+02  0.11686653881E+03  0.17978824852E+03  0.12370660247E+03 0.  0.
         25    2    3    3    0    0  0.28375729950E+02  0.50571937554E+02  0.10133157283E+03  0.17117297556E+03  0.12517746199E+03 0.  0.
          5    1    4    4  502    0 -0.24822749073E+02  0.19063360345E+02  0.10402636905E+03  0.10873433697E+03  0.47000000000E+01 0. -1.
         -5    1    4    4    0  502 -0.35529808769E+01 -0.69635297899E+02  0.12840169757E+02  0.71053911546E+02  0.47000000000E+01 0. -1.
          5    1    5    5  503    0  0.17034268577E+02 -0.41416954393E+02  0.29742104012E+02  0.53964925352E+02  0.47000000000E+01 0.  1.
         -5    1    5    5    0  503  0.11341461372E+02  0.91988891947E+02  0.71589468822E+02  0.11720805021E+03  0.47000000000E+01 0.  1.
<mgrwt>
<rscale>  0 0.27488791E+03</rscale>
<asrwt>0</asrwt>
<pdfrwt beam="1">  1        2 0.10212547E-01 0.27488791E+03</pdfrwt>
<pdfrwt beam="2">  1       -2 0.43781487E-01 0.27488791E+03</pdfrwt>
<totfact> 0.31072888E+03</totfact>
</mgrwt>
</event>
<event>
 9    1  0.2117506E-002  0.2757958E+03  0.7818608E-02  0.1098008E+00
         -2   -1    0    0    0  501 -0.00000000000E+00  0.00000000000E+00  0.18342763906E+02  0.18342763906E+02  0.00000000000E+00 0.  1.
          2   -1    0    0  501    0  0.00000000000E+00 -0.00000000000E+00 -0.10366941338E+04  0.10366941338E+04  0.00000000000E+00 0.  1.
         36    2    1    2    0    0  0.00000000000E+00 -0.10658141036E-13 -0.10183513699E+04  0.10550368977E+04  0.27579583564E+03 0.  0.
         25    2    3    3    0    0 -0.40778944020E+02  0.27417058186E+02 -0.60411086587E+03  0.61914417470E+03  0.12639206241E+03 0.  0.
         25    2    3    3    0    0  0.40778944020E+02 -0.27417058186E+02 -0.41424050398E+03  0.43589272297E+03  0.12646206326E+03 0.  0.
          5    1    4    4  502    0  0.20851508966E+02 -0.36960709570E+02 -0.13402477490E+03  0.14066133003E+03  0.47000000000E+01 0.  1.
         -5    1    4    4    0  502 -0.61630452986E+02  0.64377767755E+02 -0.47008609098E+03  0.47848284467E+03  0.47000000000E+01 0.  1.
          5    1    5    5  503    0 -0.31111263065E+02 -0.43367506585E+02 -0.25240595532E+03  0.25803005174E+03  0.47000000000E+01 0. -1.
         -5    1    5    5    0  503  0.71890207084E+02  0.15950448399E+02 -0.16183454866E+03  0.17786267124E+03  0.47000000000E+01 0. -1.
<mgrwt>
<rscale>  0 0.27579584E+03</rscale>
<asrwt>0</asrwt>
<pdfrwt beam="1">  1        2 0.15949142E+00 0.27579584E+03</pdfrwt>
<pdfrwt beam="2">  1       -2 0.28219635E-02 0.27579584E+03</pdfrwt>
<totfact> 0.11545289E+04</totfact>
</mgrwt>
</event>
<event>
 9    1  0.2117506E-002  0.2748512E+03  0.7818608E-02  0.1098535E+00
          1   -1    0    0  501    0  0.00000000000E+00  0.00000000000E+00  0.18540534019E+04  0.18540534019E+04  0.00000000000E+00 0.  1.
         -1   -1    0    0    0  501 -0.00000000000E+00 -0.00000000000E+00 -0.10186219349E+02  0.10186219349E+02  0.00000000000E+00 0.  1.
         36    2    1    2    0    0 -0.35527136788E-14 -0.71054273576E-14  0.18438671825E+04  0.18642396212E+04  0.27485119346E+03 0.  0.
         25    2    3    3    0    0 -0.25082116802E+02  0.39408799951E+02  0.67243102464E+03  0.68547183904E+03  0.12460334314E+03 0.  0.
         25    2    3    3    0    0  0.25082116802E+02 -0.39408799951E+02  0.11714361579E+04  0.11787677822E+04  0.12267292373E+03 0.  0.
          5    1    4    4  502    0 -0.55882897045E+02 -0.73286706802E+01  0.15491214901E+03  0.16491352737E+03  0.47000000000E+01 0. -1.
         -5    1    4    4    0  502  0.30800780242E+02  0.46737470631E+02  0.51751887562E+03  0.52055831167E+03  0.47000000000E+01 0. -1.
          5    1    5    5  503    0 -0.27273880470E+02  0.29513389619E+02  0.52317917204E+03  0.52474130843E+03  0.47000000000E+01 0. -1.
         -5    1    5    5    0  503  0.52355997272E+02 -0.68922189571E+02  0.64825698585E+03  0.65402647375E+03  0.47000000000E+01 0. -1.
<mgrwt>
<rscale>  0 0.27485119E+03</rscale>
<asrwt>0</asrwt>
<pdfrwt beam="1">  1        1 0.28523872E+00 0.27485119E+03</pdfrwt>
<pdfrwt beam="2">  1       -1 0.15671121E-02 0.27485119E+03</pdfrwt>
<totfact> 0.41094471E+03</totfact>
</mgrwt>
</event>
<event>
 8    1  0.2117506E-002  0.2584476E+03  0.7818608E-02  0.1108080E+00
          2   -1    0    0  501    0  0.00000000000E+00  0.00000000000E+00  0.66409565146E+02  0.66409565146E+02  0.00000000000E+00 0.  1.
         -2   -1    0    0    0  501 -0.00000000000E+00 -0.00000000000E+00 -0.25145154231E+03  0.25145154231E+03  0.00000000000E+00 0.  1.
         25    2    1    2    0    0  0.19802554311E+02 -0.46529388896E+01 -0.99260796331E+02  0.16399151910E+03  0.12894464569E+03 0.  0.
         25    2    1    2    0    0 -0.19802554311E+02  0.46529388896E+01 -0.85781180829E+02  0.15386958835E+03  0.12610966750E+03 0.  0.
          5    1    3    3  502    0  0.74465084145E+02 -0.96178250213E+01 -0.61980323999E+02  0.97474108756E+02  0.47000000000E+01 0. -1.
         -5    1    3    3    0  502 -0.54662529834E+02  0.49648861317E+01 -0.37280472332E+02  0.66517410348E+02  0.47000000000E+01 0. -1.
          5    1    4    4  503    0  0.91456050222E+01 -0.38492675247E+02  0.13207978623E+02  0.41974621359E+02  0.47000000000E+01 0. -1.
         -5    1    4    4    0  503 -0.28948159333E+02  0.43145614137E+02 -0.98989159452E+02  0.11189496699E+03  0.47000000000E+01 0. -1.
<mgrwt>
<rscale>  0 0.25844758E+03</rscale>
<asrwt>0</asrwt>
<pdfrwt beam="1">  1        2 0.10216856E-01 0.25844758E+03</pdfrwt>
<pdfrwt beam="2">  1       -2 0.38684853E-01 0.25844758E+03</pdfrwt>
<totfact> 0.39304615E+03</totfact>
</mgrwt>
</event>
<event>
 9    1  0.2117506E-002  0.2747929E+03  0.7818608E-02  0.1098567E+00
          1   -1    0    0  501    0  0.00000000000E+00  0.00000000000E+00  0.24209949469E+02  0.24209949469E+02  0.00000000000E+00 0.  1.
         -1   -1    0    0    0  501 -0.00000000000E+00 -0.00000000000E+00 -0.77975295812E+03  0.77975295812E+03  0.00000000000E+00 0.  1.
         36    2    1    2    0    0 -0.53290705182E-14  0.71054273576E-14 -0.75554300865E+03  0.80396290759E+03  0.27479286537E+03 0.  0.
         25    2    3    3    0    0  0.14459027722E+02  0.27490929788E+02 -0.23833884578E+03  0.27113314439E+03  0.12547096030E+03 0.  0.
         25    2    3    3    0    0 -0.14459027722E+02 -0.27490929788E+02 -0.51720416288E+03  0.53282976320E+03  0.12426824113E+03 0.  0.
          5    1    4    4  502    0 -0.37133260112E+01 -0.42935980452E+02 -0.15241406598E+03  0.15845953652E+03  0.47000000000E+01 0. -1.
         -5    1    4    4    0  502  0.18172353733E+02  0.70426910240E+02 -0.85924779799E+02  0.11267360787E+03  0.47000000000E+01 0. -1.
          5    1    5    5  503    0  0.23854383702E+02  0.37919069453E+02 -0.28452577736E+03  0.28806925458E+03  0.47000000000E+01 0.  1.
         -5    1    5    5    0  503 -0.38313411424E+02 -0.65409999241E+02 -0.23267838552E+03  0.24476050862E+03  0.47000000000E+01 0.  1.
<mgrwt>
<rscale>  0 0.27479287E+03</rscale>
<asrwt>0</asrwt>
<pdfrwt beam="1">  1        1 0.37246074E-02 0.27479287E+03</pdfrwt>
<pdfrwt beam="2">  1       -1 0.11996200E+00 0.27479287E+03</pdfrwt>
<totfact> 0.16623523E+03</totfact>
</mgrwt>
</event>
<event>
 9    1  0.2117506E-002  0.2735147E+03  0.7818608E-02  0.1099285E+00
         -2   -1    0    0    0  501 -0.00000000000E+00  0.00000000000E+00  0.34464164351E+02  0.34464164351E+02  0.00000000000E+00 0.  1.
          2   -1    0    0  501    0  0.00000000000E+00 -0.00000000000E+00 -0.54266708505E+03  0.54266708505E+03  0.00000000000E+00 0.  1.
         36    2    1    2    0    0  0.00000000000E+00  0.00000000000E+00 -0.50820292070E+03  0.57713124940E+03  0.27351466218E+03 0.  0.
         25    2    3    3    0    0  0.19900278685E+02  0.31466802176E+02 -0.17659795433E+03  0.21984527311E+03  0.12553456060E+03 0.  0.
         25    2    3    3    0    0 -0.19900278685E+02 -0.31466802176E+02 -0.33160496637E+03  0.35728597629E+03  0.12769195120E+03 0.  0.
          5    1    4    4  502    0  0.62634588390E+01 -0.48597664656E+02 -0.58780591363E+02  0.76669497505E+02  0.47000000000E+01 0.  1.
         -5    1    4    4    0  502  0.13636819846E+02  0.80064466832E+02 -0.11781736296E+03  0.14317577561E+03  0.47000000000E+01 0.  1.
          5    1    5    5  503    0  0.23641847803E+01  0.26399444304E+02 -0.26425238317E+03  0.26561990143E+03  0.47000000000E+01 0.  1.
         -5    1    5    5    0  503 -0.22264463465E+02 -0.57866246480E+02 -0.67352583207E+02  0.91666074857E+02  0.47000000000E+01 0.  1.
<mgrwt>
<rscale>  0 0.27351466E+03</rscale>
<asrwt>0</asrwt>
<pdfrwt beam="1">  1        2 0.83487242E-01 0.27351466E+03</pdfrwt>
<pdfrwt beam="2">  1       -2 0.53021792E-02 0.27351466E+03</pdfrwt>
<totfact> 0.10091771E+04</totfact>
</mgrwt>
</event>
<event>
 9    1  0.2117506E-002  0.2762563E+03  0.7818608E-02  0.1097751E+00
          1   -1    0    0  501    0  0.00000000000E+00  0.00000000000E+00  0.16074379751E+03  0.16074379751E+03  0.00000000000E+00 0.  1.
         -1   -1    0    0    0  501 -0.00000000000E+00 -0.00000000000E+00 -0.11869440337E+03  0.11869440337E+03  0.00000000000E+00 0.  1.
         36    2    1    2    0    0  0.00000000000E+00  0.00000000000E+00  0.42049394140E+02  0.27943820088E+03  0.27625632402E+03 0.  0.
         25    2    3    3    0    0 -0.30753196818E+01  0.47106084674E+02 -0.19866020839E+02  0.13352627779E+03  0.12331328911E+03 0.  0.
         25    2    3    3    0    0  0.30753196818E+01 -0.47106084674E+02  0.61915414979E+02  0.14591192309E+03  0.12340311942E+03 0.  0.
          5    1    4    4  502    0  0.38194353938E+02 -0.22423164065E+02 -0.27226273521E+02  0.52201215783E+02  0.47000000000E+01 0. -1.
         -5    1    4    4    0  502 -0.41269673619E+02  0.69529248739E+02  0.73602526818E+01  0.81325062007E+02  0.47000000000E+01 0. -1.
          5    1    5    5  503    0  0.54093758468E+02 -0.28054078212E+01  0.33443189859E+00  0.54371011237E+02  0.47000000000E+01 0.  1.
         -5    1    5    5    0  503 -0.51018438786E+02 -0.44300676853E+02  0.61580983080E+02  0.91540911853E+02  0.47000000000E+01 0.  1.
<mgrwt>
<rscale>  0 0.27625632E+03</rscale>
<asrwt>0</asrwt>
<pdfrwt beam="1">  1        1 0.24729815E-01 0.27625632E+03</pdfrwt>
<pdfrwt beam="2">  1       -1 0.18260678E-01 0.27625632E+03</pdfrwt>
<totfact> 0.45107535E+03</totfact>
</mgrwt>
</event>
<event>
 9    1  0.2117506E-002  0.2738156E+03  0.7818608E-02  0.1099116E+00
          1   -1    0    0  501    0  0.00000000000E+00  0.00000000000E+00  0.30318052582E+03  0.30318052582E+03  0.00000000000E+00 0. -1.
         -1   -1    0    0    0  501 -0.00000000000E+00 -0.00000000000E+00 -0.61823699631E+02  0.61823699631E+02  0.00000000000E+00 0. -1.
         36    2    1    2    0    0  0.71054273576E-14 -0.71054273576E-14  0.24135682619E+03  0.36500422545E+03  0.27381557123E+03 0.  0.
         25    2    3    3    0    0  0.27164962577E+02 -0.39978613784E+02  0.14112136211E+03  0.19757444746E+03  0.12955384477E+03 0.  0.
         25    2    3    3    0    0 -0.27164962577E+02  0.39978613784E+02  0.10023546409E+03  0.16742977799E+03  0.12509739224E+03 0.  0.
          5    1    4    4  502    0  0.28294068040E+02  0.42025317507E+02  0.81476776753E+02  0.96058506900E+02  0.47000000000E+01 0.  1.
         -5    1    4    4    0  502 -0.11291054634E+01 -0.82003931291E+02  0.59644585354E+02  0.10151594056E+03  0.47000000000E+01 0.  1.
          5    1    5    5  503    0 -0.76965292362E+02  0.30385907432E+02  0.56617426862E+02  0.10037222038E+03  0.47000000000E+01 0.  1.
         -5    1    5    5    0  503  0.49800329786E+02  0.95927063522E+01  0.43618037224E+02  0.67057557614E+02  0.47000000000E+01 0.  1.
<mgrwt>
<rscale>  0 0.27381557E+03</rscale>
<asrwt>0</asrwt>
<pdfrwt beam="1">  1        1 0.46643157E-01 0.27381557E+03</pdfrwt>
<pdfrwt beam="2">  1       -1 0.95113386E-02 0.27381557E+03</pdfrwt>
<totfact> 0.56577457E+03</totfact>
</mgrwt>
</event>
<event>
 9    1  0.2117506E-002  0.2753030E+03  0.7818608E-02  0.1098282E+00
         -2   -1    0    0    0  501 -0.00000000000E+00  0.00000000000E+00  0.10030587385E+04  0.10030587385E+04  0.00000000000E+00 0. -1.
          2   -1    0    0  501    0  0.00000000000E+00 -0.00000000000E+00 -0.18890155995E+02  0.18890155995E+02  0.00000000000E+00 0. -1.
         36    2    1    2    0    0 -0.71054273576E-14  0.00000000000E+00  0.98416858253E+03  0.10219488945E+04  0.27530300429E+03 0.  0.
         25    2    3    3    0    0  0.20063126408E+02 -0.16135185002E+02  0.32983672432E+03  0.35427808686E+03  0.12671947318E+03 0.  0.
         25    2    3    3    0    0 -0.20063126408E+02  0.16135185002E+02  0.65433185821E+03  0.66767080766E+03  0.13027376364E+03 0.  0.
          5    1    4    4  502    0  0.12005853799E+02  0.46364953842E+02  0.58852967496E+02  0.76023754533E+02  0.47000000000E+01 0.  1.
         -5    1    4    4    0  502  0.80572726094E+01 -0.62500138844E+02  0.27098375682E+03  0.27825433233E+03  0.47000000000E+01 0.  1.
          5    1    5    5  503    0  0.11741200632E+02 -0.34176678975E+02  0.58961775597E+02  0.69314371955E+02  0.47000000000E+01 0. -1.
         -5    1    5    5    0  503 -0.31804327040E+02  0.50311863977E+02  0.59537008262E+03  0.59835643570E+03  0.47000000000E+01 0. -1.
<mgrwt>
<rscale>  0 0.27530300E+03</rscale>
<asrwt>0</asrwt>
<pdfrwt beam="1">  1        2 0.29061786E-02 0.27530300E+03</pdfrwt>
<pdfrwt beam="2">  1       -2 0.15431669E+00 0.27530300E+03</pdfrwt>
<totfact> 0.96406203E+02</totfact>
</mgrwt>
</event>
<event>
 9    1  0.2117506E-002  0.2747958E+03  0.7818608E-02  0.1098566E+00
         -2   -1    0    0    0  501 -0.00000000000E+00  0.00000000000E+00  0.10600256278E+03  0.10600256278E+03  0.00000000000E+00 0.  1.
          2   -1    0    0  501    0  0.00000000000E+00 -0.00000000000E+00 -0.17809174998E+03  0.17809174998E+03  0.00000000000E+00 0.  1.
         36    2    1    2    0    0  0.00000000000E+00  0.14210854715E-13 -0.72089187199E+02  0.28409431277E+03  0.27479579261E+03 0.  0.
         25    2    3    3    0    0 -0.19286511065E+02 -0.67944065139E+02 -0.99924299119E+02  0.17379378796E+03  0.12341413890E+03 0.  0.
         25    2    3    3    0    0  0.19286511065E+02  0.67944065139E+02  0.27835111920E+02  0.11030052481E+03  0.80019040366E+02 0.  0.
          5    1    4    4  502    0 -0.42241667889E+02  0.23949443576E+01  0.75442562040E+01  0.43233089945E+02  0.47000000000E+01 0. -1.
         -5    1    4    4    0  502  0.22955156824E+02 -0.70339009496E+02 -0.10746855532E+03  0.13056069801E+03  0.47000000000E+01 0. -1.
          5    1    5    5  503    0  0.14337499978E+02  0.36870500114E+02  0.55378875869E+02  0.68219554211E+02  0.47000000000E+01 0.  1.
         -5    1    5    5    0  503  0.49490110870E+01  0.31073565024E+02 -0.27543763948E+02  0.42080970598E+02  0.47000000000E+01 0.  1.
<mgrwt>
<rscale>  0 0.27479579E+03</rscale>
<asrwt>0</asrwt>
<pdfrwt beam="1">  1        2 0.27398730E-01 0.27479579E+03</pdfrwt>
<pdfrwt beam="2">  1       -2 0.16308087E-01 0.27479579E+03</pdfrwt>
<totfact> 0.57317074E+03</totfact>
</mgrwt>
</event>
<event>
 9    1  0.2117506E-002  0.2735881E+03  0.7818608E-02  0.1099243E+00
          1   -1    0    0  501    0  0.00000000000E+00  0.00000000000E+00  0.10816111846E+04  0.10816111846E+04  0.00000000000E+00 0. -1.
         -1   -1    0    0    0  501 -0.00000000000E+00 -0.00000000000E+00 -0.17300680582E+02  0.17300680582E+02  0.00000000000E+00 0. -1.
         36    2    1    2    0    0  0.71054273576E-14  0.71054273576E-14  0.10643105040E+04  0.10989118652E+04  0.27358808175E+03 0.  0.
         25    2    3    3    0    0  0.38159635755E+02  0.41568401435E+02  0.46441618196E+03  0.48366916640E+03  0.12275741387E+03 0.  0.
         25    2    3    3    0    0 -0.38159635755E+02 -0.41568401435E+02  0.59989432207E+03  0.61524269880E+03  0.12436354357E+03 0.  0.
          5    1    4    4  502    0  0.71573539483E+01  0.80570799426E+02  0.34097398991E+03  0.35046859093E+03  0.47000000000E+01 0. -1.
         -5    1    4    4    0  502  0.31002281807E+02 -0.39002397991E+02  0.12344219206E+03  0.13320057547E+03  0.47000000000E+01 0. -1.
          5    1    5    5  503    0  0.45063862247E+02 -0.65217957371E+01  0.18084512853E+03  0.18654848167E+03  0.47000000000E+01 0.  1.
         -5    1    5    5    0  503 -0.83223498001E+02 -0.35046605698E+02  0.41904919354E+03  0.42869421713E+03  0.47000000000E+01 0.  1.
<mgrwt>
<rscale>  0 0.27358808E+03</rscale>
<asrwt>0</asrwt>
<pdfrwt beam="1">  1        1 0.16640167E+00 0.27358808E+03</pdfrwt>
<pdfrwt beam="2">  1       -1 0.26616440E-02 0.27358808E+03</pdfrwt>
<totfact> 0.62609147E+03</totfact>
</mgrwt>
</event>
<event>
 9    1  0.2117506E-002  0.2658324E+03  0.7818608E-02  0.1103689E+00
         -2   -1    0    0    0  501 -0.00000000000E+00  0.00000000000E+00  0.11253176250E+02  0.11253176250E+02  0.00000000000E+00 0.  1.
          2   -1    0    0  501    0  0.00000000000E+00 -0.00000000000E+00 -0.15699312670E+04  0.15699312670E+04  0.00000000000E+00 0.  1.
         36    2    1    2    0    0 -0.35527136788E-14  0.00000000000E+00 -0.15586780908E+04  0.15811844433E+04  0.26583237762E+03 0.  0.
         25    2    3    3    0    0 -0.13518475411E+02  0.21537383072E+02 -0.10115003133E+04  0.10192073592E+04  0.12249142551E+03 0.  0.
         25    2    3    3    0    0  0.13518475411E+02 -0.21537383072E+02 -0.54717777750E+03  0.56197708403E+03  0.12557115411E+03 0.  0.
          5    1    4    4  502    0  0.17590643704E+01  0.65355801243E+02 -0.79717955834E+03  0.79986987273E+03  0.47000000000E+01 0.  1.
         -5    1    4    4    0  502 -0.15277539782E+02 -0.43818418171E+02 -0.21432075494E+03  0.21933748652E+03  0.47000000000E+01 0.  1.
          5    1    5    5  503    0  0.12652978077E+02  0.51170709067E+02 -0.17903706385E+03  0.18669466932E+03  0.47000000000E+01 0.  1.
         -5    1    5    5    0  503  0.86549733446E+00 -0.72708092139E+02 -0.36814071365E+03  0.37528241471E+03  0.47000000000E+01 0.  1.
<mgrwt>
<rscale>  0 0.26583238E+03</rscale>
<asrwt>0</asrwt>
<pdfrwt beam="1">  1        2 0.24152788E+00 0.26583238E+03</pdfrwt>
<pdfrwt beam="2">  1       -2 0.17312580E-02 0.26583238E+03</pdfrwt>
<totfact> 0.11956958E+04</totfact>
</mgrwt>
</event>
<event>
 9    1  0.2117506E-002  0.2758501E+03  0.7818608E-02  0.1097977E+00
          1   -1    0    0  501    0  0.00000000000E+00  0.00000000000E+00  0.92070449552E+03  0.92070449552E+03  0.00000000000E+00 0. -1.
         -1   -1    0    0    0  501 -0.00000000000E+00 -0.00000000000E+00 -0.20661705724E+02  0.20661705724E+02  0.00000000000E+00 0. -1.
         36    2    1    2    0    0  0.00000000000E+00 -0.35527136788E-14  0.90004278979E+03  0.94136620124E+03  0.27585014297E+03 0.  0.
         25    2    3    3    0    0 -0.48867452409E+02 -0.22788028459E+02  0.39867027360E+03  0.42205838729E+03  0.12762434361E+03 0.  0.
         25    2    3    3    0    0  0.48867452409E+02  0.22788028459E+02  0.50137251619E+03  0.51930781395E+03  0.12409223784E+03 0.  0.
          5    1    4    4  502    0 -0.88515389284E+02  0.11114098435E+01  0.21439621184E+03  0.23200007548E+03  0.47000000000E+01 0. -1.
         -5    1    4    4    0  502  0.39647936875E+02 -0.23899438303E+02  0.18427406175E+03  0.19005831180E+03  0.47000000000E+01 0. -1.
          5    1    5    5  503    0 -0.37228868639E+01  0.14646497762E+02  0.75126727156E+00  0.15844058376E+02  0.47000000000E+01 0. -1.
         -5    1    5    5    0  503  0.52590339272E+02  0.81415306970E+01  0.50062124892E+03  0.50346375558E+03  0.47000000000E+01 0. -1.
<mgrwt>
<rscale>  0 0.27585014E+03</rscale>
<asrwt>0</asrwt>
<pdfrwt beam="1">  1        1 0.14164681E+00 0.27585014E+03</pdfrwt>
<pdfrwt beam="2">  1       -1 0.31787247E-02 0.27585014E+03</pdfrwt>
<totfact> 0.63619325E+03</totfact>
</mgrwt>
</event>
<event>
 9    1  0.2117506E-002  0.2750990E+03  0.7818608E-02  0.1098396E+00
          1   -1    0    0  501    0  0.00000000000E+00  0.00000000000E+00  0.19044954794E+03  0.19044954794E+03  0.00000000000E+00 0. -1.
         -1   -1    0    0    0  501 -0.00000000000E+00 -0.00000000000E+00 -0.99343194953E+02  0.99343194953E+02  0.00000000000E+00 0. -1.
         36    2    1    2    0    0 -0.71054273576E-14  0.71054273576E-14  0.91106352987E+02  0.28979274289E+03  0.27509901177E+03 0.  0.
         25    2    3    3    0    0 -0.60147087204E+02 -0.19720247837E+02  0.28825637196E+02  0.13725026864E+03  0.11832226590E+03 0.  0.
         25    2    3    3    0    0  0.60147087204E+02  0.19720247837E+02  0.62280715791E+02  0.15254247426E+03  0.12403128081E+03 0.  0.
          5    1    4    4  502    0  0.13953676267E+02  0.34443783488E+02 -0.78913808431E+01  0.38281107533E+02  0.47000000000E+01 0. -1.
         -5    1    4    4    0  502 -0.74100763470E+02 -0.54164031325E+02  0.36717018039E+02  0.98969161106E+02  0.47000000000E+01 0. -1.
          5    1    5    5  503    0 -0.29355172356E+02 -0.11712049461E+02 -0.96750827687E+01  0.33385557854E+02  0.47000000000E+01 0. -1.
         -5    1    5    5    0  503  0.89502259560E+02  0.31432297298E+02  0.71955798559E+02  0.11915691640E+03  0.47000000000E+01 0. -1.
<mgrwt>
<rscale>  0 0.27509901E+03</rscale>
<asrwt>0</asrwt>
<pdfrwt beam="1">  1        1 0.29299930E-01 0.27509901E+03</pdfrwt>
<pdfrwt beam="2">  1       -1 0.15283568E-01 0.27509901E+03</pdfrwt>
<totfact> 0.48360336E+03</totfact>
</mgrwt>
</event>
<event>
 9    1  0.2117506E-002  0.2750172E+03  0.7818608E-02  0.1098442E+00
          2   -1    0    0  501    0  0.00000000000E+00  0.00000000000E+00  0.81766852812E+03  0.81766852812E+03  0.00000000000E+00 0. -1.
         -2   -1    0    0    0  501 -0.00000000000E+00 -0.00000000000E+00 -0.23125040944E+02  0.23125040944E+02  0.00000000000E+00 0. -1.
         36    2    1    2    0    0  0.00000000000E+00  0.00000000000E+00  0.79454348717E+03  0.84079356906E+03  0.27501722267E+03 0.  0.
         25    2    3    3    0    0  0.45307101360E+02 -0.17290963459E+02  0.31476798143E+03  0.34314773677E+03  0.12774887969E+03 0.  0.
         25    2    3    3    0    0 -0.45307101360E+02  0.17290963459E+02  0.47977550574E+03  0.49764583229E+03  0.12294359537E+03 0.  0.
          5    1    4    4  502    0  0.63565031066E+02 -0.48576749185E+02  0.28492133362E+03  0.29597714454E+03  0.47000000000E+01 0.  1.
         -5    1    4    4    0  502 -0.18257929706E+02  0.31285785726E+02  0.29846647811E+02  0.47170592229E+02  0.47000000000E+01 0.  1.
          5    1    5    5  503    0  0.32808635011E+02  0.30958228215E+02  0.10231794613E+03  0.11191903558E+03  0.47000000000E+01 0.  1.
         -5    1    5    5    0  503 -0.78115736371E+02 -0.13667264756E+02  0.37745755961E+03  0.38572679672E+03  0.47000000000E+01 0.  1.
<mgrwt>
<rscale>  0 0.27501722E+03</rscale>
<asrwt>0</asrwt>
<pdfrwt beam="1">  1        2 0.12579514E+00 0.27501722E+03</pdfrwt>
<pdfrwt beam="2">  1       -2 0.35576992E-02 0.27501722E+03</pdfrwt>
<totfact> 0.11274002E+04</totfact>
</mgrwt>
</event>
<event>
 9    1  0.2117506E-002  0.2751854E+03  0.7818608E-02  0.1098348E+00
         -1   -1    0    0    0  501 -0.00000000000E+00  0.00000000000E+00  0.42830250214E+02  0.42830250214E+02  0.00000000000E+00 0.  1.
          1   -1    0    0  501    0  0.00000000000E+00 -0.00000000000E+00 -0.44201828635E+03  0.44201828635E+03  0.00000000000E+00 0.  1.
         36    2    1    2    0    0 -0.71054273576E-14  0.71054273576E-14 -0.39918803613E+03  0.48484853656E+03  0.27518541970E+03 0.  0.
         25    2    3    3    0    0 -0.32201890485E+02  0.11326249383E+02 -0.10784104402E+03  0.16669870996E+03  0.12244804387E+03 0.  0.
         25    2    3    3    0    0  0.32201890485E+02 -0.11326249383E+02 -0.29134699211E+03  0.31814982660E+03  0.12317059991E+03 0.  0.
          5    1    4    4  502    0 -0.66290101240E+02  0.17932278386E+02 -0.11195102559E+03  0.13141942878E+03  0.47000000000E+01 0. -1.
         -5    1    4    4    0  502  0.34088210755E+02 -0.66060290029E+01  0.41099815667E+01  0.35279281174E+02  0.47000000000E+01 0. -1.
          5    1    5    5  503    0 -0.43941965350E+01  0.52867962292E+02 -0.13612813755E+03  0.14617554595E+03  0.47000000000E+01 0. -1.
         -5    1    5    5    0  503  0.36596087020E+02 -0.64194211675E+02 -0.15521885456E+03  0.17197428066E+03  0.47000000000E+01 0. -1.
<mgrwt>
<rscale>  0 0.27518542E+03</rscale>
<asrwt>0</asrwt>
<pdfrwt beam="1">  1        1 0.68002818E-01 0.27518542E+03</pdfrwt>
<pdfrwt beam="2">  1       -1 0.65892689E-02 0.27518542E+03</pdfrwt>
<totfact> 0.61298613E+03</totfact>
</mgrwt>
</event>
<event>
 9    1  0.2117506E-002  0.2750502E+03  0.7818608E-02  0.1098424E+00
          2   -1    0    0  501    0  0.00000000000E+00  0.00000000000E+00  0.43688860180E+03  0.43688860180E+03  0.00000000000E+00 0.  1.
         -2   -1    0    0    0  501 -0.00000000000E+00 -0.00000000000E+00 -0.43290559970E+02  0.43290559970E+02  0.00000000000E+00 0.  1.
         36    2    1    2    0    0  0.35527136788E-14  0.00000000000E+00  0.39359804183E+03  0.48017916177E+03  0.27505019336E+03 0.  0.
         25    2    3    3    0    0  0.13734654707E+01 -0.51434449679E+02  0.24166623753E+03  0.27552395961E+03  0.12191592570E+03 0.  0.
         25    2    3    3    0    0 -0.13734654707E+01  0.51434449679E+02  0.15193180430E+03  0.20465520216E+03  0.12709480552E+03 0.  0.
          5    1    4    4  502    0 -0.53661784344E+02 -0.48761608096E+02  0.17096522544E+03  0.18576458175E+03  0.47000000000E+01 0.  1.
         -5    1    4    4    0  502  0.55035249814E+02 -0.26728415831E+01  0.70701012088E+02  0.89759377864E+02  0.47000000000E+01 0.  1.
          5    1    5    5  503    0  0.20490489177E+02  0.77420975990E+02  0.15025399804E+03  0.17032974373E+03  0.47000000000E+01 0. -1.
         -5    1    5    5    0  503 -0.21863954648E+02 -0.25986526311E+02  0.16778062593E+01  0.34325458429E+02  0.47000000000E+01 0. -1.
<mgrwt>
<rscale>  0 0.27505019E+03</rscale>
<asrwt>0</asrwt>
<pdfrwt beam="1">  1        2 0.67213628E-01 0.27505019E+03</pdfrwt>
<pdfrwt beam="2">  1       -2 0.66600864E-02 0.27505019E+03</pdfrwt>
<totfact> 0.90607662E+03</totfact>
</mgrwt>
</event>
<event>
 9    1  0.2117506E-002  0.2750837E+03  0.7818608E-02  0.1098405E+00
          2   -1    0    0  501    0  0.00000000000E+00  0.00000000000E+00  0.96167590704E+03  0.96167590704E+03  0.00000000000E+00 0. -1.
         -2   -1    0    0    0  501 -0.00000000000E+00 -0.00000000000E+00 -0.19671664386E+02  0.19671664386E+02  0.00000000000E+00 0. -1.
         36    2    1    2    0    0 -0.14210854715E-13 -0.71054273576E-14  0.94200424265E+03  0.98134757143E+03  0.27508373774E+03 0.  0.
         25    2    3    3    0    0  0.36407647626E+02  0.49885305832E+02  0.51711524503E+03  0.53430846323E+03  0.11942904459E+03 0.  0.
         25    2    3    3    0    0 -0.36407647626E+02 -0.49885305832E+02  0.42488899763E+03  0.44703910820E+03  0.12449595742E+03 0.  0.
          5    1    4    4  502    0 -0.10551139816E+02  0.10473153295E+02  0.41371162703E+03  0.41400533068E+03  0.47000000000E+01 0.  1.
         -5    1    4    4    0  502  0.46958787442E+02  0.39412152537E+02  0.10340361800E+03  0.12030313255E+03  0.47000000000E+01 0.  1.
          5    1    5    5  503    0 -0.20367242752E+02  0.40992632573E+02  0.12299071104E+03  0.13131650889E+03  0.47000000000E+01 0. -1.
         -5    1    5    5    0  503 -0.16040404874E+02 -0.90877938405E+02  0.30189828658E+03  0.31572259932E+03  0.47000000000E+01 0. -1.
<mgrwt>
<rscale>  0 0.27508374E+03</rscale>
<asrwt>0</asrwt>
<pdfrwt beam="1">  1        2 0.14795010E+00 0.27508374E+03</pdfrwt>
<pdfrwt beam="2">  1       -2 0.30264107E-02 0.27508374E+03</pdfrwt>
<totfact> 0.11566112E+04</totfact>
</mgrwt>
</event>
<event>
 9    1  0.2117506E-002  0.2750346E+03  0.7818608E-02  0.1098432E+00
         -1   -1    0    0    0  501 -0.00000000000E+00  0.00000000000E+00  0.47098209315E+03  0.47098209315E+03  0.00000000000E+00 0.  1.
          1   -1    0    0  501    0  0.00000000000E+00 -0.00000000000E+00 -0.40152291873E+02  0.40152291873E+02  0.00000000000E+00 0.  1.
         36    2    1    2    0    0  0.00000000000E+00  0.00000000000E+00  0.43082980127E+03  0.51113438502E+03  0.27503461943E+03 0.  0.
         25    2    3    3    0    0 -0.62161977056E+02  0.17094803932E+02  0.23148532512E+03  0.27050684572E+03  0.12422622157E+03 0.  0.
         25    2    3    3    0    0  0.62161977056E+02 -0.17094803932E+02  0.19934447615E+03  0.24062753930E+03  0.11835137845E+03 0.  0.
          5    1    4    4  502    0  0.24196895801E+02  0.12549264744E+02  0.51067558544E+01  0.28127260218E+02  0.47000000000E+01 0. -1.
         -5    1    4    4    0  502 -0.86358872857E+02  0.45455391879E+01  0.22637856926E+03  0.24237958551E+03  0.47000000000E+01 0. -1.
          5    1    5    5  503    0  0.38590990066E+02  0.31496250522E+02  0.21063254286E+02  0.54286545224E+02  0.47000000000E+01 0. -1.
         -5    1    5    5    0  503  0.23570986991E+02 -0.48591054454E+02  0.17828122187E+03  0.18634099407E+03  0.47000000000E+01 0. -1.
<mgrwt>
<rscale>  0 0.27503462E+03</rscale>
<asrwt>0</asrwt>
<pdfrwt beam="1">  1        1 0.61772760E-02 0.27503462E+03</pdfrwt>
<pdfrwt beam="2">  1       -1 0.72458780E-01 0.27503462E+03</pdfrwt>
<totfact> 0.24762110E+03</totfact>
</mgrwt>
</event>
<event>
 9    1  0.2117506E-002  0.2777719E+03  0.7818608E-02  0.1096912E+00
          1   -1    0    0  501    0  0.00000000000E+00  0.00000000000E+00  0.24728886721E+03  0.24728886721E+03  0.00000000000E+00 0. -1.
         -1   -1    0    0    0  501 -0.00000000000E+00 -0.00000000000E+00 -0.78003114997E+02  0.78003114997E+02  0.00000000000E+00 0. -1.
         36    2    1    2    0    0  0.00000000000E+00  0.00000000000E+00  0.16928575221E+03  0.32529198220E+03  0.27777186284E+03 0.  0.
         25    2    3    3    0    0  0.25678500009E+02  0.48828056348E+00  0.68356558984E+02  0.14693186149E+03  0.12750187836E+03 0.  0.
         25    2    3    3    0    0 -0.25678500009E+02 -0.48828056348E+00  0.10092919322E+03  0.17836012071E+03  0.14479643240E+03 0.  0.
          5    1    4    4  502    0  0.34654834945E+02  0.55938385014E+02  0.11679988010E+02  0.66996810543E+02  0.47000000000E+01 0.  1.
         -5    1    4    4    0  502 -0.89763349360E+01 -0.55450104451E+02  0.56676570974E+02  0.79935050947E+02  0.47000000000E+01 0.  1.
          5    1    5    5  503    0  0.33074460039E+02  0.12699519118E+02  0.11146114796E+03  0.11705073770E+03  0.47000000000E+01 0. -1.
         -5    1    5    5    0  503 -0.58752960048E+02 -0.13187799682E+02 -0.10531954731E+02  0.61309383012E+02  0.47000000000E+01 0. -1.
<mgrwt>
<rscale>  0 0.27777186E+03</rscale>
<asrwt>0</asrwt>
<pdfrwt beam="1">  1        1 0.38044441E-01 0.27777186E+03</pdfrwt>
<pdfrwt beam="2">  1       -1 0.12000479E-01 0.27777186E+03</pdfrwt>
<totfact> 0.50972036E+03</totfact>
</mgrwt>
</event>
<event>
 8    1  0.2117506E-002  0.3479832E+03  0.7818608E-02  0.1063446E+00
          2   -1    0    0  501    0  0.00000000000E+00  0.00000000000E+00  0.85711190620E+03  0.85711190620E+03  0.00000000000E+00 0. -1.
         -2   -1    0    0    0  501 -0.00000000000E+00 -0.00000000000E+00 -0.35319857935E+02  0.35319857935E+02  0.00000000000E+00 0. -1.
         25    2    1    2    0    0 -0.10892072159E+03 -0.54040500288E+02  0.37858173203E+03  0.41532552779E+03  0.11994610019E+03 0.  0.
         25    2    1    2    0    0  0.10892072159E+03  0.54040500288E+02  0.44321031624E+03  0.47710623634E+03  0.12810494554E+03 0.  0.
          5    1    3    3  502    0  0.17669704165E+02 -0.11256436007E+01  0.13060117929E+03  0.13187965556E+03  0.47000000000E+01 0.  1.
         -5    1    3    3    0  502 -0.12659042575E+03 -0.52914856687E+02  0.24798055273E+03  0.28344587223E+03  0.47000000000E+01 0.  1.
          5    1    4    4  503    0  0.65424706357E+01  0.17040200336E+02 -0.18153992949E+01  0.18935628432E+02  0.47000000000E+01 0.  1.
         -5    1    4    4    0  503  0.10237825095E+03  0.37000299952E+02  0.44502571553E+03  0.45817060791E+03  0.47000000000E+01 0.  1.
<mgrwt>
<rscale>  0 0.34798316E+03</rscale>
<asrwt>0</asrwt>
<pdfrwt beam="1">  1        2 0.13186335E+00 0.34798316E+03</pdfrwt>
<pdfrwt beam="2">  1       -2 0.54338249E-02 0.34798316E+03</pdfrwt>
<totfact> 0.56130544E+03</totfact>
</mgrwt>
</event>
<event>
 9    1  0.2117506E-002  0.2746847E+03  0.7818608E-02  0.1098628E+00
          1   -1    0    0  501    0  0.00000000000E+00  0.00000000000E+00  0.73996057142E+03  0.73996057142E+03  0.00000000000E+00 0. -1.
         -1   -1    0    0    0  501 -0.00000000000E+00 -0.00000000000E+00 -0.25491796814E+02  0.25491796814E+02  0.00000000000E+00 0. -1.
         36    2    1    2    0    0  0.00000000000E+00  0.35527136788E-14  0.71446877461E+03  0.76545236824E+03  0.27468472500E+03 0.  0.
         25    2    3    3    0    0  0.30906925857E+02 -0.11968258364E+01  0.23477664488E+03  0.26882085661E+03  0.12723171583E+03 0.  0.
         25    2    3    3    0    0 -0.30906925857E+02  0.11968258364E+01  0.47969212973E+03  0.49663151162E+03  0.12482647377E+03 0.  0.
          5    1    4    4  502    0  0.15682813523E+02 -0.55647633539E+02  0.18313940896E+03  0.19210607193E+03  0.47000000000E+01 0. -1.
         -5    1    4    4    0  502  0.15224112334E+02  0.54450807702E+02  0.51637235922E+02  0.76714784686E+02  0.47000000000E+01 0. -1.
          5    1    5    5  503    0 -0.78060597544E+02 -0.42527803982E+01  0.24769612338E+03  0.25978260636E+03  0.47000000000E+01 0.  1.
         -5    1    5    5    0  503  0.47153671688E+02  0.54496062346E+01  0.23199600635E+03  0.23684890527E+03  0.47000000000E+01 0.  1.
<mgrwt>
<rscale>  0 0.27468473E+03</rscale>
<asrwt>0</asrwt>
<pdfrwt beam="1">  1        1 0.11384007E+00 0.27468473E+03</pdfrwt>
<pdfrwt beam="2">  1       -1 0.39218155E-02 0.27468473E+03</pdfrwt>
<totfact> 0.65581113E+03</totfact>
</mgrwt>
</event>
<event>
 9    1  0.2117506E-002  0.2745264E+03  0.7818608E-02  0.1098717E+00
         -1   -1    0    0    0  501 -0.00000000000E+00  0.00000000000E+00  0.23374680255E+03  0.23374680255E+03  0.00000000000E+00 0.  1.
          1   -1    0    0  501    0  0.00000000000E+00 -0.00000000000E+00 -0.80605099685E+02  0.80605099685E+02  0.00000000000E+00 0.  1.
         36    2    1    2    0    0  0.00000000000E+00 -0.35527136788E-14  0.15314170286E+03  0.31435190223E+03  0.27452638722E+03 0.  0.
         25    2    3    3    0    0 -0.43249754480E+02  0.30371023796E+02  0.99109932153E+02  0.16731809430E+03  0.12401461881E+03 0.  0.
         25    2    3    3    0    0  0.43249754480E+02 -0.30371023796E+02  0.54031770712E+02  0.14703380794E+03  0.12612124358E+03 0.  0.
          5    1    4    4  502    0 -0.31302627236E+02 -0.20577256570E+02  0.10765830989E+03  0.11408628159E+03  0.47000000000E+01 0. -1.
         -5    1    4    4    0  502 -0.11947127243E+02  0.50948280366E+02 -0.85483777354E+01  0.53231812702E+02  0.47000000000E+01 0. -1.
          5    1    5    5  503    0  0.22514442752E+02  0.14492877276E+02 -0.35466985024E+02  0.44687141896E+02  0.47000000000E+01 0.  1.
         -5    1    5    5    0  503  0.20735311728E+02 -0.44863901072E+02  0.89498755735E+02  0.10234666604E+03  0.47000000000E+01 0.  1.
<mgrwt>
<rscale>  0 0.27452639E+03</rscale>
<asrwt>0</asrwt>
<pdfrwt beam="1">  1        1 0.12400785E-01 0.27452639E+03</pdfrwt>
<pdfrwt beam="2">  1       -1 0.35961046E-01 0.27452639E+03</pdfrwt>
<totfact> 0.35626906E+03</totfact>
</mgrwt>
</event>
<event>
 9    1  0.2117506E-002  0.2813226E+03  0.7818608E-02  0.1094969E+00
         -2   -1    0    0    0  501 -0.00000000000E+00  0.00000000000E+00  0.16059101240E+03  0.16059101240E+03  0.00000000000E+00 0.  1.
          2   -1    0    0  501    0  0.00000000000E+00 -0.00000000000E+00 -0.12320491118E+03  0.12320491118E+03  0.00000000000E+00 0.  1.
         36    2    1    2    0    0  0.71054273576E-14  0.00000000000E+00  0.37386101220E+02  0.28379592357E+03  0.28132260071E+03 0.  0.
         25    2    3    3    0    0 -0.63472980629E+02  0.12278579349E+02  0.93180239921E+01  0.14092580070E+03  0.12487462894E+03 0.  0.
         25    2    3    3    0    0  0.63472980629E+02 -0.12278579349E+02  0.28068077228E+02  0.14287012287E+03  0.12427579116E+03 0.  0.
          5    1    4    4  502    0 -0.94655236890E+02 -0.10185807186E+02  0.25949823900E+02  0.98786881210E+02  0.47000000000E+01 0. -1.
         -5    1    4    4    0  502  0.31182256261E+02  0.22464386535E+02 -0.16631799908E+02  0.42138919494E+02  0.47000000000E+01 0. -1.
          5    1    5    5  503    0 -0.33234678557E+02 -0.22573198737E+02  0.20123591265E+02  0.45179000492E+02  0.47000000000E+01 0. -1.
         -5    1    5    5    0  503  0.96707659187E+02  0.10294619388E+02  0.79444859628E+01  0.97691122375E+02  0.47000000000E+01 0. -1.
<mgrwt>
<rscale>  0 0.28132260E+03</rscale>
<asrwt>0</asrwt>
<pdfrwt beam="1">  1        2 0.18954602E-01 0.28132260E+03</pdfrwt>
<pdfrwt beam="2">  1       -2 0.24706310E-01 0.28132260E+03</pdfrwt>
<totfact> 0.42692668E+03</totfact>
</mgrwt>
</event>
<event>
 9    1  0.2117506E-002  0.2755940E+03  0.7818608E-02  0.1098120E+00
          1   -1    0    0  501    0  0.00000000000E+00  0.00000000000E+00  0.26971605973E+03  0.26971605973E+03  0.00000000000E+00 0. -1.
         -1   -1    0    0    0  501 -0.00000000000E+00 -0.00000000000E+00 -0.70399989954E+02  0.70399989954E+02  0.00000000000E+00 0. -1.
         36    2    1    2    0    0 -0.35527136788E-14  0.00000000000E+00  0.19931606978E+03  0.34011604969E+03  0.27559396144E+03 0.  0.
         25    2    3    3    0    0  0.25577369842E+02  0.65769960266E+01  0.35916983823E+02  0.13286962364E+03  0.12516728181E+03 0.  0.
         25    2    3    3    0    0 -0.25577369842E+02 -0.65769960266E+01  0.16339908595E+03  0.20724642604E+03  0.12471712430E+03 0.  0.
          5    1    4    4  502    0 -0.54593290379E+00 -0.74186968666E+01 -0.45372965333E+02  0.46218298206E+02  0.47000000000E+01 0.  1.
         -5    1    4    4    0  502  0.26123302746E+02  0.13995692893E+02  0.81289949155E+02  0.86651325435E+02  0.47000000000E+01 0.  1.
          5    1    5    5  503    0 -0.20181764784E+02 -0.51906955356E+01 -0.16628663930E+02  0.27071191589E+02  0.47000000000E+01 0. -1.
         -5    1    5    5    0  503 -0.53956050580E+01 -0.13863004910E+01  0.18002774988E+03  0.18017523446E+03  0.47000000000E+01 0. -1.
<mgrwt>
<rscale>  0 0.27559396E+03</rscale>
<asrwt>0</asrwt>
<pdfrwt beam="1">  1        1 0.41494778E-01 0.27559396E+03</pdfrwt>
<pdfrwt beam="2">  1       -1 0.10830768E-01 0.27559396E+03</pdfrwt>
<totfact> 0.53613164E+03</totfact>
</mgrwt>
</event>
<event>
 8    1  0.2117506E-002  0.2936697E+03  0.7818608E-02  0.1088449E+00
         -2   -1    0    0    0  501 -0.00000000000E+00  0.00000000000E+00  0.88151804757E+02  0.88151804757E+02  0.00000000000E+00 0. -1.
          2   -1    0    0  501    0  0.00000000000E+00 -0.00000000000E+00 -0.24458345021E+03  0.24458345021E+03  0.00000000000E+00 0. -1.
         25    2    1    2    0    0  0.39459261940E+02  0.31195764144E+02 -0.15632114859E+02  0.13683119490E+03  0.12628619810E+03 0.  0.
         25    2    1    2    0    0 -0.39459261940E+02 -0.31195764144E+02 -0.14079953060E+03  0.19590406006E+03  0.12658469054E+03 0.  0.
          5    1    3    3  502    0  0.29225603601E+02  0.76268302163E+02  0.12136907263E+02  0.82706616051E+02  0.47000000000E+01 0. -1.
         -5    1    3    3    0  502  0.10233658338E+02 -0.45072538019E+02 -0.27769022121E+02  0.54124578853E+02  0.47000000000E+01 0. -1.
          5    1    4    4  503    0 -0.20131281139E+02  0.48600057908E+02 -0.42862001226E+02  0.68018197992E+02  0.47000000000E+01 0.  1.
         -5    1    4    4    0  503 -0.19327980801E+02 -0.79795822052E+02 -0.97937529369E+02  0.12788586207E+03  0.47000000000E+01 0.  1.
<mgrwt>
<rscale>  0 0.29366970E+03</rscale>
<asrwt>0</asrwt>
<pdfrwt beam="1">  1        2 0.37628223E-01 0.29366970E+03</pdfrwt>
<pdfrwt beam="2">  1       -2 0.13561816E-01 0.29366970E+03</pdfrwt>
<totfact> 0.55060003E+03</totfact>
</mgrwt>
</event>
<event>
 9    1  0.2117506E-002  0.2745601E+03  0.7818608E-02  0.1098698E+00
         -1   -1    0    0    0  501 -0.00000000000E+00  0.00000000000E+00  0.10691153624E+03  0.10691153624E+03  0.00000000000E+00 0. -1.
          1   -1    0    0  501    0  0.00000000000E+00 -0.00000000000E+00 -0.17627483528E+03  0.17627483528E+03  0.00000000000E+00 0. -1.
         36    2    1    2    0    0  0.71054273576E-14 -0.71054273576E-14 -0.69363299035E+02  0.28318637152E+03  0.27456010956E+03 0.  0.
         25    2    3    3    0    0  0.33793443504E+02 -0.22282875443E+02 -0.81349221999E+02  0.15487326339E+03  0.12541733705E+03 0.  0.
         25    2    3    3    0    0 -0.33793443504E+02  0.22282875443E+02  0.11985922964E+02  0.12831310813E+03  0.12116958367E+03 0.  0.
          5    1    4    4  502    0  0.17773033652E+02  0.44312200054E+02 -0.70634740606E+02  0.85386230619E+02  0.47000000000E+01 0.  1.
         -5    1    4    4    0  502  0.16020409851E+02 -0.66595075497E+02 -0.10714481393E+02  0.69487032774E+02  0.47000000000E+01 0.  1.
          5    1    5    5  503    0  0.30366315100E+02  0.41913931151E+02 -0.17549033884E+02  0.54853890542E+02  0.47000000000E+01 0.  1.
         -5    1    5    5    0  503 -0.64159758603E+02 -0.19631055708E+02  0.29534956848E+02  0.73459217586E+02  0.47000000000E+01 0.  1.
<mgrwt>
<rscale>  0 0.27456011E+03</rscale>
<asrwt>0</asrwt>
<pdfrwt beam="1">  1        1 0.27119205E-01 0.27456011E+03</pdfrwt>
<pdfrwt beam="2">  1       -1 0.16447929E-01 0.27456011E+03</pdfrwt>
<totfact> 0.47439529E+03</totfact>
</mgrwt>
</event>
<event>
 9    1  0.2117506E-002  0.2752415E+03  0.7818608E-02  0.1098317E+00
          1   -1    0    0  501    0  0.00000000000E+00  0.00000000000E+00  0.23781661937E+03  0.23781661937E+03  0.00000000000E+00 0.  1.
         -1   -1    0    0    0  501 -0.00000000000E+00 -0.00000000000E+00 -0.79638952562E+02  0.79638952562E+02  0.00000000000E+00 0.  1.
         36    2    1    2    0    0  0.71054273576E-14  0.35527136788E-14  0.15817766681E+03  0.31745557193E+03  0.27524146830E+03 0.  0.
         25    2    3    3    0    0  0.46777842493E+02 -0.26928617930E+02  0.28274183455E+02  0.12913468453E+03  0.11385526025E+03 0.  0.
         25    2    3    3    0    0 -0.46777842493E+02  0.26928617930E+02  0.12990348335E+03  0.18832088740E+03  0.12520592890E+03 0.  0.
          5    1    4    4  502    0  0.37269626709E+02 -0.69669829543E+02  0.31016295482E+02  0.85011827465E+02  0.47000000000E+01 0.  1.
         -5    1    4    4    0  502  0.95082157837E+01  0.42741211613E+02 -0.27421120264E+01  0.44122857068E+02  0.47000000000E+01 0.  1.
          5    1    5    5  503    0 -0.26945737342E+02  0.37587247750E+02 -0.91499490943E+01  0.47378112275E+02  0.47000000000E+01 0. -1.
         -5    1    5    5    0  503 -0.19832105152E+02 -0.10658629820E+02  0.13905343245E+03  0.14094277512E+03  0.47000000000E+01 0. -1.
<mgrwt>
<rscale>  0 0.27524147E+03</rscale>
<asrwt>0</asrwt>
<pdfrwt beam="1">  1        1 0.36587172E-01 0.27524147E+03</pdfrwt>
<pdfrwt beam="2">  1       -1 0.12252147E-01 0.27524147E+03</pdfrwt>
<totfact> 0.51810413E+03</totfact>
</mgrwt>
</event>
<event>
 9    1  0.2117506E-002  0.2740678E+03  0.7818608E-02  0.1098974E+00
          1   -1    0    0  501    0  0.00000000000E+00  0.00000000000E+00  0.15458044560E+03  0.15458044560E+03  0.00000000000E+00 0. -1.
         -1   -1    0    0    0  501 -0.00000000000E+00 -0.00000000000E+00 -0.12147904720E+03  0.12147904720E+03  0.00000000000E+00 0. -1.
         36    2    1    2    0    0  0.00000000000E+00  0.88817841970E-15  0.33101398402E+02  0.27605949281E+03  0.27406776715E+03 0.  0.
         25    2    3    3    0    0  0.27367272516E+02  0.25614243314E+01  0.53276805825E+02  0.13975884274E+03  0.12624811914E+03 0.  0.
         25    2    3    3    0    0 -0.27367272516E+02 -0.25614243314E+01 -0.20175407423E+02  0.13630065007E+03  0.13196700968E+03 0.  0.
          5    1    4    4  502    0 -0.44330276906E+02  0.26020930368E+02  0.33821104930E+02  0.61710772208E+02  0.47000000000E+01 0. -1.
         -5    1    4    4    0  502  0.71697549422E+02 -0.23459506037E+02  0.19455700895E+02  0.78048070533E+02  0.47000000000E+01 0. -1.
          5    1    5    5  503    0 -0.80566953675E+02 -0.54144692413E+01 -0.68014097384E+01  0.81170805565E+02  0.47000000000E+01 0.  1.
         -5    1    5    5    0  503  0.53199681159E+02  0.28530449099E+01 -0.13373997685E+02  0.55129844501E+02  0.47000000000E+01 0.  1.
<mgrwt>
<rscale>  0 0.27406777E+03</rscale>
<asrwt>0</asrwt>
<pdfrwt beam="1">  1        1 0.23781607E-01 0.27406777E+03</pdfrwt>
<pdfrwt beam="2">  1       -1 0.18689084E-01 0.27406777E+03</pdfrwt>
<totfact> 0.45659934E+03</totfact>
</mgrwt>
</event>
<event>
 9    1  0.2117506E-002  0.2748886E+03  0.7818608E-02  0.1098514E+00
          2   -1    0    0  501    0  0.00000000000E+00  0.00000000000E+00  0.49660385955E+03  0.49660385955E+03  0.00000000000E+00 0.  1.
         -2   -1    0    0    0  501 -0.00000000000E+00 -0.00000000000E+00 -0.38040245744E+02  0.38040245744E+02  0.00000000000E+00 0.  1.
         36    2    1    2    0    0  0.00000000000E+00  0.00000000000E+00  0.45856361381E+03  0.53464410530E+03  0.27488858001E+03 0.  0.
         25    2    3    3    0    0  0.50610677433E+02  0.13268653080E+02  0.20935074174E+03  0.25077227798E+03  0.12775564376E+03 0.  0.
         25    2    3    3    0    0 -0.50610677433E+02 -0.13268653080E+02  0.24921287207E+03  0.28387182731E+03  0.12545381985E+03 0.  0.
          5    1    4    4  502    0  0.90529206142E+02 -0.10526099324E+02  0.13427673786E+03  0.16235352864E+03  0.47000000000E+01 0. -1.
         -5    1    4    4    0  502 -0.39918528709E+02  0.23794752404E+02  0.75074003884E+02  0.88418749344E+02  0.47000000000E+01 0. -1.
          5    1    5    5  503    0 -0.80716796738E+02  0.18061848578E+02  0.20762141474E+03  0.22354009374E+03  0.47000000000E+01 0.  1.
         -5    1    5    5    0  503  0.30106119305E+02 -0.31330501659E+02  0.41591457326E+02  0.60331733576E+02  0.47000000000E+01 0.  1.
<mgrwt>
<rscale>  0 0.27488858E+03</rscale>
<asrwt>0</asrwt>
<pdfrwt beam="1">  1        2 0.76400589E-01 0.27488858E+03</pdfrwt>
<pdfrwt beam="2">  1       -2 0.58523459E-02 0.27488858E+03</pdfrwt>
<totfact> 0.95924971E+03</totfact>
</mgrwt>
</event>
<event>
 9    1  0.2117506E-002  0.2763469E+03  0.7818608E-02  0.1097701E+00
          4   -1    0    0  501    0  0.00000000000E+00  0.00000000000E+00  0.67201841841E+03  0.67201841841E+03  0.00000000000E+00 0.  1.
         -4   -1    0    0    0  501 -0.00000000000E+00 -0.00000000000E+00 -0.28409786724E+02  0.28409786724E+02  0.00000000000E+00 0.  1.
         36    2    1    2    0    0  0.00000000000E+00  0.00000000000E+00  0.64360863168E+03  0.70042820513E+03  0.27634688304E+03 0.  0.
         25    2    3    3    0    0 -0.26160162266E+02 -0.49265261793E+02  0.28917214027E+03  0.31991706109E+03  0.12495991019E+03 0.  0.
         25    2    3    3    0    0  0.26160162266E+02  0.49265261793E+02  0.35443649141E+03  0.38051114404E+03  0.12669681996E+03 0.  0.
          5    1    4    4  502    0  0.48734508718E+02 -0.38847090658E+01  0.10721805572E+03  0.11793194977E+03  0.47000000000E+01 0. -1.
         -5    1    4    4    0  502 -0.74894670984E+02 -0.45380552727E+02  0.18195408456E+03  0.20198511132E+03  0.47000000000E+01 0. -1.
          5    1    5    5  503    0  0.53268387678E+02  0.78463387154E+02  0.28397226257E+03  0.29942671918E+03  0.47000000000E+01 0. -1.
         -5    1    5    5    0  503 -0.27108225412E+02 -0.29198125361E+02  0.70464228841E+02  0.81084424865E+02  0.47000000000E+01 0. -1.
<mgrwt>
<rscale>  0 0.27634688E+03</rscale>
<asrwt>0</asrwt>
<pdfrwt beam="1">  1        4 0.10338744E+00 0.27634688E+03</pdfrwt>
<pdfrwt beam="2">  1       -4 0.43707369E-02 0.27634688E+03</pdfrwt>
<totfact> 0.43888286E+02</totfact>
</mgrwt>
</event>
<event>
 9    1  0.2117506E-002  0.2742226E+03  0.7818608E-02  0.1098887E+00
          4   -1    0    0  501    0  0.00000000000E+00  0.00000000000E+00  0.14238321393E+03  0.14238321393E+03  0.00000000000E+00 0. -1.
         -4   -1    0    0    0  501 -0.00000000000E+00 -0.00000000000E+00 -0.13203462412E+03  0.13203462412E+03  0.00000000000E+00 0. -1.
         36    2    1    2    0    0  0.21316282073E-13  0.17763568394E-14  0.10348589804E+02  0.27441783805E+03  0.27422264044E+03 0.  0.
         25    2    3    3    0    0  0.55619203244E+02  0.59588494424E+01  0.10684885534E+01  0.13553906292E+03  0.12345319864E+03 0.  0.
         25    2    3    3    0    0 -0.55619203244E+02 -0.59588494424E+01  0.92801012507E+01  0.13887877513E+03  0.12677614226E+03 0.  0.
          5    1    4    4  502    0  0.90760157932E+02 -0.14670770886E+02  0.12632990046E+02  0.92921042954E+02  0.47000000000E+01 0. -1.
         -5    1    4    4    0  502 -0.35140954688E+02  0.20629620329E+02 -0.11564501492E+02  0.42618019969E+02  0.47000000000E+01 0. -1.
          5    1    5    5  503    0  0.15740106188E+02 -0.14280510303E+02  0.51152817588E+02  0.55591228306E+02  0.47000000000E+01 0. -1.
         -5    1    5    5    0  503 -0.71359309432E+02  0.83216608606E+01 -0.41872716338E+02  0.83287546822E+02  0.47000000000E+01 0. -1.
<mgrwt>
<rscale>  0 0.27422264E+03</rscale>
<asrwt>0</asrwt>
<pdfrwt beam="1">  1        4 0.21905110E-01 0.27422264E+03</pdfrwt>
<pdfrwt beam="2">  1       -4 0.20313019E-01 0.27422264E+03</pdfrwt>
<totfact> 0.78618160E+02</totfact>
</mgrwt>
</event>
<event>
 9    1  0.2117506E-002  0.2838613E+03  0.7818608E-02  0.1093598E+00
          3   -1    0    0  501    0  0.00000000000E+00  0.00000000000E+00  0.25168252374E+03  0.25168252374E+03  0.00000000000E+00 0.  1.
         -3   -1    0    0    0  501 -0.00000000000E+00 -0.00000000000E+00 -0.80038551431E+02  0.80038551431E+02  0.00000000000E+00 0.  1.
         36    2    1    2    0    0  0.14210854715E-13  0.00000000000E+00  0.17164397230E+03  0.33172107517E+03  0.28386126626E+03 0.  0.
         25    2    3    3    0    0 -0.32872173237E+02 -0.27386425657E+02  0.12496357315E+03  0.18174569012E+03  0.12483991820E+03 0.  0.
         25    2    3    3    0    0  0.32872173237E+02  0.27386425657E+02  0.46680399150E+02  0.14997538505E+03  0.13595205174E+03 0.  0.
          5    1    4    4  502    0  0.26484773626E+02  0.27350179806E+02  0.81153477227E+02  0.89763313416E+02  0.47000000000E+01 0.  1.
         -5    1    4    4    0  502 -0.59356946863E+02 -0.54736605463E+02  0.43810095928E+02  0.91982376702E+02  0.47000000000E+01 0.  1.
          5    1    5    5  503    0  0.56086766986E+02  0.26529434072E+02  0.84745107585E+02  0.10513495880E+03  0.47000000000E+01 0. -1.
         -5    1    5    5    0  503 -0.23214593748E+02  0.85699158560E+00 -0.38064708435E+02  0.44840426244E+02  0.47000000000E+01 0. -1.
<mgrwt>
<rscale>  0 0.28386127E+03</rscale>
<asrwt>0</asrwt>
<pdfrwt beam="1">  1        3 0.38720388E-01 0.28386127E+03</pdfrwt>
<pdfrwt beam="2">  1       -3 0.12313623E-01 0.28386127E+03</pdfrwt>
<totfact> 0.87769165E+02</totfact>
</mgrwt>
</event>
<event>
 9    1  0.2117506E-002  0.2764883E+03  0.7818608E-02  0.1097623E+00
          2   -1    0    0  501    0  0.00000000000E+00  0.00000000000E+00  0.52967078402E+03  0.52967078402E+03  0.00000000000E+00 0.  1.
         -2   -1    0    0    0  501 -0.00000000000E+00 -0.00000000000E+00 -0.36081755533E+02  0.36081755533E+02  0.00000000000E+00 0.  1.
         36    2    1    2    0    0 -0.14210854715E-13 -0.17763568394E-14  0.49358902849E+03  0.56575253956E+03  0.27648834870E+03 0.  0.
         25    2    3    3    0    0 -0.36244238758E+02 -0.45385189319E+01  0.31896299807E+03  0.34567713170E+03  0.12814461458E+03 0.  0.
         25    2    3    3    0    0  0.36244238758E+02  0.45385189319E+01  0.17462603042E+03  0.22007540785E+03  0.12885919309E+03 0.  0.
          5    1    4    4  502    0 -0.71961585200E+02 -0.32672101244E+02  0.13865910996E+03  0.15966957982E+03  0.47000000000E+01 0. -1.
         -5    1    4    4    0  502  0.35717346442E+02  0.28133582312E+02  0.18030388811E+03  0.18600755189E+03  0.47000000000E+01 0. -1.
          5    1    5    5  503    0  0.40899968497E+02  0.14141330391E+02  0.19325547213E+03  0.19809733001E+03  0.47000000000E+01 0. -1.
         -5    1    5    5    0  503 -0.46557297385E+01 -0.96028114590E+01 -0.18629441711E+02  0.21978077845E+02  0.47000000000E+01 0. -1.
<mgrwt>
<rscale>  0 0.27648835E+03</rscale>
<asrwt>0</asrwt>
<pdfrwt beam="1">  1        2 0.81487807E-01 0.27648835E+03</pdfrwt>
<pdfrwt beam="2">  1       -2 0.55510397E-02 0.27648835E+03</pdfrwt>
<totfact> 0.96756758E+03</totfact>
</mgrwt>
</event>
<event>
 9    1  0.2117506E-002  0.2757955E+03  0.7818608E-02  0.1098008E+00
         -3   -1    0    0    0  501 -0.00000000000E+00  0.00000000000E+00  0.32656684022E+03  0.32656684022E+03  0.00000000000E+00 0.  1.
          3   -1    0    0  501    0  0.00000000000E+00 -0.00000000000E+00 -0.58229392492E+02  0.58229392492E+02  0.00000000000E+00 0.  1.
         36    2    1    2    0    0  0.00000000000E+00 -0.71054273576E-14  0.26833744773E+03  0.38479623271E+03  0.27579549463E+03 0.  0.
         25    2    3    3    0    0  0.49885750935E+02  0.33398910582E+02  0.15109704405E+03  0.20467251077E+03  0.12432395010E+03 0.  0.
         25    2    3    3    0    0 -0.49885750935E+02 -0.33398910582E+02  0.11724040367E+03  0.18012372195E+03  0.12286239286E+03 0.  0.
          5    1    4    4  502    0  0.84702697402E+02  0.89470226026E+01  0.60830682014E+02  0.10477145620E+03  0.47000000000E+01 0.  1.
         -5    1    4    4    0  502 -0.34816946467E+02  0.24451887979E+02  0.90266362040E+02  0.99901054563E+02  0.47000000000E+01 0.  1.
          5    1    5    5  503    0  0.35159365817E+02 -0.14254789339E+02  0.59676325954E+01  0.38692152467E+02  0.47000000000E+01 0.  1.
         -5    1    5    5    0  503 -0.85045116752E+02 -0.19144121244E+02  0.11127277108E+03  0.14143156948E+03  0.47000000000E+01 0.  1.
<mgrwt>
<rscale>  0 0.27579549E+03</rscale>
<asrwt>0</asrwt>
<pdfrwt beam="1">  1        3 0.89583683E-02 0.27579549E+03</pdfrwt>
<pdfrwt beam="2">  1       -3 0.50241051E-01 0.27579549E+03</pdfrwt>
<totfact> 0.89094813E+02</totfact>
</mgrwt>
</event>
<event>
 9    1  0.2117506E-002  0.2752336E+03  0.7818608E-02  0.1098321E+00
         -2   -1    0    0    0  501 -0.00000000000E+00  0.00000000000E+00  0.14906548565E+02  0.14906548565E+02  0.00000000000E+00 0. -1.
          2   -1    0    0  501    0  0.00000000000E+00 -0.00000000000E+00 -0.12704737628E+04  0.12704737628E+04  0.00000000000E+00 0. -1.
         36    2    1    2    0    0  0.35527136788E-14  0.00000000000E+00 -0.12555672142E+04  0.12853803114E+04  0.27523356514E+03 0.  0.
         25    2    3    3    0    0  0.29998117088E+02  0.63871636261E+02 -0.48530860857E+03  0.50383668046E+03  0.11553130345E+03 0.  0.
         25    2    3    3    0    0 -0.29998117088E+02 -0.63871636261E+02 -0.77025860566E+03  0.78154363090E+03  0.11194933881E+03 0.  0.
          5    1    4    4  502    0 -0.72043179436E+01  0.27603514627E+02 -0.18950313336E+02  0.34569648426E+02  0.47000000000E+01 0. -1.
         -5    1    4    4    0  502  0.37202435032E+02  0.36268121635E+02 -0.46635829524E+03  0.46926703203E+03  0.47000000000E+01 0. -1.
          5    1    5    5  503    0 -0.13453199824E+02 -0.70930133777E+02 -0.23323110453E+03  0.24419441145E+03  0.47000000000E+01 0.  1.
         -5    1    5    5    0  503 -0.16544917264E+02  0.70584975159E+01 -0.53702750112E+03  0.53734921944E+03  0.47000000000E+01 0.  1.
<mgrwt>
<rscale>  0 0.27523357E+03</rscale>
<asrwt>0</asrwt>
<pdfrwt beam="1">  1        2 0.19545766E+00 0.27523357E+03</pdfrwt>
<pdfrwt beam="2">  1       -2 0.22933133E-02 0.27523357E+03</pdfrwt>
<totfact> 0.11500550E+04</totfact>
</mgrwt>
</event>
<event>
 9    1  0.2117506E-002  0.2791299E+03  0.7818608E-02  0.1096165E+00
          2   -1    0    0  501    0  0.00000000000E+00  0.00000000000E+00  0.43934975949E+03  0.43934975949E+03  0.00000000000E+00 0.  1.
         -2   -1    0    0    0  501 -0.00000000000E+00 -0.00000000000E+00 -0.44334556481E+02  0.44334556481E+02  0.00000000000E+00 0.  1.
         36    2    1    2    0    0  0.71054273576E-14 -0.35527136788E-14  0.39501520301E+03  0.48368431597E+03  0.27912991045E+03 0.  0.
         25    2    3    3    0    0 -0.38444492124E+02  0.22701033922E+02  0.13314477991E+03  0.19442992517E+03  0.13446987569E+03 0.  0.
         25    2    3    3    0    0  0.38444492124E+02 -0.22701033922E+02  0.26187042310E+03  0.28925439080E+03  0.11444941323E+03 0.  0.
          5    1    4    4  502    0 -0.28198784460E+02  0.34530200670E+02  0.15824922539E+03  0.16447617925E+03  0.47000000000E+01 0.  1.
         -5    1    4    4    0  502 -0.10245707664E+02 -0.11829166748E+02 -0.25104445484E+02  0.29953745919E+02  0.47000000000E+01 0.  1.
          5    1    5    5  503    0  0.12665136393E+02 -0.32650665744E+02  0.25863620075E+03  0.26103878254E+03  0.47000000000E+01 0. -1.
         -5    1    5    5    0  503  0.25779355731E+02  0.99496318222E+01  0.32342223517E+01  0.28215608260E+02  0.47000000000E+01 0. -1.
<mgrwt>
<rscale>  0 0.27912991E+03</rscale>
<asrwt>0</asrwt>
<pdfrwt beam="1">  1        2 0.67592268E-01 0.27912991E+03</pdfrwt>
<pdfrwt beam="2">  1       -2 0.68207013E-02 0.27912991E+03</pdfrwt>
<totfact> 0.86843794E+03</totfact>
</mgrwt>
</event>
<event>
 9    1  0.2117506E-002  0.2750830E+03  0.7818608E-02  0.1098405E+00
          1   -1    0    0  501    0  0.00000000000E+00  0.00000000000E+00  0.14805486950E+04  0.14805486950E+04  0.00000000000E+00 0. -1.
         -1   -1    0    0    0  501 -0.00000000000E+00 -0.00000000000E+00 -0.12777472157E+02  0.12777472157E+02  0.00000000000E+00 0. -1.
         36    2    1    2    0    0 -0.71054273576E-14  0.00000000000E+00  0.14677712229E+04  0.14933261672E+04  0.27508304003E+03 0.  0.
         25    2    3    3    0    0 -0.50581869101E+02 -0.15104101860E+02  0.89157242993E+03  0.90157705651E+03  0.12309805701E+03 0.  0.
         25    2    3    3    0    0  0.50581869101E+02  0.15104101860E+02  0.57619879296E+03  0.59174911070E+03  0.12399718394E+03 0.  0.
          5    1    4    4  502    0 -0.50200928308E+02 -0.20894096945E+02  0.89239703548E+03  0.89406445820E+03  0.47000000000E+01 0. -1.
         -5    1    4    4    0  502 -0.38094079276E+00  0.57899950856E+01 -0.82460555072E+00  0.75125983051E+01  0.47000000000E+01 0. -1.
          5    1    5    5  503    0  0.71090480096E+02  0.36566141112E+02  0.53382724840E+03  0.53980048182E+03  0.47000000000E+01 0. -1.
         -5    1    5    5    0  503 -0.20508610995E+02 -0.21462039252E+02  0.42371544561E+02  0.51948628878E+02  0.47000000000E+01 0. -1.
<mgrwt>
<rscale>  0 0.27508304E+03</rscale>
<asrwt>0</asrwt>
<pdfrwt beam="1">  1        1 0.22777659E+00 0.27508304E+03</pdfrwt>
<pdfrwt beam="2">  1       -1 0.19657661E-02 0.27508304E+03</pdfrwt>
<totfact> 0.51847322E+03</totfact>
</mgrwt>
</event>
<event>
 9    1  0.2117506E-002  0.2749381E+03  0.7818608E-02  0.1098486E+00
         -2   -1    0    0    0  501 -0.00000000000E+00  0.00000000000E+00  0.15912880254E+02  0.15912880254E+02  0.00000000000E+00 0. -1.
          2   -1    0    0  501    0  0.00000000000E+00 -0.00000000000E+00 -0.11875747755E+04  0.11875747755E+04  0.00000000000E+00 0. -1.
         36    2    1    2    0    0 -0.71054273576E-14  0.00000000000E+00 -0.11716618952E+04  0.12034876557E+04  0.27493806717E+03 0.  0.
         25    2    3    3    0    0  0.36989396467E+02  0.26549947375E+02 -0.46403825645E+03  0.48330698826E+03  0.12720466303E+03 0.  0.
         25    2    3    3    0    0 -0.36989396467E+02 -0.26549947375E+02 -0.70762363877E+03  0.72018066747E+03  0.12592007183E+03 0.  0.
          5    1    4    4  502    0  0.38075243971E+02  0.76121247029E+02 -0.28589344077E+03  0.29833088665E+03  0.47000000000E+01 0.  1.
         -5    1    4    4    0  502 -0.10858475039E+01 -0.49571299654E+02 -0.17814481568E+03  0.18497610161E+03  0.47000000000E+01 0.  1.
          5    1    5    5  503    0 -0.65406835188E+02  0.66948975762E+01 -0.19845718423E+03  0.20911771736E+03  0.47000000000E+01 0. -1.
         -5    1    5    5    0  503  0.28417438720E+02 -0.33244844951E+02 -0.50916645454E+03  0.51106295010E+03  0.47000000000E+01 0. -1.
<mgrwt>
<rscale>  0 0.27493807E+03</rscale>
<asrwt>0</asrwt>
<pdfrwt beam="1">  1        2 0.18270387E+00 0.27493807E+03</pdfrwt>
<pdfrwt beam="2">  1       -2 0.24481346E-02 0.27493807E+03</pdfrwt>
<totfact> 0.11628315E+04</totfact>
</mgrwt>
</event>
<event>
 9    1  0.2117506E-002  0.2743995E+03  0.7818608E-02  0.1098788E+00
         -2   -1    0    0    0  501 -0.00000000000E+00  0.00000000000E+00  0.69982810752E+01  0.69982810752E+01  0.00000000000E+00 0.  1.
          2   -1    0    0  501    0  0.00000000000E+00 -0.00000000000E+00 -0.26897707320E+04  0.26897707320E+04  0.00000000000E+00 0.  1.
         36    2    1    2    0    0  0.00000000000E+00 -0.71054273576E-14 -0.26827724509E+04  0.26967690130E+04  0.27439950153E+03 0.  0.
         25    2    3    3    0    0  0.51466674648E+02  0.21017568242E+02 -0.11189963858E+04  0.11270557934E+04  0.12252058223E+03 0.  0.
         25    2    3    3    0    0 -0.51466674648E+02 -0.21017568242E+02 -0.15637760651E+04  0.15697132197E+04  0.12455301528E+03 0.  0.
          5    1    4    4  502    0  0.82841025877E+02  0.41939891632E+02 -0.89971144689E+03  0.90450227625E+03  0.47000000000E+01 0. -1.
         -5    1    4    4    0  502 -0.31374351229E+02 -0.20922323390E+02 -0.21928493893E+03  0.22255351710E+03  0.47000000000E+01 0. -1.
          5    1    5    5  503    0 -0.78768075955E+02  0.11495702333E+02 -0.13051277936E+04  0.13075615506E+04  0.47000000000E+01 0. -1.
         -5    1    5    5    0  503  0.27301401307E+02 -0.32513270574E+02 -0.25864827147E+03  0.26215166910E+03  0.47000000000E+01 0. -1.
<mgrwt>
<rscale>  0 0.27439950E+03</rscale>
<asrwt>0</asrwt>
<pdfrwt beam="1">  1        2 0.41381107E+00 0.27439950E+03</pdfrwt>
<pdfrwt beam="2">  1       -2 0.10766581E-02 0.27439950E+03</pdfrwt>
<totfact> 0.60253987E+03</totfact>
</mgrwt>
</event>
<event>
 9    1  0.2117506E-002  0.2729869E+03  0.7818608E-02  0.1099582E+00
          1   -1    0    0  501    0  0.00000000000E+00  0.00000000000E+00  0.28478100707E+03  0.28478100707E+03  0.00000000000E+00 0.  1.
         -1   -1    0    0    0  501 -0.00000000000E+00 -0.00000000000E+00 -0.65420311472E+02  0.65420311472E+02  0.00000000000E+00 0.  1.
         36    2    1    2    0    0  0.71054273576E-14  0.00000000000E+00  0.21936069560E+03  0.35020131854E+03  0.27298690213E+03 0.  0.
         25    2    3    3    0    0 -0.30028057986E+02  0.49028351648E+02  0.10540250229E+03  0.17127350193E+03  0.12214524731E+03 0.  0.
         25    2    3    3    0    0  0.30028057986E+02 -0.49028351648E+02  0.11395819331E+03  0.17892781662E+03  0.12539230521E+03 0.  0.
          5    1    4    4  502    0 -0.73395328725E+02  0.53611126157E+02  0.74567762482E+02  0.11765826927E+03  0.47000000000E+01 0. -1.
         -5    1    4    4    0  502  0.43367270738E+02 -0.45827745097E+01  0.30834739808E+02  0.53615232654E+02  0.47000000000E+01 0. -1.
          5    1    5    5  503    0  0.18979527010E+01 -0.88734393161E+02  0.69125458019E+02  0.11259579788E+03  0.47000000000E+01 0. -1.
         -5    1    5    5    0  503  0.28130105285E+02  0.39706041514E+02  0.44832735287E+02  0.66332018734E+02  0.47000000000E+01 0. -1.
<mgrwt>
<rscale>  0 0.27298690E+03</rscale>
<asrwt>0</asrwt>
<pdfrwt beam="1">  1        1 0.43812462E-01 0.27298690E+03</pdfrwt>
<pdfrwt beam="2">  1       -1 0.10064663E-01 0.27298690E+03</pdfrwt>
<totfact> 0.56087574E+03</totfact>
</mgrwt>
</event>
<event>
 9    1  0.2117506E-002  0.2772732E+03  0.7818608E-02  0.1097188E+00
          2   -1    0    0  501    0  0.00000000000E+00  0.00000000000E+00  0.30320191451E+04  0.30320191451E+04  0.00000000000E+00 0. -1.
         -2   -1    0    0    0  501 -0.00000000000E+00 -0.00000000000E+00 -0.63390472894E+01  0.63390472894E+01  0.00000000000E+00 0. -1.
         36    2    1    2    0    0 -0.71054273576E-14 -0.53290705182E-14  0.30256800979E+04  0.30383581924E+04  0.27727324244E+03 0.  0.
         25    2    3    3    0    0 -0.53716230022E+01 -0.68444371028E+01  0.20717745827E+04  0.20758771740E+04  0.13015536516E+03 0.  0.
         25    2    3    3    0    0  0.53716230022E+01  0.68444371028E+01  0.95390551512E+03  0.96248101847E+03  0.12789948584E+03 0.  0.
          5    1    4    4  502    0 -0.57988847498E+02 -0.36377404211E+02  0.12458874739E+04  0.12477755045E+04  0.47000000000E+01 0.  1.
         -5    1    4    4    0  502  0.52617224496E+02  0.29532967108E+02  0.82588710881E+03  0.82810166946E+03  0.47000000000E+01 0.  1.
          5    1    5    5  503    0 -0.43889797749E+02  0.26290344468E+01  0.78951167017E+03  0.79074900790E+03  0.47000000000E+01 0.  1.
         -5    1    5    5    0  503  0.49261420751E+02  0.42154026560E+01  0.16439384495E+03  0.17173201057E+03  0.47000000000E+01 0.  1.
<mgrwt>
<rscale>  0 0.27727324E+03</rscale>
<asrwt>0</asrwt>
<pdfrwt beam="1">  1        2 0.46646333E+00 0.27727324E+03</pdfrwt>
<pdfrwt beam="2">  1       -2 0.97524047E-03 0.27727324E+03</pdfrwt>
<totfact> 0.44088686E+03</totfact>
</mgrwt>
</event>
<event>
 9    1  0.2117506E-002  0.2762874E+03  0.7818608E-02  0.1097734E+00
          1   -1    0    0  501    0  0.00000000000E+00  0.00000000000E+00  0.59223079769E+03  0.59223079769E+03  0.00000000000E+00 0. -1.
         -1   -1    0    0    0  501 -0.00000000000E+00 -0.00000000000E+00 -0.32223384542E+02  0.32223384542E+02  0.00000000000E+00 0. -1.
         36    2    1    2    0    0 -0.35527136788E-14  0.35527136788E-14  0.56000741315E+03  0.62445418223E+03  0.27628739191E+03 0.  0.
         25    2    3    3    0    0 -0.19632433210E+02 -0.65736516954E+01  0.43910550438E+03  0.45055828801E+03  0.98795149650E+02 0.  0.
         25    2    3    3    0    0  0.19632433210E+02  0.65736516954E+01  0.12090190877E+03  0.17389589422E+03  0.12326339745E+03 0.  0.
          5    1    4    4  502    0 -0.36577122387E+02  0.13158311277E+02  0.67653919535E+02  0.78167575543E+02  0.47000000000E+01 0. -1.
         -5    1    4    4    0  502  0.16944689177E+02 -0.19731962973E+02  0.37145158484E+03  0.37239071247E+03  0.47000000000E+01 0. -1.
          5    1    5    5  503    0  0.38044611418E+02 -0.18758136820E+02 -0.60050380740E+01  0.43097687144E+02  0.47000000000E+01 0. -1.
         -5    1    5    5    0  503 -0.18412178208E+02  0.25331788516E+02  0.12690694685E+03  0.13079820708E+03  0.47000000000E+01 0. -1.
<mgrwt>
<rscale>  0 0.27628739E+03</rscale>
<asrwt>0</asrwt>
<pdfrwt beam="1">  1        1 0.91112422E-01 0.27628739E+03</pdfrwt>
<pdfrwt beam="2">  1       -1 0.49574442E-02 0.27628739E+03</pdfrwt>
<totfact> 0.63628731E+03</totfact>
</mgrwt>
</event>
<event>
 9    1  0.2117506E-002  0.2772917E+03  0.7818608E-02  0.1097177E+00
          2   -1    0    0  501    0  0.00000000000E+00  0.00000000000E+00  0.19582301307E+04  0.19582301307E+04  0.00000000000E+00 0.  1.
         -2   -1    0    0    0  501 -0.00000000000E+00 -0.00000000000E+00 -0.98163531077E+01  0.98163531077E+01  0.00000000000E+00 0.  1.
         36    2    1    2    0    0 -0.71054273576E-14  0.00000000000E+00  0.19484137776E+04  0.19680464838E+04  0.27729174838E+03 0.  0.
         25    2    3    3    0    0 -0.57775428408E+02  0.77139165652E+01  0.12173490462E+04  0.12251386826E+04  0.12501434600E+03 0.  0.
         25    2    3    3    0    0  0.57775428408E+02 -0.77139165652E+01  0.73106473139E+03  0.74290780120E+03  0.11857004242E+03 0.  0.
          5    1    4    4  502    0 -0.49106367988E+02  0.63466211900E+02  0.78294013832E+03  0.78705574493E+03  0.47000000000E+01 0.  1.
         -5    1    4    4    0  502 -0.86690604201E+01 -0.55752295335E+02  0.43440890791E+03  0.43808293771E+03  0.47000000000E+01 0.  1.
          5    1    5    5  503    0  0.26851753268E+01  0.30875254663E+01  0.60261500598E+03  0.60264722550E+03  0.47000000000E+01 0.  1.
         -5    1    5    5    0  503  0.55090253081E+02 -0.10801442031E+02  0.12844972542E+03  0.14026057569E+03  0.47000000000E+01 0.  1.
<mgrwt>
<rscale>  0 0.27729175E+03</rscale>
<asrwt>0</asrwt>
<pdfrwt beam="1">  1        2 0.30126586E+00 0.27729175E+03</pdfrwt>
<pdfrwt beam="2">  1       -2 0.15102097E-02 0.27729175E+03</pdfrwt>
<totfact> 0.91300565E+03</totfact>
</mgrwt>
</event>
<event>
 9    1  0.2117506E-002  0.2757982E+03  0.7818608E-02  0.1098006E+00
          2   -1    0    0  501    0  0.00000000000E+00  0.00000000000E+00  0.14319768501E+03  0.14319768501E+03  0.00000000000E+00 0.  1.
         -2   -1    0    0    0  501 -0.00000000000E+00 -0.00000000000E+00 -0.13279657556E+03  0.13279657556E+03  0.00000000000E+00 0.  1.
         36    2    1    2    0    0 -0.35527136788E-14  0.00000000000E+00  0.10401109451E+02  0.27599426057E+03  0.27579820302E+03 0.  0.
         25    2    3    3    0    0 -0.13958538049E+02 -0.13291320447E+02  0.68346360955E+02  0.13485683325E+03  0.11464571703E+03 0.  0.
         25    2    3    3    0    0  0.13958538049E+02  0.13291320447E+02 -0.57945251505E+02  0.14113742732E+03  0.12724237201E+03 0.  0.
          5    1    4    4  502    0 -0.24700617854E+02 -0.51164715974E+02  0.75462836217E+02  0.94576309576E+02  0.47000000000E+01 0. -1.
         -5    1    4    4    0  502  0.10742079805E+02  0.37873395526E+02 -0.71164752617E+01  0.40280523673E+02  0.47000000000E+01 0. -1.
          5    1    5    5  503    0 -0.43496062852E+02 -0.29314801625E+02 -0.68455420891E+01  0.53105710846E+02  0.47000000000E+01 0.  1.
         -5    1    5    5    0  503  0.57454600901E+02  0.42606122072E+02 -0.51099709416E+02  0.88031716472E+02  0.47000000000E+01 0.  1.
<mgrwt>
<rscale>  0 0.27579820E+03</rscale>
<asrwt>0</asrwt>
<pdfrwt beam="1">  1        2 0.22030413E-01 0.27579820E+03</pdfrwt>
<pdfrwt beam="2">  1       -2 0.20430242E-01 0.27579820E+03</pdfrwt>
<totfact> 0.49993348E+03</totfact>
</mgrwt>
</event>
<event>
 9    1  0.2117506E-002  0.2811887E+03  0.7818608E-02  0.1095041E+00
          2   -1    0    0  501    0  0.00000000000E+00  0.00000000000E+00  0.92009790607E+02  0.92009790607E+02  0.00000000000E+00 0.  1.
         -2   -1    0    0    0  501 -0.00000000000E+00 -0.00000000000E+00 -0.21483333854E+03  0.21483333854E+03  0.00000000000E+00 0.  1.
         36    2    1    2    0    0 -0.62172489379E-14  0.00000000000E+00 -0.12282354793E+03  0.30684312915E+03  0.28118869461E+03 0.  0.
         25    2    3    3    0    0  0.14485328025E+01 -0.56704971151E+02 -0.11241750781E+03  0.17319730662E+03  0.11892038915E+03 0.  0.
         25    2    3    3    0    0 -0.14485328025E+01  0.56704971151E+02 -0.10406040120E+02  0.13364582253E+03  0.12056271484E+03 0.  0.
          5    1    4    4  502    0 -0.80695707881E+00 -0.93966009346E+02 -0.82332691521E+02  0.12502409442E+03  0.47000000000E+01 0. -1.
         -5    1    4    4    0  502  0.22554898813E+01  0.37261038195E+02 -0.30084816294E+02  0.48173212197E+02  0.47000000000E+01 0. -1.
          5    1    5    5  503    0  0.48166025188E+02  0.25661996070E+02  0.29920590479E+02  0.62416630470E+02  0.47000000000E+01 0.  1.
         -5    1    5    5    0  503 -0.49614557990E+02  0.31042975081E+02 -0.40326630598E+02  0.71229192062E+02  0.47000000000E+01 0.  1.
<mgrwt>
<rscale>  0 0.28118869E+03</rscale>
<asrwt>0</asrwt>
<pdfrwt beam="1">  1        2 0.14155352E-01 0.28118869E+03</pdfrwt>
<pdfrwt beam="2">  1       -2 0.33051283E-01 0.28118869E+03</pdfrwt>
<totfact> 0.35587088E+03</totfact>
</mgrwt>
</event>
<event>
 9    1  0.2117506E-002  0.2752060E+03  0.7818608E-02  0.1098336E+00
         -2   -1    0    0    0  501 -0.00000000000E+00  0.00000000000E+00  0.23000280379E+02  0.23000280379E+02  0.00000000000E+00 0.  1.
          2   -1    0    0  501    0  0.00000000000E+00 -0.00000000000E+00 -0.82323296894E+03  0.82323296894E+03  0.00000000000E+00 0.  1.
         36    2    1    2    0    0 -0.17763568394E-14  0.00000000000E+00 -0.80023268856E+03  0.84623324931E+03  0.27520602539E+03 0.  0.
         25    2    3    3    0    0 -0.11587565644E+02 -0.23443291416E+02 -0.24347732269E+03  0.27496475758E+03  0.12506219116E+03 0.  0.
         25    2    3    3    0    0  0.11587565644E+02  0.23443291416E+02 -0.55675536587E+03  0.57126849173E+03  0.12524892269E+03 0.  0.
          5    1    4    4  502    0 -0.19993384804E+02 -0.67188214915E+02 -0.84991557647E+02  0.11027078730E+03  0.47000000000E+01 0.  1.
         -5    1    4    4    0  502  0.84058191602E+01  0.43744923499E+02 -0.15848576504E+03  0.16469397029E+03  0.47000000000E+01 0.  1.
          5    1    5    5  503    0 -0.62063699200E+01 -0.33622527754E+02 -0.48710325230E+02  0.59697396795E+02  0.47000000000E+01 0. -1.
         -5    1    5    5    0  503  0.17793935564E+02  0.57065819170E+02 -0.50804504064E+03  0.51157109494E+03  0.47000000000E+01 0. -1.
<mgrwt>
<rscale>  0 0.27520603E+03</rscale>
<asrwt>0</asrwt>
<pdfrwt beam="1">  1        2 0.12665122E+00 0.27520603E+03</pdfrwt>
<pdfrwt beam="2">  1       -2 0.35385047E-02 0.27520603E+03</pdfrwt>
<totfact> 0.11267257E+04</totfact>
</mgrwt>
</event>
<event>
 9    1  0.2117506E-002  0.2752186E+03  0.7818608E-02  0.1098329E+00
         -2   -1    0    0    0  501 -0.00000000000E+00  0.00000000000E+00  0.17846867217E+03  0.17846867217E+03  0.00000000000E+00 0. -1.
          2   -1    0    0  501    0  0.00000000000E+00 -0.00000000000E+00 -0.10610448368E+03  0.10610448368E+03  0.00000000000E+00 0. -1.
         36    2    1    2    0    0 -0.71054273576E-14  0.71054273576E-14  0.72364188484E+02  0.28457315585E+03  0.27521864991E+03 0.  0.
         25    2    3    3    0    0  0.38462973390E+02  0.41960508264E+02  0.60903325973E+02  0.15330988724E+03  0.12866476532E+03 0.  0.
         25    2    3    3    0    0 -0.38462973390E+02 -0.41960508264E+02  0.11460862512E+02  0.13126326861E+03  0.11772259656E+03 0.  0.
          5    1    4    4  502    0  0.36333568500E+01  0.69788055914E+02 -0.86389261187E+01  0.70571205705E+02  0.47000000000E+01 0.  1.
         -5    1    4    4    0  502  0.34829616540E+02 -0.27827547649E+02  0.69542252091E+02  0.82738681537E+02  0.47000000000E+01 0.  1.
          5    1    5    5  503    0  0.22372529185E+02  0.12881766187E+02 -0.29569934880E+02  0.39534048755E+02  0.47000000000E+01 0.  1.
         -5    1    5    5    0  503 -0.60835502575E+02 -0.54842274451E+02  0.41030797392E+02  0.91729219855E+02  0.47000000000E+01 0.  1.
<mgrwt>
<rscale>  0 0.27521865E+03</rscale>
<asrwt>0</asrwt>
<pdfrwt beam="1">  1        2 0.16323767E-01 0.27521865E+03</pdfrwt>
<pdfrwt beam="2">  1       -2 0.27456719E-01 0.27521865E+03</pdfrwt>
<totfact> 0.42086369E+03</totfact>
</mgrwt>
</event>
<event>
 9    1  0.2117506E-002  0.2726350E+03  0.7818608E-02  0.1099781E+00
          1   -1    0    0  501    0  0.00000000000E+00  0.00000000000E+00  0.26003702474E+03  0.26003702474E+03  0.00000000000E+00 0.  1.
         -1   -1    0    0    0  501 -0.00000000000E+00 -0.00000000000E+00 -0.71460851622E+02  0.71460851622E+02  0.00000000000E+00 0.  1.
         36    2    1    2    0    0  0.71054273576E-14  0.00000000000E+00  0.18857617312E+03  0.33149787637E+03  0.27263504721E+03 0.  0.
         25    2    3    3    0    0 -0.46834502795E+02  0.18302731299E+02  0.13057996703E+03  0.18565969024E+03  0.12202430973E+03 0.  0.
         25    2    3    3    0    0  0.46834502795E+02 -0.18302731299E+02  0.57996206094E+02  0.14583818612E+03  0.12400304829E+03 0.  0.
          5    1    4    4  502    0 -0.13270878236E+01 -0.29449429588E+02  0.11349835069E+03  0.11735840692E+03  0.47000000000E+01 0. -1.
         -5    1    4    4    0  502 -0.45507414972E+02  0.47752160888E+02  0.17081616339E+02  0.68301283323E+02  0.47000000000E+01 0. -1.
          5    1    5    5  503    0  0.33137375980E+02 -0.51992581310E+02  0.81485245463E+02  0.10229002603E+03  0.47000000000E+01 0.  1.
         -5    1    5    5    0  503  0.13697126816E+02  0.33689850011E+02 -0.23489039369E+02  0.43548160090E+02  0.47000000000E+01 0.  1.
<mgrwt>
<rscale>  0 0.27263505E+03</rscale>
<asrwt>0</asrwt>
<pdfrwt beam="1">  1        1 0.40005696E-01 0.27263505E+03</pdfrwt>
<pdfrwt beam="2">  1       -1 0.10993977E-01 0.27263505E+03</pdfrwt>
<totfact> 0.54819717E+03</totfact>
</mgrwt>
</event>
<event>
 9    1  0.2117506E-002  0.2747426E+03  0.7818608E-02  0.1098596E+00
         -2   -1    0    0    0  501 -0.00000000000E+00  0.00000000000E+00  0.17918653361E+02  0.17918653361E+02  0.00000000000E+00 0. -1.
          2   -1    0    0  501    0  0.00000000000E+00 -0.00000000000E+00 -0.10531415559E+04  0.10531415559E+04  0.00000000000E+00 0. -1.
         36    2    1    2    0    0 -0.71054273576E-14  0.71054273576E-14 -0.10352229025E+04  0.10710602093E+04  0.27474263215E+03 0.  0.
         25    2    3    3    0    0 -0.15624467556E+02  0.55460474674E+02 -0.53147632789E+03  0.54887855709E+03  0.12442103957E+03 0.  0.
         25    2    3    3    0    0  0.15624467556E+02 -0.55460474674E+02 -0.50374657464E+03  0.52218165217E+03  0.12487224735E+03 0.  0.
          5    1    4    4  502    0  0.23985698679E+02 -0.42953874461E+01 -0.38431795222E+03  0.38511834869E+03  0.47000000000E+01 0.  1.
         -5    1    4    4    0  502 -0.39610166235E+02  0.59755862120E+02 -0.14715837567E+03  0.16376020840E+03  0.47000000000E+01 0.  1.
          5    1    5    5  503    0 -0.39922261673E+02 -0.31980147912E+02 -0.38984764840E+03  0.39321723742E+03  0.47000000000E+01 0. -1.
         -5    1    5    5    0  503  0.55546729229E+02 -0.23480326761E+02 -0.11389892624E+03  0.12896441475E+03  0.47000000000E+01 0. -1.
<mgrwt>
<rscale>  0 0.27474263E+03</rscale>
<asrwt>0</asrwt>
<pdfrwt beam="1">  1        2 0.16202180E+00 0.27474263E+03</pdfrwt>
<pdfrwt beam="2">  1       -2 0.27567155E-02 0.27474263E+03</pdfrwt>
<totfact> 0.11683213E+04</totfact>
</mgrwt>
</event>
<event>
 9    1  0.2117506E-002  0.2749205E+03  0.7818608E-02  0.1098496E+00
          2   -1    0    0  501    0  0.00000000000E+00  0.00000000000E+00  0.53423365771E+03  0.53423365771E+03  0.00000000000E+00 0.  1.
         -2   -1    0    0    0  501 -0.00000000000E+00 -0.00000000000E+00 -0.35369025443E+02  0.35369025443E+02  0.00000000000E+00 0.  1.
         36    2    1    2    0    0  0.17763568394E-14  0.00000000000E+00  0.49886463227E+03  0.56960268316E+03  0.27492052548E+03 0.  0.
         25    2    3    3    0    0  0.12610479198E+02 -0.69033432574E+02  0.23602519506E+03  0.27006353514E+03  0.11091339554E+03 0.  0.
         25    2    3    3    0    0 -0.12610479198E+02  0.69033432574E+02  0.26283943721E+03  0.29953914802E+03  0.12535745867E+03 0.  0.
          5    1    4    4  502    0  0.16553249668E+02 -0.64567822783E+02  0.48944814964E+02  0.82829334932E+02  0.47000000000E+01 0. -1.
         -5    1    4    4    0  502 -0.39427704693E+01 -0.44656097910E+01  0.18708038009E+03  0.18723420020E+03  0.47000000000E+01 0. -1.
          5    1    5    5  503    0 -0.36694837253E+02  0.52476459767E+02  0.26218264525E+03  0.26992984159E+03  0.47000000000E+01 0. -1.
         -5    1    5    5    0  503  0.24084358055E+02  0.16556972807E+02  0.65679196143E+00  0.29609306428E+02  0.47000000000E+01 0. -1.
<mgrwt>
<rscale>  0 0.27492053E+03</rscale>
<asrwt>0</asrwt>
<pdfrwt beam="1">  1        2 0.82189788E-01 0.27492053E+03</pdfrwt>
<pdfrwt beam="2">  1       -2 0.54413889E-02 0.27492053E+03</pdfrwt>
<totfact> 0.98764756E+03</totfact>
</mgrwt>
</event>
<event>
 9    1  0.2117506E-002  0.2761790E+03  0.7818608E-02  0.1097794E+00
         -3   -1    0    0    0  501 -0.00000000000E+00  0.00000000000E+00  0.16278851150E+03  0.16278851150E+03  0.00000000000E+00 0.  1.
          3   -1    0    0  501    0  0.00000000000E+00 -0.00000000000E+00 -0.11713790462E+03  0.11713790462E+03  0.00000000000E+00 0.  1.
         36    2    1    2    0    0  0.00000000000E+00 -0.71054273576E-14  0.45650606876E+02  0.27992641612E+03  0.27617896468E+03 0.  0.
         25    2    3    3    0    0 -0.58871053007E+01  0.34269578950E+02 -0.22807678131E+02  0.13438277301E+03  0.12778684380E+03 0.  0.
         25    2    3    3    0    0  0.58871053007E+01 -0.34269578950E+02  0.68458285007E+02  0.14554364311E+03  0.12364203660E+03 0.  0.
          5    1    4    4  502    0  0.43362624278E+02  0.61111834421E+02 -0.45848009271E+01  0.75220235908E+02  0.47000000000E+01 0. -1.
         -5    1    4    4    0  502 -0.49249729579E+02 -0.26842255470E+02 -0.18222877204E+02  0.59162537098E+02  0.47000000000E+01 0. -1.
          5    1    5    5  503    0  0.62322237305E+02 -0.29279823892E+01  0.23962309983E+02  0.66999377932E+02  0.47000000000E+01 0. -1.
         -5    1    5    5    0  503 -0.56435132004E+02 -0.31341596561E+02  0.44495975025E+02  0.78544265180E+02  0.47000000000E+01 0. -1.
<mgrwt>
<rscale>  0 0.27617896E+03</rscale>
<asrwt>0</asrwt>
<pdfrwt beam="1">  1        3 0.18021216E-01 0.27617896E+03</pdfrwt>
<pdfrwt beam="2">  1       -3 0.25044386E-01 0.27617896E+03</pdfrwt>
<totfact> 0.10277858E+03</totfact>
</mgrwt>
</event>
<event>
 9    1  0.2117506E-002  0.2848542E+03  0.7818608E-02  0.1093067E+00
          2   -1    0    0  501    0  0.00000000000E+00  0.00000000000E+00  0.30707672993E+03  0.30707672993E+03  0.00000000000E+00 0.  1.
         -2   -1    0    0    0  501 -0.00000000000E+00 -0.00000000000E+00 -0.66059986382E+02  0.66059986382E+02  0.00000000000E+00 0.  1.
         36    2    1    2    0    0 -0.71054273576E-14  0.35527136788E-14  0.24101674355E+03  0.37313671631E+03  0.28485424060E+03 0.  0.
         25    2    3    3    0    0 -0.49112821899E+02 -0.68156384017E+01  0.14400834261E+03  0.19769431434E+03  0.12604014035E+03 0.  0.
         25    2    3    3    0    0  0.49112821899E+02  0.68156384017E+01  0.97008400943E+02  0.17544240198E+03  0.13751685117E+03 0.  0.
          5    1    4    4  502    0  0.73961060241E+01  0.46517345390E+02  0.20240621344E+02  0.51481438974E+02  0.47000000000E+01 0.  1.
         -5    1    4    4    0  502 -0.56508927924E+02 -0.53332983792E+02  0.12376772126E+03  0.14621287536E+03  0.47000000000E+01 0.  1.
          5    1    5    5  503    0  0.20837426589E+02 -0.11022652997E+02  0.12762351793E+03  0.12986743069E+03  0.47000000000E+01 0. -1.
         -5    1    5    5    0  503  0.28275395310E+02  0.17838291398E+02 -0.30615116983E+02  0.45574971287E+02  0.47000000000E+01 0. -1.
<mgrwt>
<rscale>  0 0.28485424E+03</rscale>
<asrwt>0</asrwt>
<pdfrwt beam="1">  1        2 0.47242573E-01 0.28485424E+03</pdfrwt>
<pdfrwt beam="2">  1       -2 0.10163075E-01 0.28485424E+03</pdfrwt>
<totfact> 0.68553434E+03</totfact>
</mgrwt>
</event>
<event>
 9    1  0.2117506E-002  0.2748001E+03  0.7818608E-02  0.1098563E+00
          2   -1    0    0  501    0  0.00000000000E+00  0.00000000000E+00  0.72573030173E+03  0.72573030173E+03  0.00000000000E+00 0. -1.
         -2   -1    0    0    0  501 -0.00000000000E+00 -0.00000000000E+00 -0.26013484236E+02  0.26013484236E+02  0.00000000000E+00 0. -1.
         36    2    1    2    0    0 -0.71054273576E-14 -0.71054273576E-14  0.69971681749E+03  0.75174378597E+03  0.27480010017E+03 0.  0.
         25    2    3    3    0    0 -0.42104689462E+02  0.39340008520E+02  0.27462562716E+03  0.30538479914E+03  0.12049978966E+03 0.  0.
         25    2    3    3    0    0  0.42104689462E+02 -0.39340008520E+02  0.42509119033E+03  0.44635898682E+03  0.12334254690E+03 0.  0.
          5    1    4    4  502    0 -0.82495491280E+02  0.40563167631E+02  0.20555601096E+03  0.22522486606E+03  0.47000000000E+01 0.  1.
         -5    1    4    4    0  502  0.40390801817E+02 -0.12231591113E+01  0.69069616201E+02  0.80159933083E+02  0.47000000000E+01 0.  1.
          5    1    5    5  503    0 -0.17443991273E+02  0.24717104196E+02  0.34754362214E+02  0.46316128555E+02  0.47000000000E+01 0. -1.
         -5    1    5    5    0  503  0.59548680736E+02 -0.64057112716E+02  0.39033682812E+03  0.40004285827E+03  0.47000000000E+01 0. -1.
<mgrwt>
<rscale>  0 0.27480010E+03</rscale>
<asrwt>0</asrwt>
<pdfrwt beam="1">  1        2 0.11165080E+00 0.27480010E+03</pdfrwt>
<pdfrwt beam="2">  1       -2 0.40020751E-02 0.27480010E+03</pdfrwt>
<totfact> 0.10974131E+04</totfact>
</mgrwt>
</event>
<event>
 9    1  0.2117506E-002  0.2749396E+03  0.7818608E-02  0.1098485E+00
         -1   -1    0    0    0  501 -0.00000000000E+00  0.00000000000E+00  0.92031622072E+02  0.92031622072E+02  0.00000000000E+00 0. -1.
          1   -1    0    0  501    0  0.00000000000E+00 -0.00000000000E+00 -0.20534183914E+03  0.20534183914E+03  0.00000000000E+00 0. -1.
         36    2    1    2    0    0  0.00000000000E+00  0.00000000000E+00 -0.11331021707E+03  0.29737346121E+03  0.27493957543E+03 0.  0.
         25    2    3    3    0    0 -0.33790859533E+02 -0.15076051551E+02 -0.11365497890E+03  0.16996367887E+03  0.12083496343E+03 0.  0.
         25    2    3    3    0    0  0.33790859533E+02  0.15076051551E+02  0.34476183028E+00  0.12740978234E+03  0.12191810472E+03 0.  0.
          5    1    4    4  502    0 -0.13397571034E+02 -0.16481873427E+01 -0.13587023593E+03  0.13661999284E+03  0.47000000000E+01 0. -1.
         -5    1    4    4    0  502 -0.20393288499E+02 -0.13427864209E+02  0.22215257033E+02  0.33343686030E+02  0.47000000000E+01 0. -1.
          5    1    5    5  503    0  0.15312069254E+02 -0.53005869007E+02  0.92821800964E+01  0.56145618541E+02  0.47000000000E+01 0.  1.
         -5    1    5    5    0  503  0.18478790279E+02  0.68081920558E+02 -0.89374182661E+01  0.71264163801E+02  0.47000000000E+01 0.  1.
<mgrwt>
<rscale>  0 0.27493958E+03</rscale>
<asrwt>0</asrwt>
<pdfrwt beam="1">  1        1 0.31591052E-01 0.27493958E+03</pdfrwt>
<pdfrwt beam="2">  1       -1 0.14158711E-01 0.27493958E+03</pdfrwt>
<totfact> 0.49641806E+03</totfact>
</mgrwt>
</event>
<event>
 9    1  0.2117506E-002  0.2753102E+03  0.7818608E-02  0.1098278E+00
          2   -1    0    0  501    0  0.00000000000E+00  0.00000000000E+00  0.27707053791E+03  0.27707053791E+03  0.00000000000E+00 0.  1.
         -2   -1    0    0    0  501 -0.00000000000E+00 -0.00000000000E+00 -0.68390252703E+02  0.68390252703E+02  0.00000000000E+00 0.  1.
         36    2    1    2    0    0  0.00000000000E+00 -0.17763568394E-14  0.20868028520E+03  0.34546079061E+03  0.27531018219E+03 0.  0.
         25    2    3    3    0    0  0.49518330924E+02 -0.24422517584E+01  0.13939656768E+03  0.19455697585E+03  0.12634470341E+03 0.  0.
         25    2    3    3    0    0 -0.49518330924E+02  0.24422517584E+01  0.69283717520E+02  0.15090381476E+03  0.12455399674E+03 0.  0.
          5    1    4    4  502    0 -0.30699267994E+02 -0.71408123917E+01 -0.19190793748E+01  0.31925054779E+02  0.47000000000E+01 0. -1.
         -5    1    4    4    0  502  0.80217598918E+02  0.46985606333E+01  0.14131564706E+03  0.16263192107E+03  0.47000000000E+01 0. -1.
          5    1    5    5  503    0 -0.78628432484E+02  0.16325551592E+02  0.82961626717E+02  0.11555810459E+03  0.47000000000E+01 0. -1.
         -5    1    5    5    0  503  0.29110101560E+02 -0.13883299834E+02 -0.13677909197E+02  0.35345710166E+02  0.47000000000E+01 0. -1.
<mgrwt>
<rscale>  0 0.27531018E+03</rscale>
<asrwt>0</asrwt>
<pdfrwt beam="1">  1        2 0.42626236E-01 0.27531018E+03</pdfrwt>
<pdfrwt beam="2">  1       -2 0.10521577E-01 0.27531018E+03</pdfrwt>
<totfact> 0.72368038E+03</totfact>
</mgrwt>
</event>
<event>
 9    1  0.2117506E-002  0.2759580E+03  0.7818608E-02  0.1097917E+00
          1   -1    0    0  501    0  0.00000000000E+00  0.00000000000E+00  0.18474385291E+04  0.18474385291E+04  0.00000000000E+00 0.  1.
         -1   -1    0    0    0  501 -0.00000000000E+00 -0.00000000000E+00 -0.10305189987E+02  0.10305189987E+02  0.00000000000E+00 0.  1.
         36    2    1    2    0    0  0.00000000000E+00  0.00000000000E+00  0.18371333391E+04  0.18577437190E+04  0.27595800428E+03 0.  0.
         25    2    3    3    0    0  0.10478886155E+02  0.55903666756E+01  0.56182206181E+03  0.57576660551E+03  0.12538778104E+03 0.  0.
         25    2    3    3    0    0 -0.10478886155E+02 -0.55903666756E+01  0.12753112773E+04  0.12819771135E+04  0.13002079239E+03 0.  0.
          5    1    4    4  502    0 -0.29880854551E+02 -0.48131243533E+02  0.30537948234E+03  0.31062549848E+03  0.47000000000E+01 0.  1.
         -5    1    4    4    0  502  0.40359740707E+02  0.53721610209E+02  0.25644257947E+03  0.26514110703E+03  0.47000000000E+01 0.  1.
          5    1    5    5  503    0 -0.25580582037E+02  0.24886116957E+02  0.10203473886E+03  0.10819825751E+03  0.47000000000E+01 0. -1.
         -5    1    5    5    0  503  0.15101695882E+02 -0.30476483632E+02  0.11732765384E+04  0.11737788560E+04  0.47000000000E+01 0. -1.
<mgrwt>
<rscale>  0 0.27595800E+03</rscale>
<asrwt>0</asrwt>
<pdfrwt beam="1">  1        1 0.28422105E+00 0.27595800E+03</pdfrwt>
<pdfrwt beam="2">  1       -1 0.15854153E-02 0.27595800E+03</pdfrwt>
<totfact> 0.40806807E+03</totfact>
</mgrwt>
</event>
<event>
 9    1  0.2117506E-002  0.2760097E+03  0.7818608E-02  0.1097889E+00
          2   -1    0    0  501    0  0.00000000000E+00  0.00000000000E+00  0.12334794919E+04  0.12334794919E+04  0.00000000000E+00 0.  1.
         -2   -1    0    0    0  501 -0.00000000000E+00 -0.00000000000E+00 -0.15440334309E+02  0.15440334309E+02  0.00000000000E+00 0.  1.
         36    2    1    2    0    0  0.71054273576E-14 -0.44408920985E-15  0.12180391576E+04  0.12489198262E+04  0.27600967895E+03 0.  0.
         25    2    3    3    0    0  0.27693782999E+02  0.12700037407E+01  0.37734810568E+03  0.39846625217E+03  0.12496080478E+03 0.  0.
         25    2    3    3    0    0 -0.27693782999E+02 -0.12700037407E+01  0.84069105190E+03  0.85045357403E+03  0.12546425111E+03 0.  0.
          5    1    4    4  502    0  0.24747673130E+02 -0.39896972091E+01  0.49379503036E+01  0.25977651210E+02  0.47000000000E+01 0.  1.
         -5    1    4    4    0  502  0.29461098694E+01  0.52597009498E+01  0.37241015537E+03  0.37248860096E+03  0.47000000000E+01 0.  1.
          5    1    5    5  503    0 -0.43827266209E+02  0.11698559201E+02  0.10523995451E+03  0.11469622302E+03  0.47000000000E+01 0.  1.
         -5    1    5    5    0  503  0.16133483209E+02 -0.12968562942E+02  0.73545109739E+03  0.73575735100E+03  0.47000000000E+01 0.  1.
<mgrwt>
<rscale>  0 0.27600968E+03</rscale>
<asrwt>0</asrwt>
<pdfrwt beam="1">  1        2 0.18976600E+00 0.27600968E+03</pdfrwt>
<pdfrwt beam="2">  1       -2 0.23754370E-02 0.27600968E+03</pdfrwt>
<totfact> 0.11452706E+04</totfact>
</mgrwt>
</event>
<event>
 9    1  0.2117506E-002  0.2741915E+03  0.7818608E-02  0.1098904E+00
         -2   -1    0    0    0  501 -0.00000000000E+00  0.00000000000E+00  0.20002655216E+02  0.20002655216E+02  0.00000000000E+00 0. -1.
          2   -1    0    0  501    0  0.00000000000E+00 -0.00000000000E+00 -0.93963716470E+03  0.93963716470E+03  0.00000000000E+00 0. -1.
         36    2    1    2    0    0  0.00000000000E+00  0.00000000000E+00 -0.91963450949E+03  0.95963981992E+03  0.27419145306E+03 0.  0.
         25    2    3    3    0    0  0.24268283252E+02 -0.38787132672E+02 -0.55167507842E+03  0.56768790522E+03  0.12582040519E+03 0.  0.
         25    2    3    3    0    0 -0.24268283252E+02  0.38787132672E+02 -0.36795943107E+03  0.39195191470E+03  0.12703845593E+03 0.  0.
          5    1    4    4  502    0  0.64432470164E+02 -0.60005420884E+02 -0.35661464496E+03  0.36735308457E+03  0.47000000000E+01 0. -1.
         -5    1    4    4    0  502 -0.40164186913E+02  0.21218288212E+02 -0.19506043346E+03  0.20033482065E+03  0.47000000000E+01 0. -1.
          5    1    5    5  503    0  0.10658742815E+02 -0.24849032720E+02 -0.14411032785E+02  0.30997598156E+02  0.47000000000E+01 0. -1.
         -5    1    5    5    0  503 -0.34927026067E+02  0.63636165392E+02 -0.35354839829E+03  0.36095431654E+03  0.47000000000E+01 0. -1.
<mgrwt>
<rscale>  0 0.27419145E+03</rscale>
<asrwt>0</asrwt>
<pdfrwt beam="1">  1        2 0.14455954E+00 0.27419145E+03</pdfrwt>
<pdfrwt beam="2">  1       -2 0.30773320E-02 0.27419145E+03</pdfrwt>
<totfact> 0.11646285E+04</totfact>
</mgrwt>
</event>
<event>
 9    1  0.2117506E-002  0.2772309E+03  0.7818608E-02  0.1097211E+00
          1   -1    0    0  501    0  0.00000000000E+00  0.00000000000E+00  0.33265601003E+02  0.33265601003E+02  0.00000000000E+00 0. -1.
         -1   -1    0    0    0  501 -0.00000000000E+00 -0.00000000000E+00 -0.57760077145E+03  0.57760077145E+03  0.00000000000E+00 0. -1.
         36    2    1    2    0    0  0.00000000000E+00  0.00000000000E+00 -0.54433517044E+03  0.61086637245E+03  0.27723085544E+03 0.  0.
         25    2    3    3    0    0  0.24827968066E+02 -0.39982620840E+02 -0.34827569298E+03  0.37388782026E+03  0.12759743671E+03 0.  0.
         25    2    3    3    0    0 -0.24827968066E+02  0.39982620840E+02 -0.19605947747E+03  0.23697855219E+03  0.12451697686E+03 0.  0.
          5    1    4    4  502    0  0.26576626536E+02 -0.85668440516E+02 -0.24029084091E+03  0.25652909583E+03  0.47000000000E+01 0.  1.
         -5    1    4    4    0  502 -0.17486584705E+01  0.45685819676E+02 -0.10798485206E+03  0.11735872443E+03  0.47000000000E+01 0.  1.
          5    1    5    5  503    0 -0.67907256060E+01  0.55785453857E+02 -0.20371030973E+03  0.21137197332E+03  0.47000000000E+01 0. -1.
         -5    1    5    5    0  503 -0.18037242459E+02 -0.15802833017E+02  0.76508322628E+01  0.25606578866E+02  0.47000000000E+01 0. -1.
<mgrwt>
<rscale>  0 0.27723086E+03</rscale>
<asrwt>0</asrwt>
<pdfrwt beam="1">  1        1 0.51177849E-02 0.27723086E+03</pdfrwt>
<pdfrwt beam="2">  1       -1 0.88861655E-01 0.27723086E+03</pdfrwt>
<totfact> 0.21019045E+03</totfact>
</mgrwt>
</event>
<event>
 9    1  0.2117506E-002  0.2762032E+03  0.7818608E-02  0.1097781E+00
          2   -1    0    0  501    0  0.00000000000E+00  0.00000000000E+00  0.83143547197E+02  0.83143547197E+02  0.00000000000E+00 0.  1.
         -2   -1    0    0    0  501 -0.00000000000E+00 -0.00000000000E+00 -0.22938699199E+03  0.22938699199E+03  0.00000000000E+00 0.  1.
         36    2    1    2    0    0  0.00000000000E+00  0.71054273576E-14 -0.14624344479E+03  0.31253053919E+03  0.27620317301E+03 0.  0.
         25    2    3    3    0    0 -0.32517600519E+02 -0.26593342830E+02 -0.11775283121E+03  0.17493946141E+03  0.12236619498E+03 0.  0.
         25    2    3    3    0    0  0.32517600519E+02  0.26593342830E+02 -0.28490613579E+02  0.13759107777E+03  0.12788662711E+03 0.  0.
          5    1    4    4  502    0 -0.66346043559E+01 -0.74366396954E+02 -0.69935471985E+02  0.10240819895E+03  0.47000000000E+01 0. -1.
         -5    1    4    4    0  502 -0.25882996163E+02  0.47773054124E+02 -0.47817359229E+02  0.72531262462E+02  0.47000000000E+01 0. -1.
          5    1    5    5  503    0  0.26484970092E+02  0.65100232279E+02  0.21852102662E+02  0.73750242537E+02  0.47000000000E+01 0. -1.
         -5    1    5    5    0  503  0.60326304267E+01 -0.38506889449E+02 -0.50342716241E+02  0.63840835235E+02  0.47000000000E+01 0. -1.
<mgrwt>
<rscale>  0 0.27620317E+03</rscale>
<asrwt>0</asrwt>
<pdfrwt beam="1">  1        2 0.12791315E-01 0.27620317E+03</pdfrwt>
<pdfrwt beam="2">  1       -2 0.35290306E-01 0.27620317E+03</pdfrwt>
<totfact> 0.35567820E+03</totfact>
</mgrwt>
</event>
<event>
 9    1  0.2117506E-002  0.2739581E+03  0.7818608E-02  0.1099035E+00
         -1   -1    0    0    0  501 -0.00000000000E+00  0.00000000000E+00  0.54930197905E+02  0.54930197905E+02  0.00000000000E+00 0. -1.
          1   -1    0    0  501    0  0.00000000000E+00 -0.00000000000E+00 -0.34158377321E+03  0.34158377321E+03  0.00000000000E+00 0. -1.
         36    2    1    2    0    0 -0.17763568394E-14  0.14210854715E-13 -0.28665357531E+03  0.39651397112E+03  0.27395813011E+03 0.  0.
         25    2    3    3    0    0  0.88151588059E+01 -0.55929334319E+02 -0.16410426957E+03  0.21506880878E+03  0.12695898454E+03 0.  0.
         25    2    3    3    0    0 -0.88151588059E+01  0.55929334319E+02 -0.12254930574E+03  0.18144516234E+03  0.12123620391E+03 0.  0.
          5    1    4    4  502    0  0.37523253203E+02 -0.86679769616E+02 -0.12972392457E+03  0.16053586390E+03  0.47000000000E+01 0. -1.
         -5    1    4    4    0  502 -0.28708094397E+02  0.30750435297E+02 -0.34380344997E+02  0.54532944877E+02  0.47000000000E+01 0. -1.
          5    1    5    5  503    0  0.15349851233E+02  0.89584137487E+02 -0.72893691776E+02  0.11660409908E+03  0.47000000000E+01 0.  1.
         -5    1    5    5    0  503 -0.24165010039E+02 -0.33654803168E+02 -0.49655613963E+02  0.64841063258E+02  0.47000000000E+01 0.  1.
<mgrwt>
<rscale>  0 0.27395813E+03</rscale>
<asrwt>0</asrwt>
<pdfrwt beam="1">  1        1 0.52551350E-01 0.27395813E+03</pdfrwt>
<pdfrwt beam="2">  1       -1 0.84507996E-02 0.27395813E+03</pdfrwt>
<totfact> 0.58368890E+03</totfact>
</mgrwt>
</event>
<event>
 9    1  0.2117506E-002  0.2738096E+03  0.7818608E-02  0.1099119E+00
          1   -1    0    0  501    0  0.00000000000E+00  0.00000000000E+00  0.72535299999E+03  0.72535299999E+03  0.00000000000E+00 0. -1.
         -1   -1    0    0    0  501 -0.00000000000E+00 -0.00000000000E+00 -0.25839730766E+02  0.25839730766E+02  0.00000000000E+00 0. -1.
         36    2    1    2    0    0  0.00000000000E+00  0.00000000000E+00  0.69951326922E+03  0.75119273075E+03  0.27380961437E+03 0.  0.
         25    2    3    3    0    0  0.47703082668E+02  0.48205057918E+01  0.26131036343E+03  0.29253811510E+03  0.12246069320E+03 0.  0.
         25    2    3    3    0    0 -0.47703082668E+02 -0.48205057918E+01  0.43820290579E+03  0.45865461565E+03  0.12666273502E+03 0.  0.
          5    1    4    4  502    0 -0.27795815161E+02  0.18333735654E+02  0.16954754748E+03  0.17285020700E+03  0.47000000000E+01 0. -1.
         -5    1    4    4    0  502  0.75498897829E+02 -0.13513229862E+02  0.91762815950E+02  0.11968790810E+03  0.47000000000E+01 0. -1.
          5    1    5    5  503    0  0.10846260637E+02  0.51006801432E+02  0.13465991956E+03  0.14448086067E+03  0.47000000000E+01 0. -1.
         -5    1    5    5    0  503 -0.58549343305E+02 -0.55827307224E+02  0.30354298622E+03  0.31417375498E+03  0.47000000000E+01 0. -1.
<mgrwt>
<rscale>  0 0.27380961E+03</rscale>
<asrwt>0</asrwt>
<pdfrwt beam="1">  1        1 0.11159275E+00 0.27380961E+03</pdfrwt>
<pdfrwt beam="2">  1       -1 0.39753438E-02 0.27380961E+03</pdfrwt>
<totfact> 0.66197402E+03</totfact>
</mgrwt>
</event>
<event>
 9    1  0.2117506E-002  0.2753619E+03  0.7818608E-02  0.1098249E+00
         -2   -1    0    0    0  501 -0.00000000000E+00  0.00000000000E+00  0.21379957427E+02  0.21379957427E+02  0.00000000000E+00 0. -1.
          2   -1    0    0  501    0  0.00000000000E+00 -0.00000000000E+00 -0.88662660095E+03  0.88662660095E+03  0.00000000000E+00 0. -1.
         36    2    1    2    0    0  0.00000000000E+00 -0.35527136788E-14 -0.86524664352E+03  0.90800655838E+03  0.27536186361E+03 0.  0.
         25    2    3    3    0    0  0.36591223631E+02  0.20585194708E+02 -0.56311664549E+03  0.57944655111E+03  0.12998184978E+03 0.  0.
         25    2    3    3    0    0 -0.36591223631E+02 -0.20585194708E+02 -0.30212999803E+03  0.32856000727E+03  0.12209207500E+03 0.  0.
          5    1    4    4  502    0 -0.45470996278E+02  0.80874432736E+01 -0.29813569438E+03  0.30172835548E+03  0.47000000000E+01 0. -1.
         -5    1    4    4    0  502  0.82062219909E+02  0.12497751434E+02 -0.26498095111E+03  0.27771819562E+03  0.47000000000E+01 0. -1.
          5    1    5    5  503    0 -0.26249513682E+02 -0.54354975470E+02 -0.65236699930E+02  0.89002344602E+02  0.47000000000E+01 0.  1.
         -5    1    5    5    0  503 -0.10341709950E+02  0.33769780762E+02 -0.23689329810E+03  0.23955766267E+03  0.47000000000E+01 0.  1.
<mgrwt>
<rscale>  0 0.27536186E+03</rscale>
<asrwt>0</asrwt>
<pdfrwt beam="1">  1        2 0.13640408E+00 0.27536186E+03</pdfrwt>
<pdfrwt beam="2">  1       -2 0.32892246E-02 0.27536186E+03</pdfrwt>
<totfact> 0.11405397E+04</totfact>
</mgrwt>
</event>
<event>
 9    1  0.2117506E-002  0.2749695E+03  0.7818608E-02  0.1098469E+00
          2   -1    0    0  501    0  0.00000000000E+00  0.00000000000E+00  0.16422175075E+03  0.16422175075E+03  0.00000000000E+00 0. -1.
         -2   -1    0    0    0  501 -0.00000000000E+00 -0.00000000000E+00 -0.11510084692E+03  0.11510084692E+03  0.00000000000E+00 0. -1.
         36    2    1    2    0    0 -0.71054273576E-14  0.00000000000E+00  0.49120903835E+02  0.27932259767E+03  0.27496954445E+03 0.  0.
         25    2    3    3    0    0  0.47701823528E+02  0.17088461307E+02 -0.50599996555E+01  0.13361355187E+03  0.12352934133E+03 0.  0.
         25    2    3    3    0    0 -0.47701823528E+02 -0.17088461307E+02  0.54180903491E+02  0.14570904580E+03  0.12541162724E+03 0.  0.
          5    1    4    4  502    0  0.27166346931E+02 -0.19713766536E+02 -0.57150591092E+02  0.66444887379E+02  0.47000000000E+01 0. -1.
         -5    1    4    4    0  502  0.20535476596E+02  0.36802227843E+02  0.52090591437E+02  0.67168664491E+02  0.47000000000E+01 0. -1.
          5    1    5    5  503    0  0.21349273383E+02 -0.52622792684E+00  0.69547328714E+02  0.72903973287E+02  0.47000000000E+01 0. -1.
         -5    1    5    5    0  503 -0.69051096911E+02 -0.16562233380E+02 -0.15366425223E+02  0.72805072510E+02  0.47000000000E+01 0. -1.
<mgrwt>
<rscale>  0 0.27496954E+03</rscale>
<asrwt>0</asrwt>
<pdfrwt beam="1">  1        2 0.25264885E-01 0.27496954E+03</pdfrwt>
<pdfrwt beam="2">  1       -2 0.17707823E-01 0.27496954E+03</pdfrwt>
<totfact> 0.54641297E+03</totfact>
</mgrwt>
</event>
<event>
 9    1  0.2117506E-002  0.2747764E+03  0.7818608E-02  0.1098577E+00
         -2   -1    0    0    0  501 -0.00000000000E+00  0.00000000000E+00  0.48733434613E+03  0.48733434613E+03  0.00000000000E+00 0.  1.
          2   -1    0    0  501    0  0.00000000000E+00 -0.00000000000E+00 -0.38732181074E+02  0.38732181074E+02  0.00000000000E+00 0.  1.
         36    2    1    2    0    0  0.00000000000E+00  0.71054273576E-14  0.44860216505E+03  0.52606652720E+03  0.27477643376E+03 0.  0.
         25    2    3    3    0    0 -0.63378708686E+01  0.63453931410E+02  0.18812083611E+03  0.23197186029E+03  0.11981204018E+03 0.  0.
         25    2    3    3    0    0  0.63378708686E+01 -0.63453931410E+02  0.26048132894E+03  0.29409466691E+03  0.12072522668E+03 0.  0.
          5    1    4    4  502    0 -0.56428496783E+02  0.54268391274E+02  0.78292266960E+02  0.11081968510E+03  0.47000000000E+01 0.  1.
         -5    1    4    4    0  502  0.50090625914E+02  0.91855401365E+01  0.10982856915E+03  0.12115217519E+03  0.47000000000E+01 0.  1.
          5    1    5    5  503    0 -0.45820852959E+02  0.29339261858E+01  0.13593145680E+03  0.14355350722E+03  0.47000000000E+01 0. -1.
         -5    1    5    5    0  503  0.52158723828E+02 -0.66387857596E+02  0.12454987215E+03  0.15054115968E+03  0.47000000000E+01 0. -1.
<mgrwt>
<rscale>  0 0.27477643E+03</rscale>
<asrwt>0</asrwt>
<pdfrwt beam="1">  1        2 0.59587974E-02 0.27477643E+03</pdfrwt>
<pdfrwt beam="2">  1       -2 0.74974510E-01 0.27477643E+03</pdfrwt>
<totfact> 0.20442239E+03</totfact>
</mgrwt>
</event>
<event>
 9    1  0.2117506E-002  0.2742530E+03  0.7818608E-02  0.1098870E+00
         -2   -1    0    0    0  501 -0.00000000000E+00  0.00000000000E+00  0.80640921082E+01  0.80640921082E+01  0.00000000000E+00 0.  1.
          2   -1    0    0  501    0  0.00000000000E+00 -0.00000000000E+00 -0.23317777892E+04  0.23317777892E+04  0.00000000000E+00 0.  1.
         36    2    1    2    0    0  0.00000000000E+00  0.14210854715E-13 -0.23237136970E+04  0.23398418813E+04  0.27425295526E+03 0.  0.
         25    2    3    3    0    0 -0.31121577582E+02 -0.43437134760E+02 -0.85520794921E+03  0.86500637032E+03  0.11832179445E+03 0.  0.
         25    2    3    3    0    0  0.31121577582E+02  0.43437134760E+02 -0.14685057478E+04  0.14748355109E+04  0.12559982337E+03 0.  0.
          5    1    4    4  502    0 -0.39297265224E+02  0.19914010126E+02 -0.13785199390E+03  0.14479677164E+03  0.47000000000E+01 0. -1.
         -5    1    4    4    0  502  0.81756876426E+01 -0.63351144886E+02 -0.71735595531E+03  0.72020959869E+03  0.47000000000E+01 0. -1.
          5    1    5    5  503    0  0.50431326122E+02  0.80109385620E+02 -0.10139923416E+04  0.10184121912E+04  0.47000000000E+01 0.  1.
         -5    1    5    5    0  503 -0.19309748540E+02 -0.36672250861E+02 -0.45451340620E+03  0.45642331972E+03  0.47000000000E+01 0.  1.
<mgrwt>
<rscale>  0 0.27425296E+03</rscale>
<asrwt>0</asrwt>
<pdfrwt beam="1">  1        2 0.35873506E+00 0.27425296E+03</pdfrwt>
<pdfrwt beam="2">  1       -2 0.12406295E-02 0.27425296E+03</pdfrwt>
<totfact> 0.77084383E+03</totfact>
</mgrwt>
</event>
<event>
 9    1  0.2117506E-002  0.2888454E+03  0.7818608E-02  0.1090953E+00
         -1   -1    0    0    0  501 -0.00000000000E+00  0.00000000000E+00  0.89438855168E+02  0.89438855168E+02  0.00000000000E+00 0. -1.
          1   -1    0    0  501    0  0.00000000000E+00 -0.00000000000E+00 -0.23320872839E+03  0.23320872839E+03  0.00000000000E+00 0. -1.
         36    2    1    2    0    0  0.00000000000E+00  0.00000000000E+00 -0.14376987323E+03  0.32264758356E+03  0.28884543744E+03 0.  0.
         25    2    3    3    0    0  0.11194079134E+02  0.57106523471E+02 -0.97069630445E+02  0.17614460219E+03  0.13497386893E+03 0.  0.
         25    2    3    3    0    0 -0.11194079134E+02 -0.57106523471E+02 -0.46700242781E+02  0.14650298138E+03  0.12607834249E+03 0.  0.
          5    1    4    4  502    0 -0.41930304673E+02 -0.28002122083E+01 -0.85130649032E+02  0.95054242636E+02  0.47000000000E+01 0. -1.
         -5    1    4    4    0  502  0.53124383807E+02  0.59906735679E+02 -0.11938981412E+02  0.81090359549E+02  0.47000000000E+01 0. -1.
          5    1    5    5  503    0  0.89978549189E+01 -0.63210216767E+02 -0.82657585099E+02  0.10455074974E+03  0.47000000000E+01 0.  1.
         -5    1    5    5    0  503 -0.20191934053E+02  0.61036932961E+01  0.35957342318E+02  0.41952231636E+02  0.47000000000E+01 0.  1.
<mgrwt>
<rscale>  0 0.28884544E+03</rscale>
<asrwt>0</asrwt>
<pdfrwt beam="1">  1        1 0.35878266E-01 0.28884544E+03</pdfrwt>
<pdfrwt beam="2">  1       -1 0.13759824E-01 0.28884544E+03</pdfrwt>
<totfact> 0.44310830E+03</totfact>
</mgrwt>
</event>
<event>
 9    1  0.2117506E-002  0.2754974E+03  0.7818608E-02  0.1098174E+00
         -1   -1    0    0    0  501 -0.00000000000E+00  0.00000000000E+00  0.15082364630E+03  0.15082364630E+03  0.00000000000E+00 0. -1.
          1   -1    0    0  501    0  0.00000000000E+00 -0.00000000000E+00 -0.12580724440E+03  0.12580724440E+03  0.00000000000E+00 0. -1.
         36    2    1    2    0    0  0.00000000000E+00  0.00000000000E+00  0.25016401900E+02  0.27663089071E+03  0.27549742164E+03 0.  0.
         25    2    3    3    0    0  0.21240994941E+01 -0.54062045022E+02  0.10357942977E+02  0.14051601057E+03  0.12926811569E+03 0.  0.
         25    2    3    3    0    0 -0.21240994941E+01  0.54062045022E+02  0.14658458923E+02  0.13611488013E+03  0.12403698507E+03 0.  0.
          5    1    4    4  502    0 -0.25030456046E+02 -0.58914320617E+02 -0.45068720778E+02  0.78426401780E+02  0.47000000000E+01 0.  1.
         -5    1    4    4    0  502  0.27154555540E+02  0.48522755941E+01  0.55426663755E+02  0.62089608793E+02  0.47000000000E+01 0.  1.
          5    1    5    5  503    0 -0.61925676992E+02  0.17527148427E+02  0.13186947950E+02  0.65863312998E+02  0.47000000000E+01 0.  1.
         -5    1    5    5    0  503  0.59801577497E+02  0.36534896596E+02  0.14715109730E+01  0.70251567135E+02  0.47000000000E+01 0.  1.
<mgrwt>
<rscale>  0 0.27549742E+03</rscale>
<asrwt>0</asrwt>
<pdfrwt beam="1">  1        1 0.19354961E-01 0.27549742E+03</pdfrwt>
<pdfrwt beam="2">  1       -1 0.23203638E-01 0.27549742E+03</pdfrwt>
<totfact> 0.41784883E+03</totfact>
</mgrwt>
</event>
<event>
 9    1  0.2117506E-002  0.2753598E+03  0.7818608E-02  0.1098251E+00
         -2   -1    0    0    0  501 -0.00000000000E+00  0.00000000000E+00  0.11486799824E+02  0.11486799824E+02  0.00000000000E+00 0. -1.
          2   -1    0    0  501    0  0.00000000000E+00 -0.00000000000E+00 -0.16502210380E+04  0.16502210380E+04  0.00000000000E+00 0. -1.
         36    2    1    2    0    0  0.71054273576E-14  0.71054273576E-14 -0.16387342381E+04  0.16617078378E+04  0.27535982806E+03 0.  0.
         25    2    3    3    0    0  0.24099444721E+02  0.82821937028E+01 -0.49865321796E+03  0.51448123644E+03  0.12404246410E+03 0.  0.
         25    2    3    3    0    0 -0.24099444721E+02 -0.82821937028E+01 -0.11400810202E+04  0.11472266014E+04  0.12527874638E+03 0.  0.
          5    1    4    4  502    0  0.20448121576E+02  0.33928601055E+02 -0.45287347599E+02  0.60351549260E+02  0.47000000000E+01 0.  1.
         -5    1    4    4    0  502  0.36513231448E+01 -0.25646407352E+02 -0.45336587036E+03  0.45412968718E+03  0.47000000000E+01 0.  1.
          5    1    5    5  503    0  0.41411697341E+02 -0.35288387420E+02 -0.60368964538E+03  0.60615466418E+03  0.47000000000E+01 0.  1.
         -5    1    5    5    0  503 -0.65511142062E+02  0.27006193717E+02 -0.53639137481E+03  0.54107193718E+03  0.47000000000E+01 0.  1.
<mgrwt>
<rscale>  0 0.27535983E+03</rscale>
<asrwt>0</asrwt>
<pdfrwt beam="1">  1        2 0.25388023E+00 0.27535983E+03</pdfrwt>
<pdfrwt beam="2">  1       -2 0.17671995E-02 0.27535983E+03</pdfrwt>
<totfact> 0.10528019E+04</totfact>
</mgrwt>
</event>
<event>
 9    1  0.2117506E-002  0.2750134E+03  0.7818608E-02  0.1098444E+00
          1   -1    0    0  501    0  0.00000000000E+00  0.00000000000E+00  0.12209925809E+02  0.12209925809E+02  0.00000000000E+00 0.  1.
         -1   -1    0    0    0  501 -0.00000000000E+00 -0.00000000000E+00 -0.15485840576E+04  0.15485840576E+04  0.00000000000E+00 0.  1.
         36    2    1    2    0    0  0.00000000000E+00  0.71054273576E-14 -0.15363741318E+04  0.15607939834E+04  0.27501342841E+03 0.  0.
         25    2    3    3    0    0 -0.20476556442E+02 -0.36895634367E+02 -0.50196358030E+03  0.51819192510E+03  0.12155187408E+03 0.  0.
         25    2    3    3    0    0  0.20476556442E+02  0.36895634367E+02 -0.10344105515E+04  0.10426020583E+04  0.12342319779E+03 0.  0.
          5    1    4    4  502    0  0.24099283736E+02  0.35297694945E+02 -0.19494325907E+03  0.19962882308E+03  0.47000000000E+01 0. -1.
         -5    1    4    4    0  502 -0.44575840178E+02 -0.72193329313E+02 -0.30702032123E+03  0.31856310203E+03  0.47000000000E+01 0. -1.
          5    1    5    5  503    0 -0.31044513881E+02 -0.21896173014E+02 -0.59775464153E+03  0.59897905281E+03  0.47000000000E+01 0. -1.
         -5    1    5    5    0  503  0.51521070323E+02  0.58791807382E+02 -0.43665590996E+03  0.44362300550E+03  0.47000000000E+01 0. -1.
<mgrwt>
<rscale>  0 0.27501343E+03</rscale>
<asrwt>0</asrwt>
<pdfrwt beam="1">  1        1 0.18784521E-02 0.27501343E+03</pdfrwt>
<pdfrwt beam="2">  1       -1 0.23824345E+00 0.27501343E+03</pdfrwt>
<totfact> 0.62266164E+02</totfact>
</mgrwt>
</event>
<event>
 9    1  0.2117506E-002  0.2751489E+03  0.7818608E-02  0.1098368E+00
         -3   -1    0    0    0  501 -0.00000000000E+00  0.00000000000E+00  0.74209857926E+02  0.74209857926E+02  0.00000000000E+00 0. -1.
          3   -1    0    0  501    0  0.00000000000E+00 -0.00000000000E+00 -0.25504324575E+03  0.25504324575E+03  0.00000000000E+00 0. -1.
         36    2    1    2    0    0  0.35527136788E-14  0.00000000000E+00 -0.18083338783E+03  0.32925310368E+03  0.27514885449E+03 0.  0.
         25    2    3    3    0    0  0.15819994578E+02  0.32543373161E+02 -0.42424753472E+02  0.13921212814E+03  0.12755709917E+03 0.  0.
         25    2    3    3    0    0 -0.15819994578E+02 -0.32543373161E+02 -0.13840863435E+03  0.19004097554E+03  0.12509707813E+03 0.  0.
          5    1    4    4  502    0 -0.18840863394E+02 -0.24910573448E+02 -0.61636963298E+02  0.69258357240E+02  0.47000000000E+01 0. -1.
         -5    1    4    4    0  502  0.34660857971E+02  0.57453946609E+02  0.19212209826E+02  0.69953770897E+02  0.47000000000E+01 0. -1.
          5    1    5    5  503    0 -0.23656347649E+02 -0.82703730707E+01  0.18182579234E+02  0.31316418097E+02  0.47000000000E+01 0.  1.
         -5    1    5    5    0  503  0.78363530713E+01 -0.24273000090E+02 -0.15659121359E+03  0.15872455744E+03  0.47000000000E+01 0.  1.
<mgrwt>
<rscale>  0 0.27514885E+03</rscale>
<asrwt>0</asrwt>
<pdfrwt beam="1">  1        3 0.39237422E-01 0.27514885E+03</pdfrwt>
<pdfrwt beam="2">  1       -3 0.11416901E-01 0.27514885E+03</pdfrwt>
<totfact> 0.96904185E+02</totfact>
</mgrwt>
</event>
<event>
 9    1  0.2117506E-002  0.2781280E+03  0.7818608E-02  0.1096716E+00
         -2   -1    0    0    0  501 -0.00000000000E+00  0.00000000000E+00  0.43474216759E+02  0.43474216759E+02  0.00000000000E+00 0.  1.
          2   -1    0    0  501    0  0.00000000000E+00 -0.00000000000E+00 -0.44483363760E+03  0.44483363760E+03  0.00000000000E+00 0.  1.
         36    2    1    2    0    0  0.00000000000E+00  0.71054273576E-14 -0.40135942084E+03  0.48830785436E+03  0.27812798480E+03 0.  0.
         25    2    3    3    0    0  0.58393291314E+01  0.41691439908E+02 -0.24238433541E+03  0.27758333493E+03  0.12856931146E+03 0.  0.
         25    2    3    3    0    0 -0.58393291314E+01 -0.41691439908E+02 -0.15897508542E+03  0.21072451943E+03  0.13175534667E+03 0.  0.
          5    1    4    4  502    0 -0.42823943094E+02  0.19805731979E+02 -0.20934721358E+03  0.21464972154E+03  0.47000000000E+01 0. -1.
         -5    1    4    4    0  502  0.48663272225E+02  0.21885707930E+02 -0.33037121831E+02  0.62933613388E+02  0.47000000000E+01 0. -1.
          5    1    5    5  503    0  0.37813901474E+02 -0.66710490100E+02 -0.53049344528E+02  0.93362217138E+02  0.47000000000E+01 0.  1.
         -5    1    5    5    0  503 -0.43653230606E+02  0.25019050192E+02 -0.10592574090E+03  0.11736230229E+03  0.47000000000E+01 0.  1.
<mgrwt>
<rscale>  0 0.27812798E+03</rscale>
<asrwt>0</asrwt>
<pdfrwt beam="1">  1        2 0.68435940E-01 0.27812798E+03</pdfrwt>
<pdfrwt beam="2">  1       -2 0.66883414E-02 0.27812798E+03</pdfrwt>
<totfact> 0.88290313E+03</totfact>
</mgrwt>
</event>
<event>
 9    1  0.2117506E-002  0.2753085E+03  0.7818608E-02  0.1098279E+00
         -2   -1    0    0    0  501 -0.00000000000E+00  0.00000000000E+00  0.58915344687E+02  0.58915344687E+02  0.00000000000E+00 0.  1.
          2   -1    0    0  501    0  0.00000000000E+00 -0.00000000000E+00 -0.32162571660E+03  0.32162571660E+03  0.00000000000E+00 0.  1.
         36    2    1    2    0    0  0.00000000000E+00  0.00000000000E+00 -0.26271037191E+03  0.38054106129E+03  0.27530848119E+03 0.  0.
         25    2    3    3    0    0  0.19371758191E+02 -0.23037972138E+02 -0.62720079078E+02  0.14295415915E+03  0.12488422688E+03 0.  0.
         25    2    3    3    0    0 -0.19371758191E+02  0.23037972138E+02 -0.19999029284E+03  0.23758690214E+03  0.12468121616E+03 0.  0.
          5    1    4    4  502    0  0.35235147448E+02 -0.34693045479E+02  0.23100241326E+02  0.54779870113E+02  0.47000000000E+01 0. -1.
         -5    1    4    4    0  502 -0.15863389257E+02  0.11655073341E+02 -0.85820320404E+02  0.88174289039E+02  0.47000000000E+01 0. -1.
          5    1    5    5  503    0 -0.52143196546E+02 -0.26787584038E+02 -0.14442842289E+03  0.15594276816E+03  0.47000000000E+01 0.  1.
         -5    1    5    5    0  503  0.32771438355E+02  0.49825556176E+02 -0.55561869948E+02  0.81644133973E+02  0.47000000000E+01 0.  1.
<mgrwt>
<rscale>  0 0.27530848E+03</rscale>
<asrwt>0</asrwt>
<pdfrwt beam="1">  1        2 0.49480881E-01 0.27530848E+03</pdfrwt>
<pdfrwt beam="2">  1       -2 0.90638990E-02 0.27530848E+03</pdfrwt>
<totfact> 0.78097460E+03</totfact>
</mgrwt>
</event>
<event>
 9    1  0.2117506E-002  0.2748647E+03  0.7818608E-02  0.1098527E+00
         -1   -1    0    0    0  501 -0.00000000000E+00  0.00000000000E+00  0.16277551590E+02  0.16277551590E+02  0.00000000000E+00 0. -1.
          1   -1    0    0  501    0  0.00000000000E+00 -0.00000000000E+00 -0.11603492042E+04  0.11603492042E+04  0.00000000000E+00 0. -1.
         36    2    1    2    0    0  0.00000000000E+00  0.35527136788E-14 -0.11440716527E+04  0.11766267558E+04  0.27486465057E+03 0.  0.
         25    2    3    3    0    0 -0.39458165397E+02  0.11858473379E+02 -0.46927487833E+03  0.48814314348E+03  0.12793454139E+03 0.  0.
         25    2    3    3    0    0  0.39458165397E+02 -0.11858473379E+02 -0.67479677432E+03  0.68848361235E+03  0.13023604586E+03 0.  0.
          5    1    4    4  502    0 -0.63570214061E+02 -0.19113607190E+02 -0.12504185618E+03  0.14164765403E+03  0.47000000000E+01 0.  1.
         -5    1    4    4    0  502  0.24112048664E+02  0.30972080569E+02 -0.34423302216E+03  0.34649548945E+03  0.47000000000E+01 0.  1.
          5    1    5    5  503    0 -0.40559179306E+01  0.19638867337E+02 -0.57227875954E+03  0.57264928552E+03  0.47000000000E+01 0.  1.
         -5    1    5    5    0  503  0.43514083327E+02 -0.31497340716E+02 -0.10251801478E+03  0.11583432684E+03  0.47000000000E+01 0.  1.
<mgrwt>
<rscale>  0 0.27486465E+03</rscale>
<asrwt>0</asrwt>
<pdfrwt beam="1">  1        1 0.17851532E+00 0.27486465E+03</pdfrwt>
<pdfrwt beam="2">  1       -1 0.25042379E-02 0.27486465E+03</pdfrwt>
<totfact> 0.60147583E+03</totfact>
</mgrwt>
</event>
<event>
 9    1  0.2117506E-002  0.2745922E+03  0.7818608E-02  0.1098680E+00
          1   -1    0    0  501    0  0.00000000000E+00  0.00000000000E+00  0.19102590671E+03  0.19102590671E+03  0.00000000000E+00 0. -1.
         -1   -1    0    0    0  501 -0.00000000000E+00 -0.00000000000E+00 -0.98678872299E+02  0.98678872299E+02  0.00000000000E+00 0. -1.
         36    2    1    2    0    0 -0.35527136788E-14  0.00000000000E+00  0.92347034406E+02  0.28970477900E+03  0.27459221441E+03 0.  0.
         25    2    3    3    0    0 -0.29863775669E+02 -0.41686798597E+02  0.29093524128E+02  0.13700241719E+03  0.12366727496E+03 0.  0.
         25    2    3    3    0    0  0.29863775669E+02  0.41686798597E+02  0.63253510279E+02  0.15270236182E+03  0.12917960546E+03 0.  0.
          5    1    4    4  502    0  0.57833721997E+01 -0.10777980056E+01  0.69160387665E+02  0.69569089864E+02  0.47000000000E+01 0. -1.
         -5    1    4    4    0  502 -0.35647147869E+02 -0.40609000592E+02 -0.40066863538E+02  0.67433327324E+02  0.47000000000E+01 0. -1.
          5    1    5    5  503    0  0.24880281580E+02 -0.11439103246E+02  0.89024645692E+02  0.93259632399E+02  0.47000000000E+01 0.  1.
         -5    1    5    5    0  503  0.49834940885E+01  0.53125901844E+02 -0.25771135414E+02  0.59442729417E+02  0.47000000000E+01 0.  1.
<mgrwt>
<rscale>  0 0.27459221E+03</rscale>
<asrwt>0</asrwt>
<pdfrwt beam="1">  1        1 0.29388601E-01 0.27459221E+03</pdfrwt>
<pdfrwt beam="2">  1       -1 0.15181365E-01 0.27459221E+03</pdfrwt>
<totfact> 0.48689499E+03</totfact>
</mgrwt>
</event>
<event>
 9    1  0.2117506E-002  0.2746067E+03  0.7818608E-02  0.1098672E+00
         -3   -1    0    0    0  501 -0.00000000000E+00  0.00000000000E+00  0.12860863138E+03  0.12860863138E+03  0.00000000000E+00 0.  1.
          3   -1    0    0  501    0  0.00000000000E+00 -0.00000000000E+00 -0.14658591624E+03  0.14658591624E+03  0.00000000000E+00 0.  1.
         36    2    1    2    0    0  0.35527136788E-14  0.00000000000E+00 -0.17977284866E+02  0.27519454762E+03  0.27460673020E+03 0.  0.
         25    2    3    3    0    0  0.26019572740E+02  0.69049535823E+02  0.24921811587E+02  0.12105918152E+03  0.92678865847E+02 0.  0.
         25    2    3    3    0    0 -0.26019572740E+02 -0.69049535823E+02 -0.42899096453E+02  0.15413536610E+03  0.12834532342E+03 0.  0.
          5    1    4    4  502    0 -0.23614939246E+02  0.10923762831E+02  0.34952456005E+02  0.43826454691E+02  0.47000000000E+01 0. -1.
         -5    1    4    4    0  502  0.49634511986E+02  0.58125772992E+02 -0.10030644418E+02  0.77232726829E+02  0.47000000000E+01 0. -1.
          5    1    5    5  503    0 -0.75393900248E+02 -0.56583028679E+02 -0.41157141780E+02  0.10296542939E+03  0.47000000000E+01 0. -1.
         -5    1    5    5    0  503  0.49374327508E+02 -0.12466507144E+02 -0.17419546732E+01  0.51169936714E+02  0.47000000000E+01 0. -1.
<mgrwt>
<rscale>  0 0.27460673E+03</rscale>
<asrwt>0</asrwt>
<pdfrwt beam="1">  1        3 0.22551679E-01 0.27460673E+03</pdfrwt>
<pdfrwt beam="2">  1       -3 0.19785943E-01 0.27460673E+03</pdfrwt>
<totfact> 0.10532348E+03</totfact>
</mgrwt>
</event>
<event>
 9    1  0.2117506E-002  0.2755224E+03  0.7818608E-02  0.1098160E+00
          2   -1    0    0  501    0  0.00000000000E+00  0.00000000000E+00  0.18903322127E+04  0.18903322127E+04  0.00000000000E+00 0.  1.
         -2   -1    0    0    0  501 -0.00000000000E+00 -0.00000000000E+00 -0.10039586993E+02  0.10039586993E+02  0.00000000000E+00 0.  1.
         36    2    1    2    0    0 -0.71054273576E-14 -0.44408920985E-15  0.18802926257E+04  0.19003717997E+04  0.27552244697E+03 0.  0.
         25    2    3    3    0    0  0.45281355749E+02 -0.25267470810E+01  0.73977438509E+03  0.75207270288E+03  0.12763394513E+03 0.  0.
         25    2    3    3    0    0 -0.45281355749E+02  0.25267470810E+01  0.11405182406E+04  0.11482990968E+04  0.12550766088E+03 0.  0.
          5    1    4    4  502    0  0.76985260520E+02  0.12630113289E+00  0.67851556979E+03  0.68288521344E+03  0.47000000000E+01 0.  1.
         -5    1    4    4    0  502 -0.31703904771E+02 -0.26530482139E+01  0.61258815304E+02  0.69187489440E+02  0.47000000000E+01 0.  1.
          5    1    5    5  503    0 -0.84316977751E+02  0.10604670127E+00  0.54755241957E+03  0.55402626847E+03  0.47000000000E+01 0. -1.
         -5    1    5    5    0  503  0.39035622002E+02  0.24207003797E+01  0.59296582107E+03  0.59427282837E+03  0.47000000000E+01 0. -1.
<mgrwt>
<rscale>  0 0.27552245E+03</rscale>
<asrwt>0</asrwt>
<pdfrwt beam="1">  1        2 0.29082006E+00 0.27552245E+03</pdfrwt>
<pdfrwt beam="2">  1       -2 0.15445533E-02 0.27552245E+03</pdfrwt>
<totfact> 0.95899210E+03</totfact>
</mgrwt>
</event>
<event>
 9    1  0.2117506E-002  0.2821577E+03  0.7818608E-02  0.1094516E+00
          1   -1    0    0  501    0  0.00000000000E+00  0.00000000000E+00  0.16260973166E+03  0.16260973166E+03  0.00000000000E+00 0. -1.
         -1   -1    0    0    0  501 -0.00000000000E+00 -0.00000000000E+00 -0.12239885733E+03  0.12239885733E+03  0.00000000000E+00 0. -1.
         36    2    1    2    0    0  0.00000000000E+00  0.17763568394E-14  0.40210874329E+02  0.28500858900E+03  0.28215772431E+03 0.  0.
         25    2    3    3    0    0 -0.49189077441E+02 -0.80004758835E+01 -0.38677744048E+02  0.14201923805E+03  0.12723962880E+03 0.  0.
         25    2    3    3    0    0  0.49189077441E+02  0.80004758835E+01  0.78888618377E+02  0.14298935095E+03  0.10834651550E+03 0.  0.
          5    1    4    4  502    0 -0.80820577848E+02  0.54552139678E+01  0.10518705410E+02  0.81819669558E+02  0.47000000000E+01 0.  1.
         -5    1    4    4    0  502  0.31631500407E+02 -0.13455689851E+02 -0.49196449458E+02  0.60199568492E+02  0.47000000000E+01 0.  1.
          5    1    5    5  503    0  0.83319510706E+02  0.92339451447E+01  0.63325162394E+02  0.10516450351E+03  0.47000000000E+01 0. -1.
         -5    1    5    5    0  503 -0.34130433265E+02 -0.12334692613E+01  0.15563455983E+02  0.37824847434E+02  0.47000000000E+01 0. -1.
<mgrwt>
<rscale>  0 0.28215772E+03</rscale>
<asrwt>0</asrwt>
<pdfrwt beam="1">  1        1 0.25016882E-01 0.28215772E+03</pdfrwt>
<pdfrwt beam="2">  1       -1 0.18830593E-01 0.28215772E+03</pdfrwt>
<totfact> 0.42323877E+03</totfact>
</mgrwt>
</event>
<event>
 9    1  0.2117506E-002  0.2749594E+03  0.7818608E-02  0.1098474E+00
          1   -1    0    0  501    0  0.00000000000E+00  0.00000000000E+00  0.10172617448E+04  0.10172617448E+04  0.00000000000E+00 0.  1.
         -1   -1    0    0    0  501 -0.00000000000E+00 -0.00000000000E+00 -0.18579939235E+02  0.18579939235E+02  0.00000000000E+00 0.  1.
         36    2    1    2    0    0 -0.35527136788E-14  0.00000000000E+00  0.99868180554E+03  0.10358416840E+04  0.27495935266E+03 0.  0.
         25    2    3    3    0    0  0.59657535569E+01  0.52372248775E+02  0.60131318134E+03  0.61636806757E+03  0.12471411314E+03 0.  0.
         25    2    3    3    0    0 -0.59657535569E+01 -0.52372248775E+02  0.39736862420E+03  0.41947361644E+03  0.12360359513E+03 0.  0.
          5    1    4    4  502    0  0.27958518735E+02  0.39800209949E+02  0.75560949892E+02  0.89984902236E+02  0.47000000000E+01 0.  1.
         -5    1    4    4    0  502 -0.21992765178E+02  0.12572038826E+02  0.52575223145E+03  0.52638316534E+03  0.47000000000E+01 0.  1.
          5    1    5    5  503    0  0.28881709394E+02 -0.32357106009E+02  0.38061525471E+02  0.57895640319E+02  0.47000000000E+01 0. -1.
         -5    1    5    5    0  503 -0.34847462951E+02 -0.20015142766E+02  0.35930709873E+03  0.36157797612E+03  0.47000000000E+01 0. -1.
<mgrwt>
<rscale>  0 0.27495935E+03</rscale>
<asrwt>0</asrwt>
<pdfrwt beam="1">  1        1 0.15650176E+00 0.27495935E+03</pdfrwt>
<pdfrwt beam="2">  1       -1 0.28584530E-02 0.27495935E+03</pdfrwt>
<totfact> 0.62849266E+03</totfact>
</mgrwt>
</event>
<event>
 9    1  0.2117506E-002  0.2747589E+03  0.7818608E-02  0.1098586E+00
         -1   -1    0    0    0  501 -0.00000000000E+00  0.00000000000E+00  0.42306859422E+03  0.42306859422E+03  0.00000000000E+00 0.  1.
          1   -1    0    0  501    0  0.00000000000E+00 -0.00000000000E+00 -0.44610067299E+02  0.44610067299E+02  0.00000000000E+00 0.  1.
         36    2    1    2    0    0  0.00000000000E+00  0.71054273576E-14  0.37845852693E+03  0.46767866152E+03  0.27475893769E+03 0.  0.
         25    2    3    3    0    0  0.27679422949E+02 -0.40961971415E+02  0.83352671371E+02  0.14333954153E+03  0.10561497424E+03 0.  0.
         25    2    3    3    0    0 -0.27679422949E+02  0.40961971415E+02  0.29510585556E+03  0.32433911999E+03  0.12515736182E+03 0.  0.
          5    1    4    4  502    0 -0.32498801561E+02 -0.43605630293E+02  0.27779030462E+02  0.61248572470E+02  0.47000000000E+01 0.  1.
         -5    1    4    4    0  502  0.60178224510E+02  0.26436588780E+01  0.55573640908E+02  0.82090969060E+02  0.47000000000E+01 0.  1.
          5    1    5    5  503    0 -0.18906059315E+02  0.37256431521E+02  0.15926805900E+02  0.44958135134E+02  0.47000000000E+01 0.  1.
         -5    1    5    5    0  503 -0.87733636339E+01  0.37055398940E+01  0.27917904966E+03  0.27938098486E+03  0.47000000000E+01 0.  1.
<mgrwt>
<rscale>  0 0.27475894E+03</rscale>
<asrwt>0</asrwt>
<pdfrwt beam="1">  1        1 0.68630876E-02 0.27475894E+03</pdfrwt>
<pdfrwt beam="2">  1       -1 0.65087473E-01 0.27475894E+03</pdfrwt>
<totfact> 0.26528322E+03</totfact>
</mgrwt>
</event>
<event>
 9    1  0.2117506E-002  0.2750340E+03  0.7818608E-02  0.1098433E+00
          1   -1    0    0  501    0  0.00000000000E+00  0.00000000000E+00  0.37777902108E+02  0.37777902108E+02  0.00000000000E+00 0. -1.
         -1   -1    0    0    0  501 -0.00000000000E+00 -0.00000000000E+00 -0.50058165052E+03  0.50058165052E+03  0.00000000000E+00 0. -1.
         36    2    1    2    0    0  0.00000000000E+00 -0.14210854715E-13 -0.46280374841E+03  0.53835955263E+03  0.27503399492E+03 0.  0.
         25    2    3    3    0    0  0.13994038231E+02 -0.37521465839E+02 -0.21150993338E+03  0.25537141677E+03  0.13738418788E+03 0.  0.
         25    2    3    3    0    0 -0.13994038231E+02  0.37521465839E+02 -0.25129381503E+03  0.28298813586E+03  0.12381441782E+03 0.  0.
          5    1    4    4  502    0 -0.28177423792E+02 -0.64870134310E+02 -0.51577755392E+02  0.87661031184E+02  0.47000000000E+01 0. -1.
         -5    1    4    4    0  502  0.42171462023E+02  0.27348668471E+02 -0.15993217799E+03  0.16771038558E+03  0.47000000000E+01 0. -1.
          5    1    5    5  503    0  0.20087153591E+02 -0.26780910411E+02 -0.17464160235E+02  0.38049938167E+02  0.47000000000E+01 0. -1.
         -5    1    5    5    0  503 -0.34081191822E+02  0.64302376250E+02 -0.23382965480E+03  0.24493819770E+03  0.47000000000E+01 0. -1.
<mgrwt>
<rscale>  0 0.27503399E+03</rscale>
<asrwt>0</asrwt>
<pdfrwt beam="1">  1        1 0.58119849E-02 0.27503399E+03</pdfrwt>
<pdfrwt beam="2">  1       -1 0.77012562E-01 0.27503399E+03</pdfrwt>
<totfact> 0.23790364E+03</totfact>
</mgrwt>
</event>
<event>
 9    1  0.2117506E-002  0.2758649E+03  0.7818608E-02  0.1097969E+00
          1   -1    0    0  501    0  0.00000000000E+00  0.00000000000E+00  0.58779718328E+03  0.58779718328E+03  0.00000000000E+00 0.  1.
         -1   -1    0    0    0  501 -0.00000000000E+00 -0.00000000000E+00 -0.32367225091E+02  0.32367225091E+02  0.00000000000E+00 0.  1.
         36    2    1    2    0    0  0.00000000000E+00  0.00000000000E+00  0.55542995819E+03  0.62016440837E+03  0.27586492158E+03 0.  0.
         25    2    3    3    0    0  0.54615141464E+02  0.98735740829E+01  0.29576383646E+03  0.32466352618E+03  0.12185998988E+03 0.  0.
         25    2    3    3    0    0 -0.54615141464E+02 -0.98735740829E+01  0.25966612174E+03  0.29550088219E+03  0.12966871426E+03 0.  0.
          5    1    4    4  502    0  0.20639970644E+02 -0.25645564471E+02  0.10085098894E+02  0.34749137902E+02  0.47000000000E+01 0.  1.
         -5    1    4    4    0  502  0.33975170821E+02  0.35519138554E+02  0.28567873756E+03  0.28991438828E+03  0.47000000000E+01 0.  1.
          5    1    5    5  503    0 -0.20295615761E+02 -0.67984637599E+02  0.15946765737E+03  0.17460196653E+03  0.47000000000E+01 0. -1.
         -5    1    5    5    0  503 -0.34319525703E+02  0.58111063516E+02  0.10019846437E+03  0.12089891567E+03  0.47000000000E+01 0. -1.
<mgrwt>
<rscale>  0 0.27586492E+03</rscale>
<asrwt>0</asrwt>
<pdfrwt beam="1">  1        1 0.90430328E-01 0.27586492E+03</pdfrwt>
<pdfrwt beam="2">  1       -1 0.49795735E-02 0.27586492E+03</pdfrwt>
<totfact> 0.63862856E+03</totfact>
</mgrwt>
</event>
<event>
 9    1  0.2117506E-002  0.2758289E+03  0.7818608E-02  0.1097989E+00
          2   -1    0    0  501    0  0.00000000000E+00  0.00000000000E+00  0.15563516579E+02  0.15563516579E+02  0.00000000000E+00 0.  1.
         -2   -1    0    0    0  501 -0.00000000000E+00 -0.00000000000E+00 -0.12221139692E+04  0.12221139692E+04  0.00000000000E+00 0.  1.
         36    2    1    2    0    0 -0.71054273576E-14  0.71054273576E-14 -0.12065504526E+04  0.12376774858E+04  0.27582886739E+03 0.  0.
         25    2    3    3    0    0  0.38427683423E+02  0.31955852150E+02 -0.51136201335E+03  0.52868247184E+03  0.12456397551E+03 0.  0.
         25    2    3    3    0    0 -0.38427683423E+02 -0.31955852150E+02 -0.69518843927E+03  0.70899501393E+03  0.12995807153E+03 0.  0.
          5    1    4    4  502    0  0.55159371120E+01 -0.34940209148E+02 -0.50674644080E+02  0.61977845479E+02  0.47000000000E+01 0.  1.
         -5    1    4    4    0  502  0.32911746311E+02  0.66896061299E+02 -0.46068736927E+03  0.46670462636E+03  0.47000000000E+01 0.  1.
          5    1    5    5  503    0  0.78881296387E+00 -0.26570010983E+02 -0.64179538521E+03  0.64236282130E+03  0.47000000000E+01 0. -1.
         -5    1    5    5    0  503 -0.39216496387E+02 -0.53858411678E+01 -0.53393054052E+02  0.66632192632E+02  0.47000000000E+01 0. -1.
<mgrwt>
<rscale>  0 0.27582887E+03</rscale>
<asrwt>0</asrwt>
<pdfrwt beam="1">  1        2 0.23943869E-02 0.27582887E+03</pdfrwt>
<pdfrwt beam="2">  1       -2 0.18801756E+00 0.27582887E+03</pdfrwt>
<totfact> 0.73555450E+02</totfact>
</mgrwt>
</event>
<event>
 9    1  0.2117506E-002  0.2740578E+03  0.7818608E-02  0.1098979E+00
         -1   -1    0    0    0  501 -0.00000000000E+00  0.00000000000E+00  0.13825369767E+04  0.13825369767E+04  0.00000000000E+00 0. -1.
          1   -1    0    0  501    0  0.00000000000E+00 -0.00000000000E+00 -0.13581490869E+02  0.13581490869E+02  0.00000000000E+00 0. -1.
         36    2    1    2    0    0 -0.71054273576E-14  0.00000000000E+00  0.13689554858E+04  0.13961184675E+04  0.27405775540E+03 0.  0.
         25    2    3    3    0    0  0.43819703871E+02  0.18821999922E+02  0.57989753841E+03  0.59571889833E+03  0.12777095385E+03 0.  0.
         25    2    3    3    0    0 -0.43819703871E+02 -0.18821999922E+02  0.78905794738E+03  0.80039956919E+03  0.12550933000E+03 0.  0.
          5    1    4    4  502    0  0.26133707536E+02 -0.46976080823E+02  0.39390398964E+03  0.39758290443E+03  0.47000000000E+01 0. -1.
         -5    1    4    4    0  502  0.17685996335E+02  0.65798080745E+02  0.18599354877E+03  0.19813599390E+03  0.47000000000E+01 0. -1.
          5    1    5    5  503    0 -0.73606685529E+02  0.25016902822E+02  0.38031845245E+03  0.38821128894E+03  0.47000000000E+01 0. -1.
         -5    1    5    5    0  503  0.29786981658E+02 -0.43838902744E+02  0.40873949492E+03  0.41218828026E+03  0.47000000000E+01 0. -1.
<mgrwt>
<rscale>  0 0.27405776E+03</rscale>
<asrwt>0</asrwt>
<pdfrwt beam="1">  1        1 0.20894612E-02 0.27405776E+03</pdfrwt>
<pdfrwt beam="2">  1       -1 0.21269789E+00 0.27405776E+03</pdfrwt>
<totfact> 0.78227551E+02</totfact>
</mgrwt>
</event>
<event>
 9    1  0.2117506E-002  0.2751199E+03  0.7818608E-02  0.1098385E+00
          1   -1    0    0  501    0  0.00000000000E+00  0.00000000000E+00  0.61135260238E+02  0.61135260238E+02  0.00000000000E+00 0. -1.
         -1   -1    0    0    0  501 -0.00000000000E+00 -0.00000000000E+00 -0.30952248773E+03  0.30952248773E+03  0.00000000000E+00 0. -1.
         36    2    1    2    0    0  0.00000000000E+00  0.00000000000E+00 -0.24838722749E+03  0.37065774796E+03  0.27511988541E+03 0.  0.
         25    2    3    3    0    0  0.57731573090E+02  0.19780774505E+02 -0.11517700098E+03  0.17941540938E+03  0.12328801238E+03 0.  0.
         25    2    3    3    0    0 -0.57731573090E+02 -0.19780774505E+02 -0.13321022651E+03  0.19124233858E+03  0.12290017921E+03 0.  0.
          5    1    4    4  502    0 -0.11944252200E+02 -0.13903172983E+02  0.17481118123E+02  0.25761266864E+02  0.47000000000E+01 0.  1.
         -5    1    4    4    0  502  0.69675825290E+02  0.33683947488E+02 -0.13265811910E+03  0.15365414252E+03  0.47000000000E+01 0.  1.
          5    1    5    5  503    0 -0.68091788933E+02 -0.62434382329E+02 -0.81826135437E+02  0.12349959618E+03  0.47000000000E+01 0. -1.
         -5    1    5    5    0  503  0.10360215843E+02  0.42653607825E+02 -0.51384091070E+02  0.67742742400E+02  0.47000000000E+01 0. -1.
<mgrwt>
<rscale>  0 0.27511989E+03</rscale>
<asrwt>0</asrwt>
<pdfrwt beam="1">  1        1 0.94054247E-02 0.27511989E+03</pdfrwt>
<pdfrwt beam="2">  1       -1 0.47618844E-01 0.27511989E+03</pdfrwt>
<totfact> 0.31235003E+03</totfact>
</mgrwt>
</event>
<event>
 9    1  0.2117506E-002  0.2749210E+03  0.7818608E-02  0.1098496E+00
         -2   -1    0    0    0  501 -0.00000000000E+00  0.00000000000E+00  0.12171450030E+03  0.12171450030E+03  0.00000000000E+00 0. -1.
          2   -1    0    0  501    0  0.00000000000E+00 -0.00000000000E+00 -0.15524357631E+03  0.15524357631E+03  0.00000000000E+00 0. -1.
         36    2    1    2    0    0  0.00000000000E+00  0.00000000000E+00 -0.33529076016E+02  0.27695807661E+03  0.27492103823E+03 0.  0.
         25    2    3    3    0    0 -0.50461630218E+01 -0.57658164026E+02 -0.31877950015E+02  0.14107856617E+03  0.12464762531E+03 0.  0.
         25    2    3    3    0    0  0.50461630218E+01  0.57658164026E+02 -0.16511260011E+01  0.13587951044E+03  0.12292512965E+03 0.  0.
          5    1    4    4  502    0  0.37026944562E+02 -0.63153084013E+02 -0.55776619793E+02  0.92154370268E+02  0.47000000000E+01 0.  1.
         -5    1    4    4    0  502 -0.42073107584E+02  0.54949199874E+01  0.23898669778E+02  0.48924195902E+02  0.47000000000E+01 0.  1.
          5    1    5    5  503    0  0.52606698044E+02  0.54615635881E+02  0.26336768313E+02  0.80411738738E+02  0.47000000000E+01 0. -1.
         -5    1    5    5    0  503 -0.47560535022E+02  0.30425281452E+01 -0.27987894314E+02  0.55467771698E+02  0.47000000000E+01 0. -1.
<mgrwt>
<rscale>  0 0.27492104E+03</rscale>
<asrwt>0</asrwt>
<pdfrwt beam="1">  1        2 0.23883627E-01 0.27492104E+03</pdfrwt>
<pdfrwt beam="2">  1       -2 0.18725308E-01 0.27492104E+03</pdfrwt>
<totfact> 0.52949352E+03</totfact>
</mgrwt>
</event>
<event>
 9    1  0.2117506E-002  0.2772104E+03  0.7818608E-02  0.1097222E+00
         -1   -1    0    0    0  501 -0.00000000000E+00  0.00000000000E+00  0.17199916492E+03  0.17199916492E+03  0.00000000000E+00 0.  1.
          1   -1    0    0  501    0  0.00000000000E+00 -0.00000000000E+00 -0.11169470729E+03  0.11169470729E+03  0.00000000000E+00 0.  1.
         36    2    1    2    0    0 -0.35527136788E-14  0.71054273576E-14  0.60304457626E+02  0.28369387221E+03  0.27721036330E+03 0.  0.
         25    2    3    3    0    0  0.21700293340E+02  0.58388799546E+02  0.47611114192E+02  0.14332717221E+03  0.11998210473E+03 0.  0.
         25    2    3    3    0    0 -0.21700293340E+02 -0.58388799546E+02  0.12693343435E+02  0.14036670000E+03  0.12514605410E+03 0.  0.
          5    1    4    4  502    0  0.45296416374E+02  0.66055566743E+02  0.72306864145E+02  0.10800683236E+03  0.47000000000E+01 0. -1.
         -5    1    4    4    0  502 -0.23596123034E+02 -0.76667671963E+01 -0.24695749953E+02  0.35320339852E+02  0.47000000000E+01 0. -1.
          5    1    5    5  503    0 -0.57462678862E+00 -0.78765444844E+02  0.49429079064E+02  0.93110951850E+02  0.47000000000E+01 0.  1.
         -5    1    5    5    0  503 -0.21125666551E+02  0.20376645298E+02 -0.36735735629E+02  0.47255748148E+02  0.47000000000E+01 0.  1.
<mgrwt>
<rscale>  0 0.27721036E+03</rscale>
<asrwt>0</asrwt>
<pdfrwt beam="1">  1        1 0.17183801E-01 0.27721036E+03</pdfrwt>
<pdfrwt beam="2">  1       -1 0.26461410E-01 0.27721036E+03</pdfrwt>
<totfact> 0.39197518E+03</totfact>
</mgrwt>
</event>
<event>
 9    1  0.2117506E-002  0.2746360E+03  0.7818608E-02  0.1098655E+00
         -2   -1    0    0    0  501 -0.00000000000E+00  0.00000000000E+00  0.18628167244E+02  0.18628167244E+02  0.00000000000E+00 0. -1.
          2   -1    0    0  501    0  0.00000000000E+00 -0.00000000000E+00 -0.10122433036E+04  0.10122433036E+04  0.00000000000E+00 0. -1.
         36    2    1    2    0    0  0.00000000000E+00  0.35527136788E-14 -0.99361513636E+03  0.10308714709E+04  0.27463603224E+03 0.  0.
         25    2    3    3    0    0 -0.41198683322E+02 -0.27205027041E+02 -0.61709501186E+03  0.63149421291E+03  0.12466451891E+03 0.  0.
         25    2    3    3    0    0  0.41198683322E+02  0.27205027041E+02 -0.37652012450E+03  0.39937725794E+03  0.12368243610E+03 0.  0.
          5    1    4    4  502    0 -0.10402097197E+02 -0.49457307260E+02 -0.92557214895E+02  0.10556115240E+03  0.47000000000E+01 0. -1.
         -5    1    4    4    0  502 -0.30796586125E+02  0.22252280219E+02 -0.52453779696E+03  0.52593306051E+03  0.47000000000E+01 0. -1.
          5    1    5    5  503    0 -0.17785137748E+02  0.53527556107E+02 -0.95687574368E+02  0.11117424286E+03  0.47000000000E+01 0.  1.
         -5    1    5    5    0  503  0.58983821071E+02 -0.26322529066E+02 -0.28083255014E+03  0.28820301508E+03  0.47000000000E+01 0.  1.
<mgrwt>
<rscale>  0 0.27463603E+03</rscale>
<asrwt>0</asrwt>
<pdfrwt beam="1">  1        2 0.15572974E+00 0.27463603E+03</pdfrwt>
<pdfrwt beam="2">  1       -2 0.28658719E-02 0.27463603E+03</pdfrwt>
<totfact> 0.11673423E+04</totfact>
</mgrwt>
</event>
<event>
 9    1  0.2117506E-002  0.2752468E+03  0.7818608E-02  0.1098314E+00
         -2   -1    0    0    0  501 -0.00000000000E+00  0.00000000000E+00  0.23301828294E+02  0.23301828294E+02  0.00000000000E+00 0.  1.
          2   -1    0    0  501    0  0.00000000000E+00 -0.00000000000E+00 -0.81282059973E+03  0.81282059973E+03  0.00000000000E+00 0.  1.
         36    2    1    2    0    0  0.00000000000E+00 -0.35527136788E-14 -0.78951877144E+03  0.83612242803E+03  0.27524684230E+03 0.  0.
         25    2    3    3    0    0 -0.47757482170E+02 -0.89605203733E+01 -0.44827743267E+03  0.46882554329E+03  0.12838872758E+03 0.  0.
         25    2    3    3    0    0  0.47757482170E+02  0.89605203733E+01 -0.34124133877E+03  0.36729688474E+03  0.12688688753E+03 0.  0.
          5    1    4    4  502    0 -0.17209119843E+02  0.59342338345E+02 -0.18654702639E+03  0.19656945333E+03  0.47000000000E+01 0. -1.
         -5    1    4    4    0  502 -0.30548362327E+02 -0.68302858718E+02 -0.26173040628E+03  0.27225608996E+03  0.47000000000E+01 0. -1.
          5    1    5    5  503    0 -0.92547622546E+01  0.18968485383E+01  0.80561400279E+01  0.13275543338E+02  0.47000000000E+01 0. -1.
         -5    1    5    5    0  503  0.57012244424E+02  0.70636718349E+01 -0.34929747880E+03  0.35402134140E+03  0.47000000000E+01 0. -1.
<mgrwt>
<rscale>  0 0.27524684E+03</rscale>
<asrwt>0</asrwt>
<pdfrwt beam="1">  1        2 0.12504933E+00 0.27524684E+03</pdfrwt>
<pdfrwt beam="2">  1       -2 0.35848964E-02 0.27524684E+03</pdfrwt>
<totfact> 0.11231820E+04</totfact>
</mgrwt>
</event>
<event>
 9    1  0.2117506E-002  0.2749264E+03  0.7818608E-02  0.1098493E+00
          2   -1    0    0  501    0  0.00000000000E+00  0.00000000000E+00  0.59833941830E+02  0.59833941830E+02  0.00000000000E+00 0.  1.
         -2   -1    0    0    0  501 -0.00000000000E+00 -0.00000000000E+00 -0.31580957523E+03  0.31580957523E+03  0.00000000000E+00 0.  1.
         36    2    1    2    0    0 -0.71054273576E-14 -0.35527136788E-14 -0.25597563340E+03  0.37564351706E+03  0.27492640291E+03 0.  0.
         25    2    3    3    0    0  0.45383177371E+02 -0.25417380411E+02 -0.64417092098E+02  0.14589664984E+03  0.12012741013E+03 0.  0.
         25    2    3    3    0    0 -0.45383177371E+02  0.25417380411E+02 -0.19155854131E+03  0.22974686722E+03  0.11568609353E+03 0.  0.
          5    1    4    4  502    0  0.52519466548E+02 -0.60207047070E+02 -0.98720992865E+01  0.80639514059E+02  0.47000000000E+01 0. -1.
         -5    1    4    4    0  502 -0.71362891768E+01  0.34789666660E+02 -0.54544992812E+02  0.65257135781E+02  0.47000000000E+01 0. -1.
          5    1    5    5  503    0  0.99839343153E+01  0.61164029827E+01 -0.16452723833E+03  0.16501027690E+03  0.47000000000E+01 0.  1.
         -5    1    5    5    0  503 -0.55367111686E+02  0.19300977428E+02 -0.27031302975E+02  0.64736590323E+02  0.47000000000E+01 0.  1.
<mgrwt>
<rscale>  0 0.27492640E+03</rscale>
<asrwt>0</asrwt>
<pdfrwt beam="1">  1        2 0.92052219E-02 0.27492640E+03</pdfrwt>
<pdfrwt beam="2">  1       -2 0.48586088E-01 0.27492640E+03</pdfrwt>
<totfact> 0.28828458E+03</totfact>
</mgrwt>
</event>
<event>
 9    1  0.2117506E-002  0.2751040E+03  0.7818608E-02  0.1098393E+00
          2   -1    0    0  501    0  0.00000000000E+00  0.00000000000E+00  0.45123092888E+03  0.45123092888E+03  0.00000000000E+00 0.  1.
         -2   -1    0    0    0  501 -0.00000000000E+00 -0.00000000000E+00 -0.41930980763E+02  0.41930980763E+02  0.00000000000E+00 0.  1.
         36    2    1    2    0    0 -0.14210854715E-13  0.00000000000E+00  0.40929994812E+03  0.49316190964E+03  0.27510401959E+03 0.  0.
         25    2    3    3    0    0  0.45052334870E+02 -0.36076155835E+02  0.22576247410E+03  0.26410585896E+03  0.12430610655E+03 0.  0.
         25    2    3    3    0    0 -0.45052334870E+02  0.36076155835E+02  0.18353747401E+03  0.22905605068E+03  0.12429588928E+03 0.  0.
          5    1    4    4  502    0 -0.88795268709E+01  0.30810435578E+02  0.13577529873E+02  0.35136423487E+02  0.47000000000E+01 0. -1.
         -5    1    4    4    0  502  0.53931861741E+02 -0.66886591413E+02  0.21218494423E+03  0.22896943547E+03  0.47000000000E+01 0. -1.
          5    1    5    5  503    0 -0.66475556023E+02  0.34872089657E+02  0.42646678207E+02  0.86463236973E+02  0.47000000000E+01 0.  1.
         -5    1    5    5    0  503  0.21423221153E+02  0.12040661776E+01  0.14089079580E+03  0.14259281371E+03  0.47000000000E+01 0.  1.
<mgrwt>
<rscale>  0 0.27510402E+03</rscale>
<asrwt>0</asrwt>
<pdfrwt beam="1">  1        2 0.69420139E-01 0.27510402E+03</pdfrwt>
<pdfrwt beam="2">  1       -2 0.64509205E-02 0.27510402E+03</pdfrwt>
<totfact> 0.91859143E+03</totfact>
</mgrwt>
</event>
<event>
 9    1  0.2117506E-002  0.2762437E+03  0.7818608E-02  0.1097758E+00
          2   -1    0    0  501    0  0.00000000000E+00  0.00000000000E+00  0.24619509026E+03  0.24619509026E+03  0.00000000000E+00 0. -1.
         -2   -1    0    0    0  501 -0.00000000000E+00 -0.00000000000E+00 -0.77489943882E+02  0.77489943882E+02  0.00000000000E+00 0. -1.
         36    2    1    2    0    0  0.00000000000E+00  0.71054273576E-14  0.16870514638E+03  0.32368503414E+03  0.27624368755E+03 0.  0.
         25    2    3    3    0    0  0.46800072854E+01  0.61279178620E+02  0.11318086083E+03  0.17055588765E+03  0.11181396761E+03 0.  0.
         25    2    3    3    0    0 -0.46800072854E+01 -0.61279178620E+02  0.55524285545E+02  0.15312914649E+03  0.12879654118E+03 0.  0.
          5    1    4    4  502    0  0.24204787671E+02  0.81534728646E+02  0.11364950700E+03  0.14202846251E+03  0.47000000000E+01 0.  1.
         -5    1    4    4    0  502 -0.19524780386E+02 -0.20255550027E+02 -0.46864616787E+00  0.28527425142E+02  0.47000000000E+01 0.  1.
          5    1    5    5  503    0  0.25332642150E+02 -0.88622109721E+02  0.11414480420E+02  0.92994631313E+02  0.47000000000E+01 0.  1.
         -5    1    5    5    0  503 -0.30012649436E+02  0.27342931101E+02  0.44109805125E+02  0.60134515177E+02  0.47000000000E+01 0.  1.
<mgrwt>
<rscale>  0 0.27624369E+03</rscale>
<asrwt>0</asrwt>
<pdfrwt beam="1">  1        2 0.37876167E-01 0.27624369E+03</pdfrwt>
<pdfrwt beam="2">  1       -2 0.11921530E-01 0.27624369E+03</pdfrwt>
<totfact> 0.67276352E+03</totfact>
</mgrwt>
</event>
<event>
 9    1  0.2117506E-002  0.2776307E+03  0.7818608E-02  0.1096990E+00
         -1   -1    0    0    0  501 -0.00000000000E+00  0.00000000000E+00  0.66331289279E+02  0.66331289279E+02  0.00000000000E+00 0.  1.
          1   -1    0    0  501    0  0.00000000000E+00 -0.00000000000E+00 -0.29050689498E+03  0.29050689498E+03  0.00000000000E+00 0.  1.
         36    2    1    2    0    0  0.88817841970E-15  0.35527136788E-14 -0.22417560570E+03  0.35683818426E+03  0.27763066753E+03 0.  0.
         25    2    3    3    0    0  0.52223109590E+01 -0.15722852483E+02 -0.37686533553E+02  0.13131799844E+03  0.12469828099E+03 0.  0.
         25    2    3    3    0    0 -0.52223109590E+01  0.15722852483E+02 -0.18648907215E+03  0.22552018582E+03  0.12572469748E+03 0.  0.
          5    1    4    4  502    0  0.18089994974E+02 -0.61110499430E+02  0.92892572431E+01  0.64576476823E+02  0.47000000000E+01 0. -1.
         -5    1    4    4    0  502 -0.12867684015E+02  0.45387646947E+02 -0.46975790796E+02  0.66741521620E+02  0.47000000000E+01 0. -1.
          5    1    5    5  503    0 -0.12931138965E+02 -0.22925565229E+02  0.72940631048E+01  0.27714423186E+02  0.47000000000E+01 0.  1.
         -5    1    5    5    0  503  0.77088280058E+01  0.38648417711E+02 -0.19378313525E+03  0.19780576263E+03  0.47000000000E+01 0.  1.
<mgrwt>
<rscale>  0 0.27763067E+03</rscale>
<asrwt>0</asrwt>
<pdfrwt beam="1">  1        1 0.44693369E-01 0.27763067E+03</pdfrwt>
<pdfrwt beam="2">  1       -1 0.10204814E-01 0.27763067E+03</pdfrwt>
<totfact> 0.53574388E+03</totfact>
</mgrwt>
</event>
<event>
 9    1  0.2117506E-002  0.2760348E+03  0.7818608E-02  0.1097875E+00
         -4   -1    0    0    0  501 -0.00000000000E+00  0.00000000000E+00  0.11903742642E+03  0.11903742642E+03  0.00000000000E+00 0.  1.
          4   -1    0    0  501    0  0.00000000000E+00 -0.00000000000E+00 -0.16002360731E+03  0.16002360731E+03  0.00000000000E+00 0.  1.
         36    2    1    2    0    0  0.00000000000E+00  0.00000000000E+00 -0.40986180896E+02  0.27906103373E+03  0.27603476868E+03 0.  0.
         25    2    3    3    0    0 -0.49506666612E+02 -0.29338632306E+02 -0.24683991962E+02  0.14164019067E+03  0.12704715176E+03 0.  0.
         25    2    3    3    0    0  0.49506666612E+02  0.29338632306E+02 -0.16302188934E+02  0.13742084306E+03  0.12372170932E+03 0.  0.
          5    1    4    4  502    0 -0.37645508038E+02 -0.35235595365E+02 -0.74025404170E+02  0.90335939242E+02  0.47000000000E+01 0.  1.
         -5    1    4    4    0  502 -0.11861158574E+02  0.58969630582E+01  0.49341412209E+02  0.51304251430E+02  0.47000000000E+01 0.  1.
          5    1    5    5  503    0 -0.26665227447E+02 -0.17553917924E+02  0.22978658244E+02  0.39614178320E+02  0.47000000000E+01 0. -1.
         -5    1    5    5    0  503  0.76171894059E+02  0.46892550231E+02 -0.39280847178E+02  0.97806664736E+02  0.47000000000E+01 0. -1.
<mgrwt>
<rscale>  0 0.27603477E+03</rscale>
<asrwt>0</asrwt>
<pdfrwt beam="1">  1        4 0.24619016E-01 0.27603477E+03</pdfrwt>
<pdfrwt beam="2">  1       -4 0.18313450E-01 0.27603477E+03</pdfrwt>
<totfact> 0.76492990E+02</totfact>
</mgrwt>
</event>
<event>
 9    1  0.2117506E-002  0.2787827E+03  0.7818608E-02  0.1096356E+00
         -2   -1    0    0    0  501 -0.00000000000E+00  0.00000000000E+00  0.94381204234E+02  0.94381204234E+02  0.00000000000E+00 0. -1.
          2   -1    0    0  501    0  0.00000000000E+00 -0.00000000000E+00 -0.20586677858E+03  0.20586677858E+03  0.00000000000E+00 0. -1.
         36    2    1    2    0    0  0.00000000000E+00  0.00000000000E+00 -0.11148557434E+03  0.30024798281E+03  0.27878274318E+03 0.  0.
         25    2    3    3    0    0  0.56487589890E+02  0.28220116269E+02 -0.63855435927E+02  0.15455925444E+03  0.12579278065E+03 0.  0.
         25    2    3    3    0    0 -0.56487589890E+02 -0.28220116269E+02 -0.47630138418E+02  0.14568872837E+03  0.12234930614E+03 0.  0.
          5    1    4    4  502    0  0.58477018989E+02 -0.40561345679E+02 -0.26225440254E+02  0.75991106253E+02  0.47000000000E+01 0. -1.
         -5    1    4    4    0  502 -0.19894290986E+01  0.68781461948E+02 -0.37629995673E+02  0.78568148191E+02  0.47000000000E+01 0. -1.
          5    1    5    5  503    0 -0.44832527594E+02 -0.55661170695E+02 -0.75882271472E+02  0.10434716372E+03  0.47000000000E+01 0. -1.
         -5    1    5    5    0  503 -0.11655062297E+02  0.27441054426E+02  0.28252133054E+02  0.41341564644E+02  0.47000000000E+01 0. -1.
<mgrwt>
<rscale>  0 0.27878274E+03</rscale>
<asrwt>0</asrwt>
<pdfrwt beam="1">  1        2 0.31671812E-01 0.27878274E+03</pdfrwt>
<pdfrwt beam="2">  1       -2 0.14520185E-01 0.27878274E+03</pdfrwt>
<totfact> 0.59274430E+03</totfact>
</mgrwt>
</event>
<event>
 9    1  0.2117506E-002  0.2752291E+03  0.7818608E-02  0.1098324E+00
          1   -1    0    0  501    0  0.00000000000E+00  0.00000000000E+00  0.74728106620E+02  0.74728106620E+02  0.00000000000E+00 0. -1.
         -1   -1    0    0    0  501 -0.00000000000E+00 -0.00000000000E+00 -0.25342231962E+03  0.25342231962E+03  0.00000000000E+00 0. -1.
         36    2    1    2    0    0 -0.14210854715E-13  0.00000000000E+00 -0.17869421300E+03  0.32815042624E+03  0.27522914178E+03 0.  0.
         25    2    3    3    0    0 -0.40557664133E+02 -0.16458439572E+02 -0.39259109818E+02  0.14008951096E+03  0.12715340744E+03 0.  0.
         25    2    3    3    0    0  0.40557664133E+02  0.16458439572E+02 -0.13943510318E+03  0.18806091528E+03  0.11835943353E+03 0.  0.
          5    1    4    4  502    0 -0.80326317343E+01 -0.69587293398E+02 -0.32140515953E+02  0.77214100660E+02  0.47000000000E+01 0.  1.
         -5    1    4    4    0  502 -0.32525032399E+02  0.53128853826E+02 -0.71185938649E+01  0.62875410297E+02  0.47000000000E+01 0.  1.
          5    1    5    5  503    0  0.81837427006E+02  0.17068797402E+02 -0.82217271433E+02  0.11734768010E+03  0.47000000000E+01 0. -1.
         -5    1    5    5    0  503 -0.41279762873E+02 -0.61035783067E+00 -0.57217831750E+02  0.70713235181E+02  0.47000000000E+01 0. -1.
<mgrwt>
<rscale>  0 0.27522914E+03</rscale>
<asrwt>0</asrwt>
<pdfrwt beam="1">  1        1 0.11496632E-01 0.27522914E+03</pdfrwt>
<pdfrwt beam="2">  1       -1 0.38988048E-01 0.27522914E+03</pdfrwt>
<totfact> 0.34192490E+03</totfact>
</mgrwt>
</event>
<event>
 8    1  0.2117506E-002  0.2913687E+03  0.7818608E-02  0.1089637E+00
          1   -1    0    0  501    0  0.00000000000E+00  0.00000000000E+00  0.45625592937E+02  0.45625592937E+02  0.00000000000E+00 0.  1.
         -1   -1    0    0    0  501 -0.00000000000E+00 -0.00000000000E+00 -0.46517613513E+03  0.46517613513E+03  0.00000000000E+00 0.  1.
         25    2    1    2    0    0 -0.11947084303E+02 -0.76308957860E+02 -0.30443859071E+03  0.34075459437E+03  0.13215539413E+03 0.  0.
         25    2    1    2    0    0  0.11947084303E+02  0.76308957860E+02 -0.11511195149E+03  0.17004713370E+03  0.98485919968E+02 0.  0.
          5    1    3    3  502    0 -0.47341088420E+02 -0.69240176106E+02 -0.28944450251E+03  0.30138943358E+03  0.47000000000E+01 0.  1.
         -5    1    3    3    0  502  0.35394004117E+02 -0.70687817541E+01 -0.14994088197E+02  0.39365160787E+02  0.47000000000E+01 0.  1.
          5    1    4    4  503    0 -0.10616992733E+00  0.59631358630E+02 -0.73834598860E+01  0.60270354935E+02  0.47000000000E+01 0.  1.
         -5    1    4    4    0  503  0.12053254231E+02  0.16677599230E+02 -0.10772849160E+03  0.10977677877E+03  0.47000000000E+01 0.  1.
<mgrwt>
<rscale>  0 0.29136875E+03</rscale>
<asrwt>0</asrwt>
<pdfrwt beam="1">  1        1 0.70193221E-02 0.29136875E+03</pdfrwt>
<pdfrwt beam="2">  1       -1 0.71565558E-01 0.29136875E+03</pdfrwt>
<totfact> 0.21328671E+03</totfact>
</mgrwt>
</event>
<event>
 9    1  0.2117506E-002  0.2746484E+03  0.7818608E-02  0.1098648E+00
         -2   -1    0    0    0  501 -0.00000000000E+00  0.00000000000E+00  0.24571530986E+03  0.24571530986E+03  0.00000000000E+00 0. -1.
          2   -1    0    0  501    0  0.00000000000E+00 -0.00000000000E+00 -0.76747084518E+02  0.76747084518E+02  0.00000000000E+00 0. -1.
         36    2    1    2    0    0  0.00000000000E+00  0.00000000000E+00  0.16896822535E+03  0.32246239438E+03  0.27464838360E+03 0.  0.
         25    2    3    3    0    0 -0.36291912308E+02 -0.34863843912E+02  0.47009194232E+02  0.14231116667E+03  0.12453920389E+03 0.  0.
         25    2    3    3    0    0  0.36291912308E+02  0.34863843912E+02  0.12195903111E+03  0.18015122771E+03  0.12266975611E+03 0.  0.
          5    1    4    4  502    0 -0.61146861343E+02 -0.16564973542E+02 -0.21466579606E+02  0.67054015842E+02  0.47000000000E+01 0. -1.
         -5    1    4    4    0  502  0.24854949035E+02 -0.18298870370E+02  0.68475773838E+02  0.75257150830E+02  0.47000000000E+01 0. -1.
          5    1    5    5  503    0 -0.70371470189E+01  0.18061311573E+02 -0.21471719817E+02  0.29306264958E+02  0.47000000000E+01 0. -1.
         -5    1    5    5    0  503  0.43329059327E+02  0.16802532339E+02  0.14343075093E+03  0.15084496275E+03  0.47000000000E+01 0. -1.
<mgrwt>
<rscale>  0 0.27464838E+03</rscale>
<asrwt>0</asrwt>
<pdfrwt beam="1">  1        2 0.11807244E-01 0.27464838E+03</pdfrwt>
<pdfrwt beam="2">  1       -2 0.37802355E-01 0.27464838E+03</pdfrwt>
<totfact> 0.34442214E+03</totfact>
</mgrwt>
</event>
<event>
 9    1  0.2117506E-002  0.2764602E+03  0.7818608E-02  0.1097638E+00
         -2   -1    0    0    0  501 -0.00000000000E+00  0.00000000000E+00  0.27715531787E+02  0.27715531787E+02  0.00000000000E+00 0.  1.
          2   -1    0    0  501    0  0.00000000000E+00 -0.00000000000E+00 -0.68941727124E+03  0.68941727124E+03  0.00000000000E+00 0.  1.
         36    2    1    2    0    0 -0.35527136788E-14 -0.71054273576E-14 -0.66170173945E+03  0.71713280303E+03  0.27646024159E+03 0.  0.
         25    2    3    3    0    0 -0.15145448944E+02  0.25080711279E+02 -0.46467845879E+03  0.48159821661E+03  0.12309486374E+03 0.  0.
         25    2    3    3    0    0  0.15145448944E+02 -0.25080711279E+02 -0.19702328067E+03  0.23553458642E+03  0.12569781849E+03 0.  0.
          5    1    4    4  502    0  0.66783179179E+01  0.70471291249E+02 -0.20204633865E+03  0.21413924391E+03  0.47000000000E+01 0.  1.
         -5    1    4    4    0  502 -0.21823766862E+02 -0.45390579970E+02 -0.26263212014E+03  0.26745897270E+03  0.47000000000E+01 0.  1.
          5    1    5    5  503    0  0.23758616462E+02  0.28056875746E+02 -0.66690573235E+01  0.37659347557E+02  0.47000000000E+01 0.  1.
         -5    1    5    5    0  503 -0.86131675178E+01 -0.53137587025E+02 -0.19035422334E+03  0.19787523886E+03  0.47000000000E+01 0.  1.
<mgrwt>
<rscale>  0 0.27646024E+03</rscale>
<asrwt>0</asrwt>
<pdfrwt beam="1">  1        2 0.10606419E+00 0.27646024E+03</pdfrwt>
<pdfrwt beam="2">  1       -2 0.42639282E-02 0.27646024E+03</pdfrwt>
<totfact> 0.10620689E+04</totfact>
</mgrwt>
</event>
<event>
 9    1  0.2117506E-002  0.2769940E+03  0.7818608E-02  0.1097342E+00
          2   -1    0    0  501    0  0.00000000000E+00  0.00000000000E+00  0.80011358846E+02  0.80011358846E+02  0.00000000000E+00 0.  1.
         -2   -1    0    0    0  501 -0.00000000000E+00 -0.00000000000E+00 -0.23973375468E+03  0.23973375468E+03  0.00000000000E+00 0.  1.
         36    2    1    2    0    0  0.00000000000E+00  0.00000000000E+00 -0.15972239583E+03  0.31974511352E+03  0.27699403223E+03 0.  0.
         25    2    3    3    0    0 -0.35170054387E+02  0.42034532071E+02 -0.10302881075E+03  0.17197749770E+03  0.12632295618E+03 0.  0.
         25    2    3    3    0    0  0.35170054387E+02 -0.42034532071E+02 -0.56693585077E+02  0.14776761582E+03  0.12496908051E+03 0.  0.
          5    1    4    4  502    0 -0.49186287111E+02  0.10799671946E+02 -0.12234618567E+03  0.13238807688E+03  0.47000000000E+01 0. -1.
         -5    1    4    4    0  502  0.14016232724E+02  0.31234860126E+02  0.19317374915E+02  0.39589420815E+02  0.47000000000E+01 0. -1.
          5    1    5    5  503    0  0.56824192029E+02 -0.72249826284E+02 -0.60442860751E+02  0.11011110577E+03  0.47000000000E+01 0. -1.
         -5    1    5    5    0  503 -0.21654137642E+02  0.30215294212E+02  0.37492756735E+01  0.37656510054E+02  0.47000000000E+01 0. -1.
<mgrwt>
<rscale>  0 0.27699403E+03</rscale>
<asrwt>0</asrwt>
<pdfrwt beam="1">  1        2 0.12309440E-01 0.27699403E+03</pdfrwt>
<pdfrwt beam="2">  1       -2 0.36882116E-01 0.27699403E+03</pdfrwt>
<totfact> 0.34306762E+03</totfact>
</mgrwt>
</event>
<event>
 9    1  0.2117506E-002  0.2749150E+03  0.7818608E-02  0.1098499E+00
          1   -1    0    0  501    0  0.00000000000E+00  0.00000000000E+00  0.43367250239E+02  0.43367250239E+02  0.00000000000E+00 0. -1.
         -1   -1    0    0    0  501 -0.00000000000E+00 -0.00000000000E+00 -0.43568733918E+03  0.43568733918E+03  0.00000000000E+00 0. -1.
         36    2    1    2    0    0  0.71054273576E-14  0.17763568394E-14 -0.39232008894E+03  0.47905458941E+03  0.27491498223E+03 0.  0.
         25    2    3    3    0    0 -0.54487309122E+02 -0.77269852744E+00 -0.23291041589E+03  0.26789357051E+03  0.12062437304E+03 0.  0.
         25    2    3    3    0    0  0.54487309122E+02  0.77269852744E+00 -0.15940967305E+03  0.21116101891E+03  0.12731091126E+03 0.  0.
          5    1    4    4  502    0  0.35798693928E+02  0.17258999798E+02 -0.76549573918E+02  0.86379087909E+02  0.47000000000E+01 0.  1.
         -5    1    4    4    0  502 -0.90286003050E+02 -0.18031698325E+02 -0.15636084197E+03  0.18151448260E+03  0.47000000000E+01 0.  1.
          5    1    5    5  503    0 -0.38775899879E+02 -0.88069921020E+01 -0.74531363354E+02  0.84605836942E+02  0.47000000000E+01 0. -1.
         -5    1    5    5    0  503  0.93263209001E+02  0.95796906295E+01 -0.84878309692E+02  0.12655518196E+03  0.47000000000E+01 0. -1.
<mgrwt>
<rscale>  0 0.27491498E+03</rscale>
<asrwt>0</asrwt>
<pdfrwt beam="1">  1        1 0.66718845E-02 0.27491498E+03</pdfrwt>
<pdfrwt beam="2">  1       -1 0.67028823E-01 0.27491498E+03</pdfrwt>
<totfact> 0.26025002E+03</totfact>
</mgrwt>
</event>
<event>
 9    1  0.2117506E-002  0.2729122E+03  0.7818608E-02  0.1099624E+00
          3   -1    0    0  501    0  0.00000000000E+00  0.00000000000E+00  0.13917266499E+03  0.13917266499E+03  0.00000000000E+00 0.  1.
         -3   -1    0    0    0  501 -0.00000000000E+00 -0.00000000000E+00 -0.13379257832E+03  0.13379257832E+03  0.00000000000E+00 0.  1.
         36    2    1    2    0    0 -0.35527136788E-14 -0.71054273576E-14  0.53800866758E+01  0.27296524331E+03  0.27291221798E+03 0.  0.
         25    2    3    3    0    0 -0.90823806517E+01 -0.51176592662E+02 -0.17910959210E+02  0.13651777989E+03  0.12495906727E+03 0.  0.
         25    2    3    3    0    0  0.90823806517E+01  0.51176592662E+02  0.23291045886E+02  0.13644746341E+03  0.12399154882E+03 0.  0.
          5    1    4    4  502    0 -0.59718805159E+02 -0.15712176347E+02  0.18479496426E+02  0.64628089584E+02  0.47000000000E+01 0. -1.
         -5    1    4    4    0  502  0.50636424507E+02 -0.35464416315E+02 -0.36390455636E+02  0.71889690310E+02  0.47000000000E+01 0. -1.
          5    1    5    5  503    0  0.30414921640E+02 -0.30911585649E+02  0.27212493618E+02  0.51412093855E+02  0.47000000000E+01 0.  1.
         -5    1    5    5    0  503 -0.21332540988E+02  0.82088178311E+02 -0.39214477316E+01  0.85035369557E+02  0.47000000000E+01 0.  1.
<mgrwt>
<rscale>  0 0.27291222E+03</rscale>
<asrwt>0</asrwt>
<pdfrwt beam="1">  1        3 0.21411179E-01 0.27291222E+03</pdfrwt>
<pdfrwt beam="2">  1       -3 0.20583474E-01 0.27291222E+03</pdfrwt>
<totfact> 0.10769220E+03</totfact>
</mgrwt>
</event>
<event>
 9    1  0.2117506E-002  0.2742875E+03  0.7818608E-02  0.1098851E+00
          1   -1    0    0  501    0  0.00000000000E+00  0.00000000000E+00  0.15101782311E+04  0.15101782311E+04  0.00000000000E+00 0.  1.
         -1   -1    0    0    0  501 -0.00000000000E+00 -0.00000000000E+00 -0.12454427720E+02  0.12454427720E+02  0.00000000000E+00 0.  1.
         36    2    1    2    0    0  0.00000000000E+00  0.00000000000E+00  0.14977238034E+04  0.15226326588E+04  0.27428748147E+03 0.  0.
         25    2    3    3    0    0 -0.35500568617E+02  0.31155141573E+01  0.99455308189E+03  0.10029341444E+04  0.12438274995E+03 0.  0.
         25    2    3    3    0    0  0.35500568617E+02 -0.31155141573E+01  0.50317072151E+03  0.51969851444E+03  0.12504308911E+03 0.  0.
          5    1    4    4  502    0 -0.30728240316E+02  0.40436681676E+02  0.89424992719E+03  0.89570328360E+03  0.47000000000E+01 0.  1.
         -5    1    4    4    0  502 -0.47723283009E+01 -0.37321167519E+02  0.10030315471E+03  0.10723086079E+03  0.47000000000E+01 0.  1.
          5    1    5    5  503    0 -0.94877226854E+01  0.25726470315E+02  0.21790063490E+02  0.35337869539E+02  0.47000000000E+01 0. -1.
         -5    1    5    5    0  503  0.44988291302E+02 -0.28841984472E+02  0.48138065802E+03  0.48436064491E+03  0.47000000000E+01 0. -1.
<mgrwt>
<rscale>  0 0.27428748E+03</rscale>
<asrwt>0</asrwt>
<pdfrwt beam="1">  1        1 0.23233497E+00 0.27428748E+03</pdfrwt>
<pdfrwt beam="2">  1       -1 0.19160670E-02 0.27428748E+03</pdfrwt>
<totfact> 0.51441687E+03</totfact>
</mgrwt>
</event>
<event>
 9    1  0.2117506E-002  0.2744645E+03  0.7818608E-02  0.1098751E+00
         -2   -1    0    0    0  501 -0.00000000000E+00  0.00000000000E+00  0.10229882167E+02  0.10229882167E+02  0.00000000000E+00 0. -1.
          2   -1    0    0  501    0  0.00000000000E+00 -0.00000000000E+00 -0.18409494857E+04  0.18409494857E+04  0.00000000000E+00 0. -1.
         36    2    1    2    0    0  0.00000000000E+00  0.35527136788E-14 -0.18307196035E+04  0.18511793678E+04  0.27446454281E+03 0.  0.
         25    2    3    3    0    0  0.38471189853E+02 -0.29250534207E+01 -0.67357511589E+03  0.68678601169E+03  0.12838613916E+03 0.  0.
         25    2    3    3    0    0 -0.38471189853E+02  0.29250534207E+01 -0.11571444876E+04  0.11643933561E+04  0.12385448813E+03 0.  0.
          5    1    4    4  502    0  0.75349967525E+02  0.26764883589E+02 -0.51615332676E+03  0.52233162199E+03  0.47000000000E+01 0.  1.
         -5    1    4    4    0  502 -0.36878777672E+02 -0.29689937010E+02 -0.15742178913E+03  0.16445438971E+03  0.47000000000E+01 0.  1.
          5    1    5    5  503    0 -0.16504600440E+02  0.60432657440E+02 -0.74582526459E+03  0.74846638082E+03  0.47000000000E+01 0. -1.
         -5    1    5    5    0  503 -0.21966589413E+02 -0.57507604019E+02 -0.41131922301E+03  0.41592697530E+03  0.47000000000E+01 0. -1.
<mgrwt>
<rscale>  0 0.27446454E+03</rscale>
<asrwt>0</asrwt>
<pdfrwt beam="1">  1        2 0.28322324E+00 0.27446454E+03</pdfrwt>
<pdfrwt beam="2">  1       -2 0.15738267E-02 0.27446454E+03</pdfrwt>
<totfact> 0.99031438E+03</totfact>
</mgrwt>
</event>
<event>
 9    1  0.2117506E-002  0.2752796E+03  0.7818608E-02  0.1098295E+00
          2   -1    0    0  501    0  0.00000000000E+00  0.00000000000E+00  0.24431045758E+03  0.24431045758E+03  0.00000000000E+00 0.  1.
         -2   -1    0    0    0  501 -0.00000000000E+00 -0.00000000000E+00 -0.77543587545E+02  0.77543587545E+02  0.00000000000E+00 0.  1.
         36    2    1    2    0    0  0.00000000000E+00  0.00000000000E+00  0.16676687003E+03  0.32185404512E+03  0.27527956230E+03 0.  0.
         25    2    3    3    0    0 -0.41976099720E+02 -0.30308726675E+02  0.10888105602E+03  0.17487123452E+03  0.12666590876E+03 0.  0.
         25    2    3    3    0    0  0.41976099720E+02  0.30308726675E+02  0.57885814011E+02  0.14698281060E+03  0.12479009291E+03 0.  0.
          5    1    4    4  502    0 -0.39760273090E+02 -0.70560481870E+01  0.13412977561E+03  0.14015546310E+03  0.47000000000E+01 0. -1.
         -5    1    4    4    0  502 -0.22158266295E+01 -0.23252678488E+02 -0.25248719587E+02  0.34715771420E+02  0.47000000000E+01 0. -1.
          5    1    5    5  503    0  0.59349699405E+02 -0.31720991511E+02  0.45086604289E+02  0.81138770068E+02  0.47000000000E+01 0.  1.
         -5    1    5    5    0  503 -0.17373599685E+02  0.62029718185E+02  0.12799209722E+02  0.65844040533E+02  0.47000000000E+01 0.  1.
<mgrwt>
<rscale>  0 0.27527956E+03</rscale>
<asrwt>0</asrwt>
<pdfrwt beam="1">  1        2 0.37586224E-01 0.27527956E+03</pdfrwt>
<pdfrwt beam="2">  1       -2 0.11929783E-01 0.27527956E+03</pdfrwt>
<totfact> 0.67753431E+03</totfact>
</mgrwt>
</event>
<event>
 9    1  0.2117506E-002  0.2767466E+03  0.7818608E-02  0.1097479E+00
         -1   -1    0    0    0  501 -0.00000000000E+00  0.00000000000E+00  0.32126985037E+02  0.32126985037E+02  0.00000000000E+00 0.  1.
          1   -1    0    0  501    0  0.00000000000E+00 -0.00000000000E+00 -0.59598394295E+03  0.59598394295E+03  0.00000000000E+00 0.  1.
         36    2    1    2    0    0  0.00000000000E+00 -0.71054273576E-14 -0.56385695792E+03  0.62811092799E+03  0.27674657879E+03 0.  0.
         25    2    3    3    0    0  0.36640102193E+02  0.44956917358E+02 -0.26866373293E+03  0.30154431233E+03  0.12403688724E+03 0.  0.
         25    2    3    3    0    0 -0.36640102193E+02 -0.44956917358E+02 -0.29519322499E+03  0.32656661566E+03  0.12705547167E+03 0.  0.
          5    1    4    4  502    0  0.29933064481E+02  0.63373640435E+02 -0.61381473276E+02  0.93284414094E+02  0.47000000000E+01 0. -1.
         -5    1    4    4    0  502  0.67070377126E+01 -0.18416723077E+02 -0.20728225966E+03  0.20825989823E+03  0.47000000000E+01 0. -1.
          5    1    5    5  503    0 -0.43229927105E+02  0.22802984826E+02 -0.21832088100E+03  0.22377421611E+03  0.47000000000E+01 0. -1.
         -5    1    5    5    0  503  0.65898249117E+01 -0.67759902184E+02 -0.76872343980E+02  0.10279239955E+03  0.47000000000E+01 0. -1.
<mgrwt>
<rscale>  0 0.27674658E+03</rscale>
<asrwt>0</asrwt>
<pdfrwt beam="1">  1        1 0.91689831E-01 0.27674658E+03</pdfrwt>
<pdfrwt beam="2">  1       -1 0.49426134E-02 0.27674658E+03</pdfrwt>
<totfact> 0.63361062E+03</totfact>
</mgrwt>
</event>
<event>
 9    1  0.2117506E-002  0.2738978E+03  0.7818608E-02  0.1099069E+00
         -2   -1    0    0    0  501 -0.00000000000E+00  0.00000000000E+00  0.46347224393E+01  0.46347224393E+01  0.00000000000E+00 0. -1.
          2   -1    0    0  501    0  0.00000000000E+00 -0.00000000000E+00 -0.40466278525E+04  0.40466278525E+04  0.00000000000E+00 0. -1.
         36    2    1    2    0    0  0.71054273576E-14  0.14210854715E-13 -0.40419931301E+04  0.40512625749E+04  0.27389776860E+03 0.  0.
         25    2    3    3    0    0  0.28781859111E+02  0.43023635165E+02 -0.17705174284E+04  0.17757786616E+04  0.12640594270E+03 0.  0.
         25    2    3    3    0    0 -0.28781859111E+02 -0.43023635165E+02 -0.22714757017E+04  0.22754839133E+04  0.12468258801E+03 0.  0.
          5    1    4    4  502    0  0.17827772587E+02 -0.14325731342E+02 -0.61893183730E+02  0.66150678350E+02  0.47000000000E+01 0. -1.
         -5    1    4    4    0  502  0.10954086523E+02  0.57349366508E+02 -0.17086242446E+04  0.17096279833E+04  0.47000000000E+01 0. -1.
          5    1    5    5  503    0 -0.73113144235E+01  0.40962706837E+02 -0.10995399219E+04  0.11003370068E+04  0.47000000000E+01 0. -1.
         -5    1    5    5    0  503 -0.21470544687E+02 -0.83986342002E+02 -0.11719357798E+04  0.11751469065E+04  0.47000000000E+01 0. -1.
<mgrwt>
<rscale>  0 0.27389777E+03</rscale>
<asrwt>0</asrwt>
<pdfrwt beam="1">  1        2 0.62255860E+00 0.27389777E+03</pdfrwt>
<pdfrwt beam="2">  1       -2 0.71303368E-03 0.27389777E+03</pdfrwt>
<totfact> 0.14334173E+03</totfact>
</mgrwt>
</event>
<event>
 9    1  0.2117506E-002  0.2746227E+03  0.7818608E-02  0.1098663E+00
          2   -1    0    0  501    0  0.00000000000E+00  0.00000000000E+00  0.74402980941E+03  0.74402980941E+03  0.00000000000E+00 0. -1.
         -2   -1    0    0    0  501 -0.00000000000E+00 -0.00000000000E+00 -0.25340923436E+02  0.25340923436E+02  0.00000000000E+00 0. -1.
         36    2    1    2    0    0  0.00000000000E+00  0.00000000000E+00  0.71868888598E+03  0.76937073285E+03  0.27462266792E+03 0.  0.
         25    2    3    3    0    0  0.18822264335E+02  0.41646735766E+02  0.25284860936E+03  0.28480889260E+03  0.12286153920E+03 0.  0.
         25    2    3    3    0    0 -0.18822264335E+02 -0.41646735766E+02  0.46584027662E+03  0.48456184025E+03  0.12531674059E+03 0.  0.
          5    1    4    4  502    0 -0.58521407527E+01  0.51506792881E+02  0.25251398197E+03  0.25782280418E+03  0.47000000000E+01 0.  1.
         -5    1    4    4    0  502  0.24674405088E+02 -0.98600571150E+01  0.33462738948E+00  0.26986088421E+02  0.47000000000E+01 0.  1.
          5    1    5    5  503    0 -0.63430464639E+02 -0.98841267355E+01  0.13961037939E+03  0.15373440681E+03  0.47000000000E+01 0.  1.
         -5    1    5    5    0  503  0.44608200304E+02 -0.31762609031E+02  0.32622989723E+03  0.33082743344E+03  0.47000000000E+01 0.  1.
<mgrwt>
<rscale>  0 0.27462267E+03</rscale>
<asrwt>0</asrwt>
<pdfrwt beam="1">  1        2 0.11446611E+00 0.27462267E+03</pdfrwt>
<pdfrwt beam="2">  1       -2 0.38986042E-02 0.27462267E+03</pdfrwt>
<totfact> 0.11069412E+04</totfact>
</mgrwt>
</event>
<event>
 9    1  0.2117506E-002  0.2752213E+03  0.7818608E-02  0.1098328E+00
          1   -1    0    0  501    0  0.00000000000E+00  0.00000000000E+00  0.67437652071E+03  0.67437652071E+03  0.00000000000E+00 0. -1.
         -1   -1    0    0    0  501 -0.00000000000E+00 -0.00000000000E+00 -0.28080298534E+02  0.28080298534E+02  0.00000000000E+00 0. -1.
         36    2    1    2    0    0 -0.88817841970E-15  0.14210854715E-13  0.64629622217E+03  0.70245681924E+03  0.27522132204E+03 0.  0.
         25    2    3    3    0    0  0.34950285128E+01  0.45045114033E+02  0.39479318624E+03  0.41776289005E+03  0.12892980602E+03 0.  0.
         25    2    3    3    0    0 -0.34950285128E+01 -0.45045114033E+02  0.25150303594E+03  0.28469392919E+03  0.12552122813E+03 0.  0.
          5    1    4    4  502    0 -0.37242639938E+02 -0.26209230075E+02  0.21846941674E+03  0.22321495027E+03  0.47000000000E+01 0.  1.
         -5    1    4    4    0  502  0.40737668451E+02  0.71254344108E+02  0.17632376949E+03  0.19454793978E+03  0.47000000000E+01 0.  1.
          5    1    5    5  503    0 -0.72162855915E+01 -0.86086687474E+02  0.12870982941E+03  0.15508482429E+03  0.47000000000E+01 0. -1.
         -5    1    5    5    0  503  0.37212570787E+01  0.41041573441E+02  0.12279320652E+03  0.12960910490E+03  0.47000000000E+01 0. -1.
<mgrwt>
<rscale>  0 0.27522132E+03</rscale>
<asrwt>0</asrwt>
<pdfrwt beam="1">  1        1 0.10375022E+00 0.27522132E+03</pdfrwt>
<pdfrwt beam="2">  1       -1 0.43200464E-02 0.27522132E+03</pdfrwt>
<totfact> 0.65060705E+03</totfact>
</mgrwt>
</event>
<event>
 9    1  0.2117506E-002  0.2748255E+03  0.7818608E-02  0.1098549E+00
         -2   -1    0    0    0  501 -0.00000000000E+00  0.00000000000E+00  0.47425269880E+02  0.47425269880E+02  0.00000000000E+00 0. -1.
          2   -1    0    0  501    0  0.00000000000E+00 -0.00000000000E+00 -0.39814773659E+03  0.39814773659E+03  0.00000000000E+00 0. -1.
         36    2    1    2    0    0  0.00000000000E+00  0.00000000000E+00 -0.35072246670E+03  0.44557300647E+03  0.27482549998E+03 0.  0.
         25    2    3    3    0    0  0.23402886365E+02 -0.44214738783E+02 -0.21529406675E+03  0.25415863491E+03  0.12546887384E+03 0.  0.
         25    2    3    3    0    0 -0.23402886365E+02  0.44214738783E+02 -0.13542839995E+03  0.19141437156E+03  0.12568202699E+03 0.  0.
          5    1    4    4  502    0 -0.42655342114E+01 -0.75371476218E+02 -0.19161127219E+03  0.20600005786E+03  0.47000000000E+01 0.  1.
         -5    1    4    4    0  502  0.27668420577E+02  0.31156737435E+02 -0.23682794566E+02  0.48158577048E+02  0.47000000000E+01 0.  1.
          5    1    5    5  503    0  0.40672261512E+02  0.49388196721E+02 -0.37899066434E+02  0.74510778203E+02  0.47000000000E+01 0.  1.
         -5    1    5    5    0  503 -0.64075147878E+02 -0.51734579385E+01 -0.97529333516E+02  0.11690359335E+03  0.47000000000E+01 0.  1.
<mgrwt>
<rscale>  0 0.27482550E+03</rscale>
<asrwt>0</asrwt>
<pdfrwt beam="1">  1        2 0.61253496E-01 0.27482550E+03</pdfrwt>
<pdfrwt beam="2">  1       -2 0.72961956E-02 0.27482550E+03</pdfrwt>
<totfact> 0.87062718E+03</totfact>
</mgrwt>
</event>
<event>
 9    1  0.2117506E-002  0.2742816E+03  0.7818608E-02  0.1098854E+00
          2   -1    0    0  501    0  0.00000000000E+00  0.00000000000E+00  0.18483629581E+04  0.18483629581E+04  0.00000000000E+00 0.  1.
         -2   -1    0    0    0  501 -0.00000000000E+00 -0.00000000000E+00 -0.10175275439E+02  0.10175275439E+02  0.00000000000E+00 0.  1.
         36    2    1    2    0    0 -0.71054273576E-14  0.00000000000E+00  0.18381876827E+04  0.18585382335E+04  0.27428162323E+03 0.  0.
         25    2    3    3    0    0  0.78022903718E+01 -0.50570311032E+02  0.73728342180E+03  0.74908237545E+03  0.12214470541E+03 0.  0.
         25    2    3    3    0    0 -0.78022903718E+01  0.50570311032E+02  0.11009042609E+04  0.11094558581E+04  0.12760829663E+03 0.  0.
          5    1    4    4  502    0  0.55358165044E+02  0.87591071739E+01  0.31014904645E+03  0.31520750215E+03  0.47000000000E+01 0. -1.
         -5    1    4    4    0  502 -0.47555874672E+02 -0.59329418206E+02  0.42713437535E+03  0.43387487330E+03  0.47000000000E+01 0. -1.
          5    1    5    5  503    0  0.34632925093E+02  0.25967057665E+01  0.91058201658E+02  0.97569813316E+02  0.47000000000E+01 0.  1.
         -5    1    5    5    0  503 -0.42435215465E+02  0.47973605266E+02  0.10098460592E+04  0.10118860448E+04  0.47000000000E+01 0.  1.
<mgrwt>
<rscale>  0 0.27428162E+03</rscale>
<asrwt>0</asrwt>
<pdfrwt beam="1">  1        2 0.28436327E+00 0.27428162E+03</pdfrwt>
<pdfrwt beam="2">  1       -2 0.15654285E-02 0.27428162E+03</pdfrwt>
<totfact> 0.98919572E+03</totfact>
</mgrwt>
</event>
<event>
 9    1  0.2117506E-002  0.2783317E+03  0.7818608E-02  0.1096604E+00
         -2   -1    0    0    0  501 -0.00000000000E+00  0.00000000000E+00  0.60256835268E+01  0.60256835268E+01  0.00000000000E+00 0. -1.
          2   -1    0    0  501    0  0.00000000000E+00 -0.00000000000E+00 -0.32140973154E+04  0.32140973154E+04  0.00000000000E+00 0. -1.
         36    2    1    2    0    0  0.71054273576E-14  0.00000000000E+00 -0.32080716319E+04  0.32201229990E+04  0.27833169598E+03 0.  0.
         25    2    3    3    0    0 -0.84787469986E+01 -0.96158250522E+01 -0.92160424577E+03  0.93047096794E+03  0.12750483568E+03 0.  0.
         25    2    3    3    0    0  0.84787469986E+01  0.96158250522E+01 -0.22864673861E+04  0.22896520310E+04  0.12003733600E+03 0.  0.
          5    1    4    4  502    0 -0.60223801711E+02  0.25340514901E+02 -0.46329796353E+03  0.46790612413E+03  0.47000000000E+01 0. -1.
         -5    1    4    4    0  502  0.51745054712E+02 -0.34956339953E+02 -0.45830628224E+03  0.46256484381E+03  0.47000000000E+01 0. -1.
          5    1    5    5  503    0  0.64219833981E+02  0.54601019424E+01 -0.12336208369E+04  0.12353122921E+04  0.47000000000E+01 0. -1.
         -5    1    5    5    0  503 -0.55741086982E+02  0.41557231097E+01 -0.10528465493E+04  0.10543397390E+04  0.47000000000E+01 0. -1.
<mgrwt>
<rscale>  0 0.27833170E+03</rscale>
<asrwt>0</asrwt>
<pdfrwt beam="1">  1        2 0.49447593E+00 0.27833170E+03</pdfrwt>
<pdfrwt beam="2">  1       -2 0.92702932E-03 0.27833170E+03</pdfrwt>
<totfact> 0.36777635E+03</totfact>
</mgrwt>
</event>
<event>
 9    1  0.2117506E-002  0.2698537E+03  0.7818608E-02  0.1101363E+00
          3   -1    0    0  501    0  0.00000000000E+00  0.00000000000E+00  0.13083216408E+03  0.13083216408E+03  0.00000000000E+00 0.  1.
         -3   -1    0    0    0  501 -0.00000000000E+00 -0.00000000000E+00 -0.13914963801E+03  0.13914963801E+03  0.00000000000E+00 0.  1.
         36    2    1    2    0    0  0.71054273576E-14  0.17763568394E-14 -0.83174739296E+01  0.26998180210E+03  0.26985365125E+03 0.  0.
         25    2    3    3    0    0 -0.58178273199E+02 -0.12935524654E+02 -0.73215659334E+02  0.11584250980E+03  0.67133561161E+02 0.  0.
         25    2    3    3    0    0  0.58178273199E+02  0.12935524654E+02  0.64898185404E+02  0.15413929230E+03  0.12647176638E+03 0.  0.
          5    1    4    4  502    0  0.39590893522E+01 -0.18345359274E+02 -0.41331501948E+02  0.45635618202E+02  0.47000000000E+01 0. -1.
         -5    1    4    4    0  502 -0.62137362551E+02  0.54098346200E+01 -0.31884157386E+02  0.70206891596E+02  0.47000000000E+01 0. -1.
          5    1    5    5  503    0  0.15533776705E+01  0.24924959525E+02 -0.32188762489E+02  0.41010645204E+02  0.47000000000E+01 0.  1.
         -5    1    5    5    0  503  0.56624895528E+02 -0.11989434871E+02  0.97086947893E+02  0.11312864709E+03  0.47000000000E+01 0.  1.
<mgrwt>
<rscale>  0 0.26985365E+03</rscale>
<asrwt>0</asrwt>
<pdfrwt beam="1">  1        3 0.20128025E-01 0.26985365E+03</pdfrwt>
<pdfrwt beam="2">  1       -3 0.21407637E-01 0.26985365E+03</pdfrwt>
<totfact> 0.11196714E+03</totfact>
</mgrwt>
</event>
<event>
 9    1  0.2117506E-002  0.2803945E+03  0.7818608E-02  0.1095474E+00
          2   -1    0    0  501    0  0.00000000000E+00  0.00000000000E+00  0.14940454150E+04  0.14940454150E+04  0.00000000000E+00 0.  1.
         -2   -1    0    0    0  501 -0.00000000000E+00 -0.00000000000E+00 -0.13155737820E+02  0.13155737820E+02  0.00000000000E+00 0.  1.
         36    2    1    2    0    0 -0.71054273576E-14  0.00000000000E+00  0.14808896772E+04  0.15072011528E+04  0.28039450616E+03 0.  0.
         25    2    3    3    0    0 -0.38729643164E+02 -0.46461232050E+02  0.81292650939E+03  0.82482731950E+03  0.12582514049E+03 0.  0.
         25    2    3    3    0    0  0.38729643164E+02  0.46461232050E+02  0.66796316781E+03  0.68237383334E+03  0.12570053116E+03 0.  0.
          5    1    4    4  502    0 -0.65244637649E+02  0.86887562032E+01  0.24989640522E+03  0.25846210664E+03  0.47000000000E+01 0. -1.
         -5    1    4    4    0  502  0.26514994485E+02 -0.55149988253E+02  0.56303010417E+03  0.56636521286E+03  0.47000000000E+01 0. -1.
          5    1    5    5  503    0  0.13858490655E+01  0.78951937092E+02  0.27100958929E+03  0.28231828924E+03  0.47000000000E+01 0. -1.
         -5    1    5    5    0  503  0.37343794098E+02 -0.32490705042E+02  0.39695357852E+03  0.40005554411E+03  0.47000000000E+01 0. -1.
<mgrwt>
<rscale>  0 0.28039451E+03</rscale>
<asrwt>0</asrwt>
<pdfrwt beam="1">  1        2 0.22985301E+00 0.28039451E+03</pdfrwt>
<pdfrwt beam="2">  1       -2 0.20239608E-02 0.28039451E+03</pdfrwt>
<totfact> 0.10445467E+04</totfact>
</mgrwt>
</event>
<event>
 9    1  0.2117506E-002  0.2751475E+03  0.7818608E-02  0.1098369E+00
         -2   -1    0    0    0  501 -0.00000000000E+00  0.00000000000E+00  0.19450144284E+02  0.19450144284E+02  0.00000000000E+00 0. -1.
          2   -1    0    0  501    0  0.00000000000E+00 -0.00000000000E+00 -0.97307923065E+03  0.97307923065E+03  0.00000000000E+00 0. -1.
         36    2    1    2    0    0  0.71054273576E-14  0.00000000000E+00 -0.95362908637E+03  0.99252937494E+03  0.27514746181E+03 0.  0.
         25    2    3    3    0    0  0.32673320826E+02  0.79067130030E+01 -0.61117961595E+03  0.62506589990E+03  0.12663646496E+03 0.  0.
         25    2    3    3    0    0 -0.32673320826E+02 -0.79067130030E+01 -0.34244947042E+03  0.36746347504E+03  0.12894845363E+03 0.  0.
          5    1    4    4  502    0 -0.22391010279E+02  0.44048376126E+02 -0.12617982441E+03  0.13559149999E+03  0.47000000000E+01 0. -1.
         -5    1    4    4    0  502  0.55064331105E+02 -0.36141663123E+02 -0.48499979154E+03  0.48947439991E+03  0.47000000000E+01 0. -1.
          5    1    5    5  503    0  0.35573471464E+02  0.34788573792E+02 -0.16803393220E+03  0.17530889626E+03  0.47000000000E+01 0.  1.
         -5    1    5    5    0  503 -0.68246792290E+02 -0.42695286795E+02 -0.17441553822E+03  0.19215457878E+03  0.47000000000E+01 0.  1.
<mgrwt>
<rscale>  0 0.27514746E+03</rscale>
<asrwt>0</asrwt>
<pdfrwt beam="1">  1        2 0.14970449E+00 0.27514746E+03</pdfrwt>
<pdfrwt beam="2">  1       -2 0.29923300E-02 0.27514746E+03</pdfrwt>
<totfact> 0.11572137E+04</totfact>
</mgrwt>
</event>
<event>
 9    1  0.2117506E-002  0.2751897E+03  0.7818608E-02  0.1098346E+00
          1   -1    0    0  501    0  0.00000000000E+00  0.00000000000E+00  0.88705212622E+03  0.88705212622E+03  0.00000000000E+00 0.  1.
         -1   -1    0    0    0  501 -0.00000000000E+00 -0.00000000000E+00 -0.21342995278E+02  0.21342995278E+02  0.00000000000E+00 0.  1.
         36    2    1    2    0    0  0.00000000000E+00 -0.14210854715E-13  0.86570913094E+03  0.90839512150E+03  0.27518974793E+03 0.  0.
         25    2    3    3    0    0  0.50084396361E+02  0.36231999141E+02  0.40611012117E+03  0.43110339043E+03  0.13078034333E+03 0.  0.
         25    2    3    3    0    0 -0.50084396361E+02 -0.36231999141E+02  0.45959900977E+03  0.47729173107E+03  0.11293778041E+03 0.  0.
          5    1    4    4  502    0 -0.30851642679E+02 -0.23844421739E+02  0.71092626059E+02  0.81219651465E+02  0.47000000000E+01 0. -1.
         -5    1    4    4    0  502  0.80936039040E+02  0.60076420881E+02  0.33501749511E+03  0.34988373896E+03  0.47000000000E+01 0. -1.
          5    1    5    5  503    0 -0.54117725660E+02 -0.73046160900E+02  0.30856738661E+03  0.32171476797E+03  0.47000000000E+01 0.  1.
         -5    1    5    5    0  503  0.40333292984E+01  0.36814161759E+02  0.15103162316E+03  0.15557696310E+03  0.47000000000E+01 0.  1.
<mgrwt>
<rscale>  0 0.27518975E+03</rscale>
<asrwt>0</asrwt>
<pdfrwt beam="1">  1        1 0.13646953E+00 0.27518975E+03</pdfrwt>
<pdfrwt beam="2">  1       -1 0.32835384E-02 0.27518975E+03</pdfrwt>
<totfact> 0.64435677E+03</totfact>
</mgrwt>
</event>
<event>
 9    1  0.2117506E-002  0.2752232E+03  0.7818608E-02  0.1098327E+00
         -1   -1    0    0    0  501 -0.00000000000E+00  0.00000000000E+00  0.96601907500E+01  0.96601907500E+01  0.00000000000E+00 0.  1.
          1   -1    0    0  501    0  0.00000000000E+00 -0.00000000000E+00 -0.19603077572E+04  0.19603077572E+04  0.00000000000E+00 0.  1.
         36    2    1    2    0    0  0.71054273576E-14 -0.14210854715E-13 -0.19506475664E+04  0.19699679479E+04  0.27522315937E+03 0.  0.
         25    2    3    3    0    0  0.33119640577E+02 -0.57177828646E+02 -0.11474839837E+04  0.11549498691E+04  0.11324086120E+03 0.  0.
         25    2    3    3    0    0 -0.33119640577E+02  0.57177828646E+02 -0.80316358268E+03  0.81501807876E+03  0.12172310170E+03 0.  0.
          5    1    4    4  502    0 -0.43148140190E+01 -0.53964117838E+02 -0.10317322433E+04  0.10331622600E+04  0.47000000000E+01 0. -1.
         -5    1    4    4    0  502  0.37434454596E+02 -0.32137108079E+01 -0.11575174044E+03  0.12178760915E+03  0.47000000000E+01 0. -1.
          5    1    5    5  503    0 -0.51027966655E+02  0.49789594134E+02 -0.78438246032E+03  0.78762985667E+03  0.47000000000E+01 0.  1.
         -5    1    5    5    0  503  0.17908326078E+02  0.73882345119E+01 -0.18781122357E+02  0.27388222088E+02  0.47000000000E+01 0.  1.
<mgrwt>
<rscale>  0 0.27522316E+03</rscale>
<asrwt>0</asrwt>
<pdfrwt beam="1">  1        1 0.30158630E+00 0.27522316E+03</pdfrwt>
<pdfrwt beam="2">  1       -1 0.14861808E-02 0.27522316E+03</pdfrwt>
<totfact> 0.37873366E+03</totfact>
</mgrwt>
</event>
<event>
 9    1  0.2117506E-002  0.2748997E+03  0.7818608E-02  0.1098508E+00
          2   -1    0    0  501    0  0.00000000000E+00  0.00000000000E+00  0.14599742911E+02  0.14599742911E+02  0.00000000000E+00 0.  1.
         -2   -1    0    0    0  501 -0.00000000000E+00 -0.00000000000E+00 -0.12940265772E+04  0.12940265772E+04  0.00000000000E+00 0.  1.
         36    2    1    2    0    0  0.00000000000E+00  0.00000000000E+00 -0.12794268343E+04  0.13086263201E+04  0.27489965694E+03 0.  0.
         25    2    3    3    0    0  0.15945732290E+02  0.48110150288E+02 -0.85796846381E+03  0.86905047592E+03  0.12872448044E+03 0.  0.
         25    2    3    3    0    0 -0.15945732290E+02 -0.48110150288E+02 -0.42145837048E+03  0.43957584419E+03  0.11415301928E+03 0.  0.
          5    1    4    4  502    0  0.33523792038E+02 -0.37478423022E+02 -0.28525591781E+03  0.28969208734E+03  0.47000000000E+01 0.  1.
         -5    1    4    4    0  502 -0.17578059748E+02  0.85588573310E+02 -0.57271254600E+03  0.57935838857E+03  0.47000000000E+01 0.  1.
          5    1    5    5  503    0  0.42806278221E+01 -0.22333620283E+02 -0.76539487693E+01  0.24449689186E+02  0.47000000000E+01 0.  1.
         -5    1    5    5    0  503 -0.20226360112E+02 -0.25776530005E+02 -0.41380442171E+03  0.41512615501E+03  0.47000000000E+01 0.  1.
<mgrwt>
<rscale>  0 0.27489966E+03</rscale>
<asrwt>0</asrwt>
<pdfrwt beam="1">  1        2 0.22461139E-02 0.27489966E+03</pdfrwt>
<pdfrwt beam="2">  1       -2 0.19908105E+00 0.27489966E+03</pdfrwt>
<totfact> 0.68172787E+02</totfact>
</mgrwt>
</event>
<event>
 9    1  0.2117506E-002  0.2854388E+03  0.7818608E-02  0.1092755E+00
         -2   -1    0    0    0  501 -0.00000000000E+00  0.00000000000E+00  0.92081954712E+01  0.92081954712E+01  0.00000000000E+00 0. -1.
          2   -1    0    0  501    0  0.00000000000E+00 -0.00000000000E+00 -0.22120326747E+04  0.22120326747E+04  0.00000000000E+00 0. -1.
         36    2    1    2    0    0  0.00000000000E+00 -0.71054273576E-14 -0.22028244792E+04  0.22212408701E+04  0.28543881486E+03 0.  0.
         25    2    3    3    0    0 -0.13305115404E+02  0.50350223154E+02 -0.86186604003E+03  0.87258684062E+03  0.12602599887E+03 0.  0.
         25    2    3    3    0    0  0.13305115404E+02 -0.50350223154E+02 -0.13409584392E+04  0.13486540295E+04  0.13411183657E+03 0.  0.
          5    1    4    4  502    0 -0.65959612144E+02  0.44461814603E+01 -0.40479507940E+03  0.41018481843E+03  0.47000000000E+01 0. -1.
         -5    1    4    4    0  502  0.52654496740E+02  0.45904041694E+02 -0.45707096063E+03  0.46240202219E+03  0.47000000000E+01 0. -1.
          5    1    5    5  503    0  0.43368390087E+02  0.30644177264E+02 -0.36571082983E+03  0.36957595149E+03  0.47000000000E+01 0.  1.
         -5    1    5    5    0  503 -0.30063274682E+02 -0.80994400418E+02 -0.97524760932E+03  0.97907807803E+03  0.47000000000E+01 0.  1.
<mgrwt>
<rscale>  0 0.28543881E+03</rscale>
<asrwt>0</asrwt>
<pdfrwt beam="1">  1        2 0.34031310E+00 0.28543881E+03</pdfrwt>
<pdfrwt beam="2">  1       -2 0.14166439E-02 0.28543881E+03</pdfrwt>
<totfact> 0.73614627E+03</totfact>
</mgrwt>
</event>
<event>
 9    1  0.2117506E-002  0.2749517E+03  0.7818608E-02  0.1098479E+00
         -2   -1    0    0    0  501 -0.00000000000E+00  0.00000000000E+00  0.36091250538E+02  0.36091250538E+02  0.00000000000E+00 0.  1.
          2   -1    0    0  501    0  0.00000000000E+00 -0.00000000000E+00 -0.52366175523E+03  0.52366175523E+03  0.00000000000E+00 0.  1.
         36    2    1    2    0    0  0.00000000000E+00  0.00000000000E+00 -0.48757050469E+03  0.55975300577E+03  0.27495168743E+03 0.  0.
         25    2    3    3    0    0  0.40769643880E+02 -0.20984986975E+02 -0.19922855016E+03  0.23655222967E+03  0.11900591842E+03 0.  0.
         25    2    3    3    0    0 -0.40769643880E+02  0.20984986975E+02 -0.28834195453E+03  0.32320077610E+03  0.13861863291E+03 0.  0.
          5    1    4    4  502    0  0.20425452396E+02  0.31255045145E+02 -0.16809061282E+03  0.17225162139E+03  0.47000000000E+01 0.  1.
         -5    1    4    4    0  502  0.20344191484E+02 -0.52240032120E+02 -0.31137937342E+02  0.64300608278E+02  0.47000000000E+01 0.  1.
          5    1    5    5  503    0 -0.46762115531E+02  0.76335846886E+02 -0.16453742393E+03  0.18737265233E+03  0.47000000000E+01 0.  1.
         -5    1    5    5    0  503  0.59924716510E+01 -0.55350859911E+02 -0.12380453060E+03  0.13582812377E+03  0.47000000000E+01 0.  1.
<mgrwt>
<rscale>  0 0.27495169E+03</rscale>
<asrwt>0</asrwt>
<pdfrwt beam="1">  1        2 0.80563349E-01 0.27495169E+03</pdfrwt>
<pdfrwt beam="2">  1       -2 0.55524999E-02 0.27495169E+03</pdfrwt>
<totfact> 0.97951445E+03</totfact>
</mgrwt>
</event>
<event>
 9    1  0.2117506E-002  0.2702862E+03  0.7818608E-02  0.1101116E+00
          1   -1    0    0  501    0  0.00000000000E+00  0.00000000000E+00  0.45386240094E+02  0.45386240094E+02  0.00000000000E+00 0.  1.
         -1   -1    0    0    0  501 -0.00000000000E+00 -0.00000000000E+00 -0.40240506270E+03  0.40240506270E+03  0.00000000000E+00 0.  1.
         36    2    1    2    0    0  0.17763568394E-14  0.35527136788E-14 -0.35701882260E+03  0.44779130279E+03  0.27028616532E+03 0.  0.
         25    2    3    3    0    0 -0.15911904560E+02 -0.22694479633E+01 -0.25772518345E+03  0.28638121022E+03  0.12382886692E+03 0.  0.
         25    2    3    3    0    0  0.15911904560E+02  0.22694479633E+01 -0.99293639158E+02  0.16141009258E+03  0.12623649277E+03 0.  0.
          5    1    4    4  502    0  0.22329511019E+01  0.55198822900E+02 -0.70802679893E+02  0.89927779914E+02  0.47000000000E+01 0.  1.
         -5    1    4    4    0  502 -0.18144855662E+02 -0.57468270864E+02 -0.18692250355E+03  0.19645343030E+03  0.47000000000E+01 0.  1.
          5    1    5    5  503    0 -0.33396061462E+02 -0.18350389227E+02  0.99847604490E+01  0.39671389529E+02  0.47000000000E+01 0. -1.
         -5    1    5    5    0  503  0.49307966022E+02  0.20619837190E+02 -0.10927839961E+03  0.12173870305E+03  0.47000000000E+01 0. -1.
<mgrwt>
<rscale>  0 0.27028617E+03</rscale>
<asrwt>0</asrwt>
<pdfrwt beam="1">  1        1 0.69824985E-02 0.27028617E+03</pdfrwt>
<pdfrwt beam="2">  1       -1 0.61908471E-01 0.27028617E+03</pdfrwt>
<totfact> 0.28555092E+03</totfact>
</mgrwt>
</event>
<event>
 9    1  0.2117506E-002  0.2751788E+03  0.7818608E-02  0.1098352E+00
         -1   -1    0    0    0  501 -0.00000000000E+00  0.00000000000E+00  0.19854244245E+02  0.19854244245E+02  0.00000000000E+00 0.  1.
          1   -1    0    0  501    0  0.00000000000E+00 -0.00000000000E+00 -0.95349115275E+03  0.95349115275E+03  0.00000000000E+00 0.  1.
         36    2    1    2    0    0  0.71054273576E-14  0.35527136788E-14 -0.93363690850E+03  0.97334539699E+03  0.27517882355E+03 0.  0.
         25    2    3    3    0    0  0.13014486775E+02 -0.20210848040E+02 -0.64129269963E+03  0.65406300688E+03  0.12634965426E+03 0.  0.
         25    2    3    3    0    0 -0.13014486775E+02  0.20210848040E+02 -0.29234420887E+03  0.31928239011E+03  0.12608827435E+03 0.  0.
          5    1    4    4  502    0 -0.41830670560E+02  0.25716082807E+02 -0.15913229174E+03  0.16660221543E+03  0.47000000000E+01 0. -1.
         -5    1    4    4    0  502  0.54845157335E+02 -0.45926930846E+02 -0.48216040789E+03  0.48746079145E+03  0.47000000000E+01 0. -1.
          5    1    5    5  503    0 -0.32095475861E+02  0.74666908409E+01 -0.29392819760E+03  0.29580694107E+03  0.47000000000E+01 0.  1.
         -5    1    5    5    0  503  0.19080989086E+02  0.12744157199E+02  0.15839887258E+01  0.23475449037E+02  0.47000000000E+01 0.  1.
<mgrwt>
<rscale>  0 0.27517882E+03</rscale>
<asrwt>0</asrwt>
<pdfrwt beam="1">  1        1 0.14669093E+00 0.27517882E+03</pdfrwt>
<pdfrwt beam="2">  1       -1 0.30544994E-02 0.27517882E+03</pdfrwt>
<totfact> 0.63660011E+03</totfact>
</mgrwt>
</event>
<event>
 9    1  0.2117506E-002  0.2747814E+03  0.7818608E-02  0.1098574E+00
         -2   -1    0    0    0  501 -0.00000000000E+00  0.00000000000E+00  0.91386332219E+01  0.91386332219E+01  0.00000000000E+00 0. -1.
          2   -1    0    0  501    0  0.00000000000E+00 -0.00000000000E+00 -0.20655395955E+04  0.20655395955E+04  0.00000000000E+00 0. -1.
         36    2    1    2    0    0 -0.35527136788E-14  0.14210854715E-13 -0.20564009623E+04  0.20746782287E+04  0.27478143146E+03 0.  0.
         25    2    3    3    0    0 -0.19101522236E+02 -0.47568788894E+02 -0.94952887740E+03  0.95946552864E+03  0.12783330481E+03 0.  0.
         25    2    3    3    0    0  0.19101522236E+02  0.47568788894E+02 -0.11068720849E+04  0.11152127001E+04  0.12611858030E+03 0.  0.
          5    1    4    4  502    0 -0.11112184622E+02  0.42100658240E+02 -0.42455986411E+03  0.42681273913E+03  0.47000000000E+01 0.  1.
         -5    1    4    4    0  502 -0.79893376132E+01 -0.89669447135E+02 -0.52496901329E+03  0.53265278952E+03  0.47000000000E+01 0.  1.
          5    1    5    5  503    0  0.49588936389E+02  0.76460685512E+02 -0.85031098985E+03  0.85519364386E+03  0.47000000000E+01 0.  1.
         -5    1    5    5    0  503 -0.30487414154E+02 -0.28891896617E+02 -0.25656109502E+03  0.26001905621E+03  0.47000000000E+01 0.  1.
<mgrwt>
<rscale>  0 0.27478143E+03</rscale>
<asrwt>0</asrwt>
<pdfrwt beam="1">  1        2 0.31777542E+00 0.27478143E+03</pdfrwt>
<pdfrwt beam="2">  1       -2 0.14059431E-02 0.27478143E+03</pdfrwt>
<totfact> 0.88996346E+03</totfact>
</mgrwt>
</event>
<event>
 9    1  0.2117506E-002  0.2729858E+03  0.7818608E-02  0.1099583E+00
         -2   -1    0    0    0  501 -0.00000000000E+00  0.00000000000E+00  0.12189809886E+02  0.12189809886E+02  0.00000000000E+00 0.  1.
          2   -1    0    0  501    0  0.00000000000E+00 -0.00000000000E+00 -0.15283515236E+04  0.15283515236E+04  0.00000000000E+00 0.  1.
         36    2    1    2    0    0  0.00000000000E+00 -0.71054273576E-14 -0.15161617137E+04  0.15405413335E+04  0.27298582023E+03 0.  0.
         25    2    3    3    0    0 -0.13157092493E+02  0.43307464869E+02 -0.98396371007E+03  0.99225866458E+03  0.11976656093E+03 0.  0.
         25    2    3    3    0    0  0.13157092493E+02 -0.43307464869E+02 -0.53219800365E+03  0.54828266891E+03  0.12381649460E+03 0.  0.
          5    1    4    4  502    0 -0.29017475435E+02  0.78935935842E+01 -0.88959371570E+03  0.89011425767E+03  0.47000000000E+01 0. -1.
         -5    1    4    4    0  502  0.15860382942E+02  0.35413871285E+02 -0.94369994367E+02  0.10214440691E+03  0.47000000000E+01 0. -1.
          5    1    5    5  503    0  0.94504759682E+01 -0.56651708611E+02 -0.96910640151E+02  0.11274967742E+03  0.47000000000E+01 0.  1.
         -5    1    5    5    0  503  0.37066165249E+01  0.13344243741E+02 -0.43528736350E+03  0.43553299148E+03  0.47000000000E+01 0.  1.
<mgrwt>
<rscale>  0 0.27298582E+03</rscale>
<asrwt>0</asrwt>
<pdfrwt beam="1">  1        2 0.23513093E+00 0.27298582E+03</pdfrwt>
<pdfrwt beam="2">  1       -2 0.18753560E-02 0.27298582E+03</pdfrwt>
<totfact> 0.11195729E+04</totfact>
</mgrwt>
</event>
<event>
 9    1  0.2117506E-002  0.2776703E+03  0.7818608E-02  0.1096968E+00
          1   -1    0    0  501    0  0.00000000000E+00  0.00000000000E+00  0.21383357232E+03  0.21383357232E+03  0.00000000000E+00 0.  1.
         -1   -1    0    0    0  501 -0.00000000000E+00 -0.00000000000E+00 -0.90141138143E+02  0.90141138143E+02  0.00000000000E+00 0.  1.
         36    2    1    2    0    0  0.14210854715E-13  0.00000000000E+00  0.12369243417E+03  0.30397471046E+03  0.27767031949E+03 0.  0.
         25    2    3    3    0    0 -0.82989591312E+02  0.20896270657E+02  0.88074551740E+02  0.14804682576E+03  0.82685002017E+02 0.  0.
         25    2    3    3    0    0  0.82989591312E+02 -0.20896270657E+02  0.35617882433E+02  0.15592788470E+03  0.12538319379E+03 0.  0.
          5    1    4    4  502    0 -0.12680701646E+02 -0.19912363750E+02 -0.47844753032E+01  0.24541467525E+02  0.47000000000E+01 0. -1.
         -5    1    4    4    0  502 -0.70308889666E+02  0.40808634407E+02  0.92859027043E+02  0.12350535823E+03  0.47000000000E+01 0. -1.
          5    1    5    5  503    0  0.68448752154E+02 -0.61534817092E+02  0.56130145746E+02  0.10790944652E+03  0.47000000000E+01 0.  1.
         -5    1    5    5    0  503  0.14540839158E+02  0.40638546435E+02 -0.20512263313E+02  0.48018438188E+02  0.47000000000E+01 0.  1.
<mgrwt>
<rscale>  0 0.27767032E+03</rscale>
<asrwt>0</asrwt>
<pdfrwt beam="1">  1        1 0.32897473E-01 0.27767032E+03</pdfrwt>
<pdfrwt beam="2">  1       -1 0.13867867E-01 0.27767032E+03</pdfrwt>
<totfact> 0.48759475E+03</totfact>
</mgrwt>
</event>
<event>
 9    1  0.2117506E-002  0.2705384E+03  0.7818608E-02  0.1100972E+00
          3   -1    0    0  501    0  0.00000000000E+00  0.00000000000E+00  0.14929814356E+02  0.14929814356E+02  0.00000000000E+00 0. -1.
         -3   -1    0    0    0  501 -0.00000000000E+00 -0.00000000000E+00 -0.12255852234E+04  0.12255852234E+04  0.00000000000E+00 0. -1.
         36    2    1    2    0    0 -0.71054273576E-14 -0.71054273576E-14 -0.12106554090E+04  0.12405150377E+04  0.27053842509E+03 0.  0.
         25    2    3    3    0    0  0.27285066737E+02  0.36149959275E+02 -0.51039187664E+03  0.52716693126E+03  0.12391049695E+03 0.  0.
         25    2    3    3    0    0 -0.27285066737E+02 -0.36149959275E+02 -0.70026353238E+03  0.71334810647E+03  0.12823888567E+03 0.  0.
          5    1    4    4  502    0 -0.30893473114E+02  0.25723895029E+02 -0.56966305829E+02  0.69881152368E+02  0.47000000000E+01 0. -1.
         -5    1    4    4    0  502  0.58178539851E+02  0.10426064246E+02 -0.45342557081E+03  0.45728577890E+03  0.47000000000E+01 0. -1.
          5    1    5    5  503    0 -0.31950064770E+02  0.42816087326E+02 -0.21099737937E+03  0.21770624261E+03  0.47000000000E+01 0. -1.
         -5    1    5    5    0  503  0.46649980326E+01 -0.78966046601E+02 -0.48926615302E+03  0.49564186386E+03  0.47000000000E+01 0. -1.
<mgrwt>
<rscale>  0 0.27053843E+03</rscale>
<asrwt>0</asrwt>
<pdfrwt beam="1">  1        3 0.22968943E-02 0.27053843E+03</pdfrwt>
<pdfrwt beam="2">  1       -3 0.18855159E+00 0.27053843E+03</pdfrwt>
<totfact> 0.36580630E+02</totfact>
</mgrwt>
</event>
<event>
 9    1  0.2117506E-002  0.2747730E+03  0.7818608E-02  0.1098579E+00
          2   -1    0    0  501    0  0.00000000000E+00  0.00000000000E+00  0.49997457583E+03  0.49997457583E+03  0.00000000000E+00 0.  1.
         -2   -1    0    0    0  501 -0.00000000000E+00 -0.00000000000E+00 -0.37752021235E+02  0.37752021235E+02  0.00000000000E+00 0.  1.
         36    2    1    2    0    0  0.00000000000E+00  0.00000000000E+00  0.46222255459E+03  0.53772659706E+03  0.27477300307E+03 0.  0.
         25    2    3    3    0    0 -0.54315203177E+02 -0.19398316869E+02  0.24560022563E+03  0.28095261104E+03  0.12364652373E+03 0.  0.
         25    2    3    3    0    0  0.54315203177E+02  0.19398316869E+02  0.21662232896E+03  0.25677398602E+03  0.12522464013E+03 0.  0.
          5    1    4    4  502    0 -0.89734913035E+02 -0.35724574478E+02  0.16391836215E+03  0.19031531543E+03  0.47000000000E+01 0.  1.
         -5    1    4    4    0  502  0.35419709857E+02  0.16326257609E+02  0.81681863481E+02  0.90637295611E+02  0.47000000000E+01 0.  1.
          5    1    5    5  503    0 -0.23452843303E+02 -0.32541402003E+02  0.39868870417E+02  0.56750291027E+02  0.47000000000E+01 0.  1.
         -5    1    5    5    0  503  0.77768046481E+02  0.51939718872E+02  0.17675345855E+03  0.20002369499E+03  0.47000000000E+01 0.  1.
<mgrwt>
<rscale>  0 0.27477300E+03</rscale>
<asrwt>0</asrwt>
<pdfrwt beam="1">  1        2 0.76919161E-01 0.27477300E+03</pdfrwt>
<pdfrwt beam="2">  1       -2 0.58080036E-02 0.27477300E+03</pdfrwt>
<totfact> 0.96316122E+03</totfact>
</mgrwt>
</event>
<event>
 9    1  0.2117506E-002  0.2787389E+03  0.7818608E-02  0.1096380E+00
          3   -1    0    0  501    0  0.00000000000E+00  0.00000000000E+00  0.16151108426E+04  0.16151108426E+04  0.00000000000E+00 0. -1.
         -3   -1    0    0    0  501 -0.00000000000E+00 -0.00000000000E+00 -0.12026325665E+02  0.12026325665E+02  0.00000000000E+00 0. -1.
         36    2    1    2    0    0  0.00000000000E+00  0.71054273576E-14  0.16030845169E+04  0.16271371682E+04  0.27873893864E+03 0.  0.
         25    2    3    3    0    0  0.33714652259E+02 -0.34839613073E+02  0.66750776565E+03  0.68232481073E+03  0.13285350473E+03 0.  0.
         25    2    3    3    0    0 -0.33714652259E+02  0.34839613073E+02  0.93557675124E+03  0.94481235749E+03  0.12254002199E+03 0.  0.
          5    1    4    4  502    0  0.62899673905E+02 -0.61878382785E+02  0.30295664066E+03  0.31557902236E+03  0.47000000000E+01 0. -1.
         -5    1    4    4    0  502 -0.29185021646E+02  0.27038769711E+02  0.36455112499E+03  0.36674578837E+03  0.47000000000E+01 0. -1.
          5    1    5    5  503    0 -0.29922247299E+02 -0.24983884594E+02  0.10564429565E+03  0.11270466972E+03  0.47000000000E+01 0.  1.
         -5    1    5    5    0  503 -0.37924049602E+01  0.59823497668E+02  0.82993245559E+03  0.83210768777E+03  0.47000000000E+01 0.  1.
<mgrwt>
<rscale>  0 0.27873894E+03</rscale>
<asrwt>0</asrwt>
<pdfrwt beam="1">  1        3 0.24847842E+00 0.27873894E+03</pdfrwt>
<pdfrwt beam="2">  1       -3 0.18502052E-02 0.27873894E+03</pdfrwt>
<totfact> 0.22953257E+02</totfact>
</mgrwt>
</event>
<event>
 9    1  0.2117506E-002  0.2744567E+03  0.7818608E-02  0.1098756E+00
          2   -1    0    0  501    0  0.00000000000E+00  0.00000000000E+00  0.21417182247E+02  0.21417182247E+02  0.00000000000E+00 0. -1.
         -2   -1    0    0    0  501 -0.00000000000E+00 -0.00000000000E+00 -0.87927647876E+03  0.87927647876E+03  0.00000000000E+00 0. -1.
         36    2    1    2    0    0 -0.14210854715E-13  0.00000000000E+00 -0.85785929651E+03  0.90069366101E+03  0.27445673314E+03 0.  0.
         25    2    3    3    0    0 -0.50138665674E+02 -0.25375546267E+02 -0.38961327920E+03  0.41266406637E+03  0.12383585990E+03 0.  0.
         25    2    3    3    0    0  0.50138665674E+02  0.25375546267E+02 -0.46824601731E+03  0.48802959464E+03  0.12554181922E+03 0.  0.
          5    1    4    4  502    0 -0.80287824643E+02  0.17619566259E+02 -0.21336539731E+03  0.22869951174E+03  0.47000000000E+01 0.  1.
         -5    1    4    4    0  502  0.30149158969E+02 -0.42995112526E+02 -0.17624788189E+03  0.18396455462E+03  0.47000000000E+01 0.  1.
          5    1    5    5  503    0 -0.44675481246E+01  0.72786491962E+00 -0.38658190306E+03  0.38663696997E+03  0.47000000000E+01 0. -1.
         -5    1    5    5    0  503  0.54606213799E+02  0.24647681347E+02 -0.81664114249E+02  0.10139262467E+03  0.47000000000E+01 0. -1.
<mgrwt>
<rscale>  0 0.27445673E+03</rscale>
<asrwt>0</asrwt>
<pdfrwt beam="1">  1        2 0.32949511E-02 0.27445673E+03</pdfrwt>
<pdfrwt beam="2">  1       -2 0.13527330E+00 0.27445673E+03</pdfrwt>
<totfact> 0.11381281E+03</totfact>
</mgrwt>
</event>
<event>
 9    1  0.2117506E-002  0.2756311E+03  0.7818608E-02  0.1098099E+00
         -2   -1    0    0    0  501 -0.00000000000E+00  0.00000000000E+00  0.16527842571E+02  0.16527842571E+02  0.00000000000E+00 0. -1.
          2   -1    0    0  501    0  0.00000000000E+00 -0.00000000000E+00 -0.11491595552E+04  0.11491595552E+04  0.00000000000E+00 0. -1.
         36    2    1    2    0    0  0.00000000000E+00  0.00000000000E+00 -0.11326317126E+04  0.11656873977E+04  0.27563111738E+03 0.  0.
         25    2    3    3    0    0  0.35678377267E+02  0.33184493440E+02 -0.65990035840E+03  0.67298408263E+03  0.12273929789E+03 0.  0.
         25    2    3    3    0    0 -0.35678377267E+02 -0.33184493440E+02 -0.47273135421E+03  0.49270331512E+03  0.13002871325E+03 0.  0.
          5    1    4    4  502    0  0.17852001913E+02  0.54833850783E+02 -0.12967705348E+03  0.14199884987E+03  0.47000000000E+01 0. -1.
         -5    1    4    4    0  502  0.17826375354E+02 -0.21649357343E+02 -0.53022330492E+03  0.53098523276E+03  0.47000000000E+01 0. -1.
          5    1    5    5  503    0  0.75978191094E+01  0.65723978927E+01  0.44085343686E+01  0.11935176771E+02  0.47000000000E+01 0. -1.
         -5    1    5    5    0  503 -0.43276196377E+02 -0.39756891333E+02 -0.47713988857E+03  0.48076813835E+03  0.47000000000E+01 0. -1.
<mgrwt>
<rscale>  0 0.27563112E+03</rscale>
<asrwt>0</asrwt>
<pdfrwt beam="1">  1        2 0.17679375E+00 0.27563112E+03</pdfrwt>
<pdfrwt beam="2">  1       -2 0.25427454E-02 0.27563112E+03</pdfrwt>
<totfact> 0.11566998E+04</totfact>
</mgrwt>
</event>
<event>
 9    1  0.2117506E-002  0.2752892E+03  0.7818608E-02  0.1098290E+00
          1   -1    0    0  501    0  0.00000000000E+00  0.00000000000E+00  0.25532674523E+04  0.25532674523E+04  0.00000000000E+00 0. -1.
         -1   -1    0    0    0  501 -0.00000000000E+00 -0.00000000000E+00 -0.74203123077E+01  0.74203123077E+01  0.00000000000E+00 0. -1.
         36    2    1    2    0    0  0.00000000000E+00  0.00000000000E+00  0.25458471400E+04  0.25606877646E+04  0.27528924353E+03 0.  0.
         25    2    3    3    0    0 -0.43615296760E+02 -0.36092352708E+02  0.10841491127E+04  0.10926549289E+04  0.12373577959E+03 0.  0.
         25    2    3    3    0    0  0.43615296760E+02  0.36092352708E+02  0.14616980273E+04  0.14680328357E+04  0.12391259641E+03 0.  0.
          5    1    4    4  502    0 -0.82466065965E+02 -0.25435182781E+02  0.89739383295E+03  0.90154610641E+03  0.47000000000E+01 0.  1.
         -5    1    4    4    0  502  0.38850769205E+02 -0.10657169927E+02  0.18675527973E+03  0.19110882252E+03  0.47000000000E+01 0.  1.
          5    1    5    5  503    0 -0.86452805225E+01 -0.10230343129E+02  0.10723205666E+04  0.10724145133E+04  0.47000000000E+01 0. -1.
         -5    1    5    5    0  503  0.52260577282E+02  0.46322695837E+02  0.38937746074E+03  0.39561832240E+03  0.47000000000E+01 0. -1.
<mgrwt>
<rscale>  0 0.27528924E+03</rscale>
<asrwt>0</asrwt>
<pdfrwt beam="1">  1        1 0.39280967E+00 0.27528924E+03</pdfrwt>
<pdfrwt beam="2">  1       -1 0.11415886E-02 0.27528924E+03</pdfrwt>
<totfact> 0.22684518E+03</totfact>
</mgrwt>
</event>
<event>
 9    1  0.2117506E-002  0.2751419E+03  0.7818608E-02  0.1098372E+00
         -2   -1    0    0    0  501 -0.00000000000E+00  0.00000000000E+00  0.13512381115E+02  0.13512381115E+02  0.00000000000E+00 0. -1.
          2   -1    0    0  501    0  0.00000000000E+00 -0.00000000000E+00 -0.14006238875E+04  0.14006238875E+04  0.00000000000E+00 0. -1.
         36    2    1    2    0    0  0.00000000000E+00 -0.71054273576E-14 -0.13871115064E+04  0.14141362687E+04  0.27514188171E+03 0.  0.
         25    2    3    3    0    0  0.28496219672E+02 -0.23812453024E+02 -0.79257499974E+03  0.80278264917E+03  0.12208924663E+03 0.  0.
         25    2    3    3    0    0 -0.28496219672E+02  0.23812453024E+02 -0.59453650668E+03  0.61135361948E+03  0.13747917231E+03 0.  0.
          5    1    4    4  502    0 -0.33093493216E+02  0.35981086808E+01 -0.76941286463E+02  0.83965333573E+02  0.47000000000E+01 0. -1.
         -5    1    4    4    0  502  0.61589712888E+02 -0.27410561705E+02 -0.71563371328E+03  0.71881731560E+03  0.47000000000E+01 0. -1.
          5    1    5    5  503    0  0.37107804279E+02  0.49879828309E+02 -0.38939802017E+03  0.39435757191E+03  0.47000000000E+01 0. -1.
         -5    1    5    5    0  503 -0.65604023951E+02 -0.26067375285E+02 -0.20513848651E+03  0.21699604757E+03  0.47000000000E+01 0. -1.
<mgrwt>
<rscale>  0 0.27514188E+03</rscale>
<asrwt>0</asrwt>
<pdfrwt beam="1">  1        2 0.21548050E+00 0.27514188E+03</pdfrwt>
<pdfrwt beam="2">  1       -2 0.20788288E-02 0.27514188E+03</pdfrwt>
<totfact> 0.11272859E+04</totfact>
</mgrwt>
</event>
<event>
 9    1  0.2117506E-002  0.2744597E+03  0.7818608E-02  0.1098754E+00
         -2   -1    0    0    0  501 -0.00000000000E+00  0.00000000000E+00  0.64009511679E+02  0.64009511679E+02  0.00000000000E+00 0. -1.
          2   -1    0    0  501    0  0.00000000000E+00 -0.00000000000E+00 -0.29420684440E+03  0.29420684440E+03  0.00000000000E+00 0. -1.
         36    2    1    2    0    0 -0.88817841970E-15  0.71054273576E-14 -0.23019733273E+03  0.35821635608E+03  0.27445973434E+03 0.  0.
         25    2    3    3    0    0  0.32666961169E+01 -0.22191719586E+02 -0.45673527816E+02  0.13380791971E+03  0.12375517974E+03 0.  0.
         25    2    3    3    0    0 -0.32666961169E+01  0.22191719586E+02 -0.18452380491E+03  0.22440843637E+03  0.12572576511E+03 0.  0.
          5    1    4    4  502    0 -0.12673940607E+02 -0.28503156370E+02 -0.84991907628E+02  0.90657448981E+02  0.47000000000E+01 0. -1.
         -5    1    4    4    0  502  0.15940636724E+02  0.63114367843E+01  0.39318379812E+02  0.43150470733E+02  0.47000000000E+01 0. -1.
          5    1    5    5  503    0 -0.93187212606E+01  0.73891207742E+02 -0.95797058316E+02  0.12143276135E+03  0.47000000000E+01 0.  1.
         -5    1    5    5    0  503  0.60520251437E+01 -0.51699488157E+02 -0.88726746594E+02  0.10297567502E+03  0.47000000000E+01 0.  1.
<mgrwt>
<rscale>  0 0.27445973E+03</rscale>
<asrwt>0</asrwt>
<pdfrwt beam="1">  1        2 0.45262592E-01 0.27445973E+03</pdfrwt>
<pdfrwt beam="2">  1       -2 0.98476172E-02 0.27445973E+03</pdfrwt>
<totfact> 0.75374765E+03</totfact>
</mgrwt>
</event>
<event>
 9    1  0.2117506E-002  0.2749495E+03  0.7818608E-02  0.1098480E+00
          1   -1    0    0  501    0  0.00000000000E+00  0.00000000000E+00  0.78027517714E+02  0.78027517714E+02  0.00000000000E+00 0.  1.
         -1   -1    0    0    0  501 -0.00000000000E+00 -0.00000000000E+00 -0.24221336680E+03  0.24221336680E+03  0.00000000000E+00 0.  1.
         36    2    1    2    0    0  0.35527136788E-14 -0.14210854715E-13 -0.16418584909E+03  0.32024088451E+03  0.27494950641E+03 0.  0.
         25    2    3    3    0    0 -0.15146250415E+02 -0.54018644717E+02 -0.63734509982E+02  0.15092790041E+03  0.12477868601E+03 0.  0.
         25    2    3    3    0    0  0.15146250415E+02  0.54018644717E+02 -0.10045133910E+03  0.16931298410E+03  0.12421349435E+03 0.  0.
          5    1    4    4  502    0  0.91366094841E+01  0.29715314502E+02  0.13633943611E+02  0.34270278189E+02  0.47000000000E+01 0.  1.
         -5    1    4    4    0  502 -0.24282859899E+02 -0.83733959219E+02 -0.77368453593E+02  0.11665762222E+03  0.47000000000E+01 0.  1.
          5    1    5    5  503    0 -0.52831416948E+02  0.20734819767E+02 -0.24535991246E+02  0.62009646298E+02  0.47000000000E+01 0.  1.
         -5    1    5    5    0  503  0.67977667363E+02  0.33283824950E+02 -0.75915347858E+02  0.10730333780E+03  0.47000000000E+01 0.  1.
<mgrwt>
<rscale>  0 0.27494951E+03</rscale>
<asrwt>0</asrwt>
<pdfrwt beam="1">  1        1 0.12004234E-01 0.27494951E+03</pdfrwt>
<pdfrwt beam="2">  1       -1 0.37263594E-01 0.27494951E+03</pdfrwt>
<totfact> 0.34955757E+03</totfact>
</mgrwt>
</event>
<event>
 9    1  0.2117506E-002  0.2738283E+03  0.7818608E-02  0.1099108E+00
         -1   -1    0    0    0  501 -0.00000000000E+00  0.00000000000E+00  0.96661233788E+01  0.96661233788E+01  0.00000000000E+00 0.  1.
          1   -1    0    0  501    0  0.00000000000E+00 -0.00000000000E+00 -0.19392970701E+04  0.19392970701E+04  0.00000000000E+00 0.  1.
         36    2    1    2    0    0  0.00000000000E+00  0.00000000000E+00 -0.19296309467E+04  0.19489631935E+04  0.27382830203E+03 0.  0.
         25    2    3    3    0    0  0.14550965316E+02 -0.54406634851E+02 -0.96983939840E+03  0.97950508948E+03  0.12517966735E+03 0.  0.
         25    2    3    3    0    0 -0.14550965316E+02  0.54406634851E+02 -0.95979154834E+03  0.96945810402E+03  0.12440814554E+03 0.  0.
          5    1    4    4  502    0  0.51708382780E+02 -0.54325994547E+02 -0.86348077824E+03  0.86674460767E+03  0.47000000000E+01 0.  1.
         -5    1    4    4    0  502 -0.37157417464E+02 -0.80640304035E-01 -0.10635862016E+03  0.11276048181E+03  0.47000000000E+01 0.  1.
          5    1    5    5  503    0  0.16237348765E+02 -0.14068973082E+02 -0.66021025985E+03  0.66057646394E+03  0.47000000000E+01 0.  1.
         -5    1    5    5    0  503 -0.30788314081E+02  0.68475607933E+02 -0.29958128849E+03  0.30888164008E+03  0.47000000000E+01 0.  1.
<mgrwt>
<rscale>  0 0.27382830E+03</rscale>
<asrwt>0</asrwt>
<pdfrwt beam="1">  1        1 0.29835327E+00 0.27382830E+03</pdfrwt>
<pdfrwt beam="2">  1       -1 0.14870965E-02 0.27382830E+03</pdfrwt>
<totfact> 0.39047223E+03</totfact>
</mgrwt>
</event>
<event>
 9    1  0.2117506E-002  0.2751276E+03  0.7818608E-02  0.1098380E+00
         -1   -1    0    0    0  501 -0.00000000000E+00  0.00000000000E+00  0.14908661426E+03  0.14908661426E+03  0.00000000000E+00 0.  1.
          1   -1    0    0  501    0  0.00000000000E+00 -0.00000000000E+00 -0.12693161322E+03  0.12693161322E+03  0.00000000000E+00 0.  1.
         36    2    1    2    0    0  0.14210854715E-13  0.00000000000E+00  0.22155001041E+02  0.27601822748E+03  0.27512763916E+03 0.  0.
         25    2    3    3    0    0  0.70238284975E+02 -0.51298163208E+02  0.16334618876E+02  0.12450890678E+03  0.87582703024E+02 0.  0.
         25    2    3    3    0    0 -0.70238284975E+02  0.51298163208E+02  0.58203821650E+01  0.15150932070E+03  0.12392045507E+03 0.  0.
          5    1    4    4  502    0  0.79881988597E+02 -0.11402099361E+02  0.19262660901E+02  0.83091997671E+02  0.47000000000E+01 0. -1.
         -5    1    4    4    0  502 -0.96437036223E+01 -0.39896063847E+02 -0.29280420247E+01  0.41416909109E+02  0.47000000000E+01 0. -1.
          5    1    5    5  503    0  0.10422724342E+02 -0.32435195968E+02 -0.45383928887E+01  0.34689510377E+02  0.47000000000E+01 0.  1.
         -5    1    5    5    0  503 -0.80661009317E+02  0.83733359176E+02  0.10358775054E+02  0.11681981032E+03  0.47000000000E+01 0.  1.
<mgrwt>
<rscale>  0 0.27512764E+03</rscale>
<asrwt>0</asrwt>
<pdfrwt beam="1">  1        1 0.19527941E-01 0.27512764E+03</pdfrwt>
<pdfrwt beam="2">  1       -1 0.22936402E-01 0.27512764E+03</pdfrwt>
<totfact> 0.42102630E+03</totfact>
</mgrwt>
</event>
<event>
 9    1  0.2117506E-002  0.2746955E+03  0.7818608E-02  0.1098622E+00
          3   -1    0    0  501    0  0.00000000000E+00  0.00000000000E+00  0.15576561197E+03  0.15576561197E+03  0.00000000000E+00 0. -1.
         -3   -1    0    0    0  501 -0.00000000000E+00 -0.00000000000E+00 -0.12110765211E+03  0.12110765211E+03  0.00000000000E+00 0. -1.
         36    2    1    2    0    0  0.00000000000E+00  0.17763568394E-14  0.34657959864E+02  0.27687326407E+03  0.27469552267E+03 0.  0.
         25    2    3    3    0    0  0.63684935648E+01  0.12622156409E+02 -0.28042711808E+02  0.13380413481E+03  0.13006643020E+03 0.  0.
         25    2    3    3    0    0 -0.63684935648E+01 -0.12622156409E+02  0.62700671673E+02  0.14306912926E+03  0.12781832801E+03 0.  0.
          5    1    4    4  502    0 -0.58788882090E+02  0.22631539967E+02 -0.24055444876E+02  0.67594923529E+02  0.47000000000E+01 0. -1.
         -5    1    4    4    0  502  0.65157375655E+02 -0.10009383557E+02 -0.39872669321E+01  0.66209211285E+02  0.47000000000E+01 0. -1.
          5    1    5    5  503    0 -0.49300512361E+02 -0.48731431576E+01 -0.16582948354E+02  0.52453524375E+02  0.47000000000E+01 0.  1.
         -5    1    5    5    0  503  0.42932018796E+02 -0.77490132516E+01  0.79283620026E+02  0.90615604885E+02  0.47000000000E+01 0.  1.
<mgrwt>
<rscale>  0 0.27469552E+03</rscale>
<asrwt>0</asrwt>
<pdfrwt beam="1">  1        3 0.23963940E-01 0.27469552E+03</pdfrwt>
<pdfrwt beam="2">  1       -3 0.18631947E-01 0.27469552E+03</pdfrwt>
<totfact> 0.10496420E+03</totfact>
</mgrwt>
</event>
<event>
 9    1  0.2117506E-002  0.2746657E+03  0.7818608E-02  0.1098639E+00
         -1   -1    0    0    0  501 -0.00000000000E+00  0.00000000000E+00  0.14839322186E+03  0.14839322186E+03  0.00000000000E+00 0. -1.
          1   -1    0    0  501    0  0.00000000000E+00 -0.00000000000E+00 -0.12709687216E+03  0.12709687216E+03  0.00000000000E+00 0. -1.
         36    2    1    2    0    0  0.71054273576E-14  0.00000000000E+00  0.21296349696E+02  0.27549009402E+03  0.27466571936E+03 0.  0.
         25    2    3    3    0    0 -0.44137639778E+01 -0.38139187317E+01 -0.31735968250E+02  0.12838153220E+03  0.12426028666E+03 0.  0.
         25    2    3    3    0    0  0.44137639778E+01  0.38139187317E+01  0.53032317946E+02  0.14710856182E+03  0.13709294266E+03 0.  0.
          5    1    4    4  502    0  0.56358547860E+02  0.16263572812E+02 -0.24706682228E+02  0.63822408793E+02  0.47000000000E+01 0. -1.
         -5    1    4    4    0  502 -0.60772311838E+02 -0.20077491543E+02 -0.70292860214E+01  0.64559123404E+02  0.47000000000E+01 0. -1.
          5    1    5    5  503    0 -0.35278669456E+02  0.59084818618E+02  0.25073615673E+02  0.73391937655E+02  0.47000000000E+01 0. -1.
         -5    1    5    5    0  503  0.39692433434E+02 -0.55270899887E+02  0.27958702272E+02  0.73716624170E+02  0.47000000000E+01 0. -1.
<mgrwt>
<rscale>  0 0.27466572E+03</rscale>
<asrwt>0</asrwt>
<pdfrwt beam="1">  1        1 0.19553365E-01 0.27466572E+03</pdfrwt>
<pdfrwt beam="2">  1       -1 0.22829727E-01 0.27466572E+03</pdfrwt>
<totfact> 0.42353902E+03</totfact>
</mgrwt>
</event>
<event>
 9    1  0.2117506E-002  0.2761100E+03  0.7818608E-02  0.1097833E+00
         -2   -1    0    0    0  501 -0.00000000000E+00  0.00000000000E+00  0.34678018067E+02  0.34678018067E+02  0.00000000000E+00 0.  1.
          2   -1    0    0  501    0  0.00000000000E+00 -0.00000000000E+00 -0.54960404850E+03  0.54960404850E+03  0.00000000000E+00 0.  1.
         36    2    1    2    0    0 -0.10658141036E-13 -0.17763568394E-14 -0.51492603044E+03  0.58428206657E+03  0.27610997174E+03 0.  0.
         25    2    3    3    0    0  0.26287334313E+02 -0.10135674950E+02 -0.33894201079E+03  0.36277580750E+03  0.12621744718E+03 0.  0.
         25    2    3    3    0    0 -0.26287334313E+02  0.10135674950E+02 -0.17598401964E+03  0.22150625907E+03  0.13153285440E+03 0.  0.
          5    1    4    4  502    0  0.64724686597E+02  0.27059806261E+01 -0.29792919899E+03  0.30492704865E+03  0.47000000000E+01 0.  1.
         -5    1    4    4    0  502 -0.38437352284E+02 -0.12841655576E+02 -0.41012811805E+02  0.57848758852E+02  0.47000000000E+01 0.  1.
          5    1    5    5  503    0 -0.48352857583E+02  0.37863637719E+02 -0.25210421289E+02  0.66553055823E+02  0.47000000000E+01 0.  1.
         -5    1    5    5    0  503  0.22065523271E+02 -0.27727962769E+02 -0.15077359835E+03  0.15495320325E+03  0.47000000000E+01 0.  1.
<mgrwt>
<rscale>  0 0.27610997E+03</rscale>
<asrwt>0</asrwt>
<pdfrwt beam="1">  1        2 0.84554475E-01 0.27610997E+03</pdfrwt>
<pdfrwt beam="2">  1       -2 0.53350793E-02 0.27610997E+03</pdfrwt>
<totfact> 0.98573082E+03</totfact>
</mgrwt>
</event>
<event>
 9    1  0.2117506E-002  0.2751703E+03  0.7818608E-02  0.1098356E+00
          1   -1    0    0  501    0  0.00000000000E+00  0.00000000000E+00  0.98480958307E+02  0.98480958307E+02  0.00000000000E+00 0.  1.
         -1   -1    0    0    0  501 -0.00000000000E+00 -0.00000000000E+00 -0.19221656766E+03  0.19221656766E+03  0.00000000000E+00 0.  1.
         36    2    1    2    0    0 -0.71054273576E-14  0.00000000000E+00 -0.93735609352E+02  0.29069752597E+03  0.27517028753E+03 0.  0.
         25    2    3    3    0    0  0.31571945801E+02  0.44084127414E+02 -0.34486445932E+02  0.13940575614E+03  0.12371116296E+03 0.  0.
         25    2    3    3    0    0 -0.31571945801E+02 -0.44084127414E+02 -0.59249163420E+02  0.15129176982E+03  0.12821286285E+03 0.  0.
          5    1    4    4  502    0 -0.20985157556E+02 -0.21225863700E+02 -0.45608537743E+02  0.54709622943E+02  0.47000000000E+01 0. -1.
         -5    1    4    4    0  502  0.52557103356E+02  0.65309991114E+02  0.11122091811E+02  0.84696133199E+02  0.47000000000E+01 0. -1.
          5    1    5    5  503    0  0.27144372221E+02 -0.62699710643E+02 -0.43096489879E+01  0.68620213730E+02  0.47000000000E+01 0. -1.
         -5    1    5    5    0  503 -0.58716318022E+02  0.18615583228E+02 -0.54939514432E+02  0.82671556094E+02  0.47000000000E+01 0. -1.
<mgrwt>
<rscale>  0 0.27517029E+03</rscale>
<asrwt>0</asrwt>
<pdfrwt beam="1">  1        1 0.15150917E-01 0.27517029E+03</pdfrwt>
<pdfrwt beam="2">  1       -1 0.29571779E-01 0.27517029E+03</pdfrwt>
<totfact> 0.38301056E+03</totfact>
</mgrwt>
</event>
<event>
 9    1  0.2117506E-002  0.2745726E+03  0.7818608E-02  0.1098691E+00
          2   -1    0    0  501    0  0.00000000000E+00  0.00000000000E+00  0.28206268624E+04  0.28206268624E+04  0.00000000000E+00 0.  1.
         -2   -1    0    0    0  501 -0.00000000000E+00 -0.00000000000E+00 -0.66820335489E+01  0.66820335489E+01  0.00000000000E+00 0.  1.
         36    2    1    2    0    0  0.71054273576E-14  0.00000000000E+00  0.28139448289E+04  0.28273088960E+04  0.27457256472E+03 0.  0.
         25    2    3    3    0    0 -0.10152407455E+02  0.25525185898E+02  0.19013164908E+04  0.19055494988E+04  0.12393501401E+03 0.  0.
         25    2    3    3    0    0  0.10152407455E+02 -0.25525185898E+02  0.91262833803E+03  0.92175939713E+03  0.12647251214E+03 0.  0.
          5    1    4    4  502    0 -0.32363372185E+02  0.69809635462E+02  0.11898233940E+04  0.11923181505E+04  0.47000000000E+01 0. -1.
         -5    1    4    4    0  502  0.22210964730E+02 -0.44284449564E+02  0.71149309684E+03  0.71323134836E+03  0.47000000000E+01 0. -1.
          5    1    5    5  503    0  0.52555389633E+02 -0.10396972946E+01  0.18254493164E+03  0.19002076733E+03  0.47000000000E+01 0.  1.
         -5    1    5    5    0  503 -0.42402982178E+02 -0.24485488603E+02  0.73008340640E+03  0.73173862980E+03  0.47000000000E+01 0.  1.
<mgrwt>
<rscale>  0 0.27457256E+03</rscale>
<asrwt>0</asrwt>
<pdfrwt beam="1">  1        2 0.43394164E+00 0.27457256E+03</pdfrwt>
<pdfrwt beam="2">  1       -2 0.10280074E-02 0.27457256E+03</pdfrwt>
<totfact> 0.54304654E+03</totfact>
</mgrwt>
</event>
<event>
 9    1  0.2117506E-002  0.2753808E+03  0.7818608E-02  0.1098239E+00
          2   -1    0    0  501    0  0.00000000000E+00  0.00000000000E+00  0.14474780455E+04  0.14474780455E+04  0.00000000000E+00 0.  1.
         -2   -1    0    0    0  501 -0.00000000000E+00 -0.00000000000E+00 -0.13097712629E+02  0.13097712629E+02  0.00000000000E+00 0.  1.
         36    2    1    2    0    0  0.00000000000E+00  0.00000000000E+00  0.14343803329E+04  0.14605757581E+04  0.27538083795E+03 0.  0.
         25    2    3    3    0    0 -0.54992522937E+01 -0.36950835674E+02  0.58918796331E+03  0.60497845605E+03  0.13213958582E+03 0.  0.
         25    2    3    3    0    0  0.54992522937E+01  0.36950835674E+02  0.84519236956E+03  0.85559730207E+03  0.12767535287E+03 0.  0.
          5    1    4    4  502    0 -0.65555367474E+02  0.99433038737E+00  0.30576304157E+03  0.31274849718E+03  0.47000000000E+01 0. -1.
         -5    1    4    4    0  502  0.60056115181E+02 -0.37945166062E+02  0.28342492173E+03  0.29222995886E+03  0.47000000000E+01 0. -1.
          5    1    5    5  503    0  0.30557281259E+02  0.60425634047E+02  0.24000148397E+03  0.24941492938E+03  0.47000000000E+01 0.  1.
         -5    1    5    5    0  503 -0.25058028965E+02 -0.23474798373E+02  0.60519088558E+03  0.60618237270E+03  0.47000000000E+01 0.  1.
<mgrwt>
<rscale>  0 0.27538084E+03</rscale>
<asrwt>0</asrwt>
<pdfrwt beam="1">  1        2 0.22268880E+00 0.27538084E+03</pdfrwt>
<pdfrwt beam="2">  1       -2 0.20150339E-02 0.27538084E+03</pdfrwt>
<totfact> 0.11133303E+04</totfact>
</mgrwt>
</event>
<event>
 9    1  0.2117506E-002  0.2748314E+03  0.7818608E-02  0.1098546E+00
         -2   -1    0    0    0  501 -0.00000000000E+00  0.00000000000E+00  0.10301618419E+03  0.10301618419E+03  0.00000000000E+00 0.  1.
          2   -1    0    0  501    0  0.00000000000E+00 -0.00000000000E+00 -0.18330195763E+03  0.18330195763E+03  0.00000000000E+00 0.  1.
         36    2    1    2    0    0 -0.14210854715E-13  0.35527136788E-14 -0.80285773438E+02  0.28631814181E+03  0.27483135359E+03 0.  0.
         25    2    3    3    0    0 -0.49217732297E+02  0.15748256355E+02 -0.21247184199E+02  0.13666590033E+03  0.12472262316E+03 0.  0.
         25    2    3    3    0    0  0.49217732297E+02 -0.15748256355E+02 -0.59038589239E+02  0.14965224148E+03  0.12743565282E+03 0.  0.
          5    1    4    4  502    0 -0.73673090717E+02  0.38337935303E+02  0.17872957330E+02  0.85082631500E+02  0.47000000000E+01 0. -1.
         -5    1    4    4    0  502  0.24455358420E+02 -0.22589678948E+02 -0.39120141529E+02  0.51583268835E+02  0.47000000000E+01 0. -1.
          5    1    5    5  503    0  0.71625109188E+02  0.17977392951E+01  0.12167662526E+02  0.72825339986E+02  0.47000000000E+01 0. -1.
         -5    1    5    5    0  503 -0.22407376891E+02 -0.17545995650E+02 -0.71206251765E+02  0.76826901492E+02  0.47000000000E+01 0. -1.
<mgrwt>
<rscale>  0 0.27483135E+03</rscale>
<asrwt>0</asrwt>
<pdfrwt beam="1">  1        2 0.28200301E-01 0.27483135E+03</pdfrwt>
<pdfrwt beam="2">  1       -2 0.15848644E-01 0.27483135E+03</pdfrwt>
<totfact> 0.58225357E+03</totfact>
</mgrwt>
</event>
<event>
 9    1  0.2117506E-002  0.2746763E+03  0.7818608E-02  0.1098633E+00
          2   -1    0    0  501    0  0.00000000000E+00  0.00000000000E+00  0.16644168776E+04  0.16644168776E+04  0.00000000000E+00 0. -1.
         -2   -1    0    0    0  501 -0.00000000000E+00 -0.00000000000E+00 -0.11332355165E+02  0.11332355165E+02  0.00000000000E+00 0. -1.
         36    2    1    2    0    0  0.14210854715E-13  0.71054273576E-14  0.16530845224E+04  0.16757492328E+04  0.27467626908E+03 0.  0.
         25    2    3    3    0    0 -0.38436850582E+02 -0.44628358505E+02  0.66015611880E+03  0.67444251622E+03  0.12489005016E+03 0.  0.
         25    2    3    3    0    0  0.38436850582E+02  0.44628358505E+02  0.99292840362E+03  0.10013067165E+04  0.11506191372E+03 0.  0.
          5    1    4    4  502    0  0.39903080411E+02  0.11232396028E+02  0.20617145628E+03  0.21035014126E+03  0.47000000000E+01 0.  1.
         -5    1    4    4    0  502 -0.78339930993E+02 -0.55860754533E+02  0.45398466252E+03  0.46409237496E+03  0.47000000000E+01 0.  1.
          5    1    5    5  503    0  0.61243189473E+02  0.53219956541E+02  0.93171376719E+03  0.93525169125E+03  0.47000000000E+01 0.  1.
         -5    1    5    5    0  503 -0.22806338891E+02 -0.85915980364E+01  0.61214636436E+02  0.66055025278E+02  0.47000000000E+01 0.  1.
<mgrwt>
<rscale>  0 0.27467627E+03</rscale>
<asrwt>0</asrwt>
<pdfrwt beam="1">  1        2 0.25606394E+00 0.27467627E+03</pdfrwt>
<pdfrwt beam="2">  1       -2 0.17434406E-02 0.27467627E+03</pdfrwt>
<totfact> 0.10555042E+04</totfact>
</mgrwt>
</event>
<event>
 9    1  0.2117506E-002  0.2749968E+03  0.7818608E-02  0.1098453E+00
          2   -1    0    0  501    0  0.00000000000E+00  0.00000000000E+00  0.20454068895E+03  0.20454068895E+03  0.00000000000E+00 0. -1.
         -2   -1    0    0    0  501 -0.00000000000E+00 -0.00000000000E+00 -0.92430548867E+02  0.92430548867E+02  0.00000000000E+00 0. -1.
         36    2    1    2    0    0  0.71054273576E-14 -0.71054273576E-14  0.11211014009E+03  0.29697123782E+03  0.27499678649E+03 0.  0.
         25    2    3    3    0    0 -0.40600599453E+02 -0.12597687634E+02  0.27330746652E+02  0.13897892359E+03  0.12946451668E+03 0.  0.
         25    2    3    3    0    0  0.40600599453E+02  0.12597687634E+02  0.84779393434E+02  0.15799231423E+03  0.12636026035E+03 0.  0.
          5    1    4    4  502    0 -0.67701991134E+02 -0.33732921665E+02 -0.21779138339E+02  0.78853601531E+02  0.47000000000E+01 0. -1.
         -5    1    4    4    0  502  0.27101391681E+02  0.21135234031E+02  0.49109884991E+02  0.60125322057E+02  0.47000000000E+01 0. -1.
          5    1    5    5  503    0  0.76955379181E+01 -0.56186726084E+02  0.34874787213E+02  0.66742117699E+02  0.47000000000E+01 0.  1.
         -5    1    5    5    0  503  0.32905061535E+02  0.68784413717E+02  0.49904606221E+02  0.91250196532E+02  0.47000000000E+01 0.  1.
<mgrwt>
<rscale>  0 0.27499679E+03</rscale>
<asrwt>0</asrwt>
<pdfrwt beam="1">  1        2 0.31467798E-01 0.27499679E+03</pdfrwt>
<pdfrwt beam="2">  1       -2 0.14220084E-01 0.27499679E+03</pdfrwt>
<totfact> 0.61750374E+03</totfact>
</mgrwt>
</event>
<event>
 9    1  0.2117506E-002  0.2746693E+03  0.7818608E-02  0.1098637E+00
          2   -1    0    0  501    0  0.00000000000E+00  0.00000000000E+00  0.22315021820E+04  0.22315021820E+04  0.00000000000E+00 0.  1.
         -2   -1    0    0    0  501 -0.00000000000E+00 -0.00000000000E+00 -0.84520649154E+01  0.84520649154E+01  0.00000000000E+00 0.  1.
         36    2    1    2    0    0 -0.71054273576E-14  0.00000000000E+00  0.22230501170E+04  0.22399542469E+04  0.27466926512E+03 0.  0.
         25    2    3    3    0    0  0.19698396765E+02  0.35263524734E+02  0.13575945811E+04  0.13638464421E+04  0.12402632068E+03 0.  0.
         25    2    3    3    0    0 -0.19698396765E+02 -0.35263524734E+02  0.86545553598E+03  0.87610780473E+03  0.13007712223E+03 0.  0.
          5    1    4    4  502    0  0.66494552443E+02 -0.42538555668E+01  0.58129353334E+03  0.58511869112E+03  0.47000000000E+01 0. -1.
         -5    1    4    4    0  502 -0.46796155679E+02  0.39517380301E+02  0.77630104771E+03  0.77872775102E+03  0.47000000000E+01 0. -1.
          5    1    5    5  503    0  0.17333304329E+02 -0.57517948539E+01  0.14410619263E+02  0.23733573910E+02  0.47000000000E+01 0.  1.
         -5    1    5    5    0  503 -0.37031701093E+02 -0.29511729881E+02  0.85104491672E+03  0.85237423082E+03  0.47000000000E+01 0.  1.
<mgrwt>
<rscale>  0 0.27466927E+03</rscale>
<asrwt>0</asrwt>
<pdfrwt beam="1">  1        2 0.34330756E+00 0.27466927E+03</pdfrwt>
<pdfrwt beam="2">  1       -2 0.13003195E-02 0.27466927E+03</pdfrwt>
<totfact> 0.81452948E+03</totfact>
</mgrwt>
</event>
<event>
 9    1  0.2117506E-002  0.2747738E+03  0.7818608E-02  0.1098578E+00
         -1   -1    0    0    0  501 -0.00000000000E+00  0.00000000000E+00  0.29507799444E+02  0.29507799444E+02  0.00000000000E+00 0. -1.
          1   -1    0    0  501    0  0.00000000000E+00 -0.00000000000E+00 -0.63966680843E+03  0.63966680843E+03  0.00000000000E+00 0. -1.
         36    2    1    2    0    0  0.00000000000E+00  0.71054273576E-14 -0.61015900899E+03  0.66917460788E+03  0.27477379711E+03 0.  0.
         25    2    3    3    0    0 -0.12763672603E+02  0.30040675178E+02 -0.42184319396E+03  0.44058577976E+03  0.12287715627E+03 0.  0.
         25    2    3    3    0    0  0.12763672603E+02 -0.30040675178E+02 -0.18831581503E+03  0.22858882812E+03  0.12539797704E+03 0.  0.
          5    1    4    4  502    0 -0.49096264015E+02  0.35099084440E+02 -0.37978937099E+03  0.38458346972E+03  0.47000000000E+01 0.  1.
         -5    1    4    4    0  502  0.36332591413E+02 -0.50584092621E+01 -0.42053822970E+02  0.56002310036E+02  0.47000000000E+01 0.  1.
          5    1    5    5  503    0  0.36085407076E+02  0.22503210466E+02 -0.14062742459E+02  0.45037782034E+02  0.47000000000E+01 0.  1.
         -5    1    5    5    0  503 -0.23321734473E+02 -0.52543885644E+02 -0.17425307257E+03  0.18355104608E+03  0.47000000000E+01 0.  1.
<mgrwt>
<rscale>  0 0.27477380E+03</rscale>
<asrwt>0</asrwt>
<pdfrwt beam="1">  1        1 0.98410276E-01 0.27477380E+03</pdfrwt>
<pdfrwt beam="2">  1       -1 0.45396615E-02 0.27477380E+03</pdfrwt>
<totfact> 0.65153993E+03</totfact>
</mgrwt>
</event>
<event>
 9    1  0.2117506E-002  0.2754786E+03  0.7818608E-02  0.1098184E+00
         -2   -1    0    0    0  501 -0.00000000000E+00  0.00000000000E+00  0.45637531948E+02  0.45637531948E+02  0.00000000000E+00 0.  1.
          2   -1    0    0  501    0  0.00000000000E+00 -0.00000000000E+00 -0.41571288980E+03  0.41571288980E+03  0.00000000000E+00 0.  1.
         36    2    1    2    0    0 -0.71054273576E-14 -0.71054273576E-14 -0.37007535785E+03  0.46135042175E+03  0.27547856751E+03 0.  0.
         25    2    3    3    0    0 -0.28880513465E+02  0.37444092135E+02 -0.13438625667E+03  0.18995408813E+03  0.12564531636E+03 0.  0.
         25    2    3    3    0    0  0.28880513465E+02 -0.37444092135E+02 -0.23568910118E+03  0.27139633362E+03  0.12597806710E+03 0.  0.
          5    1    4    4  502    0 -0.53758074939E+01 -0.24940939589E+02 -0.11843797140E+03  0.12124600135E+03  0.47000000000E+01 0. -1.
         -5    1    4    4    0  502 -0.23504705971E+02  0.62385031724E+02 -0.15948285268E+02  0.68708086780E+02  0.47000000000E+01 0. -1.
          5    1    5    5  503    0  0.68557599365E+02  0.58634470058E+01 -0.84131173389E+02  0.10878726386E+03  0.47000000000E+01 0. -1.
         -5    1    5    5    0  503 -0.39677085900E+02 -0.43307539141E+02 -0.15155792779E+03  0.16260906976E+03  0.47000000000E+01 0. -1.
<mgrwt>
<rscale>  0 0.27547857E+03</rscale>
<asrwt>0</asrwt>
<pdfrwt beam="1">  1        2 0.63955830E-01 0.27547857E+03</pdfrwt>
<pdfrwt beam="2">  1       -2 0.70211586E-02 0.27547857E+03</pdfrwt>
<totfact> 0.88173598E+03</totfact>
</mgrwt>
</event>
<event>
 9    1  0.2117506E-002  0.2753793E+03  0.7818608E-02  0.1098240E+00
          2   -1    0    0  501    0  0.00000000000E+00  0.00000000000E+00  0.12044096246E+03  0.12044096246E+03  0.00000000000E+00 0.  1.
         -2   -1    0    0    0  501 -0.00000000000E+00 -0.00000000000E+00 -0.15740861552E+03  0.15740861552E+03  0.00000000000E+00 0.  1.
         36    2    1    2    0    0  0.00000000000E+00  0.71054273576E-14 -0.36967653061E+02  0.27784957797E+03  0.27537933947E+03 0.  0.
         25    2    3    3    0    0  0.20923346474E+02  0.34959508209E+02  0.41631958288E+01  0.13222695175E+03  0.12572462339E+03 0.  0.
         25    2    3    3    0    0 -0.20923346474E+02 -0.34959508209E+02 -0.41130848890E+02  0.14562262623E+03  0.13361979231E+03 0.  0.
          5    1    4    4  502    0  0.14944955803E+02  0.64760972775E+02 -0.40519289454E+02  0.77982293610E+02  0.47000000000E+01 0. -1.
         -5    1    4    4    0  502  0.59783906700E+01 -0.29801464566E+02  0.44682485283E+02  0.54244658136E+02  0.47000000000E+01 0. -1.
          5    1    5    5  503    0  0.51681930455E+00  0.45125231065E+02 -0.43073521295E+02  0.62561744042E+02  0.47000000000E+01 0.  1.
         -5    1    5    5    0  503 -0.21440165778E+02 -0.80084739274E+02  0.19426724048E+01  0.83060882184E+02  0.47000000000E+01 0.  1.
<mgrwt>
<rscale>  0 0.27537934E+03</rscale>
<asrwt>0</asrwt>
<pdfrwt beam="1">  1        2 0.18529379E-01 0.27537934E+03</pdfrwt>
<pdfrwt beam="2">  1       -2 0.24216710E-01 0.27537934E+03</pdfrwt>
<totfact> 0.45364469E+03</totfact>
</mgrwt>
</event>
<event>
 9    1  0.2117506E-002  0.2751824E+03  0.7818608E-02  0.1098350E+00
         -2   -1    0    0    0  501 -0.00000000000E+00  0.00000000000E+00  0.17769194512E+02  0.17769194512E+02  0.00000000000E+00 0. -1.
          2   -1    0    0  501    0  0.00000000000E+00 -0.00000000000E+00 -0.10654022578E+04  0.10654022578E+04  0.00000000000E+00 0. -1.
         36    2    1    2    0    0 -0.71054273576E-14  0.00000000000E+00 -0.10476330633E+04  0.10831714523E+04  0.27518241189E+03 0.  0.
         25    2    3    3    0    0 -0.39105569502E+02 -0.25768173987E+02 -0.65264147020E+03  0.66579212002E+03  0.12306508079E+03 0.  0.
         25    2    3    3    0    0  0.39105569502E+02  0.25768173987E+02 -0.39499159313E+03  0.41737933232E+03  0.12646700777E+03 0.  0.
          5    1    4    4  502    0  0.10630409958E+02  0.24693982617E+02 -0.36516787332E+02  0.45589079289E+02  0.47000000000E+01 0.  1.
         -5    1    4    4    0  502 -0.49735979460E+02 -0.50462156604E+02 -0.61612468286E+03  0.62020304073E+03  0.47000000000E+01 0.  1.
          5    1    5    5  503    0 -0.40442146191E+02 -0.41298274036E+01 -0.66863958481E+02  0.78393249752E+02  0.47000000000E+01 0.  1.
         -5    1    5    5    0  503  0.79547715692E+02  0.29898001390E+02 -0.32812763465E+03  0.33898608257E+03  0.47000000000E+01 0.  1.
<mgrwt>
<rscale>  0 0.27518241E+03</rscale>
<asrwt>0</asrwt>
<pdfrwt beam="1">  1        2 0.16390804E+00 0.27518241E+03</pdfrwt>
<pdfrwt beam="2">  1       -2 0.27337222E-02 0.27518241E+03</pdfrwt>
<totfact> 0.11632264E+04</totfact>
</mgrwt>
</event>
<event>
 9    1  0.2117506E-002  0.2769508E+03  0.7818608E-02  0.1097366E+00
         -2   -1    0    0    0  501 -0.00000000000E+00  0.00000000000E+00  0.15297933207E+02  0.15297933207E+02  0.00000000000E+00 0. -1.
          2   -1    0    0  501    0  0.00000000000E+00 -0.00000000000E+00 -0.12534655418E+04  0.12534655418E+04  0.00000000000E+00 0. -1.
         36    2    1    2    0    0  0.00000000000E+00  0.00000000000E+00 -0.12381676086E+04  0.12687634750E+04  0.27695076917E+03 0.  0.
         25    2    3    3    0    0  0.16278953703E+02 -0.20582903574E+02 -0.90812686743E+03  0.91661410734E+03  0.12164848612E+03 0.  0.
         25    2    3    3    0    0 -0.16278953703E+02  0.20582903574E+02 -0.33004074118E+03  0.35214936768E+03  0.11997343901E+03 0.  0.
          5    1    4    4  502    0 -0.42965989882E+02  0.26857708212E+01 -0.61964252463E+03  0.62115395675E+03  0.47000000000E+01 0. -1.
         -5    1    4    4    0  502  0.59244943585E+02 -0.23268674395E+02 -0.28848434280E+03  0.29546015059E+03  0.47000000000E+01 0. -1.
          5    1    5    5  503    0  0.13729220859E+01 -0.12305391833E+02 -0.30852801063E+03  0.30881212885E+03  0.47000000000E+01 0.  1.
         -5    1    5    5    0  503 -0.17651875789E+02  0.32888295406E+02 -0.21512730547E+02  0.43337238828E+02  0.47000000000E+01 0.  1.
<mgrwt>
<rscale>  0 0.27695077E+03</rscale>
<asrwt>0</asrwt>
<pdfrwt beam="1">  1        2 0.19284087E+00 0.27695077E+03</pdfrwt>
<pdfrwt beam="2">  1       -2 0.23535280E-02 0.27695077E+03</pdfrwt>
<totfact> 0.11315379E+04</totfact>
</mgrwt>
</event>
<event>
 9    1  0.2117506E-002  0.2742704E+03  0.7818608E-02  0.1098860E+00
          2   -1    0    0  501    0  0.00000000000E+00  0.00000000000E+00  0.22328964539E+04  0.22328964539E+04  0.00000000000E+00 0. -1.
         -2   -1    0    0    0  501 -0.00000000000E+00 -0.00000000000E+00 -0.84222710432E+01  0.84222710432E+01  0.00000000000E+00 0. -1.
         36    2    1    2    0    0  0.00000000000E+00  0.00000000000E+00  0.22244741829E+04  0.22413187250E+04  0.27427037132E+03 0.  0.
         25    2    3    3    0    0  0.16177041600E+02 -0.27461886060E+02  0.75325074267E+03  0.76442869109E+03  0.12628812522E+03 0.  0.
         25    2    3    3    0    0 -0.16177041600E+02  0.27461886060E+02  0.14712234402E+04  0.14768900339E+04  0.12525936800E+03 0.  0.
          5    1    4    4  502    0 -0.24673759858E+02 -0.66951510529E+02  0.35630968780E+03  0.36341434040E+03  0.47000000000E+01 0.  1.
         -5    1    4    4    0  502  0.40850801458E+02  0.39489624469E+02  0.39694105487E+03  0.40101435069E+03  0.47000000000E+01 0.  1.
          5    1    5    5  503    0 -0.31794726782E+02  0.31197722230E+02  0.14455609192E+04  0.14462547022E+04  0.47000000000E+01 0. -1.
         -5    1    5    5    0  503  0.15617685182E+02 -0.37358361698E+01  0.25662521036E+02  0.30635331698E+02  0.47000000000E+01 0. -1.
<mgrwt>
<rscale>  0 0.27427037E+03</rscale>
<asrwt>0</asrwt>
<pdfrwt beam="1">  1        2 0.34352206E+00 0.27427037E+03</pdfrwt>
<pdfrwt beam="2">  1       -2 0.12957358E-02 0.27427037E+03</pdfrwt>
<totfact> 0.81733242E+03</totfact>
</mgrwt>
</event>
<event>
 9    1  0.2117506E-002  0.2749018E+03  0.7818608E-02  0.1098507E+00
         -2   -1    0    0    0  501 -0.00000000000E+00  0.00000000000E+00  0.93253037045E+02  0.93253037045E+02  0.00000000000E+00 0. -1.
          2   -1    0    0  501    0  0.00000000000E+00 -0.00000000000E+00 -0.20259661637E+03  0.20259661637E+03  0.00000000000E+00 0. -1.
         36    2    1    2    0    0 -0.71054273576E-14  0.00000000000E+00 -0.10934357933E+03  0.29584965342E+03  0.27490179899E+03 0.  0.
         25    2    3    3    0    0 -0.58699341109E+02 -0.24053852414E+01 -0.62496279722E+02  0.15196043000E+03  0.12543838639E+03 0.  0.
         25    2    3    3    0    0  0.58699341109E+02  0.24053852414E+01 -0.46847299604E+02  0.14388922342E+03  0.12271120817E+03 0.  0.
          5    1    4    4  502    0 -0.64682305768E+02 -0.51461510582E+02 -0.16777849088E+02  0.84472918565E+02  0.47000000000E+01 0.  1.
         -5    1    4    4    0  502  0.59829646590E+01  0.49056125341E+02 -0.45718430634E+02  0.67487511431E+02  0.47000000000E+01 0.  1.
          5    1    5    5  503    0  0.55073800142E+02  0.56876843288E+02 -0.15661738737E+02  0.80842308383E+02  0.47000000000E+01 0. -1.
         -5    1    5    5    0  503  0.36255409673E+01 -0.54471458047E+02 -0.31185560868E+02  0.63046915037E+02  0.47000000000E+01 0. -1.
<mgrwt>
<rscale>  0 0.27490180E+03</rscale>
<asrwt>0</asrwt>
<pdfrwt beam="1">  1        2 0.31168710E-01 0.27490180E+03</pdfrwt>
<pdfrwt beam="2">  1       -2 0.14346621E-01 0.27490180E+03</pdfrwt>
<totfact> 0.61496086E+03</totfact>
</mgrwt>
</event>
<event>
 9    1  0.2117506E-002  0.2717499E+03  0.7818608E-02  0.1100282E+00
          1   -1    0    0  501    0  0.00000000000E+00  0.00000000000E+00  0.69200326061E+03  0.69200326061E+03  0.00000000000E+00 0. -1.
         -1   -1    0    0    0  501 -0.00000000000E+00 -0.00000000000E+00 -0.26679073538E+02  0.26679073538E+02  0.00000000000E+00 0. -1.
         36    2    1    2    0    0  0.00000000000E+00  0.71054273576E-14  0.66532418707E+03  0.71868233414E+03  0.27174992827E+03 0.  0.
         25    2    3    3    0    0 -0.32970678258E+02  0.18890982409E+02  0.23228438070E+03  0.26596326486E+03  0.12384058260E+03 0.  0.
         25    2    3    3    0    0  0.32970678258E+02 -0.18890982409E+02  0.43303980637E+03  0.45271906928E+03  0.12644029006E+03 0.  0.
          5    1    4    4  502    0 -0.21040862970E+01  0.47452176275E+02  0.21503278050E+03  0.22026648156E+03  0.47000000000E+01 0.  1.
         -5    1    4    4    0  502 -0.30866591961E+02 -0.28561193866E+02  0.17251600204E+02  0.45696783300E+02  0.47000000000E+01 0.  1.
          5    1    5    5  503    0 -0.24054419161E+01  0.49575789152E+02  0.11321027630E+03  0.12370206821E+03  0.47000000000E+01 0. -1.
         -5    1    5    5    0  503  0.35376120174E+02 -0.68466771561E+02  0.31982953007E+03  0.32901700107E+03  0.47000000000E+01 0. -1.
<mgrwt>
<rscale>  0 0.27174993E+03</rscale>
<asrwt>0</asrwt>
<pdfrwt beam="1">  1        1 0.10646203E+00 0.27174993E+03</pdfrwt>
<pdfrwt beam="2">  1       -1 0.41044734E-02 0.27174993E+03</pdfrwt>
<totfact> 0.67617745E+03</totfact>
</mgrwt>
</event>
<event>
 9    1  0.2117506E-002  0.2753591E+03  0.7818608E-02  0.1098251E+00
         -2   -1    0    0    0  501 -0.00000000000E+00  0.00000000000E+00  0.38235644354E+02  0.38235644354E+02  0.00000000000E+00 0.  1.
          2   -1    0    0  501    0  0.00000000000E+00 -0.00000000000E+00 -0.49575881272E+03  0.49575881272E+03  0.00000000000E+00 0.  1.
         36    2    1    2    0    0 -0.35527136788E-14 -0.17763568394E-14 -0.45752316837E+03  0.53399445708E+03  0.27535909390E+03 0.  0.
         25    2    3    3    0    0 -0.29006703818E+02 -0.96921897947E+01 -0.11685775421E+03  0.17276845424E+03  0.12352277787E+03 0.  0.
         25    2    3    3    0    0  0.29006703818E+02  0.96921897947E+01 -0.34066541416E+03  0.36122600284E+03  0.11617217099E+03 0.  0.
          5    1    4    4  502    0 -0.53223753538E+02 -0.21678156728E+02 -0.53175349762E+01  0.57905756174E+02  0.47000000000E+01 0.  1.
         -5    1    4    4    0  502  0.24217049720E+02  0.11985966934E+02 -0.11154021923E+03  0.11486269807E+03  0.47000000000E+01 0.  1.
          5    1    5    5  503    0  0.46381027025E+02  0.71755460294E+01 -0.45614860423E+02  0.65616260333E+02  0.47000000000E+01 0.  1.
         -5    1    5    5    0  503 -0.17374323207E+02  0.25166437652E+01 -0.29505055374E+03  0.29560974250E+03  0.47000000000E+01 0.  1.
<mgrwt>
<rscale>  0 0.27535909E+03</rscale>
<asrwt>0</asrwt>
<pdfrwt beam="1">  1        2 0.76270581E-01 0.27535909E+03</pdfrwt>
<pdfrwt beam="2">  1       -2 0.58824072E-02 0.27535909E+03</pdfrwt>
<totfact> 0.95362447E+03</totfact>
</mgrwt>
</event>
<event>
 9    1  0.2117506E-002  0.2760585E+03  0.7818608E-02  0.1097861E+00
         -2   -1    0    0    0  501 -0.00000000000E+00  0.00000000000E+00  0.20449328329E+02  0.20449328329E+02  0.00000000000E+00 0.  1.
          2   -1    0    0  501    0  0.00000000000E+00 -0.00000000000E+00 -0.93167248036E+03  0.93167248036E+03  0.00000000000E+00 0.  1.
         36    2    1    2    0    0  0.00000000000E+00  0.00000000000E+00 -0.91122315203E+03  0.95212180869E+03  0.27605851877E+03 0.  0.
         25    2    3    3    0    0  0.40144938528E+01  0.32308464760E+02 -0.61324263576E+03  0.62725455352E+03  0.12775676711E+03 0.  0.
         25    2    3    3    0    0 -0.40144938528E+01 -0.32308464760E+02 -0.29798051627E+03  0.32486725517E+03  0.12524532865E+03 0.  0.
          5    1    4    4  502    0  0.43455214372E+02  0.70602199321E+01 -0.52823710188E+03  0.53008935866E+03  0.47000000000E+01 0.  1.
         -5    1    4    4    0  502 -0.39440720519E+02  0.25248244828E+02 -0.85005533877E+02  0.97165194857E+02  0.47000000000E+01 0.  1.
          5    1    5    5  503    0  0.42424975388E+02  0.24255996820E+02 -0.70904490504E+02  0.86242499338E+02  0.47000000000E+01 0. -1.
         -5    1    5    5    0  503 -0.46439469241E+02 -0.56564461580E+02 -0.22707602577E+03  0.23862475583E+03  0.47000000000E+01 0. -1.
<mgrwt>
<rscale>  0 0.27605852E+03</rscale>
<asrwt>0</asrwt>
<pdfrwt beam="1">  1        2 0.14333417E+00 0.27605852E+03</pdfrwt>
<pdfrwt beam="2">  1       -2 0.31460518E-02 0.27605852E+03</pdfrwt>
<totfact> 0.11403345E+04</totfact>
</mgrwt>
</event>
<event>
 9    1  0.2117506E-002  0.2748451E+03  0.7818608E-02  0.1098538E+00
         -2   -1    0    0    0  501 -0.00000000000E+00  0.00000000000E+00  0.17718925470E+03  0.17718925470E+03  0.00000000000E+00 0.  1.
          2   -1    0    0  501    0  0.00000000000E+00 -0.00000000000E+00 -0.10658074087E+03  0.10658074087E+03  0.00000000000E+00 0.  1.
         36    2    1    2    0    0  0.00000000000E+00  0.00000000000E+00  0.70608513833E+02  0.28376999558E+03  0.27484513487E+03 0.  0.
         25    2    3    3    0    0  0.42412244676E+02  0.47777226248E+02  0.39423212351E+02  0.14451023387E+03  0.12348099520E+03 0.  0.
         25    2    3    3    0    0 -0.42412244676E+02 -0.47777226248E+02  0.31185301482E+02  0.13925976170E+03  0.11974680102E+03 0.  0.
          5    1    4    4  502    0  0.17033435813E+02  0.80953314354E+00 -0.42829667150E+02  0.46338576453E+02  0.47000000000E+01 0.  1.
         -5    1    4    4    0  502  0.25378808863E+02  0.46967693105E+02  0.82252879500E+02  0.98171657422E+02  0.47000000000E+01 0.  1.
          5    1    5    5  503    0  0.14915189943E+02 -0.71187560437E+02  0.24047552693E+02  0.76749634804E+02  0.47000000000E+01 0. -1.
         -5    1    5    5    0  503 -0.57327434620E+02  0.23410334189E+02  0.71377487887E+01  0.62510126897E+02  0.47000000000E+01 0. -1.
<mgrwt>
<rscale>  0 0.27484513E+03</rscale>
<asrwt>0</asrwt>
<pdfrwt beam="1">  1        2 0.16397037E-01 0.27484513E+03</pdfrwt>
<pdfrwt beam="2">  1       -2 0.27259885E-01 0.27484513E+03</pdfrwt>
<totfact> 0.42406446E+03</totfact>
</mgrwt>
</event>
<event>
 9    1  0.2117506E-002  0.2743008E+03  0.7818608E-02  0.1098843E+00
          4   -1    0    0  501    0  0.00000000000E+00  0.00000000000E+00  0.14752425206E+03  0.14752425206E+03  0.00000000000E+00 0. -1.
         -4   -1    0    0    0  501 -0.00000000000E+00 -0.00000000000E+00 -0.12750600408E+03  0.12750600408E+03  0.00000000000E+00 0. -1.
         36    2    1    2    0    0 -0.35527136788E-14  0.00000000000E+00  0.20018247982E+02  0.27503025613E+03  0.27430076838E+03 0.  0.
         25    2    3    3    0    0  0.68587267259E-01  0.21382249100E+02 -0.37501738509E+02  0.13506591994E+03  0.12798131527E+03 0.  0.
         25    2    3    3    0    0 -0.68587267259E-01 -0.21382249100E+02  0.57519986491E+02  0.13996433619E+03  0.12579452006E+03 0.  0.
          5    1    4    4  502    0 -0.38425102542E+02 -0.34204826949E+02 -0.42795534677E+02  0.67082087626E+02  0.47000000000E+01 0.  1.
         -5    1    4    4    0  502  0.38493689809E+02  0.55587076049E+02  0.52937961687E+01  0.67983832318E+02  0.47000000000E+01 0.  1.
          5    1    5    5  503    0 -0.26323443911E+02 -0.61882490183E+02  0.36922107756E+01  0.67513618707E+02  0.47000000000E+01 0. -1.
         -5    1    5    5    0  503  0.26254856643E+02  0.40500241082E+02  0.53827775716E+02  0.72450717481E+02  0.47000000000E+01 0. -1.
<mgrwt>
<rscale>  0 0.27430077E+03</rscale>
<asrwt>0</asrwt>
<pdfrwt beam="1">  1        4 0.22696039E-01 0.27430077E+03</pdfrwt>
<pdfrwt beam="2">  1       -4 0.19616308E-01 0.27430077E+03</pdfrwt>
<totfact> 0.78476395E+02</totfact>
</mgrwt>
</event>
<event>
 9    1  0.2117506E-002  0.2748367E+03  0.7818608E-02  0.1098543E+00
          1   -1    0    0  501    0  0.00000000000E+00  0.00000000000E+00  0.60606066265E+02  0.60606066265E+02  0.00000000000E+00 0. -1.
         -1   -1    0    0    0  501 -0.00000000000E+00 -0.00000000000E+00 -0.31158279108E+03  0.31158279108E+03  0.00000000000E+00 0. -1.
         36    2    1    2    0    0 -0.35527136788E-14  0.00000000000E+00 -0.25097672482E+03  0.37218885735E+03  0.27483673178E+03 0.  0.
         25    2    3    3    0    0  0.20124117877E+02 -0.49152774565E+01 -0.55559047550E+02  0.14097678882E+03  0.12790037978E+03 0.  0.
         25    2    3    3    0    0 -0.20124117877E+02  0.49152774565E+01 -0.19541767727E+03  0.23121206853E+03  0.12182697556E+03 0.  0.
          5    1    4    4  502    0 -0.46265586691E+02  0.22704507995E+02 -0.44141054119E+02  0.68018540516E+02  0.47000000000E+01 0. -1.
         -5    1    4    4    0  502  0.66389704568E+02 -0.27619785452E+02 -0.11417993431E+02  0.72958248300E+02  0.47000000000E+01 0. -1.
          5    1    5    5  503    0  0.39840339642E+01  0.28798370672E+02  0.32346782543E+01  0.29627214236E+02  0.47000000000E+01 0. -1.
         -5    1    5    5    0  503 -0.24108151841E+02 -0.23883093216E+02 -0.19865235552E+03  0.20158485429E+03  0.47000000000E+01 0. -1.
<mgrwt>
<rscale>  0 0.27483673E+03</rscale>
<asrwt>0</asrwt>
<pdfrwt beam="1">  1        1 0.93240104E-02 0.27483673E+03</pdfrwt>
<pdfrwt beam="2">  1       -1 0.47935813E-01 0.27483673E+03</pdfrwt>
<totfact> 0.31220649E+03</totfact>
</mgrwt>
</event>
<event>
 9    1  0.2117506E-002  0.2758939E+03  0.7818608E-02  0.1097953E+00
         -2   -1    0    0    0  501 -0.00000000000E+00  0.00000000000E+00  0.52508091609E+02  0.52508091609E+02  0.00000000000E+00 0.  1.
          2   -1    0    0  501    0  0.00000000000E+00 -0.00000000000E+00 -0.36240823118E+03  0.36240823118E+03  0.00000000000E+00 0.  1.
         36    2    1    2    0    0  0.71054273576E-14  0.00000000000E+00 -0.30990013957E+03  0.41491632279E+03  0.27589392601E+03 0.  0.
         25    2    3    3    0    0 -0.24046336379E+02 -0.17779122289E+02 -0.90261658962E+02  0.16009500198E+03  0.12879797784E+03 0.  0.
         25    2    3    3    0    0  0.24046336379E+02  0.17779122289E+02 -0.21963848061E+03  0.25482132081E+03  0.12569216321E+03 0.  0.
          5    1    4    4  502    0  0.32211200220E+02 -0.21009294282E+01 -0.95840686104E+02  0.10123982634E+03  0.47000000000E+01 0.  1.
         -5    1    4    4    0  502 -0.56257536599E+02 -0.15678192860E+02  0.55790271419E+01  0.58855175639E+02  0.47000000000E+01 0.  1.
          5    1    5    5  503    0 -0.17246598555E+02 -0.35575043484E+02 -0.21056339640E+02  0.45038742429E+02  0.47000000000E+01 0.  1.
         -5    1    5    5    0  503  0.41292934934E+02  0.53354165773E+02 -0.19858214097E+03  0.20978257838E+03  0.47000000000E+01 0.  1.
<mgrwt>
<rscale>  0 0.27589393E+03</rscale>
<asrwt>0</asrwt>
<pdfrwt beam="1">  1        2 0.55755113E-01 0.27589393E+03</pdfrwt>
<pdfrwt beam="2">  1       -2 0.80781679E-02 0.27589393E+03</pdfrwt>
<totfact> 0.82272796E+03</totfact>
</mgrwt>
</event>
<event>
 9    1  0.2117506E-002  0.2770429E+03  0.7818608E-02  0.1097315E+00
          2   -1    0    0  501    0  0.00000000000E+00  0.00000000000E+00  0.92726729195E+01  0.92726729195E+01  0.00000000000E+00 0.  1.
         -2   -1    0    0    0  501 -0.00000000000E+00 -0.00000000000E+00 -0.20693262821E+04  0.20693262821E+04  0.00000000000E+00 0.  1.
         36    2    1    2    0    0  0.00000000000E+00  0.00000000000E+00 -0.20600536092E+04  0.20785989550E+04  0.27704285429E+03 0.  0.
         25    2    3    3    0    0  0.14108832249E+02  0.69001430262E+02 -0.87961912691E+03  0.89122924205E+03  0.12489794610E+03 0.  0.
         25    2    3    3    0    0 -0.14108832249E+02 -0.69001430262E+02 -0.11804344823E+04  0.11873697130E+04  0.10705611523E+03 0.  0.
          5    1    4    4  502    0  0.46667305082E+02  0.14519035918E+02 -0.13082212650E+03  0.13973245346E+03  0.47000000000E+01 0.  1.
         -5    1    4    4    0  502 -0.32558472833E+02  0.54482394344E+02 -0.74879700040E+03  0.75149678859E+03  0.47000000000E+01 0.  1.
          5    1    5    5  503    0  0.27127558832E+02 -0.80443225376E+02 -0.76493342049E+03  0.76964423257E+03  0.47000000000E+01 0.  1.
         -5    1    5    5    0  503 -0.41236391081E+02  0.11441795113E+02 -0.41550106181E+03  0.41772548042E+03  0.47000000000E+01 0.  1.
<mgrwt>
<rscale>  0 0.27704285E+03</rscale>
<asrwt>0</asrwt>
<pdfrwt beam="1">  1        2 0.14265662E-02 0.27704285E+03</pdfrwt>
<pdfrwt beam="2">  1       -2 0.31835763E+00 0.27704285E+03</pdfrwt>
<totfact> 0.25024439E+02</totfact>
</mgrwt>
</event>
<event>
 9    1  0.2117506E-002  0.2746988E+03  0.7818608E-02  0.1098620E+00
         -1   -1    0    0    0  501 -0.00000000000E+00  0.00000000000E+00  0.19972877872E+03  0.19972877872E+03  0.00000000000E+00 0. -1.
          1   -1    0    0  501    0  0.00000000000E+00 -0.00000000000E+00 -0.94452362663E+02  0.94452362663E+02  0.00000000000E+00 0. -1.
         36    2    1    2    0    0 -0.71054273576E-14  0.00000000000E+00  0.10527641606E+03  0.29418114138E+03  0.27469878079E+03 0.  0.
         25    2    3    3    0    0 -0.21153623460E+02 -0.22429239563E+02 -0.80054854551E+01  0.12798094821E+03  0.12395357491E+03 0.  0.
         25    2    3    3    0    0  0.21153623460E+02  0.22429239563E+02  0.11328190151E+03  0.16620019318E+03  0.11763999502E+03 0.  0.
          5    1    4    4  502    0  0.46726566254E+02 -0.72070095749E+01 -0.28376970180E+02  0.55341263245E+02  0.47000000000E+01 0.  1.
         -5    1    4    4    0  502 -0.67880189715E+02 -0.15222229988E+02  0.20371484725E+02  0.72639684962E+02  0.47000000000E+01 0.  1.
          5    1    5    5  503    0  0.62194100329E+02 -0.84407064337E+00  0.27464206515E+02  0.68155639609E+02  0.47000000000E+01 0.  1.
         -5    1    5    5    0  503 -0.41040476869E+02  0.23273310206E+02  0.85817694996E+02  0.98044553566E+02  0.47000000000E+01 0.  1.
<mgrwt>
<rscale>  0 0.27469878E+03</rscale>
<asrwt>0</asrwt>
<pdfrwt beam="1">  1        1 0.14531133E-01 0.27469878E+03</pdfrwt>
<pdfrwt beam="2">  1       -1 0.30727504E-01 0.27469878E+03</pdfrwt>
<totfact> 0.37902197E+03</totfact>
</mgrwt>
</event>
<event>
 9    1  0.2117506E-002  0.2755972E+03  0.7818608E-02  0.1098118E+00
         -2   -1    0    0    0  501 -0.00000000000E+00  0.00000000000E+00  0.71031793993E+02  0.71031793993E+02  0.00000000000E+00 0. -1.
          2   -1    0    0  501    0  0.00000000000E+00 -0.00000000000E+00 -0.26732328220E+03  0.26732328220E+03  0.00000000000E+00 0. -1.
         36    2    1    2    0    0  0.71054273576E-14  0.71054273576E-14 -0.19629148821E+03  0.33835507620E+03  0.27559718657E+03 0.  0.
         25    2    3    3    0    0 -0.38958330622E+02 -0.42151107519E+01 -0.13574040752E+03  0.18976046212E+03  0.12668092227E+03 0.  0.
         25    2    3    3    0    0  0.38958330622E+02  0.42151107519E+01 -0.60551080695E+02  0.14859461408E+03  0.12991692452E+03 0.  0.
          5    1    4    4  502    0 -0.15930788243E+02 -0.50862367966E+02 -0.11137854411E+02  0.54652651263E+02  0.47000000000E+01 0.  1.
         -5    1    4    4    0  502 -0.23027542380E+02  0.46647257215E+02 -0.12460255311E+03  0.13510781086E+03  0.47000000000E+01 0.  1.
          5    1    5    5  503    0 -0.13726834109E+02 -0.48240936921E+02 -0.53942874757E+02  0.73807436663E+02  0.47000000000E+01 0. -1.
         -5    1    5    5    0  503  0.52685164732E+02  0.52456047673E+02 -0.66082059385E+01  0.74787177417E+02  0.47000000000E+01 0. -1.
<mgrwt>
<rscale>  0 0.27559719E+03</rscale>
<asrwt>0</asrwt>
<pdfrwt beam="1">  1        2 0.41126659E-01 0.27559719E+03</pdfrwt>
<pdfrwt beam="2">  1       -2 0.10927968E-01 0.27559719E+03</pdfrwt>
<totfact> 0.70793255E+03</totfact>
</mgrwt>
</event>
<event>
 9    1  0.2117506E-002  0.2753959E+03  0.7818608E-02  0.1098231E+00
          2   -1    0    0  501    0  0.00000000000E+00  0.00000000000E+00  0.50758646492E+03  0.50758646492E+03  0.00000000000E+00 0. -1.
         -2   -1    0    0    0  501 -0.00000000000E+00 -0.00000000000E+00 -0.37354658112E+02  0.37354658112E+02  0.00000000000E+00 0. -1.
         36    2    1    2    0    0 -0.10658141036E-13 -0.10658141036E-13  0.47023180680E+03  0.54494112303E+03  0.27539585225E+03 0.  0.
         25    2    3    3    0    0  0.29841514720E+02 -0.21412293013E+02  0.14349122177E+03  0.18999155682E+03  0.11898764072E+03 0.  0.
         25    2    3    3    0    0 -0.29841514720E+02  0.21412293013E+02  0.32674058503E+03  0.35494956621E+03  0.13371904260E+03 0.  0.
          5    1    4    4  502    0 -0.44275522601E+02 -0.73343260174E+01  0.32108169018E+02  0.55381754734E+02  0.47000000000E+01 0.  1.
         -5    1    4    4    0  502  0.74117037321E+02 -0.14077966995E+02  0.11138305275E+03  0.13460980208E+03  0.47000000000E+01 0.  1.
          5    1    5    5  503    0 -0.55857959905E+01 -0.50688944054E+02  0.67446000709E+02  0.84685436634E+02  0.47000000000E+01 0.  1.
         -5    1    5    5    0  503 -0.24255718729E+02  0.72101237067E+02  0.25929458432E+03  0.27026412958E+03  0.47000000000E+01 0.  1.
<mgrwt>
<rscale>  0 0.27539585E+03</rscale>
<asrwt>0</asrwt>
<pdfrwt beam="1">  1        2 0.78090220E-01 0.27539585E+03</pdfrwt>
<pdfrwt beam="2">  1       -2 0.57468708E-02 0.27539585E+03</pdfrwt>
<totfact> 0.96254460E+03</totfact>
</mgrwt>
</event>
<event>
 9    1  0.2117506E-002  0.2699492E+03  0.7818608E-02  0.1101309E+00
         -2   -1    0    0    0  501 -0.00000000000E+00  0.00000000000E+00  0.64543338114E+02  0.64543338114E+02  0.00000000000E+00 0. -1.
          2   -1    0    0  501    0  0.00000000000E+00 -0.00000000000E+00 -0.28226227246E+03  0.28226227246E+03  0.00000000000E+00 0. -1.
         36    2    1    2    0    0  0.00000000000E+00  0.14210854715E-13 -0.21771893434E+03  0.34680561057E+03  0.26994924922E+03 0.  0.
         25    2    3    3    0    0 -0.67920370419E+01 -0.37312476203E+02 -0.13021983257E+03  0.18524586548E+03  0.12617635767E+03 0.  0.
         25    2    3    3    0    0  0.67920370419E+01  0.37312476203E+02 -0.87499101768E+02  0.16155974509E+03  0.13041129466E+03 0.  0.
          5    1    4    4  502    0 -0.29157548438E+02  0.40358827952E+02 -0.59674757095E+02  0.77859901482E+02  0.47000000000E+01 0. -1.
         -5    1    4    4    0  502  0.22365511396E+02 -0.77671304154E+02 -0.70545075478E+02  0.10738596400E+03  0.47000000000E+01 0. -1.
          5    1    5    5  503    0 -0.21669914571E+02  0.74629264875E+02 -0.83591778509E+02  0.11423129084E+03  0.47000000000E+01 0.  1.
         -5    1    5    5    0  503  0.28461951613E+02 -0.37316788673E+02 -0.39073232586E+01  0.47328454248E+02  0.47000000000E+01 0.  1.
<mgrwt>
<rscale>  0 0.26994925E+03</rscale>
<asrwt>0</asrwt>
<pdfrwt beam="1">  1        2 0.43424965E-01 0.26994925E+03</pdfrwt>
<pdfrwt beam="2">  1       -2 0.99297443E-02 0.26994925E+03</pdfrwt>
<totfact> 0.77726981E+03</totfact>
</mgrwt>
</event>
<event>
 9    1  0.2117506E-002  0.2747271E+03  0.7818608E-02  0.1098604E+00
          2   -1    0    0  501    0  0.00000000000E+00  0.00000000000E+00  0.32201489775E+03  0.32201489775E+03  0.00000000000E+00 0.  1.
         -2   -1    0    0    0  501 -0.00000000000E+00 -0.00000000000E+00 -0.58595880296E+02  0.58595880296E+02  0.00000000000E+00 0.  1.
         36    2    1    2    0    0  0.00000000000E+00  0.71054273576E-14  0.26341901745E+03  0.38061077804E+03  0.27472711116E+03 0.  0.
         25    2    3    3    0    0 -0.43259836165E+02  0.40316670457E+02  0.10323569187E+03  0.17048879241E+03  0.12211458930E+03 0.  0.
         25    2    3    3    0    0  0.43259836165E+02 -0.40316670457E+02  0.16018332559E+03  0.21012198564E+03  0.12245694636E+03 0.  0.
          5    1    4    4  502    0  0.29246695906E+02  0.23720082637E+02  0.85987199093E+02  0.93988828855E+02  0.47000000000E+01 0.  1.
         -5    1    4    4    0  502 -0.72506532071E+02  0.16596587820E+02  0.17248492773E+02  0.76499963550E+02  0.47000000000E+01 0.  1.
          5    1    5    5  503    0  0.51153810998E+02  0.23128615448E+01  0.82807780669E+01  0.52083807402E+02  0.47000000000E+01 0.  1.
         -5    1    5    5    0  503 -0.78939748330E+01 -0.42629532002E+02  0.15190254752E+03  0.15803817824E+03  0.47000000000E+01 0.  1.
<mgrwt>
<rscale>  0 0.27472711E+03</rscale>
<asrwt>0</asrwt>
<pdfrwt beam="1">  1        2 0.49540752E-01 0.27472711E+03</pdfrwt>
<pdfrwt beam="2">  1       -2 0.90147510E-02 0.27472711E+03</pdfrwt>
<totfact> 0.78661020E+03</totfact>
</mgrwt>
</event>
<event>
 9    1  0.2117506E-002  0.2745771E+03  0.7818608E-02  0.1098688E+00
          1   -1    0    0  501    0  0.00000000000E+00  0.00000000000E+00  0.16172339479E+03  0.16172339479E+03  0.00000000000E+00 0.  1.
         -1   -1    0    0    0  501 -0.00000000000E+00 -0.00000000000E+00 -0.11654553418E+03  0.11654553418E+03  0.00000000000E+00 0.  1.
         36    2    1    2    0    0  0.00000000000E+00  0.35527136788E-14  0.45177860612E+02  0.27826892897E+03  0.27457705247E+03 0.  0.
         25    2    3    3    0    0 -0.50758463065E+02  0.29879641995E+02  0.48876245774E+02  0.14624835535E+03  0.12462134434E+03 0.  0.
         25    2    3    3    0    0  0.50758463065E+02 -0.29879641995E+02 -0.36983851620E+01  0.13202057362E+03  0.11809546658E+03 0.  0.
          5    1    4    4  502    0 -0.86372834714E+02  0.53454483663E+00  0.49877869376E+02  0.99852111486E+02  0.47000000000E+01 0. -1.
         -5    1    4    4    0  502  0.35614371649E+02  0.29345097158E+02 -0.10016236024E+01  0.46396243867E+02  0.47000000000E+01 0. -1.
          5    1    5    5  503    0 -0.28169609330E+02 -0.25906661035E+02  0.27039996032E+02  0.47094939869E+02  0.47000000000E+01 0.  1.
         -5    1    5    5    0  503  0.78928072396E+02 -0.39729809598E+01 -0.30738381194E+02  0.84925633752E+02  0.47000000000E+01 0.  1.
<mgrwt>
<rscale>  0 0.27457705E+03</rscale>
<asrwt>0</asrwt>
<pdfrwt beam="1">  1        1 0.24880522E-01 0.27457705E+03</pdfrwt>
<pdfrwt beam="2">  1       -1 0.17930082E-01 0.27457705E+03</pdfrwt>
<totfact> 0.46087944E+03</totfact>
</mgrwt>
</event>
<event>
 9    1  0.2117506E-002  0.2743727E+03  0.7818608E-02  0.1098803E+00
          1   -1    0    0  501    0  0.00000000000E+00  0.00000000000E+00  0.60386885424E+02  0.60386885424E+02  0.00000000000E+00 0.  1.
         -1   -1    0    0    0  501 -0.00000000000E+00 -0.00000000000E+00 -0.31165857769E+03  0.31165857769E+03  0.00000000000E+00 0.  1.
         36    2    1    2    0    0  0.00000000000E+00 -0.71054273576E-14 -0.25127169227E+03  0.37204546312E+03  0.27437267227E+03 0.  0.
         25    2    3    3    0    0  0.44882793845E+02  0.41669896464E+02 -0.11692757372E+03  0.18188412564E+03  0.12513565523E+03 0.  0.
         25    2    3    3    0    0 -0.44882793845E+02 -0.41669896464E+02 -0.13434411855E+03  0.19016133748E+03  0.11984217383E+03 0.  0.
          5    1    4    4  502    0 -0.10307485772E+02 -0.39422487296E+02 -0.37577937683E+02  0.55628842951E+02  0.47000000000E+01 0. -1.
         -5    1    4    4    0  502  0.55190279617E+02  0.81092383760E+02 -0.79349636036E+02  0.12625528269E+03  0.47000000000E+01 0. -1.
          5    1    5    5  503    0 -0.64353429341E+02  0.21738028544E+02 -0.68047981467E+02  0.96262783747E+02  0.47000000000E+01 0.  1.
         -5    1    5    5    0  503  0.19470635495E+02 -0.63407925009E+02 -0.66296137083E+02  0.93898553730E+02  0.47000000000E+01 0.  1.
<mgrwt>
<rscale>  0 0.27437267E+03</rscale>
<asrwt>0</asrwt>
<pdfrwt beam="1">  1        1 0.92902901E-02 0.27437267E+03</pdfrwt>
<pdfrwt beam="2">  1       -1 0.47947473E-01 0.27437267E+03</pdfrwt>
<totfact> 0.31358230E+03</totfact>
</mgrwt>
</event>
<event>
 9    1  0.2117506E-002  0.2751830E+03  0.7818608E-02  0.1098349E+00
         -2   -1    0    0    0  501 -0.00000000000E+00  0.00000000000E+00  0.10755112253E+02  0.10755112253E+02  0.00000000000E+00 0. -1.
          2   -1    0    0  501    0  0.00000000000E+00 -0.00000000000E+00 -0.17602255208E+04  0.17602255208E+04  0.00000000000E+00 0. -1.
         36    2    1    2    0    0 -0.35527136788E-14  0.71054273576E-14 -0.17494704085E+04  0.17709806330E+04  0.27518301595E+03 0.  0.
         25    2    3    3    0    0 -0.92600326131E+00  0.15560795441E+02 -0.50178617778E+03  0.51744035306E+03  0.12534813489E+03 0.  0.
         25    2    3    3    0    0  0.92600326131E+00 -0.15560795441E+02 -0.12476842307E+04  0.12535402800E+04  0.12001790717E+03 0.  0.
          5    1    4    4  502    0  0.27079544256E+02 -0.40407966704E+02 -0.10617268491E+03  0.11687957268E+03  0.47000000000E+01 0.  1.
         -5    1    4    4    0  502 -0.28005547517E+02  0.55968762145E+02 -0.39561349288E+03  0.40056078038E+03  0.47000000000E+01 0.  1.
          5    1    5    5  503    0  0.18827396498E+02  0.37168177645E+02 -0.19905286223E+03  0.20342093366E+03  0.47000000000E+01 0.  1.
         -5    1    5    5    0  503 -0.17901393236E+02 -0.52728973086E+02 -0.10486313685E+04  0.10501193463E+04  0.47000000000E+01 0.  1.
<mgrwt>
<rscale>  0 0.27518302E+03</rscale>
<asrwt>0</asrwt>
<pdfrwt beam="1">  1        2 0.27080374E+00 0.27518302E+03</pdfrwt>
<pdfrwt beam="2">  1       -2 0.16546338E-02 0.27518302E+03</pdfrwt>
<totfact> 0.10146740E+04</totfact>
</mgrwt>
</event>
<event>
 9    1  0.2117506E-002  0.2756118E+03  0.7818608E-02  0.1098110E+00
         -1   -1    0    0    0  501 -0.00000000000E+00  0.00000000000E+00  0.93847762382E+02  0.93847762382E+02  0.00000000000E+00 0.  1.
          1   -1    0    0  501    0  0.00000000000E+00 -0.00000000000E+00 -0.20235393545E+03  0.20235393545E+03  0.00000000000E+00 0.  1.
         36    2    1    2    0    0 -0.14210854715E-13  0.00000000000E+00 -0.10850617307E+03  0.29620169784E+03  0.27561178532E+03 0.  0.
         25    2    3    3    0    0 -0.37042506164E+02  0.38266120609E+02 -0.44713075350E+02  0.14449132876E+03  0.12665718192E+03 0.  0.
         25    2    3    3    0    0  0.37042506164E+02 -0.38266120609E+02 -0.63793097722E+02  0.15171036907E+03  0.12692530685E+03 0.  0.
          5    1    4    4  502    0  0.20345106099E+02  0.33191772771E+02  0.30467320641E+02  0.49658481138E+02  0.47000000000E+01 0. -1.
         -5    1    4    4    0  502 -0.57387612262E+02  0.50743478382E+01 -0.75180395991E+02  0.94832847624E+02  0.47000000000E+01 0. -1.
          5    1    5    5  503    0 -0.28633571608E+02 -0.57418820001E+02 -0.50671503765E+02  0.81893184131E+02  0.47000000000E+01 0. -1.
         -5    1    5    5    0  503  0.65676077771E+02  0.19152699391E+02 -0.13121593957E+02  0.69817184943E+02  0.47000000000E+01 0. -1.
<mgrwt>
<rscale>  0 0.27561179E+03</rscale>
<asrwt>0</asrwt>
<pdfrwt beam="1">  1        1 0.31131374E-01 0.27561179E+03</pdfrwt>
<pdfrwt beam="2">  1       -1 0.14438117E-01 0.27561179E+03</pdfrwt>
<totfact> 0.49032418E+03</totfact>
</mgrwt>
</event>
<event>
 9    1  0.2117506E-002  0.2754492E+03  0.7818608E-02  0.1098201E+00
          2   -1    0    0  501    0  0.00000000000E+00  0.00000000000E+00  0.61309549550E+02  0.61309549550E+02  0.00000000000E+00 0. -1.
         -2   -1    0    0    0  501 -0.00000000000E+00 -0.00000000000E+00 -0.30938198750E+03  0.30938198750E+03  0.00000000000E+00 0. -1.
         36    2    1    2    0    0 -0.35527136788E-14  0.00000000000E+00 -0.24807243795E+03  0.37069153704E+03  0.27544923519E+03 0.  0.
         25    2    3    3    0    0 -0.31724296910E+02 -0.51820628422E+02 -0.13052893883E+03  0.18946869513E+03  0.12316157687E+03 0.  0.
         25    2    3    3    0    0  0.31724296910E+02  0.51820628422E+02 -0.11754349912E+03  0.18122284192E+03  0.12382825083E+03 0.  0.
          5    1    4    4  502    0  0.13632277768E+02  0.35778461494E+02 -0.36198613231E+02  0.52899592663E+02  0.47000000000E+01 0. -1.
         -5    1    4    4    0  502 -0.45356574678E+02 -0.87599089916E+02 -0.94330325597E+02  0.13656910246E+03  0.47000000000E+01 0. -1.
          5    1    5    5  503    0  0.57520265194E+02 -0.20236855607E+02 -0.55502736836E+02  0.82587862480E+02  0.47000000000E+01 0.  1.
         -5    1    5    5    0  503 -0.25795968283E+02  0.72057484029E+02 -0.62040762280E+02  0.98634979437E+02  0.47000000000E+01 0.  1.
<mgrwt>
<rscale>  0 0.27544924E+03</rscale>
<asrwt>0</asrwt>
<pdfrwt beam="1">  1        2 0.94322381E-02 0.27544924E+03</pdfrwt>
<pdfrwt beam="2">  1       -2 0.47597230E-01 0.27544924E+03</pdfrwt>
<totfact> 0.29125890E+03</totfact>
</mgrwt>
</event>
<event>
 9    1  0.2117506E-002  0.2748927E+03  0.7818608E-02  0.1098512E+00
         -1   -1    0    0    0  501 -0.00000000000E+00  0.00000000000E+00  0.11010381805E+03  0.11010381805E+03  0.00000000000E+00 0.  1.
          1   -1    0    0  501    0  0.00000000000E+00 -0.00000000000E+00 -0.17157893885E+03  0.17157893885E+03  0.00000000000E+00 0.  1.
         36    2    1    2    0    0 -0.35527136788E-14 -0.44408920985E-15 -0.61475120806E+02  0.28168275690E+03  0.27489267916E+03 0.  0.
         25    2    3    3    0    0  0.22029953956E+02  0.69321082733E+00 -0.82689914378E+02  0.15146574407E+03  0.12497379835E+03 0.  0.
         25    2    3    3    0    0 -0.22029953956E+02 -0.69321082733E+00  0.21214793572E+02  0.13021701283E+03  0.12657252289E+03 0.  0.
          5    1    4    4  502    0 -0.48325762125E+01 -0.36115018196E+01 -0.11138419388E+03  0.11164643024E+03  0.47000000000E+01 0. -1.
         -5    1    4    4    0  502  0.26862530169E+02  0.43047126469E+01  0.28694279502E+02  0.39819313833E+02  0.47000000000E+01 0. -1.
          5    1    5    5  503    0  0.12581333021E+02 -0.66020245344E+01 -0.49182428485E+02  0.51408928605E+02  0.47000000000E+01 0.  1.
         -5    1    5    5    0  503 -0.34611286978E+02  0.59088137071E+01  0.70397222057E+02  0.78808084224E+02  0.47000000000E+01 0.  1.
<mgrwt>
<rscale>  0 0.27489268E+03</rscale>
<asrwt>0</asrwt>
<pdfrwt beam="1">  1        1 0.26396760E-01 0.27489268E+03</pdfrwt>
<pdfrwt beam="2">  1       -1 0.16939049E-01 0.27489268E+03</pdfrwt>
<totfact> 0.46837168E+03</totfact>
</mgrwt>
</event>
<event>
 9    1  0.2117506E-002  0.2752067E+03  0.7818608E-02  0.1098336E+00
          2   -1    0    0  501    0  0.00000000000E+00  0.00000000000E+00  0.11519999183E+04  0.11519999183E+04  0.00000000000E+00 0. -1.
         -2   -1    0    0    0  501 -0.00000000000E+00 -0.00000000000E+00 -0.16436351188E+02  0.16436351188E+02  0.00000000000E+00 0. -1.
         36    2    1    2    0    0  0.00000000000E+00  0.35527136788E-14  0.11355635671E+04  0.11684362695E+04  0.27520665127E+03 0.  0.
         25    2    3    3    0    0 -0.33829785598E+02 -0.27710117248E+02  0.40718895113E+03  0.42821566698E+03  0.12511399016E+03 0.  0.
         25    2    3    3    0    0  0.33829785598E+02  0.27710117248E+02  0.72837461600E+03  0.74022060253E+03  0.12443735041E+03 0.  0.
          5    1    4    4  502    0  0.28004985745E+02  0.20113359056E+02  0.25195876206E+03  0.25435041619E+03  0.47000000000E+01 0. -1.
         -5    1    4    4    0  502 -0.61834771343E+02 -0.47823476304E+02  0.15523018908E+03  0.17386525079E+03  0.47000000000E+01 0. -1.
          5    1    5    5  503    0  0.56909965760E+01 -0.30529181271E+02  0.54155470697E+03  0.54246475368E+03  0.47000000000E+01 0.  1.
         -5    1    5    5    0  503  0.28138789022E+02  0.58239298520E+02  0.18681990904E+03  0.19775584885E+03  0.47000000000E+01 0.  1.
<mgrwt>
<rscale>  0 0.27520665E+03</rscale>
<asrwt>0</asrwt>
<pdfrwt beam="1">  1        2 0.17723069E+00 0.27520665E+03</pdfrwt>
<pdfrwt beam="2">  1       -2 0.25286703E-02 0.27520665E+03</pdfrwt>
<totfact> 0.11618010E+04</totfact>
</mgrwt>
</event>
<event>
 9    1  0.2117506E-002  0.2743471E+03  0.7818608E-02  0.1098817E+00
          1   -1    0    0  501    0  0.00000000000E+00  0.00000000000E+00  0.46622986384E+02  0.46622986384E+02  0.00000000000E+00 0. -1.
         -1   -1    0    0    0  501 -0.00000000000E+00 -0.00000000000E+00 -0.40359019099E+03  0.40359019099E+03  0.00000000000E+00 0. -1.
         36    2    1    2    0    0 -0.71054273576E-14 -0.88817841970E-15 -0.35696720461E+03  0.45021317738E+03  0.27434707930E+03 0.  0.
         25    2    3    3    0    0  0.28965156259E+02  0.24779303295E+01 -0.10097437792E+03  0.16396008313E+03  0.12586486185E+03 0.  0.
         25    2    3    3    0    0 -0.28965156259E+02 -0.24779303295E+01 -0.25599282669E+03  0.28625309425E+03  0.12475330149E+03 0.  0.
          5    1    4    4  502    0 -0.19024761337E+02  0.71004822896E+01 -0.11229602091E+03  0.11421403025E+03  0.47000000000E+01 0. -1.
         -5    1    4    4    0  502  0.47989917596E+02 -0.46225519600E+01  0.11321642992E+02  0.49746052884E+02  0.47000000000E+01 0. -1.
          5    1    5    5  503    0 -0.77471202861E+02 -0.11507297339E+02 -0.15221608178E+03  0.17124844734E+03  0.47000000000E+01 0.  1.
         -5    1    5    5    0  503  0.48506046601E+02  0.90293670090E+01 -0.10377674491E+03  0.11500464691E+03  0.47000000000E+01 0.  1.
<mgrwt>
<rscale>  0 0.27434708E+03</rscale>
<asrwt>0</asrwt>
<pdfrwt beam="1">  1        1 0.71727669E-02 0.27434708E+03</pdfrwt>
<pdfrwt beam="2">  1       -1 0.62090800E-01 0.27434708E+03</pdfrwt>
<totfact> 0.27378621E+03</totfact>
</mgrwt>
</event>
<event>
 9    1  0.2117506E-002  0.2747924E+03  0.7818608E-02  0.1098568E+00
          2   -1    0    0  501    0  0.00000000000E+00  0.00000000000E+00  0.75812259590E+03  0.75812259590E+03  0.00000000000E+00 0. -1.
         -2   -1    0    0    0  501 -0.00000000000E+00 -0.00000000000E+00 -0.24900618208E+02  0.24900618208E+02  0.00000000000E+00 0. -1.
         36    2    1    2    0    0 -0.71054273576E-14  0.00000000000E+00  0.73322197769E+03  0.78302321411E+03  0.27479244033E+03 0.  0.
         25    2    3    3    0    0  0.23502061497E+02 -0.40822546061E+02  0.43022081011E+03  0.45397034207E+03  0.13704123053E+03 0.  0.
         25    2    3    3    0    0 -0.23502061497E+02  0.40822546061E+02  0.30300116758E+03  0.32905287204E+03  0.11936187783E+03 0.  0.
          5    1    4    4  502    0  0.63342876157E+02 -0.20139716968E+02  0.38259811053E+03  0.38835722259E+03  0.47000000000E+01 0. -1.
         -5    1    4    4    0  502 -0.39840814661E+02 -0.20682829094E+02  0.47622699581E+02  0.65613119477E+02  0.47000000000E+01 0. -1.
          5    1    5    5  503    0  0.28191493198E+02 -0.21539564346E+02  0.39309893652E+02  0.53160801911E+02  0.47000000000E+01 0.  1.
         -5    1    5    5    0  503 -0.51693554694E+02  0.62362110407E+02  0.26369127393E+03  0.27589207013E+03  0.47000000000E+01 0.  1.
<mgrwt>
<rscale>  0 0.27479244E+03</rscale>
<asrwt>0</asrwt>
<pdfrwt beam="1">  1        2 0.11663423E+00 0.27479244E+03</pdfrwt>
<pdfrwt beam="2">  1       -2 0.38308649E-02 0.27479244E+03</pdfrwt>
<totfact> 0.11103010E+04</totfact>
</mgrwt>
</event>
<event>
 9    1  0.2117506E-002  0.2754571E+03  0.7818608E-02  0.1098196E+00
          2   -1    0    0  501    0  0.00000000000E+00  0.00000000000E+00  0.75770369133E+03  0.75770369133E+03  0.00000000000E+00 0.  1.
         -2   -1    0    0    0  501 -0.00000000000E+00 -0.00000000000E+00 -0.25035060194E+02  0.25035060194E+02  0.00000000000E+00 0.  1.
         36    2    1    2    0    0 -0.71054273576E-14  0.00000000000E+00  0.73266863114E+03  0.78273875153E+03  0.27545712931E+03 0.  0.
         25    2    3    3    0    0  0.25673250874E+02 -0.36901707166E+02  0.29565711349E+03  0.31824645314E+03  0.10884311820E+03 0.  0.
         25    2    3    3    0    0 -0.25673250874E+02  0.36901707166E+02  0.43701151765E+03  0.46449229838E+03  0.15084156223E+03 0.  0.
          5    1    4    4  502    0  0.25417917523E+02 -0.29968613131E+02  0.23637570700E+02  0.46097863864E+02  0.47000000000E+01 0.  1.
         -5    1    4    4    0  502  0.25533335086E+00 -0.69330940346E+01  0.27201954279E+03  0.27214858928E+03  0.47000000000E+01 0.  1.
          5    1    5    5  503    0 -0.30470985920E+02 -0.48115346659E+02  0.28042255481E+03  0.28618607026E+03  0.47000000000E+01 0. -1.
         -5    1    5    5    0  503  0.47977350465E+01  0.85017053824E+02  0.15658896284E+03  0.17830622812E+03  0.47000000000E+01 0. -1.
<mgrwt>
<rscale>  0 0.27545713E+03</rscale>
<asrwt>0</asrwt>
<pdfrwt beam="1">  1        2 0.11656978E+00 0.27545713E+03</pdfrwt>
<pdfrwt beam="2">  1       -2 0.38515483E-02 0.27545713E+03</pdfrwt>
<totfact> 0.11022134E+04</totfact>
</mgrwt>
</event>
<event>
 9    1  0.2117506E-002  0.2750913E+03  0.7818608E-02  0.1098401E+00
          2   -1    0    0  501    0  0.00000000000E+00  0.00000000000E+00  0.98101102281E+03  0.98101102281E+03  0.00000000000E+00 0. -1.
         -2   -1    0    0    0  501 -0.00000000000E+00 -0.00000000000E+00 -0.19285003965E+02  0.19285003965E+02  0.00000000000E+00 0. -1.
         36    2    1    2    0    0 -0.35527136788E-14  0.00000000000E+00  0.96172601884E+03  0.10002960268E+04  0.27509126823E+03 0.  0.
         25    2    3    3    0    0  0.86818360994E+01 -0.31728308612E+02  0.48427497585E+03  0.50543293163E+03  0.14091889971E+03 0.  0.
         25    2    3    3    0    0 -0.86818360994E+01  0.31728308612E+02  0.47745104299E+03  0.49486309514E+03  0.12588854053E+03 0.  0.
          5    1    4    4  502    0 -0.13470934955E+02  0.26571028493E+02  0.39655248241E+03  0.39769768286E+03  0.47000000000E+01 0. -1.
         -5    1    4    4    0  502  0.22152771055E+02 -0.58299337106E+02  0.87722493433E+02  0.10773524876E+03  0.47000000000E+01 0. -1.
          5    1    5    5  503    0  0.34604598859E+02 -0.35037116037E+02  0.21248944007E+03  0.21817178989E+03  0.47000000000E+01 0. -1.
         -5    1    5    5    0  503 -0.43286434959E+02  0.66765424650E+02  0.26496160292E+03  0.27669130525E+03  0.47000000000E+01 0. -1.
<mgrwt>
<rscale>  0 0.27509127E+03</rscale>
<asrwt>0</asrwt>
<pdfrwt beam="1">  1        2 0.15092473E+00 0.27509127E+03</pdfrwt>
<pdfrwt beam="2">  1       -2 0.29669244E-02 0.27509127E+03</pdfrwt>
<totfact> 0.11587984E+04</totfact>
</mgrwt>
</event>
<event>
 9    1  0.2117506E-002  0.2751925E+03  0.7818608E-02  0.1098344E+00
         -2   -1    0    0    0  501 -0.00000000000E+00  0.00000000000E+00  0.12228351671E+03  0.12228351671E+03  0.00000000000E+00 0. -1.
          2   -1    0    0  501    0  0.00000000000E+00 -0.00000000000E+00 -0.15482644674E+03  0.15482644674E+03  0.00000000000E+00 0. -1.
         36    2    1    2    0    0  0.00000000000E+00 -0.17763568394E-14 -0.32542930033E+02  0.27710996345E+03  0.27519245911E+03 0.  0.
         25    2    3    3    0    0 -0.37810008203E+02  0.12300741004E+01  0.19218312493E+02  0.13142408136E+03  0.12438583450E+03 0.  0.
         25    2    3    3    0    0  0.37810008203E+02 -0.12300741004E+01 -0.51761242525E+02  0.14568588210E+03  0.13082064138E+03 0.  0.
          5    1    4    4  502    0 -0.44917656613E+02 -0.12134378403E+02 -0.45227798893E+02  0.65057534595E+02  0.47000000000E+01 0.  1.
         -5    1    4    4    0  502  0.71076484107E+01  0.13364452503E+02  0.64446111386E+02  0.66366546764E+02  0.47000000000E+01 0.  1.
          5    1    5    5  503    0  0.68275675974E+01  0.56129430037E+02  0.77818014597E+01  0.57269320142E+02  0.47000000000E+01 0.  1.
         -5    1    5    5    0  503  0.30982440605E+02 -0.57359504137E+02 -0.59543043985E+02  0.88416561954E+02  0.47000000000E+01 0.  1.
<mgrwt>
<rscale>  0 0.27519246E+03</rscale>
<asrwt>0</asrwt>
<pdfrwt beam="1">  1        2 0.23819453E-01 0.27519246E+03</pdfrwt>
<pdfrwt beam="2">  1       -2 0.18812849E-01 0.27519246E+03</pdfrwt>
<totfact> 0.52692806E+03</totfact>
</mgrwt>
</event>
<event>
 9    1  0.2117506E-002  0.2750357E+03  0.7818608E-02  0.1098432E+00
         -4   -1    0    0    0  501 -0.00000000000E+00  0.00000000000E+00  0.74978353744E+02  0.74978353744E+02  0.00000000000E+00 0. -1.
          4   -1    0    0  501    0  0.00000000000E+00 -0.00000000000E+00 -0.25222163336E+03  0.25222163336E+03  0.00000000000E+00 0. -1.
         36    2    1    2    0    0 -0.71054273576E-14  0.00000000000E+00 -0.17724327962E+03  0.32719998710E+03  0.27503572748E+03 0.  0.
         25    2    3    3    0    0  0.33081338507E+02  0.35180473112E+02 -0.12278712884E+03  0.18341822908E+03  0.12741085944E+03 0.  0.
         25    2    3    3    0    0 -0.33081338507E+02 -0.35180473112E+02 -0.54456150779E+02  0.14378175803E+03  0.12399871345E+03 0.  0.
          5    1    4    4  502    0  0.17982220357E+02  0.70773477504E+02 -0.23642760718E+02  0.76898085160E+02  0.47000000000E+01 0. -1.
         -5    1    4    4    0  502  0.15099118150E+02 -0.35593004392E+02 -0.99144368120E+02  0.10652014392E+03  0.47000000000E+01 0. -1.
          5    1    5    5  503    0 -0.30585625185E+02 -0.77335477847E+02 -0.57449454962E+02  0.10118688886E+03  0.47000000000E+01 0. -1.
         -5    1    5    5    0  503 -0.24957133218E+01  0.42155004735E+02  0.29933041838E+01  0.42594869164E+02  0.47000000000E+01 0. -1.
<mgrwt>
<rscale>  0 0.27503573E+03</rscale>
<asrwt>0</asrwt>
<pdfrwt beam="1">  1        4 0.38803329E-01 0.27503573E+03</pdfrwt>
<pdfrwt beam="2">  1       -4 0.11535131E-01 0.27503573E+03</pdfrwt>
<totfact> 0.72026917E+02</totfact>
</mgrwt>
</event>
<event>
 9    1  0.2117506E-002  0.2763092E+03  0.7818608E-02  0.1097722E+00
         -3   -1    0    0    0  501 -0.00000000000E+00  0.00000000000E+00  0.12356429246E+03  0.12356429246E+03  0.00000000000E+00 0.  1.
          3   -1    0    0  501    0  0.00000000000E+00 -0.00000000000E+00 -0.15446770015E+03  0.15446770015E+03  0.00000000000E+00 0.  1.
         36    2    1    2    0    0  0.00000000000E+00  0.00000000000E+00 -0.30903407692E+02  0.27803199261E+03  0.27630918969E+03 0.  0.
         25    2    3    3    0    0 -0.82757746558E+01 -0.30842914477E+02 -0.61474735566E+02  0.14698144690E+03  0.12963266873E+03 0.  0.
         25    2    3    3    0    0  0.82757746558E+01  0.30842914477E+02  0.30571327874E+02  0.13105054571E+03  0.12336881949E+03 0.  0.
          5    1    4    4  502    0 -0.49614158315E+01  0.50459233429E+02 -0.14660339587E+02  0.52988351948E+02  0.47000000000E+01 0. -1.
         -5    1    4    4    0  502 -0.33143588243E+01 -0.81302147906E+02 -0.46814395979E+02  0.93993094956E+02  0.47000000000E+01 0. -1.
          5    1    5    5  503    0 -0.18201540799E+02  0.54792900741E+02  0.60841361086E+02  0.84007852477E+02  0.47000000000E+01 0. -1.
         -5    1    5    5    0  503  0.26477315455E+02 -0.23949986264E+02 -0.30270033212E+02  0.47042693231E+02  0.47000000000E+01 0. -1.
<mgrwt>
<rscale>  0 0.27630919E+03</rscale>
<asrwt>0</asrwt>
<pdfrwt beam="1">  1        3 0.23764262E-01 0.27630919E+03</pdfrwt>
<pdfrwt beam="2">  1       -3 0.19009891E-01 0.27630919E+03</pdfrwt>
<totfact> 0.10291922E+03</totfact>
</mgrwt>
</event>
<event>
 9    1  0.2117506E-002  0.2756301E+03  0.7818608E-02  0.1098100E+00
         -2   -1    0    0    0  501 -0.00000000000E+00  0.00000000000E+00  0.40120286600E+03  0.40120286600E+03  0.00000000000E+00 0. -1.
          2   -1    0    0  501    0  0.00000000000E+00 -0.00000000000E+00 -0.47340094410E+02  0.47340094410E+02  0.00000000000E+00 0. -1.
         36    2    1    2    0    0  0.71054273576E-14  0.00000000000E+00  0.35386277159E+03  0.44854296041E+03  0.27563005318E+03 0.  0.
         25    2    3    3    0    0  0.36851183758E+02 -0.28678905651E+02  0.22447478894E+03  0.26184066969E+03  0.12645598466E+03 0.  0.
         25    2    3    3    0    0 -0.36851183758E+02  0.28678905651E+02  0.12938798264E+03  0.18670229072E+03  0.12623789421E+03 0.  0.
          5    1    4    4  502    0 -0.11945872336E+02 -0.20732895345E+01  0.20084338779E+03  0.20126390340E+03  0.47000000000E+01 0.  1.
         -5    1    4    4    0  502  0.48797056094E+02 -0.26605616117E+02  0.23631401156E+02  0.60576766281E+02  0.47000000000E+01 0.  1.
          5    1    5    5  503    0  0.31362287635E+02  0.14009843518E+02  0.10822001700E+03  0.11363771769E+03  0.47000000000E+01 0.  1.
         -5    1    5    5    0  503 -0.68213471393E+02  0.14669062134E+02  0.21167965640E+02  0.73064573035E+02  0.47000000000E+01 0.  1.
<mgrwt>
<rscale>  0 0.27563005E+03</rscale>
<asrwt>0</asrwt>
<pdfrwt beam="1">  1        2 0.72830917E-02 0.27563005E+03</pdfrwt>
<pdfrwt beam="2">  1       -2 0.61723515E-01 0.27563005E+03</pdfrwt>
<totfact> 0.23854276E+03</totfact>
</mgrwt>
</event>
<event>
 9    1  0.2117506E-002  0.2749656E+03  0.7818608E-02  0.1098471E+00
          2   -1    0    0  501    0  0.00000000000E+00  0.00000000000E+00  0.25476465152E+03  0.25476465152E+03  0.00000000000E+00 0.  1.
         -2   -1    0    0    0  501 -0.00000000000E+00 -0.00000000000E+00 -0.74192084919E+02  0.74192084919E+02  0.00000000000E+00 0.  1.
         36    2    1    2    0    0  0.00000000000E+00 -0.71054273576E-14  0.18057256660E+03  0.32895673644E+03  0.27496560265E+03 0.  0.
         25    2    3    3    0    0  0.40114546590E+02 -0.23037023121E+02  0.59890051606E+02  0.14617800520E+03  0.12506522155E+03 0.  0.
         25    2    3    3    0    0 -0.40114546590E+02  0.23037023121E+02  0.12068251500E+03  0.18277873124E+03  0.12924362222E+03 0.  0.
          5    1    4    4  502    0  0.93534817839E+01 -0.68244245518E+02  0.59733392215E+02  0.91295853210E+02  0.47000000000E+01 0. -1.
         -5    1    4    4    0  502  0.30761064806E+02  0.45207222397E+02  0.15665939125E+00  0.54882151990E+02  0.47000000000E+01 0. -1.
          5    1    5    5  503    0 -0.42821312602E+02 -0.48226541921E+02  0.69104232819E+02  0.94641159926E+02  0.47000000000E+01 0.  1.
         -5    1    5    5    0  503  0.27067660118E+01  0.71263565042E+02  0.51578282177E+02  0.88137571314E+02  0.47000000000E+01 0.  1.
<mgrwt>
<rscale>  0 0.27496560E+03</rscale>
<asrwt>0</asrwt>
<pdfrwt beam="1">  1        2 0.39194561E-01 0.27496560E+03</pdfrwt>
<pdfrwt beam="2">  1       -2 0.11414167E-01 0.27496560E+03</pdfrwt>
<totfact> 0.69525907E+03</totfact>
</mgrwt>
</event>
<event>
 9    1  0.2117506E-002  0.2749808E+03  0.7818608E-02  0.1098462E+00
          4   -1    0    0  501    0  0.00000000000E+00  0.00000000000E+00  0.15217154314E+02  0.15217154314E+02  0.00000000000E+00 0. -1.
         -4   -1    0    0    0  501 -0.00000000000E+00 -0.00000000000E+00 -0.12422567534E+04  0.12422567534E+04  0.00000000000E+00 0. -1.
         36    2    1    2    0    0 -0.71054273576E-14 -0.71054273576E-14 -0.12270395991E+04  0.12574739077E+04  0.27498081907E+03 0.  0.
         25    2    3    3    0    0 -0.51015564125E+02 -0.13474774565E+02 -0.72752457698E+03  0.73942775701E+03  0.12114966113E+03 0.  0.
         25    2    3    3    0    0  0.51015564125E+02  0.13474774565E+02 -0.49951502213E+03  0.51804615072E+03  0.12677696801E+03 0.  0.
          5    1    4    4  502    0 -0.13987924815E+02  0.52421543181E+02 -0.36851610183E+03  0.37251830497E+03  0.47000000000E+01 0. -1.
         -5    1    4    4    0  502 -0.37027639310E+02 -0.65896317746E+02 -0.35900847514E+03  0.36690945203E+03  0.47000000000E+01 0. -1.
          5    1    5    5  503    0 -0.31726478711E+02 -0.11297970016E+02 -0.51203906529E+02  0.61466605744E+02  0.47000000000E+01 0.  1.
         -5    1    5    5    0  503  0.82742042836E+02  0.24772744581E+02 -0.44831111560E+03  0.45657954498E+03  0.47000000000E+01 0.  1.
<mgrwt>
<rscale>  0 0.27498082E+03</rscale>
<asrwt>0</asrwt>
<pdfrwt beam="1">  1        4 0.23411004E-02 0.27498082E+03</pdfrwt>
<pdfrwt beam="2">  1       -4 0.19111645E+00 0.27498082E+03</pdfrwt>
<totfact> 0.24423580E+02</totfact>
</mgrwt>
</event>
<event>
 9    1  0.2117506E-002  0.2787335E+03  0.7818608E-02  0.1096383E+00
         -2   -1    0    0    0  501 -0.00000000000E+00  0.00000000000E+00  0.98019763314E+02  0.98019763314E+02  0.00000000000E+00 0. -1.
          2   -1    0    0  501    0  0.00000000000E+00 -0.00000000000E+00 -0.19815483501E+03  0.19815483501E+03  0.00000000000E+00 0. -1.
         36    2    1    2    0    0  0.00000000000E+00 -0.71054273576E-14 -0.10013507169E+03  0.29617459832E+03  0.27873349298E+03 0.  0.
         25    2    3    3    0    0 -0.47249778786E+02 -0.22774954750E+02 -0.29040210162E+02  0.14251460057E+03  0.12928974209E+03 0.  0.
         25    2    3    3    0    0  0.47249778786E+02  0.22774954750E+02 -0.71094861529E+02  0.15365999775E+03  0.12572062446E+03 0.  0.
          5    1    4    4  502    0 -0.47550889152E+02  0.26029069512E+02  0.32847535825E+02  0.63558242019E+02  0.47000000000E+01 0.  1.
         -5    1    4    4    0  502  0.30111036559E+00 -0.48804024262E+02 -0.61887745987E+02  0.78956358547E+02  0.47000000000E+01 0.  1.
          5    1    5    5  503    0 -0.25244291607E+01 -0.47587889496E+02 -0.13016671192E+02  0.49623620365E+02  0.47000000000E+01 0. -1.
         -5    1    5    5    0  503  0.49774207947E+02  0.70362844246E+02 -0.58078190337E+02  0.10403637739E+03  0.47000000000E+01 0. -1.
<mgrwt>
<rscale>  0 0.27873349E+03</rscale>
<asrwt>0</asrwt>
<pdfrwt beam="1">  1        2 0.30485359E-01 0.27873349E+03</pdfrwt>
<pdfrwt beam="2">  1       -2 0.15079964E-01 0.27873349E+03</pdfrwt>
<totfact> 0.58064505E+03</totfact>
</mgrwt>
</event>
<event>
 9    1  0.2117506E-002  0.2736957E+03  0.7818608E-02  0.1099183E+00
         -2   -1    0    0    0  501 -0.00000000000E+00  0.00000000000E+00  0.22618098893E+02  0.22618098893E+02  0.00000000000E+00 0.  1.
          2   -1    0    0  501    0  0.00000000000E+00 -0.00000000000E+00 -0.82798006030E+03  0.82798006030E+03  0.00000000000E+00 0.  1.
         36    2    1    2    0    0  0.35527136788E-14  0.00000000000E+00 -0.80536196141E+03  0.85059815920E+03  0.27369570611E+03 0.  0.
         25    2    3    3    0    0  0.12388509990E+02 -0.48497733173E+02 -0.33386142780E+03  0.36060369126E+03  0.12675197779E+03 0.  0.
         25    2    3    3    0    0 -0.12388509990E+02  0.48497733173E+02 -0.47150053361E+03  0.48999446794E+03  0.12359741144E+03 0.  0.
          5    1    4    4  502    0 -0.29984453296E+02 -0.59082501074E+02 -0.29359087578E+03  0.30101079999E+03  0.47000000000E+01 0. -1.
         -5    1    4    4    0  502  0.42372963286E+02  0.10584767901E+02 -0.40270552026E+02  0.59592891268E+02  0.47000000000E+01 0. -1.
          5    1    5    5  503    0 -0.26697044111E+02  0.81447895759E+02 -0.22450641814E+03  0.24035747061E+03  0.47000000000E+01 0. -1.
         -5    1    5    5    0  503  0.14308534120E+02 -0.32950162586E+02 -0.24699411546E+03  0.24963699733E+03  0.47000000000E+01 0. -1.
<mgrwt>
<rscale>  0 0.27369571E+03</rscale>
<asrwt>0</asrwt>
<pdfrwt beam="1">  1        2 0.12738153E+00 0.27369571E+03</pdfrwt>
<pdfrwt beam="2">  1       -2 0.34797079E-02 0.27369571E+03</pdfrwt>
<totfact> 0.11465834E+04</totfact>
</mgrwt>
</event>
<event>
 9    1  0.2117506E-002  0.2749862E+03  0.7818608E-02  0.1098459E+00
         -1   -1    0    0    0  501 -0.00000000000E+00  0.00000000000E+00  0.32732024869E+02  0.32732024869E+02  0.00000000000E+00 0. -1.
          1   -1    0    0  501    0  0.00000000000E+00 -0.00000000000E+00 -0.57754904756E+03  0.57754904756E+03  0.00000000000E+00 0. -1.
         36    2    1    2    0    0 -0.71054273576E-14  0.00000000000E+00 -0.54481702269E+03  0.61028107243E+03  0.27498617993E+03 0.  0.
         25    2    3    3    0    0  0.49140616988E+02 -0.50004135778E+02 -0.31960728982E+03  0.35003498332E+03  0.12434008207E+03 0.  0.
         25    2    3    3    0    0 -0.49140616988E+02  0.50004135778E+02 -0.22520973287E+03  0.26024608911E+03  0.10996994718E+03 0.  0.
          5    1    4    4  502    0 -0.33489752957E+02 -0.28641538141E+02 -0.18765174969E+03  0.19281382321E+03  0.47000000000E+01 0.  1.
         -5    1    4    4    0  502  0.82630369945E+02 -0.21362597637E+02 -0.13195554014E+03  0.15722116011E+03  0.47000000000E+01 0.  1.
          5    1    5    5  503    0  0.22464323250E+01  0.87961471591E+01  0.10977724255E+02  0.15000636415E+02  0.47000000000E+01 0.  1.
         -5    1    5    5    0  503 -0.51387049313E+02  0.41207988619E+02 -0.23618745712E+03  0.24524545269E+03  0.47000000000E+01 0.  1.
<mgrwt>
<rscale>  0 0.27498618E+03</rscale>
<asrwt>0</asrwt>
<pdfrwt beam="1">  1        1 0.88853699E-01 0.27498618E+03</pdfrwt>
<pdfrwt beam="2">  1       -1 0.50356962E-02 0.27498618E+03</pdfrwt>
<totfact> 0.64333770E+03</totfact>
</mgrwt>
</event>
<event>
 9    1  0.2117506E-002  0.2746764E+03  0.7818608E-02  0.1098633E+00
          2   -1    0    0  501    0  0.00000000000E+00  0.00000000000E+00  0.11883034152E+04  0.11883034152E+04  0.00000000000E+00 0.  1.
         -2   -1    0    0    0  501 -0.00000000000E+00 -0.00000000000E+00 -0.15872867930E+02  0.15872867930E+02  0.00000000000E+00 0.  1.
         36    2    1    2    0    0  0.71054273576E-14  0.88817841970E-15  0.11724305473E+04  0.12041762832E+04  0.27467641450E+03 0.  0.
         25    2    3    3    0    0  0.50693820144E+02  0.63578168297E+01  0.68435601857E+03  0.69730420410E+03  0.12361111470E+03 0.  0.
         25    2    3    3    0    0 -0.50693820144E+02 -0.63578168297E+01  0.48807452874E+03  0.50687207907E+03  0.12685532583E+03 0.  0.
          5    1    4    4  502    0  0.66856942874E+02  0.26586437004E+02  0.20653337592E+03  0.21875743373E+03  0.47000000000E+01 0.  1.
         -5    1    4    4    0  502 -0.16163122730E+02 -0.20228620175E+02  0.47782264264E+03  0.47854677037E+03  0.47000000000E+01 0.  1.
          5    1    5    5  503    0 -0.87309540808E+02  0.78435864025E+01  0.41065908690E+03  0.41993743989E+03  0.47000000000E+01 0. -1.
         -5    1    5    5    0  503  0.36615720664E+02 -0.14201403232E+02  0.77415441843E+02  0.86934639180E+02  0.47000000000E+01 0. -1.
<mgrwt>
<rscale>  0 0.27467641E+03</rscale>
<asrwt>0</asrwt>
<pdfrwt beam="1">  1        2 0.18281584E+00 0.27467641E+03</pdfrwt>
<pdfrwt beam="2">  1       -2 0.24419806E-02 0.27467641E+03</pdfrwt>
<totfact> 0.11660222E+04</totfact>
</mgrwt>
</event>
<event>
 9    1  0.2117506E-002  0.2756035E+03  0.7818608E-02  0.1098115E+00
          1   -1    0    0  501    0  0.00000000000E+00  0.00000000000E+00  0.10213105572E+04  0.10213105572E+04  0.00000000000E+00 0.  1.
         -1   -1    0    0    0  501 -0.00000000000E+00 -0.00000000000E+00 -0.18593094303E+02  0.18593094303E+02  0.00000000000E+00 0.  1.
         36    2    1    2    0    0  0.71054273576E-14  0.17763568394E-14  0.10027174629E+04  0.10399036515E+04  0.27560350871E+03 0.  0.
         25    2    3    3    0    0  0.44977800923E+02  0.68834492981E+01  0.40366471470E+03  0.42574390837E+03  0.12744523989E+03 0.  0.
         25    2    3    3    0    0 -0.44977800923E+02 -0.68834492981E+01  0.59905274821E+03  0.61415974315E+03  0.12750533524E+03 0.  0.
          5    1    4    4  502    0  0.66640155386E+02  0.12723713520E+02  0.98365748577E+02  0.11958559148E+03  0.47000000000E+01 0.  1.
         -5    1    4    4    0  502 -0.21662354463E+02 -0.58402642222E+01  0.30529896612E+03  0.30615831689E+03  0.47000000000E+01 0.  1.
          5    1    5    5  503    0  0.15063272684E+02  0.36434091965E+02  0.39589484619E+03  0.39788084206E+03  0.47000000000E+01 0.  1.
         -5    1    5    5    0  503 -0.60041073607E+02 -0.43317541263E+02  0.20315790202E+03  0.21627890109E+03  0.47000000000E+01 0.  1.
<mgrwt>
<rscale>  0 0.27560351E+03</rscale>
<asrwt>0</asrwt>
<pdfrwt beam="1">  1        1 0.15712466E+00 0.27560351E+03</pdfrwt>
<pdfrwt beam="2">  1       -1 0.28604768E-02 0.27560351E+03</pdfrwt>
<totfact> 0.62353506E+03</totfact>
</mgrwt>
</event>
<event>
 9    1  0.2117506E-002  0.2755899E+03  0.7818608E-02  0.1098122E+00
         -1   -1    0    0    0  501 -0.00000000000E+00  0.00000000000E+00  0.14533346176E+03  0.14533346176E+03  0.00000000000E+00 0. -1.
          1   -1    0    0  501    0  0.00000000000E+00 -0.00000000000E+00 -0.13064750346E+03  0.13064750346E+03  0.00000000000E+00 0. -1.
         36    2    1    2    0    0  0.00000000000E+00  0.00000000000E+00  0.14685958296E+02  0.27598096522E+03  0.27558994139E+03 0.  0.
         25    2    3    3    0    0 -0.17119098486E+02 -0.44877807509E+02 -0.64380042233E+00  0.13400060955E+03  0.12509463515E+03 0.  0.
         25    2    3    3    0    0  0.17119098486E+02  0.44877807509E+02  0.15329758718E+02  0.14198035567E+03  0.13272655632E+03 0.  0.
          5    1    4    4  502    0  0.39137516329E+01 -0.79377045245E+02  0.27842327187E+02  0.84340488183E+02  0.47000000000E+01 0.  1.
         -5    1    4    4    0  502 -0.21032850119E+02  0.34499237737E+02 -0.28486127609E+02  0.49660121372E+02  0.47000000000E+01 0.  1.
          5    1    5    5  503    0  0.24323744892E+02 -0.15604625149E+02  0.59688808022E+02  0.66483025613E+02  0.47000000000E+01 0. -1.
         -5    1    5    5    0  503 -0.72046464059E+01  0.60482432658E+02 -0.44359049303E+02  0.75497330053E+02  0.47000000000E+01 0. -1.
<mgrwt>
<rscale>  0 0.27558994E+03</rscale>
<asrwt>0</asrwt>
<pdfrwt beam="1">  1        1 0.20099616E-01 0.27558994E+03</pdfrwt>
<pdfrwt beam="2">  1       -1 0.22358994E-01 0.27558994E+03</pdfrwt>
<totfact> 0.42305626E+03</totfact>
</mgrwt>
</event>
<event>
 9    1  0.2117506E-002  0.2748180E+03  0.7818608E-02  0.1098553E+00
          2   -1    0    0  501    0  0.00000000000E+00  0.00000000000E+00  0.14987652005E+04  0.14987652005E+04  0.00000000000E+00 0. -1.
         -2   -1    0    0    0  501 -0.00000000000E+00 -0.00000000000E+00 -0.12597860733E+02  0.12597860733E+02  0.00000000000E+00 0. -1.
         36    2    1    2    0    0  0.00000000000E+00  0.00000000000E+00  0.14861673397E+04  0.15113630612E+04  0.27481801445E+03 0.  0.
         25    2    3    3    0    0  0.81913311371E+01 -0.37704019161E+02  0.99232818543E+03  0.10005112679E+04  0.12173281646E+03 0.  0.
         25    2    3    3    0    0 -0.81913311371E+01  0.37704019161E+02  0.49383915432E+03  0.51085179333E+03  0.12491498485E+03 0.  0.
          5    1    4    4  502    0 -0.24507488074E+02 -0.18293924434E+02  0.90022140792E+03  0.90075299496E+03  0.47000000000E+01 0. -1.
         -5    1    4    4    0  502  0.32698819211E+02 -0.19410094727E+02  0.92106777503E+02  0.99758272926E+02  0.47000000000E+01 0. -1.
          5    1    5    5  503    0 -0.10225320718E+01  0.73839787400E+02  0.43516683726E+03  0.44141321460E+03  0.47000000000E+01 0. -1.
         -5    1    5    5    0  503 -0.71687990653E+01 -0.36135768239E+02  0.58672317062E+02  0.69438578728E+02  0.47000000000E+01 0. -1.
<mgrwt>
<rscale>  0 0.27481801E+03</rscale>
<asrwt>0</asrwt>
<pdfrwt beam="1">  1        2 0.23057912E+00 0.27481801E+03</pdfrwt>
<pdfrwt beam="2">  1       -2 0.19381336E-02 0.27481801E+03</pdfrwt>
<totfact> 0.11063942E+04</totfact>
</mgrwt>
</event>
<event>
 9    1  0.2117506E-002  0.2749800E+03  0.7818608E-02  0.1098463E+00
         -2   -1    0    0    0  501 -0.00000000000E+00  0.00000000000E+00  0.66172161446E+02  0.66172161446E+02  0.00000000000E+00 0.  1.
          2   -1    0    0  501    0  0.00000000000E+00 -0.00000000000E+00 -0.28567147859E+03  0.28567147859E+03  0.00000000000E+00 0.  1.
         36    2    1    2    0    0  0.00000000000E+00 -0.71054273576E-14 -0.21949931714E+03  0.35184364003E+03  0.27497999347E+03 0.  0.
         25    2    3    3    0    0  0.13859887221E+02  0.31956156550E+02 -0.60065055379E+02  0.15041535391E+03  0.13343041407E+03 0.  0.
         25    2    3    3    0    0 -0.13859887221E+02 -0.31956156550E+02 -0.15943426176E+03  0.20142828612E+03  0.11807107271E+03 0.  0.
          5    1    4    4  502    0 -0.24444941959E+02  0.18468345855E+02 -0.92929364647E+02  0.97962195768E+02  0.47000000000E+01 0. -1.
         -5    1    4    4    0  502  0.38304829179E+02  0.13487810695E+02  0.32864309268E+02  0.52453158146E+02  0.47000000000E+01 0. -1.
          5    1    5    5  503    0  0.17939895415E+01 -0.74051513725E+02 -0.74084055978E+02  0.10486840532E+03  0.47000000000E+01 0. -1.
         -5    1    5    5    0  503 -0.15653876762E+02  0.42095357175E+02 -0.85350205784E+02  0.96559880803E+02  0.47000000000E+01 0. -1.
<mgrwt>
<rscale>  0 0.27497999E+03</rscale>
<asrwt>0</asrwt>
<pdfrwt beam="1">  1        2 0.43949458E-01 0.27497999E+03</pdfrwt>
<pdfrwt beam="2">  1       -2 0.10180333E-01 0.27497999E+03</pdfrwt>
<totfact> 0.73802099E+03</totfact>
</mgrwt>
</event>
<event>
 9    1  0.2117506E-002  0.2750555E+03  0.7818608E-02  0.1098421E+00
         -1   -1    0    0    0  501 -0.00000000000E+00  0.00000000000E+00  0.31843663478E+03  0.31843663478E+03  0.00000000000E+00 0.  1.
          1   -1    0    0  501    0  0.00000000000E+00 -0.00000000000E+00 -0.59396050796E+02  0.59396050796E+02  0.00000000000E+00 0.  1.
         36    2    1    2    0    0 -0.71054273576E-14 -0.17763568394E-14  0.25904058399E+03  0.37783268558E+03  0.27505547466E+03 0.  0.
         25    2    3    3    0    0 -0.55852054418E+02  0.94245675187E+01  0.99816120852E+02  0.16811893309E+03  0.12285130534E+03 0.  0.
         25    2    3    3    0    0  0.55852054418E+02 -0.94245675187E+01  0.15922446314E+03  0.20971375249E+03  0.12417388561E+03 0.  0.
          5    1    4    4  502    0  0.25332394192E+01  0.56798426808E+02  0.26161623936E+02  0.62761446420E+02  0.47000000000E+01 0. -1.
         -5    1    4    4    0  502 -0.58385293837E+02 -0.47373859289E+02  0.73654496917E+02  0.10535748667E+03  0.47000000000E+01 0. -1.
          5    1    5    5  503    0  0.78462044176E+02 -0.13058450441E+01  0.40386336783E+02  0.88380675526E+02  0.47000000000E+01 0. -1.
         -5    1    5    5    0  503 -0.22609989758E+02 -0.81187224745E+01  0.11883812635E+03  0.12133307697E+03  0.47000000000E+01 0. -1.
<mgrwt>
<rscale>  0 0.27505547E+03</rscale>
<asrwt>0</asrwt>
<pdfrwt beam="1">  1        1 0.91378541E-02 0.27505547E+03</pdfrwt>
<pdfrwt beam="2">  1       -1 0.48990251E-01 0.27505547E+03</pdfrwt>
<totfact> 0.30825391E+03</totfact>
</mgrwt>
</event>
<event>
 9    1  0.2117506E-002  0.2751844E+03  0.7818608E-02  0.1098349E+00
         -2   -1    0    0    0  501 -0.00000000000E+00  0.00000000000E+00  0.38875557178E+02  0.38875557178E+02  0.00000000000E+00 0.  1.
          2   -1    0    0  501    0  0.00000000000E+00 -0.00000000000E+00 -0.48697987606E+03  0.48697987606E+03  0.00000000000E+00 0.  1.
         36    2    1    2    0    0  0.71054273576E-14  0.00000000000E+00 -0.44810431888E+03  0.52585543324E+03  0.27518440375E+03 0.  0.
         25    2    3    3    0    0 -0.69685515839E+01 -0.56680285846E+02 -0.18356321700E+03  0.22808278707E+03  0.12273991855E+03 0.  0.
         25    2    3    3    0    0  0.69685515839E+01  0.56680285846E+02 -0.26454110188E+03  0.29777264617E+03  0.12419878706E+03 0.  0.
          5    1    4    4  502    0  0.25381420386E+02 -0.86848520416E+02 -0.12997813334E+03  0.15844016898E+03  0.47000000000E+01 0.  1.
         -5    1    4    4    0  502 -0.32349971970E+02  0.30168234569E+02 -0.53585083666E+02  0.69642618094E+02  0.47000000000E+01 0.  1.
          5    1    5    5  503    0  0.34042546038E+02  0.26358385499E+02 -0.25094107362E+03  0.25465107865E+03  0.47000000000E+01 0. -1.
         -5    1    5    5    0  503 -0.27073994454E+02  0.30321900348E+02 -0.13600028253E+02  0.43121567514E+02  0.47000000000E+01 0. -1.
<mgrwt>
<rscale>  0 0.27518440E+03</rscale>
<asrwt>0</asrwt>
<pdfrwt beam="1">  1        2 0.74919980E-01 0.27518440E+03</pdfrwt>
<pdfrwt beam="2">  1       -2 0.59808550E-02 0.27518440E+03</pdfrwt>
<totfact> 0.94835663E+03</totfact>
</mgrwt>
</event>
<event>
 9    1  0.2117506E-002  0.2771619E+03  0.7818608E-02  0.1097249E+00
          2   -1    0    0  501    0  0.00000000000E+00  0.00000000000E+00  0.29909342974E+03  0.29909342974E+03  0.00000000000E+00 0. -1.
         -2   -1    0    0    0  501 -0.00000000000E+00 -0.00000000000E+00 -0.64209654508E+02  0.64209654508E+02  0.00000000000E+00 0. -1.
         36    2    1    2    0    0 -0.71054273576E-14 -0.35527136788E-14  0.23488377523E+03  0.36330308425E+03  0.27716194392E+03 0.  0.
         25    2    3    3    0    0 -0.43741485737E+02  0.27590432931E+02  0.10234895240E+03  0.17287378610E+03  0.12936571532E+03 0.  0.
         25    2    3    3    0    0  0.43741485737E+02 -0.27590432931E+02  0.13253482284E+03  0.19042929815E+03  0.12658312986E+03 0.  0.
          5    1    4    4  502    0 -0.88664682360E+02  0.25249283020E+02  0.81214502878E+02  0.12295054969E+03  0.47000000000E+01 0. -1.
         -5    1    4    4    0  502  0.44923196623E+02  0.23411499104E+01  0.21134449519E+02  0.49923236416E+02  0.47000000000E+01 0. -1.
          5    1    5    5  503    0  0.21202866581E+02 -0.68606869616E+02  0.12289687724E+03  0.14241557691E+03  0.47000000000E+01 0.  1.
         -5    1    5    5    0  503  0.22538619156E+02  0.41016436685E+02  0.96379455918E+01  0.48013721237E+02  0.47000000000E+01 0.  1.
<mgrwt>
<rscale>  0 0.27716194E+03</rscale>
<asrwt>0</asrwt>
<pdfrwt beam="1">  1        2 0.46014373E-01 0.27716194E+03</pdfrwt>
<pdfrwt beam="2">  1       -2 0.98784086E-02 0.27716194E+03</pdfrwt>
<totfact> 0.73712560E+03</totfact>
</mgrwt>
</event>
<event>
 9    1  0.2117506E-002  0.2745708E+03  0.7818608E-02  0.1098692E+00
         -3   -1    0    0    0  501 -0.00000000000E+00  0.00000000000E+00  0.12189764914E+03  0.12189764914E+03  0.00000000000E+00 0. -1.
          3   -1    0    0  501    0  0.00000000000E+00 -0.00000000000E+00 -0.15461565187E+03  0.15461565187E+03  0.00000000000E+00 0. -1.
         36    2    1    2    0    0  0.00000000000E+00  0.00000000000E+00 -0.32718002731E+02  0.27651330101E+03  0.27457082498E+03 0.  0.
         25    2    3    3    0    0  0.41231715433E+02  0.18271366803E+02  0.16442143230E+02  0.13559638693E+03  0.12681537317E+03 0.  0.
         25    2    3    3    0    0 -0.41231715433E+02 -0.18271366803E+02 -0.49160145961E+02  0.14091691408E+03  0.12412477400E+03 0.  0.
          5    1    4    4  502    0 -0.41146094067E+02  0.17614205431E+02 -0.14785667889E+02  0.47370531609E+02  0.47000000000E+01 0.  1.
         -5    1    4    4    0  502  0.82377809501E+02  0.65716137232E+00  0.31227811119E+02  0.88225855317E+02  0.47000000000E+01 0.  1.
          5    1    5    5  503    0 -0.32825294290E+02  0.29311760159E+02 -0.74120213448E+02  0.86328299361E+02  0.47000000000E+01 0. -1.
         -5    1    5    5    0  503 -0.84064211436E+01 -0.47583126962E+02  0.24960067488E+02  0.54588614719E+02  0.47000000000E+01 0. -1.
<mgrwt>
<rscale>  0 0.27457082E+03</rscale>
<asrwt>0</asrwt>
<pdfrwt beam="1">  1        3 0.23787023E-01 0.27457082E+03</pdfrwt>
<pdfrwt beam="2">  1       -3 0.18753485E-01 0.27457082E+03</pdfrwt>
<totfact> 0.10516578E+03</totfact>
</mgrwt>
</event>
<event>
 9    1  0.2117506E-002  0.2751411E+03  0.7818608E-02  0.1098373E+00
         -1   -1    0    0    0  501 -0.00000000000E+00  0.00000000000E+00  0.51141143604E+02  0.51141143604E+02  0.00000000000E+00 0.  1.
          1   -1    0    0  501    0  0.00000000000E+00 -0.00000000000E+00 -0.37006702324E+03  0.37006702324E+03  0.00000000000E+00 0.  1.
         36    2    1    2    0    0  0.00000000000E+00  0.00000000000E+00 -0.31892587963E+03  0.42120816684E+03  0.27514106039E+03 0.  0.
         25    2    3    3    0    0 -0.32995508906E+02 -0.47030232895E+02 -0.16876835699E+03  0.21915028892E+03  0.12745016437E+03 0.  0.
         25    2    3    3    0    0  0.32995508906E+02  0.47030232895E+02 -0.15015752264E+03  0.20205787793E+03  0.12239100462E+03 0.  0.
          5    1    4    4  502    0  0.10942845172E+02 -0.35866823415E+02  0.62403322894E+01  0.38304133320E+02  0.47000000000E+01 0.  1.
         -5    1    4    4    0  502 -0.43938354078E+02 -0.11163409480E+02 -0.17500868928E+03  0.18084615560E+03  0.47000000000E+01 0.  1.
          5    1    5    5  503    0 -0.43239305200E+02  0.58215863742E+01 -0.27446989130E+02  0.51758628212E+02  0.47000000000E+01 0.  1.
         -5    1    5    5    0  503  0.76234814106E+02  0.41208646520E+02 -0.12271053351E+03  0.15029924971E+03  0.47000000000E+01 0.  1.
<mgrwt>
<rscale>  0 0.27514106E+03</rscale>
<asrwt>0</asrwt>
<pdfrwt beam="1">  1        1 0.56933390E-01 0.27514106E+03</pdfrwt>
<pdfrwt beam="2">  1       -1 0.78678680E-02 0.27514106E+03</pdfrwt>
<totfact> 0.58820976E+03</totfact>
</mgrwt>
</event>
<event>
 9    1  0.2117506E-002  0.2746129E+03  0.7818608E-02  0.1098668E+00
          2   -1    0    0  501    0  0.00000000000E+00  0.00000000000E+00  0.25106460043E+03  0.25106460043E+03  0.00000000000E+00 0. -1.
         -2   -1    0    0    0  501 -0.00000000000E+00 -0.00000000000E+00 -0.75092456557E+02  0.75092456557E+02  0.00000000000E+00 0. -1.
         36    2    1    2    0    0  0.00000000000E+00 -0.35527136788E-14  0.17597214387E+03  0.32615705699E+03  0.27461287370E+03 0.  0.
         25    2    3    3    0    0  0.24185932183E+02 -0.27394157783E+02  0.12069511024E+03  0.17869536551E+03  0.12660696988E+03 0.  0.
         25    2    3    3    0    0 -0.24185932183E+02  0.27394157783E+02  0.55277033627E+02  0.14746169147E+03  0.13173458471E+03 0.  0.
          5    1    4    4  502    0  0.59962612236E+02 -0.54436873675E+02  0.10085107943E+03  0.12942920190E+03  0.47000000000E+01 0. -1.
         -5    1    4    4    0  502 -0.35776680053E+02  0.27042715892E+02  0.19844030812E+02  0.49266163615E+02  0.47000000000E+01 0. -1.
          5    1    5    5  503    0 -0.18504805117E+02 -0.21023243436E+02 -0.34808662436E+02  0.44923685930E+02  0.47000000000E+01 0. -1.
         -5    1    5    5    0  503 -0.56811270655E+01  0.48417401218E+02  0.90085696063E+02  0.10253800554E+03  0.47000000000E+01 0. -1.
<mgrwt>
<rscale>  0 0.27461287E+03</rscale>
<asrwt>0</asrwt>
<pdfrwt beam="1">  1        2 0.38625323E-01 0.27461287E+03</pdfrwt>
<pdfrwt beam="2">  1       -2 0.11552686E-01 0.27461287E+03</pdfrwt>
<totfact> 0.69273142E+03</totfact>
</mgrwt>
</event>
<event>
 9    1  0.2117506E-002  0.2753729E+03  0.7818608E-02  0.1098243E+00
         -2   -1    0    0    0  501 -0.00000000000E+00  0.00000000000E+00  0.18798009963E+02  0.18798009963E+02  0.00000000000E+00 0. -1.
          2   -1    0    0  501    0  0.00000000000E+00 -0.00000000000E+00 -0.10084876911E+04  0.10084876911E+04  0.00000000000E+00 0. -1.
         36    2    1    2    0    0  0.00000000000E+00  0.35527136788E-14 -0.98968968116E+03  0.10272857011E+04  0.27537292289E+03 0.  0.
         25    2    3    3    0    0 -0.21634904197E+02 -0.88131423791E+00 -0.72835475060E+03  0.73945573829E+03  0.12579865017E+03 0.  0.
         25    2    3    3    0    0  0.21634904197E+02  0.88131423791E+00 -0.26133493056E+03  0.28782996279E+03  0.11866463565E+03 0.  0.
          5    1    4    4  502    0 -0.26764985411E+02 -0.50478129955E+02 -0.18211902594E+03  0.19092887591E+03  0.47000000000E+01 0.  1.
         -5    1    4    4    0  502  0.51300812136E+01  0.49596815717E+02 -0.54623572466E+03  0.54852686238E+03  0.47000000000E+01 0.  1.
          5    1    5    5  503    0 -0.46704582237E+02  0.16401052491E+02 -0.12342450591E+03  0.13306393645E+03  0.47000000000E+01 0. -1.
         -5    1    5    5    0  503  0.68339486434E+02 -0.15519738253E+02 -0.13791042466E+03  0.15476602634E+03  0.47000000000E+01 0. -1.
<mgrwt>
<rscale>  0 0.27537292E+03</rscale>
<asrwt>0</asrwt>
<pdfrwt beam="1">  1        2 0.15515194E+00 0.27537292E+03</pdfrwt>
<pdfrwt beam="2">  1       -2 0.28920018E-02 0.27537292E+03</pdfrwt>
<totfact> 0.11578873E+04</totfact>
</mgrwt>
</event>
<event>
 9    1  0.2117506E-002  0.2748030E+03  0.7818608E-02  0.1098562E+00
          1   -1    0    0  501    0  0.00000000000E+00  0.00000000000E+00  0.31531166860E+02  0.31531166860E+02  0.00000000000E+00 0.  1.
         -1   -1    0    0    0  501 -0.00000000000E+00 -0.00000000000E+00 -0.59874630543E+03  0.59874630543E+03  0.00000000000E+00 0.  1.
         36    2    1    2    0    0 -0.71054273576E-14  0.00000000000E+00 -0.56721513857E+03  0.63027747229E+03  0.27480298152E+03 0.  0.
         25    2    3    3    0    0  0.11448456160E+02 -0.11404253812E+02 -0.16465052850E+03  0.20813601623E+03  0.12629204473E+03 0.  0.
         25    2    3    3    0    0 -0.11448456160E+02  0.11404253812E+02 -0.40256461007E+03  0.42214145606E+03  0.12603181937E+03 0.  0.
          5    1    4    4  502    0  0.65948220653E+02 -0.24619568447E+02 -0.82406100450E+02  0.10848108752E+03  0.47000000000E+01 0.  1.
         -5    1    4    4    0  502 -0.54499764493E+02  0.13215314634E+02 -0.82244428052E+02  0.99654928710E+02  0.47000000000E+01 0.  1.
          5    1    5    5  503    0  0.43174988205E+02  0.25334301798E+02 -0.30699897705E+03  0.31108900393E+03  0.47000000000E+01 0.  1.
         -5    1    5    5    0  503 -0.54623444365E+02 -0.13930047985E+02 -0.95565633015E+02  0.11105245213E+03  0.47000000000E+01 0.  1.
<mgrwt>
<rscale>  0 0.27480298E+03</rscale>
<asrwt>0</asrwt>
<pdfrwt beam="1">  1        1 0.48509487E-02 0.27480298E+03</pdfrwt>
<pdfrwt beam="2">  1       -1 0.92114817E-01 0.27480298E+03</pdfrwt>
<totfact> 0.20948293E+03</totfact>
</mgrwt>
</event>
<event>
 9    1  0.2117506E-002  0.2750779E+03  0.7818608E-02  0.1098408E+00
          2   -1    0    0  501    0  0.00000000000E+00  0.00000000000E+00  0.13614723246E+04  0.13614723246E+04  0.00000000000E+00 0.  1.
         -2   -1    0    0    0  501 -0.00000000000E+00 -0.00000000000E+00 -0.13894491650E+02  0.13894491650E+02  0.00000000000E+00 0.  1.
         36    2    1    2    0    0  0.35527136788E-14 -0.14210854715E-13  0.13475778329E+04  0.13753668162E+04  0.27507792238E+03 0.  0.
         25    2    3    3    0    0 -0.10350404911E+02  0.37327912650E+02  0.47426467551E+03  0.49244755509E+03  0.12679553670E+03 0.  0.
         25    2    3    3    0    0  0.10350404911E+02 -0.37327912650E+02  0.87331315740E+03  0.88291926112E+03  0.12397599297E+03 0.  0.
          5    1    4    4  502    0 -0.49705282085E+02  0.47872593456E+02  0.14516639223E+03  0.16080351894E+03  0.47000000000E+01 0. -1.
         -5    1    4    4    0  502  0.39354877174E+02 -0.10544680806E+02  0.32909828328E+03  0.33164403614E+03  0.47000000000E+01 0. -1.
          5    1    5    5  503    0 -0.23669011187E+02 -0.65277671620E+02  0.30300106720E+03  0.31089087028E+03  0.47000000000E+01 0. -1.
         -5    1    5    5    0  503  0.34019416098E+02  0.27949758971E+02  0.57031209020E+03  0.57202839084E+03  0.47000000000E+01 0. -1.
<mgrwt>
<rscale>  0 0.27507792E+03</rscale>
<asrwt>0</asrwt>
<pdfrwt beam="1">  1        2 0.20945717E+00 0.27507792E+03</pdfrwt>
<pdfrwt beam="2">  1       -2 0.21376152E-02 0.27507792E+03</pdfrwt>
<totfact> 0.11363749E+04</totfact>
</mgrwt>
</event>
<event>
 9    1  0.2117506E-002  0.2749964E+03  0.7818608E-02  0.1098454E+00
         -3   -1    0    0    0  501 -0.00000000000E+00  0.00000000000E+00  0.15510564970E+03  0.15510564970E+03  0.00000000000E+00 0. -1.
          3   -1    0    0  501    0  0.00000000000E+00 -0.00000000000E+00 -0.12188951073E+03  0.12188951073E+03  0.00000000000E+00 0. -1.
         36    2    1    2    0    0  0.00000000000E+00 -0.71054273576E-14  0.33216138979E+02  0.27699516043E+03  0.27499637636E+03 0.  0.
         25    2    3    3    0    0 -0.16371280096E+02 -0.46859204141E+02 -0.10123557596E+02  0.13636728895E+03  0.12660863814E+03 0.  0.
         25    2    3    3    0    0  0.16371280096E+02  0.46859204141E+02  0.43339696575E+02  0.14062787148E+03  0.12423391290E+03 0.  0.
          5    1    4    4  502    0 -0.70905560979E+01 -0.34261892069E+02 -0.67790012871E+02  0.76431204877E+02  0.47000000000E+01 0.  1.
         -5    1    4    4    0  502 -0.92807239978E+01 -0.12597312072E+02  0.57666455275E+02  0.59936084068E+02  0.47000000000E+01 0.  1.
          5    1    5    5  503    0  0.70412628892E+02  0.31121540807E+02  0.21469956686E+02  0.80059588119E+02  0.47000000000E+01 0. -1.
         -5    1    5    5    0  503 -0.54041348797E+02  0.15737663334E+02  0.21869739890E+02  0.60568283365E+02  0.47000000000E+01 0. -1.
<mgrwt>
<rscale>  0 0.27499638E+03</rscale>
<asrwt>0</asrwt>
<pdfrwt beam="1">  1        3 0.18752232E-01 0.27499638E+03</pdfrwt>
<pdfrwt beam="2">  1       -3 0.23862408E-01 0.27499638E+03</pdfrwt>
<totfact> 0.10458871E+03</totfact>
</mgrwt>
</event>
<event>
 9    1  0.2117506E-002  0.2723541E+03  0.7818608E-02  0.1099940E+00
         -2   -1    0    0    0  501 -0.00000000000E+00  0.00000000000E+00  0.74909003170E+02  0.74909003170E+02  0.00000000000E+00 0. -1.
          2   -1    0    0  501    0  0.00000000000E+00 -0.00000000000E+00 -0.24755629335E+03  0.24755629335E+03  0.00000000000E+00 0. -1.
         36    2    1    2    0    0 -0.71054273576E-14 -0.71054273576E-14 -0.17264729018E+03  0.32246529652E+03  0.27235414565E+03 0.  0.
         25    2    3    3    0    0  0.33431352435E+02  0.21490039065E+02 -0.82686674958E+02  0.16036448747E+03  0.13153024565E+03 0.  0.
         25    2    3    3    0    0 -0.33431352435E+02 -0.21490039065E+02 -0.89960615223E+02  0.16210080906E+03  0.12885760707E+03 0.  0.
          5    1    4    4  502    0  0.72051930891E+02  0.39264032109E+02 -0.20192736745E+02  0.84634399506E+02  0.47000000000E+01 0. -1.
         -5    1    4    4    0  502 -0.38620578456E+02 -0.17773993044E+02 -0.62493938213E+02  0.75730087959E+02  0.47000000000E+01 0. -1.
          5    1    5    5  503    0 -0.27411220430E+02  0.48706692363E+02 -0.12841990403E+02  0.57538887753E+02  0.47000000000E+01 0.  1.
         -5    1    5    5    0  503 -0.60201320046E+01 -0.70196731427E+02 -0.77118624820E+02  0.10456192130E+03  0.47000000000E+01 0.  1.
<mgrwt>
<rscale>  0 0.27235415E+03</rscale>
<asrwt>0</asrwt>
<pdfrwt beam="1">  1        2 0.38085583E-01 0.27235415E+03</pdfrwt>
<pdfrwt beam="2">  1       -2 0.11524462E-01 0.27235415E+03</pdfrwt>
<totfact> 0.70590042E+03</totfact>
</mgrwt>
</event>
<event>
 9    1  0.2117506E-002  0.2755975E+03  0.7818608E-02  0.1098118E+00
          2   -1    0    0  501    0  0.00000000000E+00  0.00000000000E+00  0.57018752831E+03  0.57018752831E+03  0.00000000000E+00 0.  1.
         -2   -1    0    0    0  501 -0.00000000000E+00 -0.00000000000E+00 -0.33302197394E+02  0.33302197394E+02  0.00000000000E+00 0.  1.
         36    2    1    2    0    0 -0.14210854715E-13  0.00000000000E+00  0.53688533091E+03  0.60348972570E+03  0.27559751537E+03 0.  0.
         25    2    3    3    0    0  0.50813904842E+02 -0.28824139118E+02  0.31148164752E+03  0.33900820451E+03  0.12038630346E+03 0.  0.
         25    2    3    3    0    0 -0.50813904842E+02  0.28824139118E+02  0.22540368340E+03  0.26448152120E+03  0.12542236899E+03 0.  0.
          5    1    4    4  502    0 -0.13923632228E+02  0.36602439490E+02  0.67204741156E+02  0.77924151230E+02  0.47000000000E+01 0.  1.
         -5    1    4    4    0  502  0.64737537070E+02 -0.65426578609E+02  0.24427690636E+03  0.26108405328E+03  0.47000000000E+01 0.  1.
          5    1    5    5  503    0 -0.17024763161E+02 -0.48730878242E+02  0.65597205949E+02  0.83603974087E+02  0.47000000000E+01 0. -1.
         -5    1    5    5    0  503 -0.33789141681E+02  0.77555017361E+02  0.15980647745E+03  0.18087754711E+03  0.47000000000E+01 0. -1.
<mgrwt>
<rscale>  0 0.27559752E+03</rscale>
<asrwt>0</asrwt>
<pdfrwt beam="1">  1        2 0.87721151E-01 0.27559752E+03</pdfrwt>
<pdfrwt beam="2">  1       -2 0.51234154E-02 0.27559752E+03</pdfrwt>
<totfact> 0.10052047E+04</totfact>
</mgrwt>
</event>
<event>
 9    1  0.2117506E-002  0.2746975E+03  0.7818608E-02  0.1098621E+00
          2   -1    0    0  501    0  0.00000000000E+00  0.00000000000E+00  0.11792727440E+04  0.11792727440E+04  0.00000000000E+00 0. -1.
         -2   -1    0    0    0  501 -0.00000000000E+00 -0.00000000000E+00 -0.15996876998E+02  0.15996876998E+02  0.00000000000E+00 0. -1.
         36    2    1    2    0    0 -0.71054273576E-14  0.35527136788E-14  0.11632758670E+04  0.11952696210E+04  0.27469751387E+03 0.  0.
         25    2    3    3    0    0  0.19128741667E+02 -0.28156434252E+02  0.51063319358E+03  0.52815532296E+03  0.13054919854E+03 0.  0.
         25    2    3    3    0    0 -0.19128741667E+02  0.28156434252E+02  0.65264267339E+03  0.66711429801E+03  0.13394153174E+03 0.  0.
          5    1    4    4  502    0  0.27400713413E+02 -0.20540493866E+02  0.51427553485E+03  0.51543586093E+03  0.47000000000E+01 0. -1.
         -5    1    4    4    0  502 -0.82719717453E+01 -0.76159403861E+01 -0.36423412702E+01  0.12719462035E+02  0.47000000000E+01 0. -1.
          5    1    5    5  503    0 -0.71677968811E+02  0.20252937502E+01  0.24767358820E+03  0.25788782313E+03  0.47000000000E+01 0. -1.
         -5    1    5    5    0  503  0.52549227143E+02  0.26131140502E+02  0.40496908519E+03  0.40922647487E+03  0.47000000000E+01 0.  1.
<mgrwt>
<rscale>  0 0.27469751E+03</rscale>
<asrwt>0</asrwt>
<pdfrwt beam="1">  1        2 0.18142651E+00 0.27469751E+03</pdfrwt>
<pdfrwt beam="2">  1       -2 0.24610589E-02 0.27469751E+03</pdfrwt>
<totfact> 0.11664477E+04</totfact>
</mgrwt>
</event>
<event>
 9    1  0.2117506E-002  0.2743246E+03  0.7818608E-02  0.1098830E+00
          1   -1    0    0  501    0  0.00000000000E+00  0.00000000000E+00  0.12252562254E+04  0.12252562254E+04  0.00000000000E+00 0.  1.
         -1   -1    0    0    0  501 -0.00000000000E+00 -0.00000000000E+00 -0.15354742416E+02  0.15354742416E+02  0.00000000000E+00 0.  1.
         36    2    1    2    0    0  0.71054273576E-14  0.00000000000E+00  0.12099014830E+04  0.12406109678E+04  0.27432457954E+03 0.  0.
         25    2    3    3    0    0  0.45952463349E+02 -0.16805445586E+02  0.57103062652E+03  0.58614183324E+03  0.12285039832E+03 0.  0.
         25    2    3    3    0    0 -0.45952463349E+02  0.16805445586E+02  0.63887085646E+03  0.65446913457E+03  0.13334101011E+03 0.  0.
          5    1    4    4  502    0  0.37692423555E+02  0.49391904669E+01  0.43032803559E+02  0.57610993553E+02  0.47000000000E+01 0.  1.
         -5    1    4    4    0  502  0.82600397937E+01 -0.21744636053E+02  0.52799782296E+03  0.52853083969E+03  0.47000000000E+01 0.  1.
          5    1    5    5  503    0 -0.86576265195E+02 -0.70689510440E+01  0.50574604892E+03  0.51317304661E+03  0.47000000000E+01 0.  1.
         -5    1    5    5    0  503  0.40623801846E+02  0.23874396630E+02  0.13312480754E+03  0.14129608796E+03  0.47000000000E+01 0.  1.
<mgrwt>
<rscale>  0 0.27432458E+03</rscale>
<asrwt>0</asrwt>
<pdfrwt beam="1">  1        1 0.18850088E+00 0.27432458E+03</pdfrwt>
<pdfrwt beam="2">  1       -1 0.23622690E-02 0.27432458E+03</pdfrwt>
<totfact> 0.59007898E+03</totfact>
</mgrwt>
</event>
<event>
 9    1  0.2117506E-002  0.2747591E+03  0.7818608E-02  0.1098586E+00
          2   -1    0    0  501    0  0.00000000000E+00  0.00000000000E+00  0.56630680317E+03  0.56630680317E+03  0.00000000000E+00 0. -1.
         -2   -1    0    0    0  501 -0.00000000000E+00 -0.00000000000E+00 -0.33326706706E+02  0.33326706706E+02  0.00000000000E+00 0. -1.
         36    2    1    2    0    0  0.35527136788E-14  0.53290705182E-14  0.53298009646E+03  0.59963350987E+03  0.27475909983E+03 0.  0.
         25    2    3    3    0    0  0.24883956320E+02 -0.32513168352E+01  0.38180304171E+03  0.40252324414E+03  0.12498646755E+03 0.  0.
         25    2    3    3    0    0 -0.24883956320E+02  0.32513168352E+01  0.15117705475E+03  0.19711026573E+03  0.12396843401E+03 0.  0.
          5    1    4    4  502    0 -0.20954831476E+02  0.15312223591E+02  0.32888466467E+03  0.32994057315E+03  0.47000000000E+01 0.  1.
         -5    1    4    4    0  502  0.45838787796E+02 -0.18563540426E+02  0.52918377037E+02  0.72582670990E+02  0.47000000000E+01 0.  1.
          5    1    5    5  503    0  0.31547390238E+02 -0.42316265715E+02  0.74883143684E+02  0.91735921987E+02  0.47000000000E+01 0. -1.
         -5    1    5    5    0  503 -0.56431346558E+02  0.45567582550E+02  0.76293911066E+02  0.10537434374E+03  0.47000000000E+01 0. -1.
<mgrwt>
<rscale>  0 0.27475910E+03</rscale>
<asrwt>0</asrwt>
<pdfrwt beam="1">  1        2 0.87124117E-01 0.27475910E+03</pdfrwt>
<pdfrwt beam="2">  1       -2 0.51271861E-02 0.27475910E+03</pdfrwt>
<totfact> 0.10118567E+04</totfact>
</mgrwt>
</event>
<event>
 9    1  0.2117506E-002  0.2748876E+03  0.7818608E-02  0.1098514E+00
         -2   -1    0    0    0  501 -0.00000000000E+00  0.00000000000E+00  0.12190227215E+03  0.12190227215E+03  0.00000000000E+00 0.  1.
          2   -1    0    0  501    0  0.00000000000E+00 -0.00000000000E+00 -0.15496672360E+03  0.15496672360E+03  0.00000000000E+00 0.  1.
         36    2    1    2    0    0 -0.35527136788E-14  0.71054273576E-14 -0.33064451451E+02  0.27686899575E+03  0.27488758222E+03 0.  0.
         25    2    3    3    0    0 -0.26927792464E+02 -0.15137276584E+02  0.46126179382E+02  0.13520336809E+03  0.12328050604E+03 0.  0.
         25    2    3    3    0    0  0.26927792464E+02  0.15137276584E+02 -0.79190630832E+02  0.14166562766E+03  0.11333027354E+03 0.  0.
          5    1    4    4  502    0  0.28757836369E+02  0.39127926895E+02  0.12515220912E+02  0.50365946533E+02  0.47000000000E+01 0.  1.
         -5    1    4    4    0  502 -0.55685628833E+02 -0.54265203479E+02  0.33610958470E+02  0.84837421557E+02  0.47000000000E+01 0.  1.
          5    1    5    5  503    0 -0.55274318118E+01  0.57406264922E+02 -0.18470326456E+02  0.60739400015E+02  0.47000000000E+01 0.  1.
         -5    1    5    5    0  503  0.32455224276E+02 -0.42268988338E+02 -0.60720304376E+02  0.80926227649E+02  0.47000000000E+01 0.  1.
<mgrwt>
<rscale>  0 0.27488758E+03</rscale>
<asrwt>0</asrwt>
<pdfrwt beam="1">  1        2 0.23841034E-01 0.27488758E+03</pdfrwt>
<pdfrwt beam="2">  1       -2 0.18754196E-01 0.27488758E+03</pdfrwt>
<totfact> 0.52916829E+03</totfact>
</mgrwt>
</event>
<event>
 9    1  0.2117506E-002  0.2786292E+03  0.7818608E-02  0.1096440E+00
         -2   -1    0    0    0  501 -0.00000000000E+00  0.00000000000E+00  0.65496527682E+02  0.65496527682E+02  0.00000000000E+00 0. -1.
          2   -1    0    0  501    0  0.00000000000E+00 -0.00000000000E+00 -0.29632960342E+03  0.29632960342E+03  0.00000000000E+00 0. -1.
         36    2    1    2    0    0  0.00000000000E+00  0.71054273576E-14 -0.23083307574E+03  0.36182613110E+03  0.27862921651E+03 0.  0.
         25    2    3    3    0    0  0.35802738391E+02  0.38158871730E+02 -0.60985929606E+02  0.14513635346E+03  0.12086083699E+03 0.  0.
         25    2    3    3    0    0 -0.35802738391E+02 -0.38158871730E+02 -0.16984714613E+03  0.21668977764E+03  0.12396963788E+03 0.  0.
          5    1    4    4  502    0 -0.19560089655E+02 -0.73680729500E+00 -0.73466272504E+02  0.76174294798E+02  0.47000000000E+01 0. -1.
         -5    1    4    4    0  502  0.55362828046E+02  0.38895679025E+02  0.12480342898E+02  0.68962058662E+02  0.47000000000E+01 0. -1.
          5    1    5    5  503    0  0.35034647706E+02 -0.50718233774E+02 -0.89021591142E+02  0.10838219165E+03  0.47000000000E+01 0.  1.
         -5    1    5    5    0  503 -0.70837386097E+02  0.12559362044E+02 -0.80825554988E+02  0.10830758599E+03  0.47000000000E+01 0.  1.
<mgrwt>
<rscale>  0 0.27862922E+03</rscale>
<asrwt>0</asrwt>
<pdfrwt beam="1">  1        2 0.45589169E-01 0.27862922E+03</pdfrwt>
<pdfrwt beam="2">  1       -2 0.10076389E-01 0.27862922E+03</pdfrwt>
<totfact> 0.72155024E+03</totfact>
</mgrwt>
</event>
<event>
 9    1  0.2117506E-002  0.2749849E+03  0.7818608E-02  0.1098460E+00
         -1   -1    0    0    0  501 -0.00000000000E+00  0.00000000000E+00  0.14022026344E+03  0.14022026344E+03  0.00000000000E+00 0.  1.
          1   -1    0    0  501    0  0.00000000000E+00 -0.00000000000E+00 -0.13481770780E+03  0.13481770780E+03  0.00000000000E+00 0.  1.
         36    2    1    2    0    0  0.00000000000E+00  0.00000000000E+00  0.54025556456E+01  0.27503797124E+03  0.27498490507E+03 0.  0.
         25    2    3    3    0    0 -0.30931160622E+02 -0.36761399294E+01  0.40148163222E+02  0.14123101601E+03  0.13177281272E+03 0.  0.
         25    2    3    3    0    0  0.30931160622E+02  0.36761399294E+01 -0.34745607577E+02  0.13380695523E+03  0.12540651227E+03 0.  0.
          5    1    4    4  502    0  0.12562832966E+02  0.56135241097E+02  0.16836240385E+01  0.57740061093E+02  0.47000000000E+01 0.  1.
         -5    1    4    4    0  502 -0.43493993588E+02 -0.59811381026E+02  0.38464539184E+02  0.83490954918E+02  0.47000000000E+01 0.  1.
          5    1    5    5  503    0 -0.38148225776E+02  0.16280950225E+02  0.18399405763E+02  0.45617810146E+02  0.47000000000E+01 0. -1.
         -5    1    5    5    0  503  0.69079386398E+02 -0.12604810296E+02 -0.53145013340E+02  0.88189145084E+02  0.47000000000E+01 0. -1.
<mgrwt>
<rscale>  0 0.27498491E+03</rscale>
<asrwt>0</asrwt>
<pdfrwt beam="1">  1        1 0.20741186E-01 0.27498491E+03</pdfrwt>
<pdfrwt beam="2">  1       -1 0.21572348E-01 0.27498491E+03</pdfrwt>
<totfact> 0.43085063E+03</totfact>
</mgrwt>
</event>
<event>
 9    1  0.2117506E-002  0.2753851E+03  0.7818608E-02  0.1098237E+00
         -1   -1    0    0    0  501 -0.00000000000E+00  0.00000000000E+00  0.48424170915E+02  0.48424170915E+02  0.00000000000E+00 0. -1.
          1   -1    0    0  501    0  0.00000000000E+00 -0.00000000000E+00 -0.39152430744E+03  0.39152430744E+03  0.00000000000E+00 0. -1.
         36    2    1    2    0    0 -0.71054273576E-14 -0.71054273576E-14 -0.34310013652E+03  0.43994847835E+03  0.27538511202E+03 0.  0.
         25    2    3    3    0    0 -0.31235422838E+02  0.96776584370E+01 -0.97853083190E+02  0.16122190079E+03  0.12388691090E+03 0.  0.
         25    2    3    3    0    0  0.31235422838E+02 -0.96776584370E+01 -0.24524705333E+03  0.27872657756E+03  0.12834749377E+03 0.  0.
          5    1    4    4  502    0  0.40469755373E+02  0.32874769287E+02 -0.34973335261E+02  0.62958523925E+02  0.47000000000E+01 0.  1.
         -5    1    4    4    0  502 -0.71705178210E+02 -0.23197110850E+02 -0.62879747929E+02  0.98263376868E+02  0.47000000000E+01 0.  1.
          5    1    5    5  503    0 -0.40039479640E+02  0.24039776348E+02 -0.52501979914E+02  0.70424560145E+02  0.47000000000E+01 0. -1.
         -5    1    5    5    0  503  0.71274902478E+02 -0.33717434785E+02 -0.19274507342E+03  0.20830201741E+03  0.47000000000E+01 0. -1.
<mgrwt>
<rscale>  0 0.27538511E+03</rscale>
<asrwt>0</asrwt>
<pdfrwt beam="1">  1        1 0.60234508E-01 0.27538511E+03</pdfrwt>
<pdfrwt beam="2">  1       -1 0.74498726E-02 0.27538511E+03</pdfrwt>
<totfact> 0.59489802E+03</totfact>
</mgrwt>
</event>
<event>
 9    1  0.2117506E-002  0.2743799E+03  0.7818608E-02  0.1098799E+00
         -4   -1    0    0    0  501 -0.00000000000E+00  0.00000000000E+00  0.52987479806E+02  0.52987479806E+02  0.00000000000E+00 0. -1.
          4   -1    0    0  501    0  0.00000000000E+00 -0.00000000000E+00 -0.35519873653E+03  0.35519873653E+03  0.00000000000E+00 0. -1.
         36    2    1    2    0    0  0.00000000000E+00 -0.35527136788E-14 -0.30221125673E+03  0.40818621634E+03  0.27437992550E+03 0.  0.
         25    2    3    3    0    0  0.23427973417E+02  0.74411550242E+01 -0.79275715917E+02  0.15125897905E+03  0.12645314896E+03 0.  0.
         25    2    3    3    0    0 -0.23427973417E+02 -0.74411550242E+01 -0.22293554081E+03  0.25692723729E+03  0.12532800636E+03 0.  0.
          5    1    4    4  502    0 -0.88900480115E+01 -0.55963144980E+02 -0.27728450089E+02  0.63260283702E+02  0.47000000000E+01 0. -1.
         -5    1    4    4    0  502  0.32318021428E+02  0.63404300005E+02 -0.51547265828E+02  0.87998695345E+02  0.47000000000E+01 0. -1.
          5    1    5    5  503    0 -0.33205943327E+02 -0.37923215961E+02 -0.21847780607E+03  0.22426646367E+03  0.47000000000E+01 0.  1.
         -5    1    5    5    0  503  0.97779699103E+01  0.30482060937E+02 -0.44577347386E+01  0.32660773621E+02  0.47000000000E+01 0.  1.
<mgrwt>
<rscale>  0 0.27437993E+03</rscale>
<asrwt>0</asrwt>
<pdfrwt beam="1">  1        4 0.54645957E-01 0.27437993E+03</pdfrwt>
<pdfrwt beam="2">  1       -4 0.81519203E-02 0.27437993E+03</pdfrwt>
<totfact> 0.64722395E+02</totfact>
</mgrwt>
</event>
<event>
 9    1  0.2117506E-002  0.2794102E+03  0.7818608E-02  0.1096012E+00
         -2   -1    0    0    0  501 -0.00000000000E+00  0.00000000000E+00  0.21163701930E+03  0.21163701930E+03  0.00000000000E+00 0.  1.
          2   -1    0    0  501    0  0.00000000000E+00 -0.00000000000E+00 -0.92221623387E+02  0.92221623387E+02  0.00000000000E+00 0.  1.
         36    2    1    2    0    0  0.00000000000E+00 -0.44408920985E-15  0.11941539591E+03  0.30385864269E+03  0.27941016079E+03 0.  0.
         25    2    3    3    0    0 -0.38699099969E+02 -0.27045874796E+00  0.11235338566E+03  0.17416319113E+03  0.12732572556E+03 0.  0.
         25    2    3    3    0    0  0.38699099969E+02  0.27045874796E+00  0.70620102543E+01  0.12969545156E+03  0.12358537406E+03 0.  0.
          5    1    4    4  502    0 -0.29467783921E+02 -0.43564582659E+02 -0.54289835239E+00  0.52807271186E+02  0.47000000000E+01 0. -1.
         -5    1    4    4    0  502 -0.92313160481E+01  0.43294123911E+02  0.11289628401E+03  0.12135591994E+03  0.47000000000E+01 0. -1.
          5    1    5    5  503    0 -0.17834305366E+02  0.17034526983E+01  0.53344284680E+02  0.56468282310E+02  0.47000000000E+01 0.  1.
         -5    1    5    5    0  503  0.56533405335E+02 -0.14329939504E+01 -0.46282274426E+02  0.73227169251E+02  0.47000000000E+01 0.  1.
<mgrwt>
<rscale>  0 0.27941016E+03</rscale>
<asrwt>0</asrwt>
<pdfrwt beam="1">  1        2 0.14187942E-01 0.27941016E+03</pdfrwt>
<pdfrwt beam="2">  1       -2 0.32559541E-01 0.27941016E+03</pdfrwt>
<totfact> 0.36477141E+03</totfact>
</mgrwt>
</event>
<event>
 9    1  0.2117506E-002  0.2748455E+03  0.7818608E-02  0.1098538E+00
          1   -1    0    0  501    0  0.00000000000E+00  0.00000000000E+00  0.19946994802E+04  0.19946994802E+04  0.00000000000E+00 0. -1.
         -1   -1    0    0    0  501 -0.00000000000E+00 -0.00000000000E+00 -0.94675985593E+01  0.94675985593E+01  0.00000000000E+00 0. -1.
         36    2    1    2    0    0 -0.14210854715E-13  0.35527136788E-14  0.19852318816E+04  0.20041670787E+04  0.27484551242E+03 0.  0.
         25    2    3    3    0    0  0.52719043996E+02 -0.16748208695E+02  0.10417456579E+04  0.10507237694E+04  0.12540583662E+03 0.  0.
         25    2    3    3    0    0 -0.52719043996E+02  0.16748208695E+02  0.94348622375E+03  0.95344330931E+03  0.12580973558E+03 0.  0.
          5    1    4    4  502    0  0.35680797619E+02 -0.34946202354E+02  0.10039575747E+04  0.10052100568E+04  0.47000000000E+01 0.  1.
         -5    1    4    4    0  502  0.17038246377E+02  0.18197993660E+02  0.37788083163E+02  0.45513712680E+02  0.47000000000E+01 0.  1.
          5    1    5    5  503    0 -0.40490939870E+02  0.25659972253E+02  0.93344157705E+03  0.93468348555E+03  0.47000000000E+01 0.  1.
         -5    1    5    5    0  503 -0.12228104126E+02 -0.89117635587E+01  0.10044646698E+02  0.18759823761E+02  0.47000000000E+01 0.  1.
<mgrwt>
<rscale>  0 0.27484551E+03</rscale>
<asrwt>0</asrwt>
<pdfrwt beam="1">  1        1 0.30687651E+00 0.27484551E+03</pdfrwt>
<pdfrwt beam="2">  1       -1 0.14565552E-02 0.27484551E+03</pdfrwt>
<totfact> 0.37045700E+03</totfact>
</mgrwt>
</event>
<event>
 9    1  0.2117506E-002  0.2777606E+03  0.7818608E-02  0.1096918E+00
         -1   -1    0    0    0  501 -0.00000000000E+00  0.00000000000E+00  0.18487918943E+02  0.18487918943E+02  0.00000000000E+00 0.  1.
          1   -1    0    0  501    0  0.00000000000E+00 -0.00000000000E+00 -0.10432615882E+04  0.10432615882E+04  0.00000000000E+00 0.  1.
         36    2    1    2    0    0  0.71054273576E-14  0.00000000000E+00 -0.10247736692E+04  0.10617495071E+04  0.27776058524E+03 0.  0.
         25    2    3    3    0    0  0.55161438883E+02 -0.13510814308E+02 -0.51134927358E+03  0.53030733197E+03  0.12853972270E+03 0.  0.
         25    2    3    3    0    0 -0.55161438883E+02  0.13510814308E+02 -0.51342439564E+03  0.53144217513E+03  0.12490335875E+03 0.  0.
          5    1    4    4  502    0  0.38576115603E+02 -0.54245513893E+02 -0.44859676198E+03  0.45353261992E+03  0.47000000000E+01 0.  1.
         -5    1    4    4    0  502  0.16585323280E+02  0.40734699585E+02 -0.62752511592E+02  0.76774712045E+02  0.47000000000E+01 0.  1.
          5    1    5    5  503    0  0.63766393035E+01  0.36372209390E+02 -0.44929030119E+02  0.58346438555E+02  0.47000000000E+01 0.  1.
         -5    1    5    5    0  503 -0.61538078186E+02 -0.22861395082E+02 -0.46849536552E+03  0.47309573657E+03  0.47000000000E+01 0.  1.
<mgrwt>
<rscale>  0 0.27776059E+03</rscale>
<asrwt>0</asrwt>
<pdfrwt beam="1">  1        1 0.16050177E+00 0.27776059E+03</pdfrwt>
<pdfrwt beam="2">  1       -1 0.28442955E-02 0.27776059E+03</pdfrwt>
<totfact> 0.60581050E+03</totfact>
</mgrwt>
</event>
<event>
 9    1  0.2117506E-002  0.2747609E+03  0.7818608E-02  0.1098585E+00
          4   -1    0    0  501    0  0.00000000000E+00  0.00000000000E+00  0.37810808800E+02  0.37810808800E+02  0.00000000000E+00 0. -1.
         -4   -1    0    0    0  501 -0.00000000000E+00 -0.00000000000E+00 -0.49915317939E+03  0.49915317939E+03  0.00000000000E+00 0. -1.
         36    2    1    2    0    0  0.00000000000E+00  0.00000000000E+00 -0.46134237059E+03  0.53696398819E+03  0.27476088097E+03 0.  0.
         25    2    3    3    0    0 -0.18906950435E+02 -0.41133815436E+02 -0.22317265481E+03  0.26250349159E+03  0.13058554934E+03 0.  0.
         25    2    3    3    0    0  0.18906950435E+02  0.41133815436E+02 -0.23816971577E+03  0.27446049659E+03  0.12866346463E+03 0.  0.
          5    1    4    4  502    0  0.28730551712E+02  0.96465085732E+01 -0.17509253294E+03  0.17775822012E+03  0.47000000000E+01 0.  1.
         -5    1    4    4    0  502 -0.47637502148E+02 -0.50780324009E+02 -0.48080121870E+02  0.84745271469E+02  0.47000000000E+01 0.  1.
          5    1    5    5  503    0 -0.25010235308E+02 -0.35376811503E+02 -0.11420592732E+03  0.12223794213E+03  0.47000000000E+01 0.  1.
         -5    1    5    5    0  503  0.43917185744E+02  0.76510626939E+02 -0.12396378846E+03  0.15222255446E+03  0.47000000000E+01 0.  1.
<mgrwt>
<rscale>  0 0.27476088E+03</rscale>
<asrwt>0</asrwt>
<pdfrwt beam="1">  1        4 0.58170477E-02 0.27476088E+03</pdfrwt>
<pdfrwt beam="2">  1       -4 0.76792795E-01 0.27476088E+03</pdfrwt>
<totfact> 0.54414565E+02</totfact>
</mgrwt>
</event>
<event>
 9    1  0.2117506E-002  0.2751555E+03  0.7818608E-02  0.1098365E+00
         -1   -1    0    0    0  501 -0.00000000000E+00  0.00000000000E+00  0.18417490263E+02  0.18417490263E+02  0.00000000000E+00 0.  1.
          1   -1    0    0  501    0  0.00000000000E+00 -0.00000000000E+00 -0.10276989019E+04  0.10276989019E+04  0.00000000000E+00 0.  1.
         36    2    1    2    0    0  0.35527136788E-14 -0.71054273576E-14 -0.10092814116E+04  0.10461163921E+04  0.27515547982E+03 0.  0.
         25    2    3    3    0    0  0.42008016776E+01  0.45287589644E+02 -0.68219884717E+03  0.69394947708E+03  0.11875183008E+03 0.  0.
         25    2    3    3    0    0 -0.42008016776E+01 -0.45287589644E+02 -0.32708256443E+03  0.35216691505E+03  0.12235162275E+03 0.  0.
          5    1    4    4  502    0  0.27122598125E+02 -0.92961111023E+01 -0.52662571497E+03  0.52742656994E+03  0.47000000000E+01 0.  1.
         -5    1    4    4    0  502 -0.22921796448E+02  0.54583700747E+02 -0.15557313221E+03  0.16652290714E+03  0.47000000000E+01 0.  1.
          5    1    5    5  503    0  0.35715936218E+02  0.21727322026E+02 -0.55971151608E+02  0.70018314995E+02  0.47000000000E+01 0.  1.
         -5    1    5    5    0  503 -0.39916737895E+02 -0.67014911670E+02 -0.27111141282E+03  0.28214860006E+03  0.47000000000E+01 0.  1.
<mgrwt>
<rscale>  0 0.27515548E+03</rscale>
<asrwt>0</asrwt>
<pdfrwt beam="1">  1        1 0.15810751E+00 0.27515548E+03</pdfrwt>
<pdfrwt beam="2">  1       -1 0.28334603E-02 0.27515548E+03</pdfrwt>
<totfact> 0.62543838E+03</totfact>
</mgrwt>
</event>
<event>
 9    1  0.2117506E-002  0.2761937E+03  0.7818608E-02  0.1097786E+00
         -1   -1    0    0    0  501 -0.00000000000E+00  0.00000000000E+00  0.14996450469E+02  0.14996450469E+02  0.00000000000E+00 0. -1.
          1   -1    0    0  501    0  0.00000000000E+00 -0.00000000000E+00 -0.12716837469E+04  0.12716837469E+04  0.00000000000E+00 0. -1.
         36    2    1    2    0    0  0.00000000000E+00 -0.66613381478E-15 -0.12566872964E+04  0.12866801973E+04  0.27619371696E+03 0.  0.
         25    2    3    3    0    0  0.34714675947E+02  0.10799105392E+01 -0.72340480495E+03  0.73390135077E+03  0.11870301560E+03 0.  0.
         25    2    3    3    0    0 -0.34714675947E+02 -0.10799105392E+01 -0.53328249144E+03  0.55277884655E+03  0.14130804148E+03 0.  0.
          5    1    4    4  502    0 -0.90572499249E+01 -0.51001233042E+02 -0.40131172152E+03  0.40466819418E+03  0.47000000000E+01 0. -1.
         -5    1    4    4    0  502  0.43771925872E+02  0.52081143581E+02 -0.32209308342E+03  0.32923315659E+03  0.47000000000E+01 0. -1.
          5    1    5    5  503    0  0.36572139674E+02  0.34782814168E+00 -0.39871303229E+03  0.40041455331E+03  0.47000000000E+01 0.  1.
         -5    1    5    5    0  503 -0.71286815621E+02 -0.14277386809E+01 -0.13456945915E+03  0.15236429324E+03  0.47000000000E+01 0.  1.
<mgrwt>
<rscale>  0 0.27619372E+03</rscale>
<asrwt>0</asrwt>
<pdfrwt beam="1">  1        1 0.19564366E+00 0.27619372E+03</pdfrwt>
<pdfrwt beam="2">  1       -1 0.23071461E-02 0.27619372E+03</pdfrwt>
<totfact> 0.56740348E+03</totfact>
</mgrwt>
</event>
<event>
 9    1  0.2117506E-002  0.2747118E+03  0.7818608E-02  0.1098613E+00
          2   -1    0    0  501    0  0.00000000000E+00  0.00000000000E+00  0.11989738263E+04  0.11989738263E+04  0.00000000000E+00 0. -1.
         -2   -1    0    0    0  501 -0.00000000000E+00 -0.00000000000E+00 -0.15735662919E+02  0.15735662919E+02  0.00000000000E+00 0. -1.
         36    2    1    2    0    0  0.00000000000E+00  0.71054273576E-14  0.11832381634E+04  0.12147094892E+04  0.27471183432E+03 0.  0.
         25    2    3    3    0    0 -0.23653715676E+02  0.28269532382E+02  0.73680033382E+03  0.74817118266E+03  0.12460626755E+03 0.  0.
         25    2    3    3    0    0  0.23653715676E+02 -0.28269532382E+02  0.44643782953E+03  0.46653830653E+03  0.13035563317E+03 0.  0.
          5    1    4    4  502    0 -0.35098918050E+00  0.34227845910E+02  0.49120669707E+02  0.60054965003E+02  0.47000000000E+01 0. -1.
         -5    1    4    4    0  502 -0.23302726495E+02 -0.59583135276E+01  0.68767966412E+03  0.68811621766E+03  0.47000000000E+01 0. -1.
          5    1    5    5  503    0  0.72515986906E+01  0.41978727776E+02  0.62056283473E+02  0.75417979208E+02  0.47000000000E+01 0. -1.
         -5    1    5    5    0  503  0.16402116985E+02 -0.70248260158E+02  0.38438154606E+03  0.39112032733E+03  0.47000000000E+01 0. -1.
<mgrwt>
<rscale>  0 0.27471183E+03</rscale>
<asrwt>0</asrwt>
<pdfrwt beam="1">  1        2 0.18445744E+00 0.27471183E+03</pdfrwt>
<pdfrwt beam="2">  1       -2 0.24208722E-02 0.27471183E+03</pdfrwt>
<totfact> 0.11646862E+04</totfact>
</mgrwt>
</event>
<event>
 9    1  0.2117506E-002  0.2738283E+03  0.7818608E-02  0.1099108E+00
          2   -1    0    0  501    0  0.00000000000E+00  0.00000000000E+00  0.94438178188E+03  0.94438178188E+03  0.00000000000E+00 0.  1.
         -2   -1    0    0    0  501 -0.00000000000E+00 -0.00000000000E+00 -0.19849482266E+02  0.19849482266E+02  0.00000000000E+00 0.  1.
         36    2    1    2    0    0  0.71054273576E-14  0.00000000000E+00  0.92453229962E+03  0.96423126415E+03  0.27382833624E+03 0.  0.
         25    2    3    3    0    0  0.46726546273E+02  0.96997152199E+01  0.34477745303E+03  0.36938643836E+03  0.12368263468E+03 0.  0.
         25    2    3    3    0    0 -0.46726546273E+02 -0.96997152199E+01  0.57975484658E+03  0.59484482579E+03  0.12428688600E+03 0.  0.
          5    1    4    4  502    0 -0.28255633780E+02  0.11807684022E+02  0.22062096681E+02  0.38034567859E+02  0.47000000000E+01 0. -1.
         -5    1    4    4    0  502  0.74982180052E+02 -0.21079688023E+01  0.32271535635E+03  0.33135187050E+03  0.47000000000E+01 0. -1.
          5    1    5    5  503    0  0.42379238380E+02  0.22747899728E+01  0.16547516431E+03  0.17089556612E+03  0.47000000000E+01 0.  1.
         -5    1    5    5    0  503 -0.89105784653E+02 -0.11974505193E+02  0.41427968227E+03  0.42394925967E+03  0.47000000000E+01 0.  1.
<mgrwt>
<rscale>  0 0.27382834E+03</rscale>
<asrwt>0</asrwt>
<pdfrwt beam="1">  1        2 0.14528947E+00 0.27382834E+03</pdfrwt>
<pdfrwt beam="2">  1       -2 0.30537672E-02 0.27382834E+03</pdfrwt>
<totfact> 0.11698981E+04</totfact>
</mgrwt>
</event>
<event>
 9    1  0.2117506E-002  0.2750493E+03  0.7818608E-02  0.1098424E+00
         -2   -1    0    0    0  501 -0.00000000000E+00  0.00000000000E+00  0.30000602489E+02  0.30000602489E+02  0.00000000000E+00 0.  1.
          2   -1    0    0  501    0  0.00000000000E+00 -0.00000000000E+00 -0.63042174190E+03  0.63042174190E+03  0.00000000000E+00 0.  1.
         36    2    1    2    0    0  0.00000000000E+00  0.14210854715E-13 -0.60042113941E+03  0.66042234438E+03  0.27504931979E+03 0.  0.
         25    2    3    3    0    0  0.36286099712E+02  0.40059664037E+02 -0.35579092989E+03  0.38127648927E+03  0.12594886963E+03 0.  0.
         25    2    3    3    0    0 -0.36286099712E+02 -0.40059664037E+02 -0.24463020952E+03  0.27914585512E+03  0.12311381444E+03 0.  0.
          5    1    4    4  502    0  0.42167140915E+02  0.74295145271E+02 -0.31975740332E+03  0.33100562436E+03  0.47000000000E+01 0. -1.
         -5    1    4    4    0  502 -0.58810412030E+01 -0.34235481233E+02 -0.36033526573E+02  0.50270864904E+02  0.47000000000E+01 0. -1.
          5    1    5    5  503    0 -0.44347317133E+02 -0.60768279635E+02 -0.24509860657E+03  0.25642715397E+03  0.47000000000E+01 0. -1.
         -5    1    5    5    0  503  0.80612174218E+01  0.20708615598E+02  0.46839705613E+00  0.22718701153E+02  0.47000000000E+01 0. -1.
<mgrwt>
<rscale>  0 0.27504932E+03</rscale>
<asrwt>0</asrwt>
<pdfrwt beam="1">  1        2 0.96987956E-01 0.27504932E+03</pdfrwt>
<pdfrwt beam="2">  1       -2 0.46154775E-02 0.27504932E+03</pdfrwt>
<totfact> 0.10480349E+04</totfact>
</mgrwt>
</event>
<event>
 9    1  0.2117506E-002  0.2766568E+03  0.7818608E-02  0.1097529E+00
         -2   -1    0    0    0  501 -0.00000000000E+00  0.00000000000E+00  0.14504313562E+02  0.14504313562E+02  0.00000000000E+00 0. -1.
          2   -1    0    0  501    0  0.00000000000E+00 -0.00000000000E+00 -0.13192452608E+04  0.13192452608E+04  0.00000000000E+00 0. -1.
         36    2    1    2    0    0  0.00000000000E+00  0.00000000000E+00 -0.13047409472E+04  0.13337495743E+04  0.27665680492E+03 0.  0.
         25    2    3    3    0    0  0.25895599751E+02 -0.44932587132E+02 -0.56175351632E+03  0.57823494576E+03  0.12688230738E+03 0.  0.
         25    2    3    3    0    0 -0.25895599751E+02  0.44932587132E+02 -0.74298743091E+03  0.75551462859E+03  0.12681684453E+03 0.  0.
          5    1    4    4  502    0 -0.79016302921E+01 -0.53386444752E+02 -0.89099345187E+02  0.10427526820E+03  0.47000000000E+01 0.  1.
         -5    1    4    4    0  502  0.33797230043E+02  0.84538576202E+01 -0.47265417113E+03  0.47395967756E+03  0.47000000000E+01 0.  1.
          5    1    5    5  503    0 -0.13122446721E+02  0.51863926478E+02 -0.11066457746E+03  0.12300733385E+03  0.47000000000E+01 0.  1.
         -5    1    5    5    0  503 -0.12773153030E+02 -0.69313393457E+01 -0.63232285345E+03  0.63250729474E+03  0.47000000000E+01 0.  1.
<mgrwt>
<rscale>  0 0.27665680E+03</rscale>
<asrwt>0</asrwt>
<pdfrwt beam="1">  1        2 0.20296085E+00 0.27665680E+03</pdfrwt>
<pdfrwt beam="2">  1       -2 0.22314324E-02 0.27665680E+03</pdfrwt>
<totfact> 0.11252861E+04</totfact>
</mgrwt>
</event>
<event>
 9    1  0.2117506E-002  0.2752347E+03  0.7818608E-02  0.1098321E+00
          2   -1    0    0  501    0  0.00000000000E+00  0.00000000000E+00  0.11875468452E+04  0.11875468452E+04  0.00000000000E+00 0.  1.
         -2   -1    0    0    0  501 -0.00000000000E+00 -0.00000000000E+00 -0.15947605491E+02  0.15947605491E+02  0.00000000000E+00 0.  1.
         36    2    1    2    0    0 -0.39968028887E-14 -0.35527136788E-14  0.11715992397E+04  0.12034944507E+04  0.27523465326E+03 0.  0.
         25    2    3    3    0    0  0.36170722539E+01 -0.63708926566E+01  0.79922668249E+03  0.80922782805E+03  0.12662036256E+03 0.  0.
         25    2    3    3    0    0 -0.36170722539E+01  0.63708926566E+01  0.37237255721E+03  0.39426662262E+03  0.12934905050E+03 0.  0.
          5    1    4    4  502    0  0.17625809417E+00  0.21083820076E+02  0.19822815567E+02  0.29318808859E+02  0.47000000000E+01 0. -1.
         -5    1    4    4    0  502  0.34408141598E+01 -0.27454712733E+02  0.77940386692E+03  0.77990901920E+03  0.47000000000E+01 0. -1.
          5    1    5    5  503    0  0.28517908566E+02  0.35518814556E+02  0.33093565354E+03  0.33408884160E+03  0.47000000000E+01 0. -1.
         -5    1    5    5    0  503 -0.32134980820E+02 -0.29147921899E+02  0.41436903669E+02  0.60177781024E+02  0.47000000000E+01 0. -1.
<mgrwt>
<rscale>  0 0.27523465E+03</rscale>
<asrwt>0</asrwt>
<pdfrwt beam="1">  1        2 0.18269945E+00 0.27523465E+03</pdfrwt>
<pdfrwt beam="2">  1       -2 0.24534787E-02 0.27523465E+03</pdfrwt>
<totfact> 0.11591658E+04</totfact>
</mgrwt>
</event>
<event>
 9    1  0.2117506E-002  0.2746599E+03  0.7818608E-02  0.1098642E+00
          2   -1    0    0  501    0  0.00000000000E+00  0.00000000000E+00  0.25909295626E+03  0.25909295626E+03  0.00000000000E+00 0. -1.
         -2   -1    0    0    0  501 -0.00000000000E+00 -0.00000000000E+00 -0.72790558996E+02  0.72790558996E+02  0.00000000000E+00 0. -1.
         36    2    1    2    0    0  0.35527136788E-14  0.00000000000E+00  0.18630239727E+03  0.33188351526E+03  0.27465994334E+03 0.  0.
         25    2    3    3    0    0  0.24611889476E+02 -0.34282446050E+02  0.96997025117E+02  0.16571858306E+03  0.12756643241E+03 0.  0.
         25    2    3    3    0    0 -0.24611889476E+02  0.34282446050E+02  0.89305372151E+02  0.16616493221E+03  0.13361999846E+03 0.  0.
          5    1    4    4  502    0  0.30387146499E+02 -0.25304106782E+02 -0.22442869038E+02  0.45710489639E+02  0.47000000000E+01 0.  1.
         -5    1    4    4    0  502 -0.57752570233E+01 -0.89783392679E+01  0.11943989415E+03  0.12000809342E+03  0.47000000000E+01 0.  1.
          5    1    5    5  503    0  0.38559009301E+01  0.58276760884E+02  0.10902532280E+03  0.12377261346E+03  0.47000000000E+01 0.  1.
         -5    1    5    5    0  503 -0.28467790406E+02 -0.23994314834E+02 -0.19719950650E+02  0.42392318745E+02  0.47000000000E+01 0.  1.
<mgrwt>
<rscale>  0 0.27465994E+03</rscale>
<asrwt>0</asrwt>
<pdfrwt beam="1">  1        2 0.39860454E-01 0.27465994E+03</pdfrwt>
<pdfrwt beam="2">  1       -2 0.11198548E-01 0.27465994E+03</pdfrwt>
<totfact> 0.70394442E+03</totfact>
</mgrwt>
</event>
<event>
 9    1  0.2117506E-002  0.2745445E+03  0.7818608E-02  0.1098706E+00
          2   -1    0    0  501    0  0.00000000000E+00  0.00000000000E+00  0.58906128846E+03  0.58906128846E+03  0.00000000000E+00 0.  1.
         -2   -1    0    0    0  501 -0.00000000000E+00 -0.00000000000E+00 -0.31989323822E+02  0.31989323822E+02  0.00000000000E+00 0.  1.
         36    2    1    2    0    0  0.35527136788E-14  0.00000000000E+00  0.55707196464E+03  0.62105061228E+03  0.27454451229E+03 0.  0.
         25    2    3    3    0    0  0.29106283206E+02  0.18054232386E+02  0.38397454474E+03  0.40447260480E+03  0.12242755406E+03 0.  0.
         25    2    3    3    0    0 -0.29106283206E+02 -0.18054232386E+02  0.17309741990E+03  0.21657800748E+03  0.12557939927E+03 0.  0.
          5    1    4    4  502    0  0.41440152931E+02 -0.33429312162E+02  0.30256427013E+03  0.30724913791E+03  0.47000000000E+01 0. -1.
         -5    1    4    4    0  502 -0.12333869725E+02  0.51483544548E+02  0.81410274610E+02  0.97223466888E+02  0.47000000000E+01 0. -1.
          5    1    5    5  503    0 -0.77849394345E+02 -0.21946050812E+02  0.10972081190E+03  0.13639246281E+03  0.47000000000E+01 0. -1.
         -5    1    5    5    0  503  0.48743111139E+02  0.38918184261E+01  0.63376607997E+02  0.80185544678E+02  0.47000000000E+01 0. -1.
<mgrwt>
<rscale>  0 0.27454451E+03</rscale>
<asrwt>0</asrwt>
<pdfrwt beam="1">  1        2 0.90624805E-01 0.27454451E+03</pdfrwt>
<pdfrwt beam="2">  1       -2 0.49214349E-02 0.27454451E+03</pdfrwt>
<totfact> 0.10290845E+04</totfact>
</mgrwt>
</event>
<event>
 9    1  0.2117506E-002  0.2768976E+03  0.7818608E-02  0.1097396E+00
          1   -1    0    0  501    0  0.00000000000E+00  0.00000000000E+00  0.15197763171E+04  0.15197763171E+04  0.00000000000E+00 0.  1.
         -1   -1    0    0    0  501 -0.00000000000E+00 -0.00000000000E+00 -0.12612427527E+02  0.12612427527E+02  0.00000000000E+00 0.  1.
         36    2    1    2    0    0  0.35527136788E-14  0.00000000000E+00  0.15071638896E+04  0.15323887446E+04  0.27689758870E+03 0.  0.
         25    2    3    3    0    0 -0.37061228055E+01  0.44175469921E+02  0.43718530419E+03  0.45445501264E+03  0.11590151346E+03 0.  0.
         25    2    3    3    0    0  0.37061228055E+01 -0.44175469921E+02  0.10699785854E+04  0.10779337320E+04  0.12297052450E+03 0.  0.
          5    1    4    4  502    0  0.47096596711E+02  0.77861575291E+01  0.29769144729E+03  0.30153109535E+03  0.47000000000E+01 0.  1.
         -5    1    4    4    0  502 -0.50802719517E+02  0.36389312391E+02  0.13949385690E+03  0.15292391729E+03  0.47000000000E+01 0.  1.
          5    1    5    5  503    0 -0.22585375823E+02 -0.28201932225E+02  0.10072591189E+04  0.10079178889E+04  0.47000000000E+01 0.  1.
         -5    1    5    5    0  503  0.26291498628E+02 -0.15973537696E+02  0.62719466523E+02  0.70015843118E+02  0.47000000000E+01 0.  1.
<mgrwt>
<rscale>  0 0.27689759E+03</rscale>
<asrwt>0</asrwt>
<pdfrwt beam="1">  1        1 0.23381160E+00 0.27689759E+03</pdfrwt>
<pdfrwt beam="2">  1       -1 0.19403747E-02 0.27689759E+03</pdfrwt>
<totfact> 0.49772977E+03</totfact>
</mgrwt>
</event>
<event>
 9    1  0.2117506E-002  0.2791433E+03  0.7818608E-02  0.1096158E+00
          2   -1    0    0  501    0  0.00000000000E+00  0.00000000000E+00  0.46941397049E+03  0.46941397049E+03  0.00000000000E+00 0.  1.
         -2   -1    0    0    0  501 -0.00000000000E+00 -0.00000000000E+00 -0.41499063367E+02  0.41499063367E+02  0.00000000000E+00 0.  1.
         36    2    1    2    0    0 -0.53290705182E-14  0.00000000000E+00  0.42791490712E+03  0.51091303386E+03  0.27914326148E+03 0.  0.
         25    2    3    3    0    0  0.13399564624E+02  0.41190956225E+02  0.13194496543E+03  0.18735909222E+03  0.12576848702E+03 0.  0.
         25    2    3    3    0    0 -0.13399564624E+02 -0.41190956225E+02  0.29596994169E+03  0.32355394164E+03  0.12333978903E+03 0.  0.
          5    1    4    4  502    0  0.45573993642E+02  0.43995501161E+02  0.14082560237E+02  0.65061521053E+02  0.47000000000E+01 0. -1.
         -5    1    4    4    0  502 -0.32174429017E+02 -0.28045449368E+01  0.11786240519E+03  0.12229757116E+03  0.47000000000E+01 0. -1.
          5    1    5    5  503    0 -0.70235216145E+01 -0.20986359201E+02 -0.38502757927E+01  0.22949330101E+02  0.47000000000E+01 0.  1.
         -5    1    5    5    0  503 -0.63760430099E+01 -0.20204597023E+02  0.29982021749E+03  0.30060461154E+03  0.47000000000E+01 0.  1.
<mgrwt>
<rscale>  0 0.27914326E+03</rscale>
<asrwt>0</asrwt>
<pdfrwt beam="1">  1        2 0.72217530E-01 0.27914326E+03</pdfrwt>
<pdfrwt beam="2">  1       -2 0.63844716E-02 0.27914326E+03</pdfrwt>
<totfact> 0.89399763E+03</totfact>
</mgrwt>
</event>
<event>
 9    1  0.2117506E-002  0.2745809E+03  0.7818608E-02  0.1098686E+00
          2   -1    0    0  501    0  0.00000000000E+00  0.00000000000E+00  0.23916324147E+02  0.23916324147E+02  0.00000000000E+00 0. -1.
         -2   -1    0    0    0  501 -0.00000000000E+00 -0.00000000000E+00 -0.78810872902E+03  0.78810872902E+03  0.00000000000E+00 0. -1.
         36    2    1    2    0    0  0.00000000000E+00  0.00000000000E+00 -0.76419240487E+03  0.81202505316E+03  0.27458087207E+03 0.  0.
         25    2    3    3    0    0  0.44086264507E+02  0.10338261984E+02 -0.24827280731E+03  0.27940382446E+03  0.11990259336E+03 0.  0.
         25    2    3    3    0    0 -0.44086264507E+02 -0.10338261984E+02 -0.51591959756E+03  0.53262122870E+03  0.12434574275E+03 0.  0.
          5    1    4    4  502    0 -0.17737548328E+02  0.29145596016E+02 -0.15475041606E+02  0.37757824361E+02  0.47000000000E+01 0.  1.
         -5    1    4    4    0  502  0.61823812835E+02 -0.18807334032E+02 -0.23279776571E+03  0.24164600010E+03  0.47000000000E+01 0.  1.
          5    1    5    5  503    0 -0.85591078592E+02 -0.20902802147E+02 -0.31431118608E+03  0.32646036753E+03  0.47000000000E+01 0. -1.
         -5    1    5    5    0  503  0.41504814085E+02  0.10564540163E+02 -0.20160841148E+03  0.20616086117E+03  0.47000000000E+01 0. -1.
<mgrwt>
<rscale>  0 0.27458087E+03</rscale>
<asrwt>0</asrwt>
<pdfrwt beam="1">  1        2 0.36794355E-02 0.27458087E+03</pdfrwt>
<pdfrwt beam="2">  1       -2 0.12124746E+00 0.27458087E+03</pdfrwt>
<totfact> 0.12845766E+03</totfact>
</mgrwt>
</event>
<event>
 9    1  0.2117506E-002  0.2729384E+03  0.7818608E-02  0.1099610E+00
          1   -1    0    0  501    0  0.00000000000E+00  0.00000000000E+00  0.48913180726E+03  0.48913180726E+03  0.00000000000E+00 0.  1.
         -1   -1    0    0    0  501 -0.00000000000E+00 -0.00000000000E+00 -0.38075315495E+02  0.38075315495E+02  0.00000000000E+00 0.  1.
         36    2    1    2    0    0  0.71054273576E-14  0.00000000000E+00  0.45105649177E+03  0.52720712276E+03  0.27293843907E+03 0.  0.
         25    2    3    3    0    0 -0.40848176721E+02  0.29895862034E+02  0.28617309245E+03  0.31583786949E+03  0.12367774599E+03 0.  0.
         25    2    3    3    0    0  0.40848176721E+02 -0.29895862034E+02  0.16488339932E+03  0.21136925327E+03  0.12218056207E+03 0.  0.
          5    1    4    4  502    0 -0.69322088465E+02  0.52892684510E+02  0.24718404533E+03  0.26215497380E+03  0.47000000000E+01 0.  1.
         -5    1    4    4    0  502  0.28473911744E+02 -0.22996822476E+02  0.38989047124E+02  0.53682895690E+02  0.47000000000E+01 0.  1.
          5    1    5    5  503    0  0.14107401997E+02 -0.71608438132E+02  0.13438554077E+03  0.15299787832E+03  0.47000000000E+01 0.  1.
         -5    1    5    5    0  503  0.26740774724E+02  0.41712576097E+02  0.30497858556E+02  0.58371374954E+02  0.47000000000E+01 0.  1.
<mgrwt>
<rscale>  0 0.27293844E+03</rscale>
<asrwt>0</asrwt>
<pdfrwt beam="1">  1        1 0.75251043E-01 0.27293844E+03</pdfrwt>
<pdfrwt beam="2">  1       -1 0.58577412E-02 0.27293844E+03</pdfrwt>
<totfact> 0.64102224E+03</totfact>
</mgrwt>
</event>
<event>
 8    1  0.2117506E-002  0.3053254E+03  0.7818608E-02  0.1082608E+00
          2   -1    0    0  501    0  0.00000000000E+00  0.00000000000E+00  0.83794625395E+03  0.83794625395E+03  0.00000000000E+00 0. -1.
         -2   -1    0    0    0  501 -0.00000000000E+00 -0.00000000000E+00 -0.27813122364E+02  0.27813122364E+02  0.00000000000E+00 0. -1.
         25    2    1    2    0    0 -0.39391095285E+02  0.51803660198E+02  0.56847716532E+03  0.58701073353E+03  0.13107263709E+03 0.  0.
         25    2    1    2    0    0  0.39391095285E+02 -0.51803660198E+02  0.24165596626E+03  0.27874864278E+03  0.12275146526E+03 0.  0.
          5    1    3    3  502    0 -0.76671159630E+02  0.69658730035E+02  0.37232919932E+03  0.38649958352E+03  0.47000000000E+01 0.  1.
         -5    1    3    3    0  502  0.37280064346E+02 -0.17855069837E+02  0.19614796600E+03  0.20051115002E+03  0.47000000000E+01 0.  1.
          5    1    4    4  503    0 -0.30107826860E+02  0.20553243050E+02  0.46584905772E+02  0.59339367067E+02  0.47000000000E+01 0.  1.
         -5    1    4    4    0  503  0.69498922145E+02 -0.72356903248E+02  0.19507106049E+03  0.21940927571E+03  0.47000000000E+01 0.  1.
<mgrwt>
<rscale>  0 0.30532541E+03</rscale>
<asrwt>0</asrwt>
<pdfrwt beam="1">  1        2 0.12891479E+00 0.30532541E+03</pdfrwt>
<pdfrwt beam="2">  1       -2 0.42789425E-02 0.30532541E+03</pdfrwt>
<totfact> 0.82990086E+03</totfact>
</mgrwt>
</event>
<event>
 9    1  0.2117506E-002  0.2750668E+03  0.7818608E-02  0.1098414E+00
          2   -1    0    0  501    0  0.00000000000E+00  0.00000000000E+00  0.35437348659E+04  0.35437348659E+04  0.00000000000E+00 0. -1.
         -2   -1    0    0    0  501 -0.00000000000E+00 -0.00000000000E+00 -0.53377105013E+01  0.53377105013E+01  0.00000000000E+00 0. -1.
         36    2    1    2    0    0 -0.71054273576E-14  0.35527136788E-14  0.35383971554E+04  0.35490725764E+04  0.27506676140E+03 0.  0.
         25    2    3    3    0    0  0.46614424434E+02 -0.19507610096E+02  0.20568000458E+04  0.20612312151E+04  0.12527666322E+03 0.  0.
         25    2    3    3    0    0 -0.46614424434E+02  0.19507610096E+02  0.14815971096E+04  0.14878413613E+04  0.12644552093E+03 0.  0.
          5    1    4    4  502    0 -0.28142438654E+02 -0.47242272807E+02  0.85792442526E+03  0.85969776006E+03  0.47000000000E+01 0.  1.
         -5    1    4    4    0  502  0.74756863088E+02  0.27734662710E+02  0.11988756205E+04  0.12015334550E+04  0.47000000000E+01 0.  1.
          5    1    5    5  503    0 -0.87248479668E+02  0.48832831559E+01  0.11643351385E+04  0.11676191795E+04  0.47000000000E+01 0. -1.
         -5    1    5    5    0  503  0.40634055234E+02  0.14624326940E+02  0.31726197110E+03  0.32022218175E+03  0.47000000000E+01 0. -1.
<mgrwt>
<rscale>  0 0.27506676E+03</rscale>
<asrwt>0</asrwt>
<pdfrwt beam="1">  1        2 0.54518810E+00 0.27506676E+03</pdfrwt>
<pdfrwt beam="2">  1       -2 0.82118906E-03 0.27506676E+03</pdfrwt>
<totfact> 0.26911839E+03</totfact>
</mgrwt>
</event>
<event>
 9    1  0.2117506E-002  0.2780081E+03  0.7818608E-02  0.1096782E+00
         -2   -1    0    0    0  501 -0.00000000000E+00  0.00000000000E+00  0.11356661320E+02  0.11356661320E+02  0.00000000000E+00 0.  1.
          2   -1    0    0  501    0  0.00000000000E+00 -0.00000000000E+00 -0.17013916686E+04  0.17013916686E+04  0.00000000000E+00 0.  1.
         36    2    1    2    0    0  0.00000000000E+00 -0.14210854715E-13 -0.16900350073E+04  0.17127483299E+04  0.27800812185E+03 0.  0.
         25    2    3    3    0    0 -0.39232725413E+02 -0.36622557600E+02 -0.96008601900E+03  0.96984035768E+03  0.12627247147E+03 0.  0.
         25    2    3    3    0    0  0.39232725413E+02  0.36622557600E+02 -0.72994898830E+03  0.74290797226E+03  0.12730401113E+03 0.  0.
          5    1    4    4  502    0  0.29570203604E+02  0.17503770991E+02 -0.51716601071E+03  0.51832764886E+03  0.47000000000E+01 0. -1.
         -5    1    4    4    0  502 -0.68802929017E+02 -0.54126328591E+02 -0.44292000829E+03  0.45151270882E+03  0.47000000000E+01 0. -1.
          5    1    5    5  503    0  0.71063412868E+01 -0.28125548795E+02 -0.51973009416E+03  0.52056028216E+03  0.47000000000E+01 0.  1.
         -5    1    5    5    0  503  0.32126384126E+02  0.64748106395E+02 -0.21021889414E+03  0.22234769010E+03  0.47000000000E+01 0.  1.
<mgrwt>
<rscale>  0 0.27800812E+03</rscale>
<asrwt>0</asrwt>
<pdfrwt beam="1">  1        2 0.26175255E+00 0.27800812E+03</pdfrwt>
<pdfrwt beam="2">  1       -2 0.17471787E-02 0.27800812E+03</pdfrwt>
<totfact> 0.10062074E+04</totfact>
</mgrwt>
</event>
<event>
 9    1  0.2117506E-002  0.2752203E+03  0.7818608E-02  0.1098329E+00
         -2   -1    0    0    0  501 -0.00000000000E+00  0.00000000000E+00  0.85414544168E+02  0.85414544168E+02  0.00000000000E+00 0.  1.
          2   -1    0    0  501    0  0.00000000000E+00 -0.00000000000E+00 -0.22170171628E+03  0.22170171628E+03  0.00000000000E+00 0.  1.
         36    2    1    2    0    0 -0.35527136788E-14  0.35527136788E-14 -0.13628717211E+03  0.30711626045E+03  0.27522028295E+03 0.  0.
         25    2    3    3    0    0  0.30200929470E+02 -0.94619819952E+01 -0.11889069565E+03  0.17429276051E+03  0.12345583667E+03 0.  0.
         25    2    3    3    0    0 -0.30200929470E+02  0.94619819952E+01 -0.17396476458E+02  0.13282349994E+03  0.12781948012E+03 0.  0.
          5    1    4    4  502    0  0.58043278158E+02  0.37115915087E+02 -0.87356822649E+02  0.11135491797E+03  0.47000000000E+01 0. -1.
         -5    1    4    4    0  502 -0.27842348688E+02 -0.46577897082E+02 -0.31533873002E+02  0.62937842540E+02  0.47000000000E+01 0. -1.
          5    1    5    5  503    0 -0.75310924726E+02  0.87731943378E+01 -0.35667675453E+02  0.83922448691E+02  0.47000000000E+01 0. -1.
         -5    1    5    5    0  503  0.45109995257E+02  0.68878765733E+00  0.18271198994E+02  0.48901051248E+02  0.47000000000E+01 0. -1.
<mgrwt>
<rscale>  0 0.27522028E+03</rscale>
<asrwt>0</asrwt>
<pdfrwt beam="1">  1        2 0.34107956E-01 0.27522028E+03</pdfrwt>
<pdfrwt beam="2">  1       -2 0.13140699E-01 0.27522028E+03</pdfrwt>
<totfact> 0.64356496E+03</totfact>
</mgrwt>
</event>
<event>
 9    1  0.2117506E-002  0.2745774E+03  0.7818608E-02  0.1098688E+00
         -2   -1    0    0    0  501 -0.00000000000E+00  0.00000000000E+00  0.76447260723E+01  0.76447260723E+01  0.00000000000E+00 0. -1.
          2   -1    0    0  501    0  0.00000000000E+00 -0.00000000000E+00 -0.24655152852E+04  0.24655152852E+04  0.00000000000E+00 0. -1.
         36    2    1    2    0    0 -0.35527136788E-14  0.00000000000E+00 -0.24578705591E+04  0.24731600113E+04  0.27457741337E+03 0.  0.
         25    2    3    3    0    0  0.20288604626E+02 -0.41103520499E+02 -0.12080554436E+04  0.12152957850E+04  0.12427696286E+03 0.  0.
         25    2    3    3    0    0 -0.20288604626E+02  0.41103520499E+02 -0.12498151156E+04  0.12578642263E+04  0.13447476235E+03 0.  0.
          5    1    4    4  502    0  0.63683560475E+02 -0.56185185307E+02 -0.85846023838E+03  0.86266357394E+03  0.47000000000E+01 0. -1.
         -5    1    4    4    0  502 -0.43394955849E+02  0.15081664808E+02 -0.34959520518E+03  0.35263221108E+03  0.47000000000E+01 0. -1.
          5    1    5    5  503    0 -0.19915463292E+02 -0.36970888277E+02 -0.81329242515E+03  0.81438942224E+03  0.47000000000E+01 0. -1.
         -5    1    5    5    0  503 -0.37314133391E+00  0.78074408776E+02 -0.43652269044E+03  0.44347480402E+03  0.47000000000E+01 0. -1.
<mgrwt>
<rscale>  0 0.27457741E+03</rscale>
<asrwt>0</asrwt>
<pdfrwt beam="1">  1        2 0.37931013E+00 0.27457741E+03</pdfrwt>
<pdfrwt beam="2">  1       -2 0.11761114E-02 0.27457741E+03</pdfrwt>
<totfact> 0.70519871E+03</totfact>
</mgrwt>
</event>
<event>
 9    1  0.2117506E-002  0.2720354E+03  0.7818608E-02  0.1100120E+00
          1   -1    0    0  501    0  0.00000000000E+00  0.00000000000E+00  0.15121393275E+03  0.15121393275E+03  0.00000000000E+00 0. -1.
         -1   -1    0    0    0  501 -0.00000000000E+00 -0.00000000000E+00 -0.12234863032E+03  0.12234863032E+03  0.00000000000E+00 0. -1.
         36    2    1    2    0    0  0.14210854715E-13 -0.71054273576E-14  0.28865302421E+02  0.27356256307E+03  0.27203542091E+03 0.  0.
         25    2    3    3    0    0  0.51208262673E+02 -0.40118935294E+02  0.65013018145E+01  0.13078161389E+03  0.11326847961E+03 0.  0.
         25    2    3    3    0    0 -0.51208262673E+02  0.40118935294E+02  0.22364000606E+02  0.14278094918E+03  0.12511768775E+03 0.  0.
          5    1    4    4  502    0 -0.16908338090E+02 -0.48704972950E+02 -0.22059190613E+02  0.56274009787E+02  0.47000000000E+01 0. -1.
         -5    1    4    4    0  502  0.68116600763E+02  0.85860376556E+01  0.28560492428E+02  0.74507604107E+02  0.47000000000E+01 0. -1.
          5    1    5    5  503    0 -0.15245307920E+02  0.80615081686E+02 -0.41774542092E+01  0.82284578947E+02  0.47000000000E+01 0.  1.
         -5    1    5    5    0  503 -0.35962954753E+02 -0.40496146391E+02  0.26541454816E+02  0.60496370229E+02  0.47000000000E+01 0.  1.
<mgrwt>
<rscale>  0 0.27203542E+03</rscale>
<asrwt>0</asrwt>
<pdfrwt beam="1">  1        1 0.23263682E-01 0.27203542E+03</pdfrwt>
<pdfrwt beam="2">  1       -1 0.18822866E-01 0.27203542E+03</pdfrwt>
<totfact> 0.46412495E+03</totfact>
</mgrwt>
</event>
<event>
 9    1  0.2117506E-002  0.2748477E+03  0.7818608E-02  0.1098537E+00
         -1   -1    0    0    0  501 -0.00000000000E+00  0.00000000000E+00  0.37267490037E+03  0.37267490037E+03  0.00000000000E+00 0. -1.
          1   -1    0    0  501    0  0.00000000000E+00 -0.00000000000E+00 -0.50675046756E+02  0.50675046756E+02  0.00000000000E+00 0. -1.
         36    2    1    2    0    0  0.35527136788E-14  0.00000000000E+00  0.32199985361E+03  0.42334994712E+03  0.27484772512E+03 0.  0.
         25    2    3    3    0    0 -0.76148708420E+00  0.83658215299E+01  0.19055509699E+03  0.22490731184E+03  0.11916999243E+03 0.  0.
         25    2    3    3    0    0  0.76148708420E+00 -0.83658215299E+01  0.13144475662E+03  0.19844263529E+03  0.14842906933E+03 0.  0.
          5    1    4    4  502    0  0.41194543694E+02  0.35714190070E+02  0.44818919594E+02  0.70734145616E+02  0.47000000000E+01 0.  1.
         -5    1    4    4    0  502 -0.41956030779E+02 -0.27348368540E+02  0.14573617739E+03  0.15417316622E+03  0.47000000000E+01 0.  1.
          5    1    5    5  503    0 -0.28244876724E+02 -0.66484388258E+02  0.31030495318E+02  0.78758673064E+02  0.47000000000E+01 0. -1.
         -5    1    5    5    0  503  0.29006363808E+02  0.58118566728E+02  0.10041426130E+03  0.11968396222E+03  0.47000000000E+01 0. -1.
<mgrwt>
<rscale>  0 0.27484773E+03</rscale>
<asrwt>0</asrwt>
<pdfrwt beam="1">  1        1 0.77961613E-02 0.27484773E+03</pdfrwt>
<pdfrwt beam="2">  1       -1 0.57334598E-01 0.27484773E+03</pdfrwt>
<totfact> 0.28483150E+03</totfact>
</mgrwt>
</event>
<event>
 9    1  0.2117506E-002  0.2748524E+03  0.7818608E-02  0.1098534E+00
          2   -1    0    0  501    0  0.00000000000E+00  0.00000000000E+00  0.26198150238E+04  0.26198150238E+04  0.00000000000E+00 0. -1.
         -2   -1    0    0    0  501 -0.00000000000E+00 -0.00000000000E+00 -0.72088884885E+01  0.72088884885E+01  0.00000000000E+00 0. -1.
         36    2    1    2    0    0  0.00000000000E+00 -0.17763568394E-14  0.26126061353E+04  0.26270239123E+04  0.27485235576E+03 0.  0.
         25    2    3    3    0    0 -0.32403744699E+02 -0.53902544200E+01  0.86321919780E+03  0.87285274138E+03  0.12508184189E+03 0.  0.
         25    2    3    3    0    0  0.32403744699E+02  0.53902544200E+01  0.17493869375E+04  0.17541711709E+04  0.12523091551E+03 0.  0.
          5    1    4    4  502    0  0.57021302689E+00  0.15846790633E+02  0.78547131632E+03  0.78564541918E+03  0.47000000000E+01 0.  1.
         -5    1    4    4    0  502 -0.32973957725E+02 -0.21237045053E+02  0.77747881482E+02  0.87207322201E+02  0.47000000000E+01 0.  1.
          5    1    5    5  503    0  0.56170348860E+02  0.47303538784E+00  0.34561627719E+03  0.35018285639E+03  0.47000000000E+01 0. -1.
         -5    1    5    5    0  503 -0.23766604161E+02  0.49172190322E+01  0.14037706603E+04  0.14039883145E+04  0.47000000000E+01 0. -1.
<mgrwt>
<rscale>  0 0.27485236E+03</rscale>
<asrwt>0</asrwt>
<pdfrwt beam="1">  1        2 0.40304771E+00 0.27485236E+03</pdfrwt>
<pdfrwt beam="2">  1       -2 0.11090619E-02 0.27485236E+03</pdfrwt>
<totfact> 0.63152624E+03</totfact>
</mgrwt>
</event>
<event>
 9    1  0.2117506E-002  0.2738300E+03  0.7818608E-02  0.1099107E+00
         -2   -1    0    0    0  501 -0.00000000000E+00  0.00000000000E+00  0.38603428528E+02  0.38603428528E+02  0.00000000000E+00 0.  1.
          2   -1    0    0  501    0  0.00000000000E+00 -0.00000000000E+00 -0.48559726955E+03  0.48559726955E+03  0.00000000000E+00 0.  1.
         36    2    1    2    0    0 -0.71054273576E-14  0.71054273576E-14 -0.44699384102E+03  0.52420069808E+03  0.27383001653E+03 0.  0.
         25    2    3    3    0    0  0.90504080944E+01 -0.38257743994E+02 -0.17237803987E+03  0.21708140977E+03  0.12595469415E+03 0.  0.
         25    2    3    3    0    0 -0.90504080944E+01  0.38257743994E+02 -0.27461580116E+03  0.30711928830E+03  0.13176818334E+03 0.  0.
          5    1    4    4  502    0  0.67354537655E+02 -0.16315410325E+02 -0.89261757153E+02  0.11310427776E+03  0.47000000000E+01 0. -1.
         -5    1    4    4    0  502 -0.58304129560E+02 -0.21942333668E+02 -0.83116282713E+02  0.10397713202E+03  0.47000000000E+01 0. -1.
          5    1    5    5  503    0  0.39015689777E+02 -0.18612263655E+02 -0.18724140231E+03  0.19222401813E+03  0.47000000000E+01 0. -1.
         -5    1    5    5    0  503 -0.48066097872E+02  0.56870007648E+02 -0.87374398848E+02  0.11489527018E+03  0.47000000000E+01 0. -1.
<mgrwt>
<rscale>  0 0.27383002E+03</rscale>
<asrwt>0</asrwt>
<pdfrwt beam="1">  1        2 0.74707274E-01 0.27383002E+03</pdfrwt>
<pdfrwt beam="2">  1       -2 0.59389889E-02 0.27383002E+03</pdfrwt>
<totfact> 0.96148388E+03</totfact>
</mgrwt>
</event>
<event>
 9    1  0.2117506E-002  0.2746708E+03  0.7818608E-02  0.1098636E+00
         -2   -1    0    0    0  501 -0.00000000000E+00  0.00000000000E+00  0.11467723943E+04  0.11467723943E+04  0.00000000000E+00 0. -1.
          2   -1    0    0  501    0  0.00000000000E+00 -0.00000000000E+00 -0.16447037426E+02  0.16447037426E+02  0.00000000000E+00 0. -1.
         36    2    1    2    0    0  0.00000000000E+00  0.00000000000E+00  0.11303253568E+04  0.11632194317E+04  0.27467077375E+03 0.  0.
         25    2    3    3    0    0  0.12504476552E+02 -0.38756231728E+02  0.40280365855E+03  0.42433990395E+03  0.12710294768E+03 0.  0.
         25    2    3    3    0    0 -0.12504476552E+02  0.38756231728E+02  0.72752169829E+03  0.73887952774E+03  0.12246112693E+03 0.  0.
          5    1    4    4  502    0  0.44484904469E+02 -0.56540385963E+02  0.36290962289E+03  0.37000163021E+03  0.47000000000E+01 0. -1.
         -5    1    4    4    0  502 -0.31980427917E+02  0.17784154235E+02  0.39894035662E+02  0.54338273740E+02  0.47000000000E+01 0. -1.
          5    1    5    5  503    0  0.42934251023E+02 -0.10374309667E+02  0.42796348062E+03  0.43026248611E+03  0.47000000000E+01 0.  1.
         -5    1    5    5    0  503 -0.55438727575E+02  0.49130541394E+02  0.29955821767E+03  0.30861704163E+03  0.47000000000E+01 0.  1.
<mgrwt>
<rscale>  0 0.27467077E+03</rscale>
<asrwt>0</asrwt>
<pdfrwt beam="1">  1        2 0.25303143E-02 0.27467077E+03</pdfrwt>
<pdfrwt beam="2">  1       -2 0.17642646E+00 0.27467077E+03</pdfrwt>
<totfact> 0.81407771E+02</totfact>
</mgrwt>
</event>
<event>
 9    1  0.2117506E-002  0.2746132E+03  0.7818608E-02  0.1098668E+00
          2   -1    0    0  501    0  0.00000000000E+00  0.00000000000E+00  0.21555057892E+03  0.21555057892E+03  0.00000000000E+00 0. -1.
         -2   -1    0    0    0  501 -0.00000000000E+00 -0.00000000000E+00 -0.87464881286E+02  0.87464881286E+02  0.00000000000E+00 0. -1.
         36    2    1    2    0    0  0.71054273576E-14  0.35527136788E-14  0.12808569763E+03  0.30301546020E+03  0.27461322471E+03 0.  0.
         25    2    3    3    0    0 -0.52864045522E+02 -0.17071370212E+02  0.57331965423E+02  0.14948122569E+03  0.12637896813E+03 0.  0.
         25    2    3    3    0    0  0.52864045522E+02  0.17071370212E+02  0.70753732206E+02  0.15353423451E+03  0.12442118612E+03 0.  0.
          5    1    4    4  502    0 -0.63381063145E+02  0.68787411134E+01  0.88084082286E+02  0.10883644517E+03  0.47000000000E+01 0.  1.
         -5    1    4    4    0  502  0.10517017622E+02 -0.23950111325E+02 -0.30752116863E+02  0.40644780522E+02  0.47000000000E+01 0.  1.
          5    1    5    5  503    0  0.77928864800E+02  0.48632570443E+02  0.31895108221E+02  0.97352055989E+02  0.47000000000E+01 0. -1.
         -5    1    5    5    0  503 -0.25064819278E+02 -0.31561200231E+02  0.38858623985E+02  0.56182178522E+02  0.47000000000E+01 0. -1.
<mgrwt>
<rscale>  0 0.27461322E+03</rscale>
<asrwt>0</asrwt>
<pdfrwt beam="1">  1        2 0.33161628E-01 0.27461322E+03</pdfrwt>
<pdfrwt beam="2">  1       -2 0.13456136E-01 0.27461322E+03</pdfrwt>
<totfact> 0.63833744E+03</totfact>
</mgrwt>
</event>
<event>
 9    1  0.2117506E-002  0.2750381E+03  0.7818608E-02  0.1098430E+00
          2   -1    0    0  501    0  0.00000000000E+00  0.00000000000E+00  0.19148626261E+04  0.19148626261E+04  0.00000000000E+00 0.  1.
         -2   -1    0    0    0  501 -0.00000000000E+00 -0.00000000000E+00 -0.98761595354E+01  0.98761595354E+01  0.00000000000E+00 0.  1.
         36    2    1    2    0    0  0.00000000000E+00  0.71054273576E-14  0.19049864666E+04  0.19247387856E+04  0.27503809761E+03 0.  0.
         25    2    3    3    0    0  0.13614543855E+02 -0.33048088456E+02  0.60432316817E+03  0.61755309212E+03  0.12201556472E+03 0.  0.
         25    2    3    3    0    0 -0.13614543855E+02  0.33048088456E+02  0.13006632984E+04  0.13071856935E+04  0.12542682969E+03 0.  0.
          5    1    4    4  502    0 -0.47047697751E+02  0.13683902409E+02  0.27877376135E+03  0.28308591464E+03  0.47000000000E+01 0. -1.
         -5    1    4    4    0  502  0.60662241606E+02 -0.46731990865E+02  0.32554940682E+03  0.33446717747E+03  0.47000000000E+01 0. -1.
          5    1    5    5  503    0 -0.68051122230E+02  0.38013988475E+01  0.65314665453E+03  0.65671001834E+03  0.47000000000E+01 0.  1.
         -5    1    5    5    0  503  0.54436578376E+02  0.29246689609E+02  0.64751664386E+03  0.65047567518E+03  0.47000000000E+01 0.  1.
<mgrwt>
<rscale>  0 0.27503810E+03</rscale>
<asrwt>0</asrwt>
<pdfrwt beam="1">  1        2 0.29459395E+00 0.27503810E+03</pdfrwt>
<pdfrwt beam="2">  1       -2 0.15194107E-02 0.27503810E+03</pdfrwt>
<totfact> 0.95358455E+03</totfact>
</mgrwt>
</event>
<event>
 9    1  0.2117506E-002  0.2735292E+03  0.7818608E-02  0.1099277E+00
          1   -1    0    0  501    0  0.00000000000E+00  0.00000000000E+00  0.17710888899E+04  0.17710888899E+04  0.00000000000E+00 0. -1.
         -1   -1    0    0    0  501 -0.00000000000E+00 -0.00000000000E+00 -0.10561049412E+02  0.10561049412E+02  0.00000000000E+00 0. -1.
         36    2    1    2    0    0  0.00000000000E+00 -0.71054273576E-14  0.17605278405E+04  0.17816499393E+04  0.27352921073E+03 0.  0.
         25    2    3    3    0    0  0.25791408019E+01 -0.51969022801E+02  0.95385315219E+03  0.96412325183E+03  0.13034714217E+03 0.  0.
         25    2    3    3    0    0 -0.25791408019E+01  0.51969022801E+02  0.80667468830E+03  0.81752668749E+03  0.12214090516E+03 0.  0.
          5    1    4    4  502    0  0.40324284689E+02 -0.53481590909E+02  0.86312640311E+03  0.86573414294E+03  0.47000000000E+01 0. -1.
         -5    1    4    4    0  502 -0.37745143887E+02  0.15125681084E+01  0.90726749081E+02  0.98389108890E+02  0.47000000000E+01 0. -1.
          5    1    5    5  503    0  0.18621996863E+01  0.89263271858E+02  0.44612225784E+03  0.45499292130E+03  0.47000000000E+01 0.  1.
         -5    1    5    5    0  503 -0.44413404882E+01 -0.37294249057E+02  0.36055243046E+03  0.36253376619E+03  0.47000000000E+01 0.  1.
<mgrwt>
<rscale>  0 0.27352921E+03</rscale>
<asrwt>0</asrwt>
<pdfrwt beam="1">  1        1 0.27247498E+00 0.27352921E+03</pdfrwt>
<pdfrwt beam="2">  1       -1 0.16247782E-02 0.27352921E+03</pdfrwt>
<totfact> 0.44140296E+03</totfact>
</mgrwt>
</event>
<event>
 8    1  0.2117506E-002  0.2935441E+03  0.7818608E-02  0.1088513E+00
          2   -1    0    0  501    0  0.00000000000E+00  0.00000000000E+00  0.45302127549E+02  0.45302127549E+02  0.00000000000E+00 0. -1.
         -2   -1    0    0    0  501 -0.00000000000E+00 -0.00000000000E+00 -0.47551934122E+03  0.47551934122E+03  0.00000000000E+00 0. -1.
         25    2    1    2    0    0  0.38909917929E+02  0.26449703304E+02 -0.26534093530E+03  0.30640566795E+03  0.14582541921E+03 0.  0.
         25    2    1    2    0    0 -0.38909917929E+02 -0.26449703304E+02 -0.16487627837E+03  0.21441580082E+03  0.12874929107E+03 0.  0.
          5    1    3    3  502    0  0.40420118560E+02  0.14664180323E+02 -0.28206319379E+03  0.28536040276E+03  0.47000000000E+01 0.  1.
         -5    1    3    3    0  502 -0.15102006309E+01  0.11785522981E+02  0.16722258495E+02  0.21045265193E+02  0.47000000000E+01 0.  1.
          5    1    4    4  503    0 -0.39415798280E+02 -0.75306471257E+02 -0.82629694676E+02  0.11863568691E+03  0.47000000000E+01 0. -1.
         -5    1    4    4    0  503  0.50588035119E+00  0.48856767953E+02 -0.82246583693E+02  0.95780113901E+02  0.47000000000E+01 0. -1.
<mgrwt>
<rscale>  0 0.29354412E+03</rscale>
<asrwt>0</asrwt>
<pdfrwt beam="1">  1        2 0.69695581E-02 0.29354412E+03</pdfrwt>
<pdfrwt beam="2">  1       -2 0.73156821E-01 0.29354412E+03</pdfrwt>
<totfact> 0.17622569E+03</totfact>
</mgrwt>
</event>
<event>
 9    1  0.2117506E-002  0.2756693E+03  0.7818608E-02  0.1098078E+00
          2   -1    0    0  501    0  0.00000000000E+00  0.00000000000E+00  0.11369702745E+02  0.11369702745E+02  0.00000000000E+00 0. -1.
         -2   -1    0    0    0  501 -0.00000000000E+00 -0.00000000000E+00 -0.16709657611E+04  0.16709657611E+04  0.00000000000E+00 0. -1.
         36    2    1    2    0    0  0.00000000000E+00 -0.71054273576E-14 -0.16595960584E+04  0.16823354639E+04  0.27566925110E+03 0.  0.
         25    2    3    3    0    0 -0.12499087366E+02 -0.34555244120E+02 -0.10618689487E+04  0.10700885353E+04  0.12717514363E+03 0.  0.
         25    2    3    3    0    0  0.12499087366E+02  0.34555244120E+02 -0.59772710969E+03  0.61224692855E+03  0.12735113574E+03 0.  0.
          5    1    4    4  502    0  0.17728340672E+01 -0.75822476001E+02 -0.86740318976E+03  0.87072531514E+03  0.47000000000E+01 0.  1.
         -5    1    4    4    0  502 -0.14271921433E+02  0.41267231881E+02 -0.19446575894E+03  0.19936322020E+03  0.47000000000E+01 0.  1.
          5    1    5    5  503    0  0.21902713325E+02  0.27044866817E+02 -0.35720716694E+02  0.50092048004E+02  0.47000000000E+01 0. -1.
         -5    1    5    5    0  503 -0.94036259587E+01  0.75103773035E+01 -0.56200639300E+03  0.56215488054E+03  0.47000000000E+01 0. -1.
<mgrwt>
<rscale>  0 0.27566925E+03</rscale>
<asrwt>0</asrwt>
<pdfrwt beam="1">  1        2 0.17491848E-02 0.27566925E+03</pdfrwt>
<pdfrwt beam="2">  1       -2 0.25707169E+00 0.27566925E+03</pdfrwt>
<totfact> 0.43001007E+02</totfact>
</mgrwt>
</event>
<event>
 9    1  0.2117506E-002  0.2749599E+03  0.7818608E-02  0.1098474E+00
         -2   -1    0    0    0  501 -0.00000000000E+00  0.00000000000E+00  0.22796605764E+02  0.22796605764E+02  0.00000000000E+00 0.  1.
          2   -1    0    0  501    0  0.00000000000E+00 -0.00000000000E+00 -0.82910311426E+03  0.82910311426E+03  0.00000000000E+00 0.  1.
         36    2    1    2    0    0  0.00000000000E+00  0.00000000000E+00 -0.80630650850E+03  0.85189972003E+03  0.27495990132E+03 0.  0.
         25    2    3    3    0    0 -0.21244226769E+02  0.42541060496E+02 -0.50283898204E+03  0.52036373723E+03  0.12518114142E+03 0.  0.
         25    2    3    3    0    0  0.21244226769E+02 -0.42541060496E+02 -0.30346752646E+03  0.33153598279E+03  0.12474978667E+03 0.  0.
          5    1    4    4  502    0 -0.77007156344E+01  0.24162950429E+02 -0.11111055213E+02  0.28083709560E+02  0.47000000000E+01 0.  1.
         -5    1    4    4    0  502 -0.13543511135E+02  0.18378110067E+02 -0.49172792683E+03  0.49228002767E+03  0.47000000000E+01 0.  1.
          5    1    5    5  503    0 -0.51460218541E+01 -0.81619285834E+02 -0.14989081363E+03  0.17081433011E+03  0.47000000000E+01 0.  1.
         -5    1    5    5    0  503  0.26390248623E+02  0.39078225338E+02 -0.15357671283E+03  0.16072165269E+03  0.47000000000E+01 0.  1.
<mgrwt>
<rscale>  0 0.27495990E+03</rscale>
<asrwt>0</asrwt>
<pdfrwt beam="1">  1        2 0.12755433E+00 0.27495990E+03</pdfrwt>
<pdfrwt beam="2">  1       -2 0.35071700E-02 0.27495990E+03</pdfrwt>
<totfact> 0.11313767E+04</totfact>
</mgrwt>
</event>
<event>
 9    1  0.2117506E-002  0.2758705E+03  0.7818608E-02  0.1097966E+00
         -4   -1    0    0    0  501 -0.00000000000E+00  0.00000000000E+00  0.41226540033E+03  0.41226540033E+03  0.00000000000E+00 0. -1.
          4   -1    0    0  501    0  0.00000000000E+00 -0.00000000000E+00 -0.46150216474E+02  0.46150216474E+02  0.00000000000E+00 0. -1.
         36    2    1    2    0    0  0.17763568394E-14  0.17763568394E-14  0.36611518386E+03  0.45841561681E+03  0.27587053101E+03 0.  0.
         25    2    3    3    0    0  0.12663441198E+02 -0.35067963239E+01  0.10974748475E+03  0.17213866625E+03  0.13196419836E+03 0.  0.
         25    2    3    3    0    0 -0.12663441198E+02  0.35067963239E+01  0.25636769912E+03  0.28627695056E+03  0.12671793443E+03 0.  0.
          5    1    4    4  502    0 -0.48949520997E+01 -0.58907206509E+02  0.15458992607E+02  0.61278789048E+02  0.47000000000E+01 0. -1.
         -5    1    4    4    0  502  0.17558393298E+02  0.55400410186E+02  0.94288492139E+02  0.11085987720E+03  0.47000000000E+01 0. -1.
          5    1    5    5  503    0  0.30675398159E+02  0.11875345996E+02  0.23441129731E+03  0.23675462023E+03  0.47000000000E+01 0.  1.
         -5    1    5    5    0  503 -0.43338839357E+02 -0.83685496717E+01  0.21956401805E+02  0.49522330323E+02  0.47000000000E+01 0.  1.
<mgrwt>
<rscale>  0 0.27587053E+03</rscale>
<asrwt>0</asrwt>
<pdfrwt beam="1">  1        4 0.71000336E-02 0.27587053E+03</pdfrwt>
<pdfrwt beam="2">  1       -4 0.63425444E-01 0.27587053E+03</pdfrwt>
<totfact> 0.59493199E+02</totfact>
</mgrwt>
</event>
<event>
 9    1  0.2117506E-002  0.2749604E+03  0.7818608E-02  0.1098474E+00
          1   -1    0    0  501    0  0.00000000000E+00  0.00000000000E+00  0.45885303980E+02  0.45885303980E+02  0.00000000000E+00 0. -1.
         -1   -1    0    0    0  501 -0.00000000000E+00 -0.00000000000E+00 -0.41191410494E+03  0.41191410494E+03  0.00000000000E+00 0. -1.
         36    2    1    2    0    0  0.00000000000E+00 -0.71054273576E-14 -0.36602880096E+03  0.45779940892E+03  0.27496038928E+03 0.  0.
         25    2    3    3    0    0 -0.39394394620E+02 -0.44731489427E+02 -0.17227752891E+03  0.21983186701E+03  0.12285633201E+03 0.  0.
         25    2    3    3    0    0  0.39394394620E+02  0.44731489427E+02 -0.19375127205E+03  0.23796754191E+03  0.12464417798E+03 0.  0.
          5    1    4    4  502    0 -0.45209413139E+02 -0.22994868753E+02 -0.18614316797E+03  0.19298710840E+03  0.47000000000E+01 0. -1.
         -5    1    4    4    0  502  0.58150185193E+01 -0.21736620674E+02  0.13865639061E+02  0.26844758618E+02  0.47000000000E+01 0. -1.
          5    1    5    5  503    0  0.80345795548E+02  0.50051897633E+02 -0.15147683372E+03  0.17868396814E+03  0.47000000000E+01 0.  1.
         -5    1    5    5    0  503 -0.40951400928E+02 -0.53204082060E+01 -0.42274438336E+02  0.59283573762E+02  0.47000000000E+01 0.  1.
<mgrwt>
<rscale>  0 0.27496039E+03</rscale>
<asrwt>0</asrwt>
<pdfrwt beam="1">  1        1 0.70592772E-02 0.27496039E+03</pdfrwt>
<pdfrwt beam="2">  1       -1 0.63371404E-01 0.27496039E+03</pdfrwt>
<totfact> 0.26894462E+03</totfact>
</mgrwt>
</event>
<event>
 9    1  0.2117506E-002  0.2748716E+03  0.7818608E-02  0.1098523E+00
         -1   -1    0    0    0  501 -0.00000000000E+00  0.00000000000E+00  0.60176328742E+02  0.60176328742E+02  0.00000000000E+00 0. -1.
          1   -1    0    0  501    0  0.00000000000E+00 -0.00000000000E+00 -0.31388745319E+03  0.31388745319E+03  0.00000000000E+00 0. -1.
         36    2    1    2    0    0  0.35527136788E-14  0.21316282073E-13 -0.25371112445E+03  0.37406378193E+03  0.27487156689E+03 0.  0.
         25    2    3    3    0    0  0.25340315446E+02  0.33570428234E+02 -0.14650507050E+03  0.19649111896E+03  0.12399967303E+03 0.  0.
         25    2    3    3    0    0 -0.25340315446E+02 -0.33570428234E+02 -0.10720605395E+03  0.17757266297E+03  0.13516585143E+03 0.  0.
          5    1    4    4  502    0  0.55147746288E+01 -0.34191657054E+02 -0.13141968304E+01  0.34975695341E+02  0.47000000000E+01 0.  1.
         -5    1    4    4    0  502  0.19825540818E+02  0.67762085288E+02 -0.14519087367E+03  0.16151542362E+03  0.47000000000E+01 0.  1.
          5    1    5    5  503    0 -0.31565893837E+02 -0.70508661173E+02 -0.16235558805E+02  0.79079455763E+02  0.47000000000E+01 0.  1.
         -5    1    5    5    0  503  0.62255783902E+01  0.36938232939E+02 -0.90970495144E+02  0.98493207206E+02  0.47000000000E+01 0.  1.
<mgrwt>
<rscale>  0 0.27487157E+03</rscale>
<asrwt>0</asrwt>
<pdfrwt beam="1">  1        1 0.48290377E-01 0.27487157E+03</pdfrwt>
<pdfrwt beam="2">  1       -1 0.92578968E-02 0.27487157E+03</pdfrwt>
<totfact> 0.56465892E+03</totfact>
</mgrwt>
</event>
<event>
 9    1  0.2117506E-002  0.2758927E+03  0.7818608E-02  0.1097954E+00
         -1   -1    0    0    0  501 -0.00000000000E+00  0.00000000000E+00  0.87008889147E+03  0.87008889147E+03  0.00000000000E+00 0. -1.
          1   -1    0    0  501    0  0.00000000000E+00 -0.00000000000E+00 -0.21870403861E+02  0.21870403861E+02  0.00000000000E+00 0. -1.
         36    2    1    2    0    0 -0.71054273576E-14  0.00000000000E+00  0.84821848761E+03  0.89195929533E+03  0.27589269980E+03 0.  0.
         25    2    3    3    0    0 -0.44910478991E+02 -0.20597792714E+02  0.35367470103E+03  0.37913404201E+03  0.12734051778E+03 0.  0.
         25    2    3    3    0    0  0.44910478991E+02  0.20597792714E+02  0.49454378657E+03  0.51282525332E+03  0.12639210189E+03 0.  0.
          5    1    4    4  502    0 -0.69021473109E+02 -0.48725376826E+02  0.31156207123E+03  0.32284847890E+03  0.47000000000E+01 0.  1.
         -5    1    4    4    0  502  0.24110994118E+02  0.28127584112E+02  0.42112629801E+02  0.56285563106E+02  0.47000000000E+01 0.  1.
          5    1    5    5  503    0 -0.41642338682E+02  0.46474668095E+01  0.99422860582E+02  0.10799388189E+03  0.47000000000E+01 0.  1.
         -5    1    5    5    0  503  0.86552817674E+02  0.15950325904E+02  0.39512092599E+03  0.40483137144E+03  0.47000000000E+01 0.  1.
<mgrwt>
<rscale>  0 0.27589270E+03</rscale>
<asrwt>0</asrwt>
<pdfrwt beam="1">  1        1 0.33646782E-02 0.27589270E+03</pdfrwt>
<pdfrwt beam="2">  1       -1 0.13385980E+00 0.27589270E+03</pdfrwt>
<totfact> 0.14673934E+03</totfact>
</mgrwt>
</event>
<event>
 9    1  0.2117506E-002  0.2857779E+03  0.7818608E-02  0.1092574E+00
         -2   -1    0    0    0  501 -0.00000000000E+00  0.00000000000E+00  0.10850834810E+02  0.10850834810E+02  0.00000000000E+00 0.  1.
          2   -1    0    0  501    0  0.00000000000E+00 -0.00000000000E+00 -0.18816300455E+04  0.18816300455E+04  0.00000000000E+00 0.  1.
         36    2    1    2    0    0  0.00000000000E+00  0.14210854715E-13 -0.18707792107E+04  0.18924808803E+04  0.28577793335E+03 0.  0.
         25    2    3    3    0    0 -0.47387727060E+02 -0.41309498041E+02 -0.74535790503E+03  0.75859121170E+03  0.12629389763E+03 0.  0.
         25    2    3    3    0    0  0.47387727060E+02  0.41309498041E+02 -0.11254213056E+04  0.11338896686E+04  0.12320955335E+03 0.  0.
          5    1    4    4  502    0  0.20182223095E+02 -0.58140812119E+02 -0.21578870912E+03  0.22444271685E+03  0.47000000000E+01 0.  1.
         -5    1    4    4    0  502 -0.67569950155E+02  0.16831314078E+02 -0.52956919591E+03  0.53414849485E+03  0.47000000000E+01 0.  1.
          5    1    5    5  503    0 -0.19461425455E+02  0.64059247886E+02 -0.50295074202E+03  0.50740898023E+03  0.47000000000E+01 0.  1.
         -5    1    5    5    0  503  0.66849152515E+02 -0.22749749845E+02 -0.62247056361E+03  0.62648068834E+03  0.47000000000E+01 0.  1.
<mgrwt>
<rscale>  0 0.28577793E+03</rscale>
<asrwt>0</asrwt>
<pdfrwt beam="1">  1        2 0.28948160E+00 0.28577793E+03</pdfrwt>
<pdfrwt beam="2">  1       -2 0.16693589E-02 0.28577793E+03</pdfrwt>
<totfact> 0.86516503E+03</totfact>
</mgrwt>
</event>
<event>
 9    1  0.2117506E-002  0.2743495E+03  0.7818608E-02  0.1098816E+00
          2   -1    0    0  501    0  0.00000000000E+00  0.00000000000E+00  0.10065835265E+03  0.10065835265E+03  0.00000000000E+00 0. -1.
         -2   -1    0    0    0  501 -0.00000000000E+00 -0.00000000000E+00 -0.18693838368E+03  0.18693838368E+03  0.00000000000E+00 0. -1.
         36    2    1    2    0    0  0.35527136788E-14  0.00000000000E+00 -0.86280031029E+02  0.28759673632E+03  0.27434948330E+03 0.  0.
         25    2    3    3    0    0  0.25493946882E+02  0.23537894504E+01 -0.97977139193E+02  0.15447118349E+03  0.11664623900E+03 0.  0.
         25    2    3    3    0    0 -0.25493946882E+02 -0.23537894504E+01  0.11697108165E+02  0.13312555283E+03  0.13011575164E+03 0.  0.
          5    1    4    4  502    0  0.59805431464E+02  0.34809088266E+02 -0.42009145967E+02  0.81087733989E+02  0.47000000000E+01 0.  1.
         -5    1    4    4    0  502 -0.34311484582E+02 -0.32455298816E+02 -0.55967993227E+02  0.73383449505E+02  0.47000000000E+01 0.  1.
          5    1    5    5  503    0 -0.37047591348E+02  0.28096558240E+02  0.59147333268E+02  0.75381945068E+02  0.47000000000E+01 0.  1.
         -5    1    5    5    0  503  0.11553644465E+02 -0.30450347691E+02 -0.47450225103E+02  0.57743607761E+02  0.47000000000E+01 0.  1.
<mgrwt>
<rscale>  0 0.27434948E+03</rscale>
<asrwt>0</asrwt>
<pdfrwt beam="1">  1        2 0.15485901E-01 0.27434948E+03</pdfrwt>
<pdfrwt beam="2">  1       -2 0.28759751E-01 0.27434948E+03</pdfrwt>
<totfact> 0.41195276E+03</totfact>
</mgrwt>
</event>
<event>
 9    1  0.2117506E-002  0.2801484E+03  0.7818608E-02  0.1095608E+00
          1   -1    0    0  501    0  0.00000000000E+00  0.00000000000E+00  0.34020107709E+03  0.34020107709E+03  0.00000000000E+00 0.  1.
         -1   -1    0    0    0  501 -0.00000000000E+00 -0.00000000000E+00 -0.57674077958E+02  0.57674077958E+02  0.00000000000E+00 0.  1.
         36    2    1    2    0    0  0.00000000000E+00 -0.35527136788E-14  0.28252699913E+03  0.39787515505E+03  0.28014841382E+03 0.  0.
         25    2    3    3    0    0  0.56290025035E+02 -0.20232827906E+02  0.15588538000E+03  0.20948700383E+03  0.12651726693E+03 0.  0.
         25    2    3    3    0    0 -0.56290025035E+02  0.20232827906E+02  0.12664161913E+03  0.18838815122E+03  0.12599230762E+03 0.  0.
          5    1    4    4  502    0  0.26758076093E+02  0.53419129273E+02  0.58130759019E+02  0.83491754997E+02  0.47000000000E+01 0. -1.
         -5    1    4    4    0  502  0.29531948942E+02 -0.73651957179E+02  0.97754620981E+02  0.12599524883E+03  0.47000000000E+01 0. -1.
          5    1    5    5  503    0 -0.75974722786E+02 -0.28485398850E+02  0.10126599007E+03  0.12984786172E+03  0.47000000000E+01 0.  1.
         -5    1    5    5    0  503  0.19684697750E+02  0.48718226756E+02  0.25375629065E+02  0.58540289495E+02  0.47000000000E+01 0.  1.
<mgrwt>
<rscale>  0 0.28014841E+03</rscale>
<asrwt>0</asrwt>
<pdfrwt beam="1">  1        1 0.52338626E-01 0.28014841E+03</pdfrwt>
<pdfrwt beam="2">  1       -1 0.88729353E-02 0.28014841E+03</pdfrwt>
<totfact> 0.54482238E+03</totfact>
</mgrwt>
</event>
<event>
 9    1  0.2117506E-002  0.2770581E+03  0.7818608E-02  0.1097307E+00
          2   -1    0    0  501    0  0.00000000000E+00  0.00000000000E+00  0.18161528262E+04  0.18161528262E+04  0.00000000000E+00 0. -1.
         -2   -1    0    0    0  501 -0.00000000000E+00 -0.00000000000E+00 -0.10566454991E+02  0.10566454991E+02  0.00000000000E+00 0. -1.
         36    2    1    2    0    0  0.00000000000E+00  0.35527136788E-14  0.18055863712E+04  0.18267192812E+04  0.27705809568E+03 0.  0.
         25    2    3    3    0    0  0.24809636727E+02  0.55926588957E+00  0.13803256150E+04  0.13863246371E+04  0.12641742439E+03 0.  0.
         25    2    3    3    0    0 -0.24809636727E+02 -0.55926588957E+00  0.42526075625E+03  0.44039464412E+03  0.11173585329E+03 0.  0.
          5    1    4    4  502    0  0.10213700543E+02 -0.56767575659E+02  0.97063100753E+03  0.97235462671E+03  0.47000000000E+01 0. -1.
         -5    1    4    4    0  502  0.14595936184E+02  0.57326841548E+02  0.40969460744E+03  0.41397001036E+03  0.47000000000E+01 0. -1.
          5    1    5    5  503    0  0.18931233029E+02  0.21920591283E+02  0.29662799488E+02  0.41723801117E+02  0.47000000000E+01 0.  1.
         -5    1    5    5    0  503 -0.43740869756E+02 -0.22479857173E+02  0.39559795677E+03  0.39867084301E+03  0.47000000000E+01 0.  1.
<mgrwt>
<rscale>  0 0.27705810E+03</rscale>
<asrwt>0</asrwt>
<pdfrwt beam="1">  1        2 0.27940788E+00 0.27705810E+03</pdfrwt>
<pdfrwt beam="2">  1       -2 0.16256099E-02 0.27705810E+03</pdfrwt>
<totfact> 0.97331632E+03</totfact>
</mgrwt>
</event>
<event>
 9    1  0.2117506E-002  0.2745937E+03  0.7818608E-02  0.1098679E+00
         -1   -1    0    0    0  501 -0.00000000000E+00  0.00000000000E+00  0.11518223478E+02  0.11518223478E+02  0.00000000000E+00 0. -1.
          1   -1    0    0  501    0  0.00000000000E+00 -0.00000000000E+00 -0.16365738839E+04  0.16365738839E+04  0.00000000000E+00 0. -1.
         36    2    1    2    0    0  0.00000000000E+00  0.00000000000E+00 -0.16250556605E+04  0.16480921074E+04  0.27459369063E+03 0.  0.
         25    2    3    3    0    0  0.46086913275E+01 -0.53004346946E+02 -0.97051556876E+03  0.97960854619E+03  0.12207265756E+03 0.  0.
         25    2    3    3    0    0 -0.46086913275E+01  0.53004346946E+02 -0.65454009169E+03  0.66848356122E+03  0.12496735238E+03 0.  0.
          5    1    4    4  502    0  0.37269457621E+02 -0.45034414656E+02 -0.20192377800E+03  0.21026747988E+03  0.47000000000E+01 0.  1.
         -5    1    4    4    0  502 -0.32660766293E+02 -0.79699322903E+01 -0.76859179076E+03  0.76934106630E+03  0.47000000000E+01 0.  1.
          5    1    5    5  503    0 -0.10068468690E+02  0.38996904811E+02 -0.52976608118E+02  0.66713894012E+02  0.47000000000E+01 0. -1.
         -5    1    5    5    0  503  0.54597773628E+01  0.14007442135E+02 -0.60156348357E+03  0.60176966721E+03  0.47000000000E+01 0. -1.
<mgrwt>
<rscale>  0 0.27459369E+03</rscale>
<asrwt>0</asrwt>
<pdfrwt beam="1">  1        1 0.25178074E+00 0.27459369E+03</pdfrwt>
<pdfrwt beam="2">  1       -1 0.17720333E-02 0.27459369E+03</pdfrwt>
<totfact> 0.47606831E+03</totfact>
</mgrwt>
</event>
<event>
 9    1  0.2117506E-002  0.2754954E+03  0.7818608E-02  0.1098175E+00
         -2   -1    0    0    0  501 -0.00000000000E+00  0.00000000000E+00  0.90907109858E+03  0.90907109858E+03  0.00000000000E+00 0. -1.
          2   -1    0    0  501    0  0.00000000000E+00 -0.00000000000E+00 -0.20872319554E+02  0.20872319554E+02  0.00000000000E+00 0. -1.
         36    2    1    2    0    0  0.17763568394E-14  0.00000000000E+00  0.88819877903E+03  0.92994341814E+03  0.27549535362E+03 0.  0.
         25    2    3    3    0    0 -0.44326159275E+01  0.53964519467E+02  0.36689594371E+03  0.39067382370E+03  0.12280710715E+03 0.  0.
         25    2    3    3    0    0  0.44326159275E+01 -0.53964519467E+02  0.52130283532E+03  0.53926959444E+03  0.12697728902E+03 0.  0.
          5    1    4    4  502    0 -0.35741465556E+02  0.63706504344E+02  0.34061056091E+03  0.34838716288E+03  0.47000000000E+01 0. -1.
         -5    1    4    4    0  502  0.31308849628E+02 -0.97419848773E+01  0.26285382803E+02  0.42286660822E+02  0.47000000000E+01 0. -1.
          5    1    5    5  503    0 -0.12640007622E+02 -0.16886218172E+02  0.48175619207E+03  0.48224063781E+03  0.47000000000E+01 0. -1.
         -5    1    5    5    0  503  0.17072623550E+02 -0.37078301296E+02  0.39546643249E+02  0.57028956628E+02  0.47000000000E+01 0. -1.
<mgrwt>
<rscale>  0 0.27549535E+03</rscale>
<asrwt>0</asrwt>
<pdfrwt beam="1">  1        2 0.32111268E-02 0.27549535E+03</pdfrwt>
<pdfrwt beam="2">  1       -2 0.13985706E+00 0.27549535E+03</pdfrwt>
<totfact> 0.10837949E+03</totfact>
</mgrwt>
</event>
<event>
 9    1  0.2117506E-002  0.2785213E+03  0.7818608E-02  0.1096499E+00
          2   -1    0    0  501    0  0.00000000000E+00  0.00000000000E+00  0.85433365118E+02  0.85433365118E+02  0.00000000000E+00 0.  1.
         -2   -1    0    0    0  501 -0.00000000000E+00 -0.00000000000E+00 -0.22700177017E+03  0.22700177017E+03  0.00000000000E+00 0.  1.
         36    2    1    2    0    0 -0.71054273576E-14  0.00000000000E+00 -0.14156840505E+03  0.31243513529E+03  0.27852127469E+03 0.  0.
         25    2    3    3    0    0  0.32235764795E+00 -0.22683010407E+02  0.26016499627E+02  0.10191919803E+03  0.95895994694E+02 0.  0.
         25    2    3    3    0    0 -0.32235764795E+00  0.22683010407E+02 -0.16758490468E+03  0.21051593726E+03  0.12536999915E+03 0.  0.
          5    1    4    4  502    0 -0.16290394753E+02 -0.56763599078E+02  0.23161786297E+02  0.63608501680E+02  0.47000000000E+01 0.  1.
         -5    1    4    4    0  502  0.16612752401E+02  0.34080588671E+02  0.28547133298E+01  0.38310696348E+02  0.47000000000E+01 0.  1.
          5    1    5    5  503    0 -0.49359748772E+02  0.50039389431E+02 -0.10326993724E+03  0.12500838064E+03  0.47000000000E+01 0.  1.
         -5    1    5    5    0  503  0.49037391124E+02 -0.27356379024E+02 -0.64314967436E+02  0.85507556613E+02  0.47000000000E+01 0.  1.
<mgrwt>
<rscale>  0 0.27852127E+03</rscale>
<asrwt>0</asrwt>
<pdfrwt beam="1">  1        2 0.13143595E-01 0.27852127E+03</pdfrwt>
<pdfrwt beam="2">  1       -2 0.34923349E-01 0.27852127E+03</pdfrwt>
<totfact> 0.35107780E+03</totfact>
</mgrwt>
</event>
<event>
 9    1  0.2117506E-002  0.2705642E+03  0.7818608E-02  0.1100957E+00
          1   -1    0    0  501    0  0.00000000000E+00  0.00000000000E+00  0.68983454254E+02  0.68983454254E+02  0.00000000000E+00 0.  1.
         -1   -1    0    0    0  501 -0.00000000000E+00 -0.00000000000E+00 -0.26529909929E+03  0.26529909929E+03  0.00000000000E+00 0.  1.
         36    2    1    2    0    0 -0.35527136788E-14 -0.71054273576E-14 -0.19631564504E+03  0.33428255355E+03  0.27056421256E+03 0.  0.
         25    2    3    3    0    0  0.23222530643E+02  0.44421113497E+02 -0.78062725446E+02  0.15661168738E+03  0.12617808949E+03 0.  0.
         25    2    3    3    0    0 -0.23222530643E+02 -0.44421113497E+02 -0.11825291959E+03  0.17767086616E+03  0.12276262639E+03 0.  0.
          5    1    4    4  502    0  0.38909801751E+02  0.38653708388E+02  0.18827840064E+02  0.58177825724E+02  0.47000000000E+01 0.  1.
         -5    1    4    4    0  502 -0.15687271108E+02  0.57674051092E+01 -0.96890565510E+02  0.98433861661E+02  0.47000000000E+01 0.  1.
          5    1    5    5  503    0 -0.25628390667E+02 -0.59087519061E+02 -0.65760350975E+01  0.64911351508E+02  0.47000000000E+01 0.  1.
         -5    1    5    5    0  503  0.24058600243E+01  0.14666405564E+02 -0.11167688450E+03  0.11275951465E+03  0.47000000000E+01 0.  1.
<mgrwt>
<rscale>  0 0.27056421E+03</rscale>
<asrwt>0</asrwt>
<pdfrwt beam="1">  1        1 0.10612839E-01 0.27056421E+03</pdfrwt>
<pdfrwt beam="2">  1       -1 0.40815246E-01 0.27056421E+03</pdfrwt>
<totfact> 0.35063241E+03</totfact>
</mgrwt>
</event>
<event>
 9    1  0.2117506E-002  0.2749438E+03  0.7818608E-02  0.1098483E+00
          2   -1    0    0  501    0  0.00000000000E+00  0.00000000000E+00  0.26255657942E+04  0.26255657942E+04  0.00000000000E+00 0.  1.
         -2   -1    0    0    0  501 -0.00000000000E+00 -0.00000000000E+00 -0.71978845739E+01  0.71978845739E+01  0.00000000000E+00 0.  1.
         36    2    1    2    0    0  0.00000000000E+00 -0.71054273576E-14  0.26183679096E+04  0.26327636788E+04  0.27494377264E+03 0.  0.
         25    2    3    3    0    0 -0.24946497150E+02 -0.47033977540E+02  0.11714586753E+04  0.11795616841E+04  0.12734133647E+03 0.  0.
         25    2    3    3    0    0  0.24946497150E+02  0.47033977540E+02  0.14469092343E+04  0.14532019947E+04  0.12415789177E+03 0.  0.
          5    1    4    4  502    0 -0.30768731517E+01  0.43768789762E+02  0.33599274161E+03  0.33887812930E+03  0.47000000000E+01 0. -1.
         -5    1    4    4    0  502 -0.21869623999E+02 -0.90802767302E+02  0.83546593366E+03  0.84068355480E+03  0.47000000000E+01 0. -1.
          5    1    5    5  503    0 -0.37713164720E+01  0.62294240351E+02  0.33431337926E+03  0.34012103840E+03  0.47000000000E+01 0. -1.
         -5    1    5    5    0  503  0.28717813622E+02 -0.15260262811E+02  0.11125958551E+04  0.11130809563E+04  0.47000000000E+01 0. -1.
<mgrwt>
<rscale>  0 0.27494377E+03</rscale>
<asrwt>0</asrwt>
<pdfrwt beam="1">  1        2 0.40393244E+00 0.27494377E+03</pdfrwt>
<pdfrwt beam="2">  1       -2 0.11073690E-02 0.27494377E+03</pdfrwt>
<totfact> 0.62827878E+03</totfact>
</mgrwt>
</event>
<event>
 9    1  0.2117506E-002  0.2742901E+03  0.7818608E-02  0.1098849E+00
         -2   -1    0    0    0  501 -0.00000000000E+00  0.00000000000E+00  0.36254283803E+02  0.36254283803E+02  0.00000000000E+00 0.  1.
          2   -1    0    0  501    0  0.00000000000E+00 -0.00000000000E+00 -0.51880107445E+03  0.51880107445E+03  0.00000000000E+00 0.  1.
         36    2    1    2    0    0 -0.35527136788E-14  0.00000000000E+00 -0.48254679065E+03  0.55505535825E+03  0.27429007558E+03 0.  0.
         25    2    3    3    0    0  0.14797220432E+02 -0.29891633319E+02 -0.13143980889E+03  0.18436781403E+03  0.12491036793E+03 0.  0.
         25    2    3    3    0    0 -0.14797220432E+02  0.29891633319E+02 -0.35110698176E+03  0.37068754422E+03  0.11410817378E+03 0.  0.
          5    1    4    4  502    0  0.17327794452E+02 -0.67916686751E+02 -0.30900252830E+02  0.76745321843E+02  0.47000000000E+01 0.  1.
         -5    1    4    4    0  502 -0.25305740203E+01  0.38025053433E+02 -0.10053955606E+03  0.10762249219E+03  0.47000000000E+01 0.  1.
          5    1    5    5  503    0 -0.49919604947E+02 -0.91525937030E+00 -0.72515545909E+02  0.88166881856E+02  0.47000000000E+01 0.  1.
         -5    1    5    5    0  503  0.35122384515E+02  0.30806892689E+02 -0.27859143585E+03  0.28252066236E+03  0.47000000000E+01 0.  1.
<mgrwt>
<rscale>  0 0.27429008E+03</rscale>
<asrwt>0</asrwt>
<pdfrwt beam="1">  1        2 0.79815547E-01 0.27429008E+03</pdfrwt>
<pdfrwt beam="2">  1       -2 0.55775823E-02 0.27429008E+03</pdfrwt>
<totfact> 0.98297993E+03</totfact>
</mgrwt>
</event>
<event>
 9    1  0.2117506E-002  0.2762171E+03  0.7818608E-02  0.1097773E+00
          2   -1    0    0  501    0  0.00000000000E+00  0.00000000000E+00  0.42978248224E+03  0.42978248224E+03  0.00000000000E+00 0. -1.
         -2   -1    0    0    0  501 -0.00000000000E+00 -0.00000000000E+00 -0.44380518695E+02  0.44380518695E+02  0.00000000000E+00 0. -1.
         36    2    1    2    0    0 -0.17763568394E-14  0.00000000000E+00  0.38540196355E+03  0.47416300093E+03  0.27621708483E+03 0.  0.
         25    2    3    3    0    0  0.28309181966E+01  0.12785696880E+02  0.94250784127E+02  0.15680500870E+03  0.12463190724E+03 0.  0.
         25    2    3    3    0    0 -0.28309181966E+01 -0.12785696880E+02  0.29115117942E+03  0.31735799224E+03  0.12560094672E+03 0.  0.
          5    1    4    4  502    0  0.15088920478E+02  0.25373987745E+02  0.12089985990E+03  0.12454067969E+03  0.47000000000E+01 0.  1.
         -5    1    4    4    0  502 -0.12258002282E+02 -0.12588290865E+02 -0.26649075769E+02  0.32264329005E+02  0.47000000000E+01 0.  1.
          5    1    5    5  503    0  0.18178286523E+02  0.15576437527E+02  0.27850517823E+03  0.27957163627E+03  0.47000000000E+01 0. -1.
         -5    1    5    5    0  503 -0.21009204720E+02 -0.28362134408E+02  0.12646001189E+02  0.37786355966E+02  0.47000000000E+01 0. -1.
<mgrwt>
<rscale>  0 0.27621708E+03</rscale>
<asrwt>0</asrwt>
<pdfrwt beam="1">  1        2 0.66120379E-01 0.27621708E+03</pdfrwt>
<pdfrwt beam="2">  1       -2 0.68277724E-02 0.27621708E+03</pdfrwt>
<totfact> 0.88788349E+03</totfact>
</mgrwt>
</event>
<event>
 9    1  0.2117506E-002  0.2749664E+03  0.7818608E-02  0.1098470E+00
         -2   -1    0    0    0  501 -0.00000000000E+00  0.00000000000E+00  0.68613686756E+01  0.68613686756E+01  0.00000000000E+00 0. -1.
          2   -1    0    0  501    0  0.00000000000E+00 -0.00000000000E+00 -0.27547906914E+04  0.27547906914E+04  0.00000000000E+00 0. -1.
         36    2    1    2    0    0  0.00000000000E+00  0.00000000000E+00 -0.27479293227E+04  0.27616520601E+04  0.27496643110E+03 0.  0.
         25    2    3    3    0    0  0.22486935375E+02  0.45661300791E+01 -0.81472051591E+03  0.82429083831E+03  0.12312333354E+03 0.  0.
         25    2    3    3    0    0 -0.22486935375E+02 -0.45661300791E+01 -0.19332088068E+04  0.19373612218E+04  0.12468240080E+03 0.  0.
          5    1    4    4  502    0  0.66983435910E+01  0.63356777344E+02 -0.44528623039E+03  0.44984538012E+03  0.47000000000E+01 0. -1.
         -5    1    4    4    0  502  0.15788591784E+02 -0.58790647265E+02 -0.36943428553E+03  0.37444545819E+03  0.47000000000E+01 0. -1.
          5    1    5    5  503    0  0.46273823547E+02 -0.27274193471E+02 -0.88971448927E+03  0.89134679603E+03  0.47000000000E+01 0. -1.
         -5    1    5    5    0  503 -0.68760758922E+02  0.22708063391E+02 -0.10434943175E+04  0.10460144257E+04  0.47000000000E+01 0. -1.
<mgrwt>
<rscale>  0 0.27496643E+03</rscale>
<asrwt>0</asrwt>
<pdfrwt beam="1">  1        2 0.42381442E+00 0.27496643E+03</pdfrwt>
<pdfrwt beam="2">  1       -2 0.10555940E-02 0.27496643E+03</pdfrwt>
<totfact> 0.56977480E+03</totfact>
</mgrwt>
</event>
<event>
 9    1  0.2117506E-002  0.2689112E+03  0.7818608E-02  0.1101904E+00
         -2   -1    0    0    0  501 -0.00000000000E+00  0.00000000000E+00  0.40736220762E+02  0.40736220762E+02  0.00000000000E+00 0. -1.
          2   -1    0    0  501    0  0.00000000000E+00 -0.00000000000E+00 -0.44378946103E+03  0.44378946103E+03  0.00000000000E+00 0. -1.
         36    2    1    2    0    0  0.00000000000E+00  0.35527136788E-14 -0.40305324027E+03  0.48452568179E+03  0.26891117832E+03 0.  0.
         25    2    3    3    0    0 -0.19807015554E+02  0.18445743785E+02 -0.27689846986E+03  0.30466001604E+03  0.12414668514E+03 0.  0.
         25    2    3    3    0    0  0.19807015554E+02 -0.18445743785E+02 -0.12615477041E+03  0.17986566576E+03  0.12531587406E+03 0.  0.
          5    1    4    4  502    0  0.48846729728E+02  0.29619045495E+02 -0.12170761509E+03  0.13452926980E+03  0.47000000000E+01 0. -1.
         -5    1    4    4    0  502 -0.68653745281E+02 -0.11173301710E+02 -0.15519085477E+03  0.17013074624E+03  0.47000000000E+01 0. -1.
          5    1    5    5  503    0  0.47706037208E+02 -0.30617082230E+02 -0.76121447204E+01  0.57387337084E+02  0.47000000000E+01 0.  1.
         -5    1    5    5    0  503 -0.27899021654E+02  0.12171338445E+02 -0.11854262569E+03  0.12247832867E+03  0.47000000000E+01 0.  1.
<mgrwt>
<rscale>  0 0.26891118E+03</rscale>
<asrwt>0</asrwt>
<pdfrwt beam="1">  1        2 0.68275299E-01 0.26891118E+03</pdfrwt>
<pdfrwt beam="2">  1       -2 0.62671112E-02 0.26891118E+03</pdfrwt>
<totfact> 0.97723617E+03</totfact>
</mgrwt>
</event>
<event>
 9    1  0.2117506E-002  0.2760095E+03  0.7818608E-02  0.1097889E+00
         -1   -1    0    0    0  501 -0.00000000000E+00  0.00000000000E+00  0.82200013549E+03  0.82200013549E+03  0.00000000000E+00 0. -1.
          1   -1    0    0  501    0  0.00000000000E+00 -0.00000000000E+00 -0.23169477550E+02  0.23169477550E+02  0.00000000000E+00 0. -1.
         36    2    1    2    0    0 -0.71054273576E-14  0.35527136788E-14  0.79883065794E+03  0.84516961304E+03  0.27600951929E+03 0.  0.
         25    2    3    3    0    0 -0.43173398111E+02  0.14320602520E+02  0.42815547145E+03  0.44767392883E+03  0.12257983874E+03 0.  0.
         25    2    3    3    0    0  0.43173398111E+02 -0.14320602520E+02  0.37067518649E+03  0.39749568421E+03  0.13613854384E+03 0.  0.
          5    1    4    4  502    0  0.22683831931E+02  0.49096536242E+02  0.14431748599E+03  0.15419031378E+03  0.47000000000E+01 0. -1.
         -5    1    4    4    0  502 -0.65857230043E+02 -0.34775933722E+02  0.28383798546E+03  0.29348361505E+03  0.47000000000E+01 0. -1.
          5    1    5    5  503    0  0.85739728845E+02  0.20036211983E+02  0.24359612538E+03  0.25906353119E+03  0.47000000000E+01 0. -1.
         -5    1    5    5    0  503 -0.42566330734E+02 -0.34356814503E+02  0.12707906111E+03  0.13843215301E+03  0.47000000000E+01 0. -1.
<mgrwt>
<rscale>  0 0.27600952E+03</rscale>
<asrwt>0</asrwt>
<pdfrwt beam="1">  1        1 0.35645356E-02 0.27600952E+03</pdfrwt>
<pdfrwt beam="2">  1       -1 0.12646154E+00 0.27600952E+03</pdfrwt>
<totfact> 0.15567440E+03</totfact>
</mgrwt>
</event>
<event>
 9    1  0.2117506E-002  0.2748771E+03  0.7818608E-02  0.1098520E+00
          2   -1    0    0  501    0  0.00000000000E+00  0.00000000000E+00  0.24378837183E+03  0.24378837183E+03  0.00000000000E+00 0.  1.
         -2   -1    0    0    0  501 -0.00000000000E+00 -0.00000000000E+00 -0.77482616449E+02  0.77482616449E+02  0.00000000000E+00 0.  1.
         36    2    1    2    0    0  0.00000000000E+00 -0.71054273576E-14  0.16630575538E+03  0.32127098828E+03  0.27487714281E+03 0.  0.
         25    2    3    3    0    0 -0.77770635041E+01  0.61258733407E+02  0.71919454806E+02  0.15424400896E+03  0.12167863898E+03 0.  0.
         25    2    3    3    0    0  0.77770635041E+01 -0.61258733407E+02  0.94386300576E+02  0.16702697932E+03  0.12319140778E+03 0.  0.
          5    1    4    4  502    0 -0.37440073192E+02  0.67176179796E+01  0.82611456750E+02  0.91069359601E+02  0.47000000000E+01 0. -1.
         -5    1    4    4    0  502  0.29663009688E+02  0.54541115428E+02 -0.10692001943E+02  0.63174649357E+02  0.47000000000E+01 0. -1.
          5    1    5    5  503    0 -0.26285326310E+02 -0.82186064657E+02  0.92710804490E+02  0.12673930279E+03  0.47000000000E+01 0. -1.
         -5    1    5    5    0  503  0.34062389814E+02  0.20927331250E+02  0.16754960861E+01  0.40287676530E+02  0.47000000000E+01 0. -1.
<mgrwt>
<rscale>  0 0.27487714E+03</rscale>
<asrwt>0</asrwt>
<pdfrwt beam="1">  1        2 0.37505903E-01 0.27487714E+03</pdfrwt>
<pdfrwt beam="2">  1       -2 0.11920403E-01 0.27487714E+03</pdfrwt>
<totfact> 0.67992981E+03</totfact>
</mgrwt>
</event>
<event>
 9    1  0.2117506E-002  0.2757999E+03  0.7818608E-02  0.1098005E+00
         -2   -1    0    0    0  501 -0.00000000000E+00  0.00000000000E+00  0.18494673563E+02  0.18494673563E+02  0.00000000000E+00 0. -1.
          2   -1    0    0  501    0  0.00000000000E+00 -0.00000000000E+00 -0.10282094401E+04  0.10282094401E+04  0.00000000000E+00 0. -1.
         36    2    1    2    0    0  0.35527136788E-14  0.35527136788E-14 -0.10097147666E+04  0.10467041137E+04  0.27579991262E+03 0.  0.
         25    2    3    3    0    0  0.80160771403E+01 -0.31554089870E+02 -0.69080657582E+03  0.70286088045E+03  0.12545825600E+03 0.  0.
         25    2    3    3    0    0 -0.80160771403E+01  0.31554089870E+02 -0.31890819076E+03  0.34384323325E+03  0.12436163733E+03 0.  0.
          5    1    4    4  502    0 -0.39879501611E+02  0.39509565576E+01 -0.52588244973E+03  0.52742812367E+03  0.47000000000E+01 0.  1.
         -5    1    4    4    0  502  0.47895578751E+02 -0.35505046427E+02 -0.16492412609E+03  0.17543275678E+03  0.47000000000E+01 0.  1.
          5    1    5    5  503    0 -0.13011410531E+01  0.71986181387E+02 -0.27185091589E+03  0.28126271305E+03  0.47000000000E+01 0. -1.
         -5    1    5    5    0  503 -0.67149360873E+01 -0.40432091517E+02 -0.47057274868E+02  0.62580520205E+02  0.47000000000E+01 0. -1.
<mgrwt>
<rscale>  0 0.27579991E+03</rscale>
<asrwt>0</asrwt>
<pdfrwt beam="1">  1        2 0.15818608E+00 0.27579991E+03</pdfrwt>
<pdfrwt beam="2">  1       -2 0.28453341E-02 0.27579991E+03</pdfrwt>
<totfact> 0.11540009E+04</totfact>
</mgrwt>
</event>
<event>
 9    1  0.2117506E-002  0.2756607E+03  0.7818608E-02  0.1098083E+00
          2   -1    0    0  501    0  0.00000000000E+00  0.00000000000E+00  0.19348932278E+02  0.19348932278E+02  0.00000000000E+00 0. -1.
         -2   -1    0    0    0  501 -0.00000000000E+00 -0.00000000000E+00 -0.98182222496E+03  0.98182222496E+03  0.00000000000E+00 0. -1.
         36    2    1    2    0    0 -0.14210854715E-13  0.10658141036E-13 -0.96247329269E+03  0.10011711572E+04  0.27566074614E+03 0.  0.
         25    2    3    3    0    0 -0.54914335034E+02 -0.24230586463E+02 -0.45374286478E+03  0.47372402025E+03  0.12218491933E+03 0.  0.
         25    2    3    3    0    0  0.54914335034E+02  0.24230586463E+02 -0.50873042791E+03  0.52744713699E+03  0.12566275713E+03 0.  0.
          5    1    4    4  502    0 -0.64077355472E+02 -0.11679527614E+02 -0.98925957066E+02  0.11853587571E+03  0.47000000000E+01 0.  1.
         -5    1    4    4    0  502  0.91630204379E+01 -0.12551058849E+02 -0.35481690771E+03  0.35518814454E+03  0.47000000000E+01 0.  1.
          5    1    5    5  503    0  0.57194804008E+02  0.67489490232E+02 -0.25373607588E+03  0.26875669871E+03  0.47000000000E+01 0.  1.
         -5    1    5    5    0  503 -0.22804689738E+01 -0.43258903769E+02 -0.25499435202E+03  0.25869043828E+03  0.47000000000E+01 0.  1.
<mgrwt>
<rscale>  0 0.27566075E+03</rscale>
<asrwt>0</asrwt>
<pdfrwt beam="1">  1        2 0.29767582E-02 0.27566075E+03</pdfrwt>
<pdfrwt beam="2">  1       -2 0.15104961E+00 0.27566075E+03</pdfrwt>
<totfact> 0.98639099E+02</totfact>
</mgrwt>
</event>
<event>
 9    1  0.2117506E-002  0.2766951E+03  0.7818608E-02  0.1097508E+00
         -1   -1    0    0    0  501 -0.00000000000E+00  0.00000000000E+00  0.29390394273E+03  0.29390394273E+03  0.00000000000E+00 0.  1.
          1   -1    0    0  501    0  0.00000000000E+00 -0.00000000000E+00 -0.65123486924E+02  0.65123486924E+02  0.00000000000E+00 0.  1.
         36    2    1    2    0    0  0.71054273576E-14  0.71054273576E-14  0.22878045581E+03  0.35902742966E+03  0.27669513600E+03 0.  0.
         25    2    3    3    0    0 -0.38044431521E+02 -0.11781485384E+02  0.56527935662E+02  0.14353937706E+03  0.12578538504E+03 0.  0.
         25    2    3    3    0    0  0.38044431521E+02  0.11781485384E+02  0.17225252015E+03  0.21548805260E+03  0.12319897706E+03 0.  0.
          5    1    4    4  502    0  0.18949902410E+02  0.45224015729E+02  0.97265123991E+01  0.50209615049E+02  0.47000000000E+01 0. -1.
         -5    1    4    4    0  502 -0.56994333931E+02 -0.57005501113E+02  0.46801423263E+02  0.93329762010E+02  0.47000000000E+01 0. -1.
          5    1    5    5  503    0 -0.17295948209E+02 -0.39050356383E+02  0.10897181928E+03  0.11713678993E+03  0.47000000000E+01 0.  1.
         -5    1    5    5    0  503  0.55340379730E+02  0.50831841767E+02  0.63280700872E+02  0.98351262671E+02  0.47000000000E+01 0.  1.
<mgrwt>
<rscale>  0 0.27669514E+03</rscale>
<asrwt>0</asrwt>
<pdfrwt beam="1">  1        1 0.10018998E-01 0.27669514E+03</pdfrwt>
<pdfrwt beam="2">  1       -1 0.45215990E-01 0.27669514E+03</pdfrwt>
<totfact> 0.31531501E+03</totfact>
</mgrwt>
</event>
<event>
 9    1  0.2117506E-002  0.2744533E+03  0.7818608E-02  0.1098758E+00
          3   -1    0    0  501    0  0.00000000000E+00  0.00000000000E+00  0.35760970245E+03  0.35760970245E+03  0.00000000000E+00 0.  1.
         -3   -1    0    0    0  501 -0.00000000000E+00 -0.00000000000E+00 -0.52658377303E+02  0.52658377303E+02  0.00000000000E+00 0.  1.
         36    2    1    2    0    0  0.00000000000E+00  0.00000000000E+00  0.30495132514E+03  0.41026807975E+03  0.27445325022E+03 0.  0.
         25    2    3    3    0    0 -0.37199514480E+02  0.28192407938E+02  0.20052367196E+03  0.24296012644E+03  0.12900102434E+03 0.  0.
         25    2    3    3    0    0  0.37199514480E+02 -0.28192407938E+02  0.10442765318E+03  0.16730795330E+03  0.12209914311E+03 0.  0.
          5    1    4    4  502    0 -0.42368013745E+02  0.41899704920E+02  0.21873658673E+02  0.63648886910E+02  0.47000000000E+01 0.  1.
         -5    1    4    4    0  502  0.51684992651E+01 -0.13707296983E+02  0.17865001329E+03  0.17931123953E+03  0.47000000000E+01 0.  1.
          5    1    5    5  503    0  0.85058639917E+01  0.19293913369E+02  0.10929979128E+03  0.11141426834E+03  0.47000000000E+01 0. -1.
         -5    1    5    5    0  503  0.28693650488E+02 -0.47486321307E+02 -0.48721380990E+01  0.55893684967E+02  0.47000000000E+01 0. -1.
<mgrwt>
<rscale>  0 0.27445325E+03</rscale>
<asrwt>0</asrwt>
<pdfrwt beam="1">  1        3 0.55016876E-01 0.27445325E+03</pdfrwt>
<pdfrwt beam="2">  1       -3 0.81012890E-02 0.27445325E+03</pdfrwt>
<totfact> 0.87450145E+02</totfact>
</mgrwt>
</event>
<event>
 9    1  0.2117506E-002  0.2745483E+03  0.7818608E-02  0.1098704E+00
         -4   -1    0    0    0  501 -0.00000000000E+00  0.00000000000E+00  0.17837016016E+03  0.17837016016E+03  0.00000000000E+00 0.  1.
          4   -1    0    0  501    0  0.00000000000E+00 -0.00000000000E+00 -0.10564652285E+03  0.10564652285E+03  0.00000000000E+00 0.  1.
         36    2    1    2    0    0  0.00000000000E+00  0.71054273576E-14  0.72723637302E+02  0.28401668301E+03  0.27454826316E+03 0.  0.
         25    2    3    3    0    0  0.45714211035E+02 -0.11329805426E+02  0.12925665112E+00  0.13384838987E+03  0.12528855168E+03 0.  0.
         25    2    3    3    0    0 -0.45714211035E+02  0.11329805426E+02  0.72594380651E+02  0.15016829314E+03  0.12272904539E+03 0.  0.
          5    1    4    4  502    0 -0.10925318982E+01 -0.62767906416E+02  0.89537385551E+01  0.63586658474E+02  0.47000000000E+01 0.  1.
         -5    1    4    4    0  502  0.46806742933E+02  0.51438100990E+02 -0.88244819040E+01  0.70261731393E+02  0.47000000000E+01 0.  1.
          5    1    5    5  503    0 -0.70044394486E+02  0.32491786942E+02  0.85336103395E+02  0.11517931221E+03  0.47000000000E+01 0. -1.
         -5    1    5    5    0  503  0.24330183451E+02 -0.21161981516E+02 -0.12741722744E+02  0.34988980936E+02  0.47000000000E+01 0. -1.
<mgrwt>
<rscale>  0 0.27454826E+03</rscale>
<asrwt>0</asrwt>
<pdfrwt beam="1">  1        4 0.16253311E-01 0.27454826E+03</pdfrwt>
<pdfrwt beam="2">  1       -4 0.27441563E-01 0.27454826E+03</pdfrwt>
<totfact> 0.77202283E+02</totfact>
</mgrwt>
</event>
<event>
 9    1  0.2117506E-002  0.2764500E+03  0.7818608E-02  0.1097644E+00
         -1   -1    0    0    0  501 -0.00000000000E+00  0.00000000000E+00  0.88883338737E+02  0.88883338737E+02  0.00000000000E+00 0. -1.
          1   -1    0    0  501    0  0.00000000000E+00 -0.00000000000E+00 -0.21495754122E+03  0.21495754122E+03  0.00000000000E+00 0. -1.
         36    2    1    2    0    0 -0.35527136788E-14  0.71054273576E-14 -0.12607420248E+03  0.30384087995E+03  0.27644995171E+03 0.  0.
         25    2    3    3    0    0 -0.20211385520E+01  0.39806077139E+02 -0.48788798839E+02  0.15225240367E+03  0.13860677744E+03 0.  0.
         25    2    3    3    0    0  0.20211385520E+01 -0.39806077139E+02 -0.77285403641E+02  0.15158847629E+03  0.12416691890E+03 0.  0.
          5    1    4    4  502    0  0.28932240308E+02 -0.23608041946E+02 -0.69088693943E+02  0.78674975720E+02  0.47000000000E+01 0.  1.
         -5    1    4    4    0  502 -0.30953378859E+02  0.63414119085E+02  0.20299895104E+02  0.73577427947E+02  0.47000000000E+01 0.  1.
          5    1    5    5  503    0  0.19944372503E+02 -0.76980251331E+02 -0.22385435995E+02  0.82746207371E+02  0.47000000000E+01 0. -1.
         -5    1    5    5    0  503 -0.17923233951E+02  0.37174174193E+02 -0.54899967646E+02  0.68842268917E+02  0.47000000000E+01 0. -1.
<mgrwt>
<rscale>  0 0.27644995E+03</rscale>
<asrwt>0</asrwt>
<pdfrwt beam="1">  1        1 0.33070391E-01 0.27644995E+03</pdfrwt>
<pdfrwt beam="2">  1       -1 0.13674360E-01 0.27644995E+03</pdfrwt>
<totfact> 0.49517425E+03</totfact>
</mgrwt>
</event>
<event>
 8    1  0.2117506E-002  0.3445853E+03  0.7818608E-02  0.1064860E+00
         -1   -1    0    0    0  501 -0.00000000000E+00  0.00000000000E+00  0.23462840018E+02  0.23462840018E+02  0.00000000000E+00 0. -1.
          1   -1    0    0  501    0  0.00000000000E+00 -0.00000000000E+00 -0.12651818257E+04  0.12651818257E+04  0.00000000000E+00 0. -1.
         25    2    1    2    0    0  0.75739689577E+02  0.34342583677E+02 -0.31536344561E+03  0.35010693802E+03  0.12729827804E+03 0.  0.
         25    2    1    2    0    0 -0.75739689577E+02 -0.34342583677E+02 -0.92635554004E+03  0.93853772767E+03  0.12570825772E+03 0.  0.
          5    1    3    3  502    0  0.98398353509E+02 -0.12826802931E+02 -0.19821773401E+03  0.22171856693E+03  0.47000000000E+01 0.  1.
         -5    1    3    3    0  502 -0.22658663932E+02  0.47169386608E+02 -0.11714571159E+03  0.12838837108E+03  0.47000000000E+01 0.  1.
          5    1    4    4  503    0 -0.42518677479E+02 -0.12027117635E+02 -0.85828550008E+03  0.85943503486E+03  0.47000000000E+01 0.  1.
         -5    1    4    4    0  503 -0.33221012098E+02 -0.22315466042E+02 -0.68070039963E+02  0.79102692812E+02  0.47000000000E+01 0.  1.
<mgrwt>
<rscale>  0 0.34458531E+03</rscale>
<asrwt>0</asrwt>
<pdfrwt beam="1">  1        1 0.19464340E+00 0.34458531E+03</pdfrwt>
<pdfrwt beam="2">  1       -1 0.36096670E-02 0.34458531E+03</pdfrwt>
<totfact> 0.29611024E+03</totfact>
</mgrwt>
</event>
<event>
 9    1  0.2117506E-002  0.2739117E+03  0.7818608E-02  0.1099061E+00
          1   -1    0    0  501    0  0.00000000000E+00  0.00000000000E+00  0.96030193837E+03  0.96030193837E+03  0.00000000000E+00 0. -1.
         -1   -1    0    0    0  501 -0.00000000000E+00 -0.00000000000E+00 -0.19532303805E+02  0.19532303805E+02  0.00000000000E+00 0. -1.
         36    2    1    2    0    0  0.71054273576E-14  0.35527136788E-14  0.94076963456E+03  0.97983424217E+03  0.27391173180E+03 0.  0.
         25    2    3    3    0    0  0.55168959215E+02  0.10519425186E+02  0.47848482835E+03  0.49834360720E+03  0.12745331501E+03 0.  0.
         25    2    3    3    0    0 -0.55168959215E+02 -0.10519425186E+02  0.46228480621E+03  0.48149063498E+03  0.12235896840E+03 0.  0.
          5    1    4    4  502    0 -0.30750232266E+02  0.23377948028E+02  0.64611704465E+02  0.75424582149E+02  0.47000000000E+01 0. -1.
         -5    1    4    4    0  502  0.85919191481E+02 -0.12858522842E+02  0.41387312389E+03  0.42291902505E+03  0.47000000000E+01 0. -1.
          5    1    5    5  503    0  0.80829806934E+01 -0.34884481819E+02  0.33732730090E+03  0.33925515410E+03  0.47000000000E+01 0.  1.
         -5    1    5    5    0  503 -0.63251939908E+02  0.24365056633E+02  0.12495750531E+03  0.14223548088E+03  0.47000000000E+01 0.  1.
<mgrwt>
<rscale>  0 0.27391173E+03</rscale>
<asrwt>0</asrwt>
<pdfrwt beam="1">  1        1 0.14773872E+00 0.27391173E+03</pdfrwt>
<pdfrwt beam="2">  1       -1 0.30049706E-02 0.27391173E+03</pdfrwt>
<totfact> 0.64432255E+03</totfact>
</mgrwt>
</event>
<event>
 9    1  0.2117506E-002  0.2747683E+03  0.7818608E-02  0.1098581E+00
          2   -1    0    0  501    0  0.00000000000E+00  0.00000000000E+00  0.42749107661E+03  0.42749107661E+03  0.00000000000E+00 0.  1.
         -2   -1    0    0    0  501 -0.00000000000E+00 -0.00000000000E+00 -0.44151590043E+02  0.44151590043E+02  0.00000000000E+00 0.  1.
         36    2    1    2    0    0 -0.71054273576E-14 -0.53290705182E-14  0.38333948657E+03  0.47164266665E+03  0.27476834433E+03 0.  0.
         25    2    3    3    0    0  0.75995797969E+01 -0.37899021656E+01  0.73131681380E+02  0.14362219852E+03  0.12331656869E+03 0.  0.
         25    2    3    3    0    0 -0.75995797969E+01  0.37899021656E+01  0.31020780519E+03  0.32802046814E+03  0.10628465621E+03 0.  0.
          5    1    4    4  502    0 -0.57350962730E+02  0.38863177863E+01  0.28747877166E+02  0.64441964849E+02  0.47000000000E+01 0.  1.
         -5    1    4    4    0  502  0.64950542527E+02 -0.76762199519E+01  0.44383804213E+02  0.79180233668E+02  0.47000000000E+01 0.  1.
          5    1    5    5  503    0  0.25394169138E+02  0.40298101039E+02  0.22010198503E+03  0.22524603124E+03  0.47000000000E+01 0.  1.
         -5    1    5    5    0  503 -0.32993748935E+02 -0.36508198874E+02  0.90105820154E+02  0.10277443690E+03  0.47000000000E+01 0.  1.
<mgrwt>
<rscale>  0 0.27476834E+03</rscale>
<asrwt>0</asrwt>
<pdfrwt beam="1">  1        2 0.65767855E-01 0.27476834E+03</pdfrwt>
<pdfrwt beam="2">  1       -2 0.67925526E-02 0.27476834E+03</pdfrwt>
<totfact> 0.90008129E+03</totfact>
</mgrwt>
</event>
<event>
 9    1  0.2117506E-002  0.2707925E+03  0.7818608E-02  0.1100827E+00
         -2   -1    0    0    0  501 -0.00000000000E+00  0.00000000000E+00  0.33274790141E+03  0.33274790141E+03  0.00000000000E+00 0. -1.
          2   -1    0    0  501    0  0.00000000000E+00 -0.00000000000E+00 -0.55093185296E+02  0.55093185296E+02  0.00000000000E+00 0. -1.
         36    2    1    2    0    0  0.14210854715E-13  0.00000000000E+00  0.27765471611E+03  0.38784108670E+03  0.27079247987E+03 0.  0.
         25    2    3    3    0    0  0.36118181037E+02  0.29385989203E+02  0.20079281272E+03  0.24737472090E+03  0.13677879784E+03 0.  0.
         25    2    3    3    0    0 -0.36118181037E+02 -0.29385989203E+02  0.76861903395E+02  0.14046636581E+03  0.10795827141E+03 0.  0.
          5    1    4    4  502    0 -0.45095586937E+01 -0.52330864894E+02  0.82160816713E+02  0.97628609245E+02  0.47000000000E+01 0.  1.
         -5    1    4    4    0  502  0.40627739731E+02  0.81716854097E+02  0.11863199600E+03  0.14974611165E+03  0.47000000000E+01 0.  1.
          5    1    5    5  503    0 -0.70241817529E+02 -0.25144549758E+02  0.26517557548E+02  0.79318548717E+02  0.47000000000E+01 0. -1.
         -5    1    5    5    0  503  0.34123636492E+02 -0.42414394448E+01  0.50344345847E+02  0.61147817089E+02  0.47000000000E+01 0. -1.
<mgrwt>
<rscale>  0 0.27079248E+03</rscale>
<asrwt>0</asrwt>
<pdfrwt beam="1">  1        2 0.84758748E-02 0.27079248E+03</pdfrwt>
<pdfrwt beam="2">  1       -2 0.51191984E-01 0.27079248E+03</pdfrwt>
<totfact> 0.28807083E+03</totfact>
</mgrwt>
</event>
<event>
 9    1  0.2117506E-002  0.2748197E+03  0.7818608E-02  0.1098552E+00
         -1   -1    0    0    0  501 -0.00000000000E+00  0.00000000000E+00  0.10381348302E+03  0.10381348302E+03  0.00000000000E+00 0.  1.
          1   -1    0    0  501    0  0.00000000000E+00 -0.00000000000E+00 -0.18187878881E+03  0.18187878881E+03  0.00000000000E+00 0.  1.
         36    2    1    2    0    0  0.71054273576E-14 -0.71054273576E-14 -0.78065305790E+02  0.28569227183E+03  0.27481972676E+03 0.  0.
         25    2    3    3    0    0  0.32698118615E+02 -0.11647747885E+01  0.14029544036E+02  0.12773123463E+03  0.12266994959E+03 0.  0.
         25    2    3    3    0    0 -0.32698118615E+02  0.11647747885E+01 -0.92094849825E+02  0.15796103721E+03  0.12409554484E+03 0.  0.
          5    1    4    4  502    0  0.55298940312E+02 -0.48773243721E+02  0.11375066648E+02  0.74754827562E+02  0.47000000000E+01 0.  1.
         -5    1    4    4    0  502 -0.22600821696E+02  0.47608468932E+02  0.26544773877E+01  0.52976407066E+02  0.47000000000E+01 0.  1.
          5    1    5    5  503    0  0.33047621832E+02  0.38792394066E+02 -0.48106386673E+02  0.70237522628E+02  0.47000000000E+01 0. -1.
         -5    1    5    5    0  503 -0.65745740447E+02 -0.37627619277E+02 -0.43988463152E+02  0.87723514578E+02  0.47000000000E+01 0. -1.
<mgrwt>
<rscale>  0 0.27481973E+03</rscale>
<asrwt>0</asrwt>
<pdfrwt beam="1">  1        1 0.27981352E-01 0.27481973E+03</pdfrwt>
<pdfrwt beam="2">  1       -1 0.15971305E-01 0.27481973E+03</pdfrwt>
<totfact> 0.47789059E+03</totfact>
</mgrwt>
</event>
<event>
 9    1  0.2117506E-002  0.2755403E+03  0.7818608E-02  0.1098150E+00
         -4   -1    0    0    0  501 -0.00000000000E+00  0.00000000000E+00  0.16003655466E+04  0.16003655466E+04  0.00000000000E+00 0.  1.
          4   -1    0    0  501    0  0.00000000000E+00 -0.00000000000E+00 -0.11860175444E+02  0.11860175444E+02  0.00000000000E+00 0.  1.
         36    2    1    2    0    0  0.71054273576E-14 -0.71054273576E-14  0.15885053711E+04  0.16122257220E+04  0.27554031398E+03 0.  0.
         25    2    3    3    0    0 -0.58414911784E+02  0.59757235285E+01  0.86042600534E+03  0.87134133895E+03  0.12431736445E+03 0.  0.
         25    2    3    3    0    0  0.58414911784E+02 -0.59757235285E+01  0.72807936580E+03  0.74088438308E+03  0.12394391876E+03 0.  0.
          5    1    4    4  502    0  0.16418402529E+02 -0.39732939180E+02  0.17275330552E+03  0.17808443212E+03  0.47000000000E+01 0.  1.
         -5    1    4    4    0  502 -0.74833314313E+02  0.45708662709E+02  0.68767269983E+03  0.69325690683E+03  0.47000000000E+01 0.  1.
          5    1    5    5  503    0  0.61392381003E+02 -0.57821067665E+02  0.41753230171E+03  0.42599015632E+03  0.47000000000E+01 0. -1.
         -5    1    5    5    0  503 -0.29774692188E+01  0.51845344136E+02  0.31054706408E+03  0.31489422675E+03  0.47000000000E+01 0. -1.
<mgrwt>
<rscale>  0 0.27554031E+03</rscale>
<asrwt>0</asrwt>
<pdfrwt beam="1">  1        4 0.18246436E-02 0.27554031E+03</pdfrwt>
<pdfrwt beam="2">  1       -4 0.24620991E+00 0.27554031E+03</pdfrwt>
<totfact> 0.16490068E+02</totfact>
</mgrwt>
</event>
<event>
 9    1  0.2117506E-002  0.2762820E+03  0.7818608E-02  0.1097737E+00
         -1   -1    0    0    0  501 -0.00000000000E+00  0.00000000000E+00  0.75482492438E+02  0.75482492438E+02  0.00000000000E+00 0.  1.
          1   -1    0    0  501    0  0.00000000000E+00 -0.00000000000E+00 -0.25281278006E+03  0.25281278006E+03  0.00000000000E+00 0.  1.
         36    2    1    2    0    0  0.00000000000E+00 -0.14210854715E-13 -0.17733028762E+03  0.32829527250E+03  0.27628202083E+03 0.  0.
         25    2    3    3    0    0  0.36701681771E+02  0.45621418465E+02 -0.75087110441E+02  0.15622299969E+03  0.12385162175E+03 0.  0.
         25    2    3    3    0    0 -0.36701681771E+02 -0.45621418465E+02 -0.10224317718E+03  0.17207227280E+03  0.12540682805E+03 0.  0.
          5    1    4    4  502    0  0.41131975178E+02  0.79936792160E+02 -0.80650187326E+02  0.12086468814E+03  0.47000000000E+01 0. -1.
         -5    1    4    4    0  502 -0.44302934071E+01 -0.34315373695E+02  0.55630768847E+01  0.35358311554E+02  0.47000000000E+01 0. -1.
          5    1    5    5  503    0 -0.63954769652E+02 -0.72571845375E+02 -0.88179712639E+02  0.13097571158E+03  0.47000000000E+01 0. -1.
         -5    1    5    5    0  503  0.27253087881E+02  0.26950426910E+02 -0.14063464539E+02  0.41096561225E+02  0.47000000000E+01 0. -1.
<mgrwt>
<rscale>  0 0.27628202E+03</rscale>
<asrwt>0</asrwt>
<pdfrwt beam="1">  1        1 0.38894274E-01 0.27628202E+03</pdfrwt>
<pdfrwt beam="2">  1       -1 0.11612691E-01 0.27628202E+03</pdfrwt>
<totfact> 0.52176398E+03</totfact>
</mgrwt>
</event>
<event>
 9    1  0.2117506E-002  0.2743804E+03  0.7818608E-02  0.1098798E+00
          1   -1    0    0  501    0  0.00000000000E+00  0.00000000000E+00  0.29328264904E+03  0.29328264904E+03  0.00000000000E+00 0. -1.
         -1   -1    0    0    0  501 -0.00000000000E+00 -0.00000000000E+00 -0.64174094066E+02  0.64174094066E+02  0.00000000000E+00 0. -1.
         36    2    1    2    0    0 -0.35527136788E-14  0.00000000000E+00  0.22910855497E+03  0.35745674310E+03  0.27438038055E+03 0.  0.
         25    2    3    3    0    0  0.19494896176E+02  0.35315365439E+02  0.16627277350E+03  0.20995103993E+03  0.12167817367E+03 0.  0.
         25    2    3    3    0    0 -0.19494896176E+02 -0.35315365439E+02  0.62835781475E+02  0.14750570318E+03  0.12720994860E+03 0.  0.
          5    1    4    4  502    0  0.49078971494E+02  0.31394664328E+02  0.16975905856E+03  0.17953996311E+03  0.47000000000E+01 0.  1.
         -5    1    4    4    0  502 -0.29584075317E+02  0.39207011106E+01 -0.34862850612E+01  0.30411076816E+02  0.47000000000E+01 0.  1.
          5    1    5    5  503    0 -0.44378480850E+02 -0.52667093847E+02  0.85104235474E+02  0.10958144566E+03  0.47000000000E+01 0. -1.
         -5    1    5    5    0  503  0.24883584673E+02  0.17351728408E+02 -0.22268453999E+02  0.37924257520E+02  0.47000000000E+01 0. -1.
<mgrwt>
<rscale>  0 0.27438038E+03</rscale>
<asrwt>0</asrwt>
<pdfrwt beam="1">  1        1 0.45120407E-01 0.27438038E+03</pdfrwt>
<pdfrwt beam="2">  1       -1 0.98729378E-02 0.27438038E+03</pdfrwt>
<totfact> 0.55692701E+03</totfact>
</mgrwt>
</event>
<event>
 9    1  0.2117506E-002  0.2741407E+03  0.7818608E-02  0.1098933E+00
          2   -1    0    0  501    0  0.00000000000E+00  0.00000000000E+00  0.56713304530E+03  0.56713304530E+03  0.00000000000E+00 0.  1.
         -2   -1    0    0    0  501 -0.00000000000E+00 -0.00000000000E+00 -0.33128521723E+02  0.33128521723E+02  0.00000000000E+00 0.  1.
         36    2    1    2    0    0 -0.71054273576E-14  0.35527136788E-14  0.53400452357E+03  0.60026156702E+03  0.27414068951E+03 0.  0.
         25    2    3    3    0    0  0.62821908501E+02 -0.94557015492E+01  0.17921680347E+03  0.22223350661E+03  0.11503506568E+03 0.  0.
         25    2    3    3    0    0 -0.62821908501E+02  0.94557015492E+01  0.35478772011E+03  0.37802806041E+03  0.11399511234E+03 0.  0.
          5    1    4    4  502    0 -0.10075697622E+02  0.31025880989E+02  0.11558746467E+02  0.34925915787E+02  0.47000000000E+01 0. -1.
         -5    1    4    4    0  502  0.72897606123E+02 -0.40481582538E+02  0.16765805700E+03  0.18730759082E+03  0.47000000000E+01 0. -1.
          5    1    5    5  503    0 -0.52811575958E+02  0.59003586106E+02  0.23069462818E+03  0.24395201823E+03  0.47000000000E+01 0.  1.
         -5    1    5    5    0  503 -0.10010332544E+02 -0.49547884556E+02  0.12409309193E+03  0.13407604218E+03  0.47000000000E+01 0.  1.
<mgrwt>
<rscale>  0 0.27414069E+03</rscale>
<asrwt>0</asrwt>
<pdfrwt beam="1">  1        2 0.87251230E-01 0.27414069E+03</pdfrwt>
<pdfrwt beam="2">  1       -2 0.50966961E-02 0.27414069E+03</pdfrwt>
<totfact> 0.10192871E+04</totfact>
</mgrwt>
</event>
<event>
 9    1  0.2117506E-002  0.2760747E+03  0.7818608E-02  0.1097852E+00
          2   -1    0    0  501    0  0.00000000000E+00  0.00000000000E+00  0.27297521360E+03  0.27297521360E+03  0.00000000000E+00 0. -1.
         -2   -1    0    0    0  501 -0.00000000000E+00 -0.00000000000E+00 -0.69802320394E+02  0.69802320394E+02  0.00000000000E+00 0. -1.
         36    2    1    2    0    0  0.00000000000E+00  0.71054273576E-14  0.20317289320E+03  0.34277753399E+03  0.27607465164E+03 0.  0.
         25    2    3    3    0    0  0.28915337327E+02  0.19235911543E+02  0.13564896601E+03  0.19645386164E+03  0.13779463251E+03 0.  0.
         25    2    3    3    0    0 -0.28915337327E+02 -0.19235911543E+02  0.67523927191E+02  0.14632367235E+03  0.12508005165E+03 0.  0.
          5    1    4    4  502    0 -0.46075819919E+01 -0.46486119125E+02  0.61660358167E+01  0.47352920510E+02  0.47000000000E+01 0.  1.
         -5    1    4    4    0  502  0.33522919319E+02  0.65722030669E+02  0.12948293020E+03  0.14910094113E+03  0.47000000000E+01 0.  1.
          5    1    5    5  503    0  0.19933050254E+02  0.38451353531E+02  0.54010579414E+02  0.69390674946E+02  0.47000000000E+01 0. -1.
         -5    1    5    5    0  503 -0.48848387581E+02 -0.57687265074E+02  0.13513347777E+02  0.76932997401E+02  0.47000000000E+01 0. -1.
<mgrwt>
<rscale>  0 0.27607465E+03</rscale>
<asrwt>0</asrwt>
<pdfrwt beam="1">  1        2 0.41996186E-01 0.27607465E+03</pdfrwt>
<pdfrwt beam="2">  1       -2 0.10738819E-01 0.27607465E+03</pdfrwt>
<totfact> 0.71182343E+03</totfact>
</mgrwt>
</event>
<event>
 9    1  0.2117506E-002  0.2752685E+03  0.7818608E-02  0.1098302E+00
         -2   -1    0    0    0  501 -0.00000000000E+00  0.00000000000E+00  0.16068720199E+02  0.16068720199E+02  0.00000000000E+00 0.  1.
          2   -1    0    0  501    0  0.00000000000E+00 -0.00000000000E+00 -0.11788856949E+04  0.11788856949E+04  0.00000000000E+00 0.  1.
         36    2    1    2    0    0  0.00000000000E+00  0.00000000000E+00 -0.11628169747E+04  0.11949544151E+04  0.27526848260E+03 0.  0.
         25    2    3    3    0    0  0.10743184659E+02 -0.32543199008E+02 -0.40218704220E+03  0.42567779637E+03  0.13517652750E+03 0.  0.
         25    2    3    3    0    0 -0.10743184659E+02  0.32543199008E+02 -0.76062993253E+03  0.76927661876E+03  0.10979137532E+03 0.  0.
          5    1    4    4  502    0  0.66016965150E+02  0.22624634672E+01 -0.13216395635E+03  0.14782678981E+03  0.47000000000E+01 0. -1.
         -5    1    4    4    0  502 -0.55273780491E+02 -0.34805662475E+02 -0.27002308585E+03  0.27785100655E+03  0.47000000000E+01 0. -1.
          5    1    5    5  503    0 -0.44047306170E+02 -0.19963079304E+02 -0.23568263262E+03  0.24063890591E+03  0.47000000000E+01 0. -1.
         -5    1    5    5    0  503  0.33304121511E+02  0.52506278312E+02 -0.52494729990E+03  0.52863771285E+03  0.47000000000E+01 0. -1.
<mgrwt>
<rscale>  0 0.27526848E+03</rscale>
<asrwt>0</asrwt>
<pdfrwt beam="1">  1        2 0.18136710E+00 0.27526848E+03</pdfrwt>
<pdfrwt beam="2">  1       -2 0.24721098E-02 0.27526848E+03</pdfrwt>
<totfact> 0.11593991E+04</totfact>
</mgrwt>
</event>
<event>
 9    1  0.2117506E-002  0.2749925E+03  0.7818608E-02  0.1098456E+00
          1   -1    0    0  501    0  0.00000000000E+00  0.00000000000E+00  0.43255988241E+03  0.43255988241E+03  0.00000000000E+00 0. -1.
         -1   -1    0    0    0  501 -0.00000000000E+00 -0.00000000000E+00 -0.43705423473E+02  0.43705423473E+02  0.00000000000E+00 0. -1.
         36    2    1    2    0    0 -0.14210854715E-13  0.00000000000E+00  0.38885445894E+03  0.47626530588E+03  0.27499245690E+03 0.  0.
         25    2    3    3    0    0 -0.21758904841E+02 -0.25501888322E+02  0.12160724255E+03  0.17962009860E+03  0.12787205377E+03 0.  0.
         25    2    3    3    0    0  0.21758904841E+02  0.25501888322E+02  0.26724721639E+03  0.29664520728E+03  0.12431213974E+03 0.  0.
          5    1    4    4  502    0 -0.67130974543E+02 -0.46579040139E+02  0.71910307442E+02  0.10894657883E+03  0.47000000000E+01 0.  1.
         -5    1    4    4    0  502  0.45372069702E+02  0.21077151817E+02  0.49696935104E+02  0.70673519769E+02  0.47000000000E+01 0.  1.
          5    1    5    5  503    0  0.73575476732E+02  0.17702767295E+02  0.16795187715E+03  0.18427333444E+03  0.47000000000E+01 0.  1.
         -5    1    5    5    0  503 -0.51816571891E+02  0.77991210265E+01  0.99295339236E+02  0.11237187284E+03  0.47000000000E+01 0.  1.
<mgrwt>
<rscale>  0 0.27499246E+03</rscale>
<asrwt>0</asrwt>
<pdfrwt beam="1">  1        1 0.66547671E-01 0.27499246E+03</pdfrwt>
<pdfrwt beam="2">  1       -1 0.67239116E-02 0.27499246E+03</pdfrwt>
<totfact> 0.61140078E+03</totfact>
</mgrwt>
</event>
<event>
 9    1  0.2117506E-002  0.2631794E+03  0.7818608E-02  0.1105248E+00
         -2   -1    0    0    0  501 -0.00000000000E+00  0.00000000000E+00  0.40802209242E+02  0.40802209242E+02  0.00000000000E+00 0.  1.
          2   -1    0    0  501    0  0.00000000000E+00 -0.00000000000E+00 -0.42438505070E+03  0.42438505070E+03  0.00000000000E+00 0.  1.
         36    2    1    2    0    0  0.00000000000E+00  0.35527136788E-14 -0.38358284146E+03  0.46518725995E+03  0.26317938854E+03 0.  0.
         25    2    3    3    0    0  0.32625722612E+02 -0.19158206701E+02 -0.20916036646E+03  0.24761111222E+03  0.12701074496E+03 0.  0.
         25    2    3    3    0    0 -0.32625722612E+02  0.19158206701E+02 -0.17442247500E+03  0.21757614773E+03  0.12443755709E+03 0.  0.
          5    1    4    4  502    0 -0.11048711664E+02 -0.38117176825E+02 -0.78930967804E+01  0.40735539463E+02  0.47000000000E+01 0.  1.
         -5    1    4    4    0  502  0.43674434276E+02  0.18958970124E+02 -0.20126726968E+03  0.20687557275E+03  0.47000000000E+01 0.  1.
          5    1    5    5  503    0 -0.18377436120E+02  0.33002003526E+02 -0.18880499232E+03  0.19260393952E+03  0.47000000000E+01 0. -1.
         -5    1    5    5    0  503 -0.14248286493E+02 -0.13843796825E+02  0.14382517315E+02  0.24972208209E+02  0.47000000000E+01 0. -1.
<mgrwt>
<rscale>  0 0.26317939E+03</rscale>
<asrwt>0</asrwt>
<pdfrwt beam="1">  1        2 0.65290006E-01 0.26317939E+03</pdfrwt>
<pdfrwt beam="2">  1       -2 0.62772632E-02 0.26317939E+03</pdfrwt>
<totfact> 0.10228131E+04</totfact>
</mgrwt>
</event>
<event>
 9    1  0.2117506E-002  0.2752800E+03  0.7818608E-02  0.1098295E+00
         -2   -1    0    0    0  501 -0.00000000000E+00  0.00000000000E+00  0.15451819983E+03  0.15451819983E+03  0.00000000000E+00 0. -1.
          2   -1    0    0  501    0  0.00000000000E+00 -0.00000000000E+00 -0.12260543874E+03  0.12260543874E+03  0.00000000000E+00 0. -1.
         36    2    1    2    0    0 -0.71054273576E-14 -0.35527136788E-14  0.31912761095E+02  0.27712363857E+03  0.27528001513E+03 0.  0.
         25    2    3    3    0    0 -0.15206661039E+02 -0.68284117894E+01 -0.44432680943E+02  0.13050243819E+03  0.12156789663E+03 0.  0.
         25    2    3    3    0    0  0.15206661039E+02  0.68284117894E+01  0.76345442038E+02  0.14662120038E+03  0.12406159814E+03 0.  0.
          5    1    4    4  502    0  0.35767105241E+02  0.31995020736E+02  0.63149599995E+01  0.48630606505E+02  0.47000000000E+01 0. -1.
         -5    1    4    4    0  502 -0.50973766281E+02 -0.38823432526E+02 -0.50747640943E+02  0.81871831683E+02  0.47000000000E+01 0. -1.
          5    1    5    5  503    0 -0.48394018962E+02 -0.22029285619E+02  0.45447680958E+02  0.70106006880E+02  0.47000000000E+01 0.  1.
         -5    1    5    5    0  503  0.63600680002E+02  0.28857697408E+02  0.30897761080E+02  0.76515193499E+02  0.47000000000E+01 0.  1.
<mgrwt>
<rscale>  0 0.27528002E+03</rscale>
<asrwt>0</asrwt>
<pdfrwt beam="1">  1        2 0.18862375E-01 0.27528002E+03</pdfrwt>
<pdfrwt beam="2">  1       -2 0.23772031E-01 0.27528002E+03</pdfrwt>
<totfact> 0.45908815E+03</totfact>
</mgrwt>
</event>
<event>
 9    1  0.2117506E-002  0.2751162E+03  0.7818608E-02  0.1098387E+00
          2   -1    0    0  501    0  0.00000000000E+00  0.00000000000E+00  0.92467609839E+01  0.92467609839E+01  0.00000000000E+00 0. -1.
         -2   -1    0    0    0  501 -0.00000000000E+00 -0.00000000000E+00 -0.20463631830E+04  0.20463631830E+04  0.00000000000E+00 0. -1.
         36    2    1    2    0    0  0.00000000000E+00  0.00000000000E+00 -0.20371164220E+04  0.20556099440E+04  0.27511620265E+03 0.  0.
         25    2    3    3    0    0  0.29528098211E+02  0.25275107877E+02 -0.74879163469E+03  0.76072944994E+03  0.12848986010E+03 0.  0.
         25    2    3    3    0    0 -0.29528098211E+02 -0.25275107877E+02 -0.12883247873E+04  0.12948804941E+04  0.12419338379E+03 0.  0.
          5    1    4    4  502    0  0.35680698579E+02 -0.27490246685E+01 -0.71598309716E+03  0.71689228954E+03  0.47000000000E+01 0.  1.
         -5    1    4    4    0  502 -0.61526003678E+01  0.28024132546E+02 -0.32808537538E+02  0.43837160396E+02  0.47000000000E+01 0.  1.
          5    1    5    5  503    0 -0.37357624901E+02  0.34140274786E+02 -0.94254364200E+03  0.94391300318E+03  0.47000000000E+01 0.  1.
         -5    1    5    5    0  503  0.78295266900E+01 -0.59415382663E+02 -0.34578114534E+03  0.35096749088E+03  0.47000000000E+01 0.  1.
<mgrwt>
<rscale>  0 0.27511620E+03</rscale>
<asrwt>0</asrwt>
<pdfrwt beam="1">  1        2 0.14225788E-02 0.27511620E+03</pdfrwt>
<pdfrwt beam="2">  1       -2 0.31482507E+00 0.27511620E+03</pdfrwt>
<totfact> 0.26359934E+02</totfact>
</mgrwt>
</event>
<event>
 9    1  0.2117506E-002  0.2751482E+03  0.7818608E-02  0.1098369E+00
          2   -1    0    0  501    0  0.00000000000E+00  0.00000000000E+00  0.15600888767E+03  0.15600888767E+03  0.00000000000E+00 0.  1.
         -2   -1    0    0    0  501 -0.00000000000E+00 -0.00000000000E+00 -0.12131765117E+03  0.12131765117E+03  0.00000000000E+00 0.  1.
         36    2    1    2    0    0 -0.71054273576E-14  0.00000000000E+00  0.34691236500E+02  0.27732653884E+03  0.27514819145E+03 0.  0.
         25    2    3    3    0    0  0.35729249361E+02  0.44102096593E+02  0.43576292401E+02  0.14155493555E+03  0.12213653153E+03 0.  0.
         25    2    3    3    0    0 -0.35729249361E+02 -0.44102096593E+02 -0.88850559013E+01  0.13577160330E+03  0.12301792495E+03 0.  0.
          5    1    4    4  502    0 -0.96560928455E+01  0.14018036049E+02  0.75988542323E+02  0.78013422102E+02  0.47000000000E+01 0. -1.
         -5    1    4    4    0  502  0.45385342206E+02  0.30084060544E+02 -0.32412249922E+02  0.63541513446E+02  0.47000000000E+01 0. -1.
          5    1    5    5  503    0 -0.50692798499E+02 -0.13019391842E+01  0.43039126704E+02  0.66677667122E+02  0.47000000000E+01 0. -1.
         -5    1    5    5    0  503  0.14963549139E+02 -0.42800157409E+02 -0.51924182605E+02  0.69093936176E+02  0.47000000000E+01 0. -1.
<mgrwt>
<rscale>  0 0.27514819E+03</rscale>
<asrwt>0</asrwt>
<pdfrwt beam="1">  1        2 0.24001367E-01 0.27514819E+03</pdfrwt>
<pdfrwt beam="2">  1       -2 0.18664254E-01 0.27514819E+03</pdfrwt>
<totfact> 0.52951715E+03</totfact>
</mgrwt>
</event>
<event>
 9    1  0.2117506E-002  0.2745125E+03  0.7818608E-02  0.1098724E+00
         -2   -1    0    0    0  501 -0.00000000000E+00  0.00000000000E+00  0.33472851560E+03  0.33472851560E+03  0.00000000000E+00 0.  1.
          2   -1    0    0  501    0  0.00000000000E+00 -0.00000000000E+00 -0.56282264850E+02  0.56282264850E+02  0.00000000000E+00 0.  1.
         36    2    1    2    0    0  0.00000000000E+00  0.00000000000E+00  0.27844625075E+03  0.39101078045E+03  0.27451250586E+03 0.  0.
         25    2    3    3    0    0  0.40433441753E+02 -0.42092680566E+02  0.12221684620E+03  0.18365549929E+03  0.12403921943E+03 0.  0.
         25    2    3    3    0    0 -0.40433441753E+02  0.42092680566E+02  0.15622940455E+03  0.20735528116E+03  0.12321496990E+03 0.  0.
          5    1    4    4  502    0  0.26778966098E+02  0.38308204094E+02  0.77243416538E+02  0.90406122164E+02  0.47000000000E+01 0. -1.
         -5    1    4    4    0  502  0.13654475654E+02 -0.80400884660E+02  0.44973429663E+02  0.93249377130E+02  0.47000000000E+01 0. -1.
          5    1    5    5  503    0 -0.41367339035E+02 -0.10490002643E+02  0.52071998217E+00  0.42937839298E+02  0.47000000000E+01 0. -1.
         -5    1    5    5    0  503  0.93389728227E+00  0.52582683209E+02  0.15570868457E+03  0.16441744186E+03  0.47000000000E+01 0. -1.
<mgrwt>
<rscale>  0 0.27451251E+03</rscale>
<asrwt>0</asrwt>
<pdfrwt beam="1">  1        2 0.86588102E-02 0.27451251E+03</pdfrwt>
<pdfrwt beam="2">  1       -2 0.51496693E-01 0.27451251E+03</pdfrwt>
<totfact> 0.27720577E+03</totfact>
</mgrwt>
</event>
<event>
 9    1  0.2117506E-002  0.2750446E+03  0.7818608E-02  0.1098427E+00
          2   -1    0    0  501    0  0.00000000000E+00  0.00000000000E+00  0.87072649922E+03  0.87072649922E+03  0.00000000000E+00 0.  1.
         -2   -1    0    0    0  501 -0.00000000000E+00 -0.00000000000E+00 -0.21720226351E+02  0.21720226351E+02  0.00000000000E+00 0.  1.
         36    2    1    2    0    0  0.17763568394E-14  0.00000000000E+00  0.84900627287E+03  0.89244672557E+03  0.27504455387E+03 0.  0.
         25    2    3    3    0    0  0.43214894695E+01  0.60364112146E+02  0.44299394444E+03  0.46419960397E+03  0.12480038544E+03 0.  0.
         25    2    3    3    0    0 -0.43214894695E+01 -0.60364112146E+02  0.40601232842E+03  0.42824712160E+03  0.12201264287E+03 0.  0.
          5    1    4    4  502    0 -0.11631230290E+02 -0.19955062912E+02  0.28690644167E+03  0.28787303856E+03  0.47000000000E+01 0.  1.
         -5    1    4    4    0  502  0.15952719759E+02  0.80319175058E+02  0.15608750277E+03  0.17632656541E+03  0.47000000000E+01 0.  1.
          5    1    5    5  503    0 -0.32013675971E+02 -0.23516312968E+02  0.36245373302E+03  0.36465420744E+03  0.47000000000E+01 0.  1.
         -5    1    5    5    0  503  0.27692186501E+02 -0.36847799178E+02  0.43558595404E+02  0.63592914157E+02  0.47000000000E+01 0.  1.
<mgrwt>
<rscale>  0 0.27504455E+03</rscale>
<asrwt>0</asrwt>
<pdfrwt beam="1">  1        2 0.13395790E+00 0.27504455E+03</pdfrwt>
<pdfrwt beam="2">  1       -2 0.33415740E-02 0.27504455E+03</pdfrwt>
<totfact> 0.11409298E+04</totfact>
</mgrwt>
</event>
<event>
 9    1  0.2117506E-002  0.2756591E+03  0.7818608E-02  0.1098084E+00
          3   -1    0    0  501    0  0.00000000000E+00  0.00000000000E+00  0.10093380929E+03  0.10093380929E+03  0.00000000000E+00 0.  1.
         -3   -1    0    0    0  501 -0.00000000000E+00 -0.00000000000E+00 -0.18821233051E+03  0.18821233051E+03  0.00000000000E+00 0.  1.
         36    2    1    2    0    0  0.35527136788E-14  0.00000000000E+00 -0.87278521221E+02  0.28914613979E+03  0.27565911900E+03 0.  0.
         25    2    3    3    0    0  0.27632208205E+02  0.29033985925E+02  0.26659325024E+01  0.13159009987E+03  0.12530896185E+03 0.  0.
         25    2    3    3    0    0 -0.27632208205E+02 -0.29033985925E+02 -0.89944453723E+02  0.15755603992E+03  0.12299345385E+03 0.  0.
          5    1    4    4  502    0 -0.17526954753E+02 -0.28301343118E+02  0.37686221198E+02  0.50502489378E+02  0.47000000000E+01 0.  1.
         -5    1    4    4    0  502  0.45159162958E+02  0.57335329044E+02 -0.35020288695E+02  0.81087610496E+02  0.47000000000E+01 0.  1.
          5    1    5    5  503    0 -0.48971938567E+02 -0.11731742609E+02 -0.11142559781E+03  0.12236681903E+03  0.47000000000E+01 0.  1.
         -5    1    5    5    0  503  0.21339730362E+02 -0.17302243316E+02  0.21481144085E+02  0.35189220891E+02  0.47000000000E+01 0.  1.
<mgrwt>
<rscale>  0 0.27565912E+03</rscale>
<asrwt>0</asrwt>
<pdfrwt beam="1">  1        3 0.15528278E-01 0.27565912E+03</pdfrwt>
<pdfrwt beam="2">  1       -3 0.28955743E-01 0.27565912E+03</pdfrwt>
<totfact> 0.10199641E+03</totfact>
</mgrwt>
</event>
<event>
 9    1  0.2117506E-002  0.2747809E+03  0.7818608E-02  0.1098574E+00
          2   -1    0    0  501    0  0.00000000000E+00  0.00000000000E+00  0.74601023842E+03  0.74601023842E+03  0.00000000000E+00 0. -1.
         -2   -1    0    0    0  501 -0.00000000000E+00 -0.00000000000E+00 -0.25302789299E+02  0.25302789299E+02  0.00000000000E+00 0. -1.
         36    2    1    2    0    0 -0.71054273576E-14 -0.17763568394E-14  0.72070744913E+03  0.77131302772E+03  0.27478093003E+03 0.  0.
         25    2    3    3    0    0 -0.70692579532E+01  0.95844883723E+01  0.55797822808E+03  0.56808402654E+03  0.10600906269E+03 0.  0.
         25    2    3    3    0    0  0.70692579532E+01 -0.95844883723E+01  0.16272922104E+03  0.20322900118E+03  0.12115853546E+03 0.  0.
          5    1    4    4  502    0 -0.37492151888E+02 -0.40336824411E-01  0.74530960912E+02  0.83562056071E+02  0.47000000000E+01 0.  1.
         -5    1    4    4    0  502  0.30422893934E+02  0.96248251967E+01  0.48344726717E+03  0.48452197047E+03  0.47000000000E+01 0.  1.
          5    1    5    5  503    0 -0.52980351337E+02  0.54783609111E+01  0.10779250914E+03  0.12032557954E+03  0.47000000000E+01 0. -1.
         -5    1    5    5    0  503  0.60049609290E+02 -0.15062849283E+02  0.54936711906E+02  0.82903421639E+02  0.47000000000E+01 0. -1.
<mgrwt>
<rscale>  0 0.27478093E+03</rscale>
<asrwt>0</asrwt>
<pdfrwt beam="1">  1        2 0.11477079E+00 0.27478093E+03</pdfrwt>
<pdfrwt beam="2">  1       -2 0.38927374E-02 0.27478093E+03</pdfrwt>
<totfact> 0.11058231E+04</totfact>
</mgrwt>
</event>
<event>
 9    1  0.2117506E-002  0.2758974E+03  0.7818608E-02  0.1097951E+00
          2   -1    0    0  501    0  0.00000000000E+00  0.00000000000E+00  0.38459254714E+03  0.38459254714E+03  0.00000000000E+00 0. -1.
         -2   -1    0    0    0  501 -0.00000000000E+00 -0.00000000000E+00 -0.49480514833E+02  0.49480514833E+02  0.00000000000E+00 0. -1.
         36    2    1    2    0    0  0.35527136788E-14  0.00000000000E+00  0.33511203231E+03  0.43407306197E+03  0.27589735217E+03 0.  0.
         25    2    3    3    0    0 -0.28961662385E+01  0.19231562770E+02  0.19568655999E+03  0.24540451804E+03  0.14680567744E+03 0.  0.
         25    2    3    3    0    0  0.28961662385E+01 -0.19231562770E+02  0.13942547231E+03  0.18866854393E+03  0.12561097226E+03 0.  0.
          5    1    4    4  502    0 -0.36555710916E+02 -0.53844970164E+02  0.10902699890E+03  0.12706131316E+03  0.47000000000E+01 0. -1.
         -5    1    4    4    0  502  0.33659544678E+02  0.73076532934E+02  0.86659561092E+02  0.11834320488E+03  0.47000000000E+01 0. -1.
          5    1    5    5  503    0  0.16785976545E+02  0.51004284476E+00 -0.20471022060E+02  0.26892041508E+02  0.47000000000E+01 0. -1.
         -5    1    5    5    0  503 -0.13889810307E+02 -0.19741605615E+02  0.15989649437E+03  0.16177650242E+03  0.47000000000E+01 0. -1.
<mgrwt>
<rscale>  0 0.27589735E+03</rscale>
<asrwt>0</asrwt>
<pdfrwt beam="1">  1        2 0.59168082E-01 0.27589735E+03</pdfrwt>
<pdfrwt beam="2">  1       -2 0.76123871E-02 0.27589735E+03</pdfrwt>
<totfact> 0.84639355E+03</totfact>
</mgrwt>
</event>
<event>
 9    1  0.2117506E-002  0.2732746E+03  0.7818608E-02  0.1099420E+00
         -2   -1    0    0    0  501 -0.00000000000E+00  0.00000000000E+00  0.28502814645E+02  0.28502814645E+02  0.00000000000E+00 0.  1.
          2   -1    0    0  501    0  0.00000000000E+00 -0.00000000000E+00 -0.65501417348E+03  0.65501417348E+03  0.00000000000E+00 0.  1.
         36    2    1    2    0    0  0.00000000000E+00 -0.71054273576E-14 -0.62651135883E+03  0.68351698812E+03  0.27327456945E+03 0.  0.
         25    2    3    3    0    0  0.47393104065E+02  0.25413144486E+02 -0.27150744087E+03  0.30399527117E+03  0.12571754141E+03 0.  0.
         25    2    3    3    0    0 -0.47393104065E+02 -0.25413144486E+02 -0.35500391796E+03  0.37952171696E+03  0.12295128160E+03 0.  0.
          5    1    4    4  502    0  0.85217358022E+02  0.75740995407E+01 -0.12487771558E+03  0.15144602649E+03  0.47000000000E+01 0.  1.
         -5    1    4    4    0  502 -0.37824253957E+02  0.17839044945E+02 -0.14662972529E+03  0.15254924467E+03  0.47000000000E+01 0.  1.
          5    1    5    5  503    0 -0.23498901209E+02  0.39597946163E+02 -0.56432729388E+02  0.72985879762E+02  0.47000000000E+01 0. -1.
         -5    1    5    5    0  503 -0.23894202856E+02 -0.65011090649E+02 -0.29857118858E+03  0.30653583720E+03  0.47000000000E+01 0. -1.
<mgrwt>
<rscale>  0 0.27327457E+03</rscale>
<asrwt>0</asrwt>
<pdfrwt beam="1">  1        2 0.10077141E+00 0.27327457E+03</pdfrwt>
<pdfrwt beam="2">  1       -2 0.43850484E-02 0.27327457E+03</pdfrwt>
<totfact> 0.10820450E+04</totfact>
</mgrwt>
</event>
<event>
 9    1  0.2117506E-002  0.2754952E+03  0.7818608E-02  0.1098175E+00
          4   -1    0    0  501    0  0.00000000000E+00  0.00000000000E+00  0.53252542694E+03  0.53252542694E+03  0.00000000000E+00 0.  1.
         -4   -1    0    0    0  501 -0.00000000000E+00 -0.00000000000E+00 -0.35630972190E+02  0.35630972190E+02  0.00000000000E+00 0.  1.
         36    2    1    2    0    0  0.88817841970E-15  0.35527136788E-14  0.49689445475E+03  0.56815639913E+03  0.27549518092E+03 0.  0.
         25    2    3    3    0    0  0.29810758707E+01  0.23303066488E+02  0.34483700324E+03  0.36732595050E+03  0.12435383142E+03 0.  0.
         25    2    3    3    0    0 -0.29810758707E+01 -0.23303066488E+02  0.15205745151E+03  0.20083044863E+03  0.12907161119E+03 0.  0.
          5    1    4    4  502    0 -0.11830624101E+02  0.59578823130E+01  0.34372410692E+03  0.34401135403E+03  0.47000000000E+01 0. -1.
         -5    1    4    4    0  502  0.14811699972E+02  0.17345184175E+02  0.11128963194E+01  0.23314596465E+02  0.47000000000E+01 0. -1.
          5    1    5    5  503    0  0.71072728119E+01 -0.52018983640E+02  0.16046919913E+03  0.16890512678E+03  0.47000000000E+01 0. -1.
         -5    1    5    5    0  503 -0.10088348683E+02  0.28715917152E+02 -0.84117476148E+01  0.31925321846E+02  0.47000000000E+01 0. -1.
<mgrwt>
<rscale>  0 0.27549518E+03</rscale>
<asrwt>0</asrwt>
<pdfrwt beam="1">  1        4 0.81926983E-01 0.27549518E+03</pdfrwt>
<pdfrwt beam="2">  1       -4 0.54816884E-02 0.27549518E+03</pdfrwt>
<totfact> 0.51909026E+02</totfact>
</mgrwt>
</event>
<event>
 8    1  0.2117506E-002  0.3021808E+03  0.7818608E-02  0.1084156E+00
         -2   -1    0    0    0  501 -0.00000000000E+00  0.00000000000E+00  0.27609340134E+03  0.27609340134E+03  0.00000000000E+00 0. -1.
          2   -1    0    0  501    0  0.00000000000E+00 -0.00000000000E+00 -0.82683281693E+02  0.82683281693E+02  0.00000000000E+00 0. -1.
         25    2    1    2    0    0  0.42397250643E+01 -0.79598761555E+01  0.21034089516E+02  0.12832482721E+03  0.12626754713E+03 0.  0.
         25    2    1    2    0    0 -0.42397250643E+01  0.79598761555E+01  0.17237603013E+03  0.23045185583E+03  0.15268669619E+03 0.  0.
          5    1    3    3  502    0  0.18718230722E+02  0.30331057426E+02  0.61074120245E+02  0.70869481229E+02  0.47000000000E+01 0. -1.
         -5    1    3    3    0  502 -0.14478505658E+02 -0.38290933582E+02 -0.40040030729E+02  0.57455345978E+02  0.47000000000E+01 0. -1.
          5    1    4    4  503    0  0.89788105692E+01 -0.69345080252E+02  0.54442132849E+02  0.88743422424E+02  0.47000000000E+01 0.  1.
         -5    1    4    4    0  503 -0.13218535633E+02  0.77304956408E+02  0.11793389728E+03  0.14170843341E+03  0.47000000000E+01 0.  1.
<mgrwt>
<rscale>  0 0.30218080E+03</rscale>
<asrwt>0</asrwt>
<pdfrwt beam="1">  1        2 0.12720505E-01 0.30218080E+03</pdfrwt>
<pdfrwt beam="2">  1       -2 0.42475907E-01 0.30218080E+03</pdfrwt>
<totfact> 0.25235220E+03</totfact>
</mgrwt>
</event>
<event>
 9    1  0.2117506E-002  0.2707686E+03  0.7818608E-02  0.1100841E+00
          3   -1    0    0  501    0  0.00000000000E+00  0.00000000000E+00  0.19212848181E+04  0.19212848181E+04  0.00000000000E+00 0. -1.
         -3   -1    0    0    0  501 -0.00000000000E+00 -0.00000000000E+00 -0.95399215720E+01  0.95399215720E+01  0.00000000000E+00 0. -1.
         36    2    1    2    0    0  0.00000000000E+00 -0.88817841970E-15  0.19117448965E+04  0.19308247397E+04  0.27076858372E+03 0.  0.
         25    2    3    3    0    0 -0.27255860453E+02  0.68688948742E+01  0.68529175155E+03  0.69719333660E+03  0.12515470506E+03 0.  0.
         25    2    3    3    0    0  0.27255860453E+02 -0.68688948742E+01  0.12264531450E+04  0.12336314031E+04  0.12988093853E+03 0.  0.
          5    1    4    4  502    0  0.26651715332E+02  0.13325534089E+02  0.42620539135E+02  0.52215746141E+02  0.47000000000E+01 0.  1.
         -5    1    4    4    0  502 -0.53907575784E+02 -0.64566392150E+01  0.64267121242E+03  0.64497759046E+03  0.47000000000E+01 0.  1.
          5    1    5    5  503    0  0.56579316172E+02 -0.91129865759E+01  0.24236334901E+03  0.24909104457E+03  0.47000000000E+01 0. -1.
         -5    1    5    5    0  503 -0.29323455719E+02  0.22440917017E+01  0.98408979597E+03  0.98454035851E+03  0.47000000000E+01 0. -1.
<mgrwt>
<rscale>  0 0.27076858E+03</rscale>
<asrwt>0</asrwt>
<pdfrwt beam="1">  1        3 0.29558197E+00 0.27076858E+03</pdfrwt>
<pdfrwt beam="2">  1       -3 0.14676818E-02 0.27076858E+03</pdfrwt>
<totfact> 0.18188784E+02</totfact>
</mgrwt>
</event>
<event>
 9    1  0.2117506E-002  0.2737905E+03  0.7818608E-02  0.1099130E+00
         -1   -1    0    0    0  501 -0.00000000000E+00  0.00000000000E+00  0.32798411335E+02  0.32798411335E+02  0.00000000000E+00 0.  1.
          1   -1    0    0  501    0  0.00000000000E+00 -0.00000000000E+00 -0.57137859679E+03  0.57137859679E+03  0.00000000000E+00 0.  1.
         36    2    1    2    0    0 -0.17763568394E-14 -0.14210854715E-13 -0.53858018546E+03  0.60417700813E+03  0.27379050565E+03 0.  0.
         25    2    3    3    0    0  0.12896094597E+01  0.37785693265E+02 -0.15891000892E+03  0.20483222324E+03  0.12358975295E+03 0.  0.
         25    2    3    3    0    0 -0.12896094597E+01 -0.37785693265E+02 -0.37967017654E+03  0.39934478489E+03  0.11788720268E+03 0.  0.
          5    1    4    4  502    0  0.16079224154E+02  0.43549140494E+02 -0.16352847061E+01  0.46688684317E+02  0.47000000000E+01 0. -1.
         -5    1    4    4    0  502 -0.14789614694E+02 -0.57634472294E+01 -0.15727472421E+03  0.15814353892E+03  0.47000000000E+01 0. -1.
          5    1    5    5  503    0 -0.96271560499E+01  0.26227500313E+02 -0.22012246708E+02  0.35877470806E+02  0.47000000000E+01 0. -1.
         -5    1    5    5    0  503  0.83375465902E+01 -0.64013193578E+02 -0.35765792983E+03  0.36346731408E+03  0.47000000000E+01 0. -1.
<mgrwt>
<rscale>  0 0.27379051E+03</rscale>
<asrwt>0</asrwt>
<pdfrwt beam="1">  1        1 0.87904399E-01 0.27379051E+03</pdfrwt>
<pdfrwt beam="2">  1       -1 0.50459095E-02 0.27379051E+03</pdfrwt>
<totfact> 0.65082825E+03</totfact>
</mgrwt>
</event>
<event>
 9    1  0.2117506E-002  0.2754491E+03  0.7818608E-02  0.1098201E+00
          2   -1    0    0  501    0  0.00000000000E+00  0.00000000000E+00  0.42611607162E+03  0.42611607162E+03  0.00000000000E+00 0. -1.
         -2   -1    0    0    0  501 -0.00000000000E+00 -0.00000000000E+00 -0.44513810862E+02  0.44513810862E+02  0.00000000000E+00 0. -1.
         36    2    1    2    0    0  0.00000000000E+00  0.00000000000E+00  0.38160226076E+03  0.47062988248E+03  0.27544908943E+03 0.  0.
         25    2    3    3    0    0 -0.54565576632E+02  0.50364572816E+01  0.26103057318E+03  0.28778457551E+03  0.10807512995E+03 0.  0.
         25    2    3    3    0    0  0.54565576632E+02 -0.50364572816E+01  0.12057168758E+03  0.18284530697E+03  0.12606389801E+03 0.  0.
          5    1    4    4  502    0 -0.40910986416E+02 -0.40938511158E+02  0.20878050413E+03  0.21670500550E+03  0.47000000000E+01 0. -1.
         -5    1    4    4    0  502 -0.13654590216E+02  0.45974968440E+02  0.52250069050E+02  0.71079570010E+02  0.47000000000E+01 0. -1.
          5    1    5    5  503    0 -0.17438880080E+02 -0.44291448214E+02  0.74865619622E+02  0.88841420097E+02  0.47000000000E+01 0.  1.
         -5    1    5    5    0  503  0.72004456712E+02  0.39254990932E+02  0.45706067959E+02  0.94003886876E+02  0.47000000000E+01 0.  1.
<mgrwt>
<rscale>  0 0.27544909E+03</rscale>
<asrwt>0</asrwt>
<pdfrwt beam="1">  1        2 0.65556316E-01 0.27544909E+03</pdfrwt>
<pdfrwt beam="2">  1       -2 0.68482789E-02 0.27544909E+03</pdfrwt>
<totfact> 0.89200601E+03</totfact>
</mgrwt>
</event>
<event>
 9    1  0.2117506E-002  0.2733544E+03  0.7818608E-02  0.1099375E+00
          2   -1    0    0  501    0  0.00000000000E+00  0.00000000000E+00  0.22618699774E+04  0.22618699774E+04  0.00000000000E+00 0.  1.
         -2   -1    0    0    0  501 -0.00000000000E+00 -0.00000000000E+00 -0.82589415440E+01  0.82589415440E+01  0.00000000000E+00 0.  1.
         36    2    1    2    0    0  0.00000000000E+00  0.00000000000E+00  0.22536110358E+04  0.22701289189E+04  0.27335436286E+03 0.  0.
         25    2    3    3    0    0  0.32587208258E+02  0.48377935290E+01  0.14646336855E+04  0.14703617956E+04  0.12540592772E+03 0.  0.
         25    2    3    3    0    0 -0.32587208258E+02 -0.48377935290E+01  0.78897735032E+03  0.79976712336E+03  0.12671567349E+03 0.  0.
          5    1    4    4  502    0  0.60978233664E+02  0.47604579899E+02  0.80836720267E+03  0.81207399008E+03  0.47000000000E+01 0. -1.
         -5    1    4    4    0  502 -0.28391025406E+02 -0.42766786370E+02  0.65626648284E+03  0.65828780548E+03  0.47000000000E+01 0. -1.
          5    1    5    5  503    0 -0.22964688393E+01 -0.37882965622E+02  0.68944303110E+03  0.69050284285E+03  0.47000000000E+01 0.  1.
         -5    1    5    5    0  503 -0.30290739419E+02  0.33045172093E+02  0.99534319216E+02  0.10926428051E+03  0.47000000000E+01 0.  1.
<mgrwt>
<rscale>  0 0.27335436E+03</rscale>
<asrwt>0</asrwt>
<pdfrwt beam="1">  1        2 0.34797950E+00 0.27335436E+03</pdfrwt>
<pdfrwt beam="2">  1       -2 0.12706082E-02 0.27335436E+03</pdfrwt>
<totfact> 0.81157983E+03</totfact>
</mgrwt>
</event>
<event>
 9    1  0.2117506E-002  0.2775675E+03  0.7818608E-02  0.1097025E+00
          2   -1    0    0  501    0  0.00000000000E+00  0.00000000000E+00  0.34452506116E+03  0.34452506116E+03  0.00000000000E+00 0. -1.
         -2   -1    0    0    0  501 -0.00000000000E+00 -0.00000000000E+00 -0.55905755087E+02  0.55905755087E+02  0.00000000000E+00 0. -1.
         36    2    1    2    0    0  0.00000000000E+00  0.71054273576E-14  0.28861930608E+03  0.40043081625E+03  0.27756753190E+03 0.  0.
         25    2    3    3    0    0 -0.17262506045E+02  0.50092580606E+02  0.11846724986E+03  0.17836367429E+03  0.12235951237E+03 0.  0.
         25    2    3    3    0    0  0.17262506045E+02 -0.50092580606E+02  0.17015205621E+03  0.22206714196E+03  0.13249465106E+03 0.  0.
          5    1    4    4  502    0  0.99862076082E+01  0.19995737352E+02 -0.22217085261E+02  0.31862873884E+02  0.47000000000E+01 0. -1.
         -5    1    4    4    0  502 -0.27248713653E+02  0.30096843254E+02  0.14068433512E+03  0.14650080040E+03  0.47000000000E+01 0. -1.
          5    1    5    5  503    0 -0.22480374011E+02 -0.43052703329E+02  0.17450649664E+03  0.18120019274E+03  0.47000000000E+01 0.  1.
         -5    1    5    5    0  503  0.39742880056E+02 -0.70398772769E+01 -0.43544404278E+01  0.40866949221E+02  0.47000000000E+01 0.  1.
<mgrwt>
<rscale>  0 0.27756753E+03</rscale>
<asrwt>0</asrwt>
<pdfrwt beam="1">  1        2 0.53003854E-01 0.27756753E+03</pdfrwt>
<pdfrwt beam="2">  1       -2 0.86008856E-02 0.27756753E+03</pdfrwt>
<totfact> 0.78781447E+03</totfact>
</mgrwt>
</event>
<event>
 9    1  0.2117506E-002  0.2741302E+03  0.7818608E-02  0.1098939E+00
         -1   -1    0    0    0  501 -0.00000000000E+00  0.00000000000E+00  0.83821863169E+02  0.83821863169E+02  0.00000000000E+00 0.  1.
          1   -1    0    0  501    0  0.00000000000E+00 -0.00000000000E+00 -0.22412815904E+03  0.22412815904E+03  0.00000000000E+00 0.  1.
         36    2    1    2    0    0  0.00000000000E+00  0.00000000000E+00 -0.14030629587E+03  0.30795002221E+03  0.27413018717E+03 0.  0.
         25    2    3    3    0    0  0.46801508327E+02  0.10183220189E+02 -0.12219289728E+03  0.16842196215E+03  0.10554986516E+03 0.  0.
         25    2    3    3    0    0 -0.46801508327E+02 -0.10183220189E+02 -0.18113398597E+02  0.13952806006E+03  0.12979177624E+03 0.  0.
          5    1    4    4  502    0  0.44653589497E+02  0.27557147917E+00  0.81407344234E+00  0.44908481495E+02  0.47000000000E+01 0.  1.
         -5    1    4    4    0  502  0.21479188308E+01  0.99076487103E+01 -0.12300697072E+03  0.12351348065E+03  0.47000000000E+01 0.  1.
          5    1    5    5  503    0  0.21751360316E+02 -0.13338059586E+00  0.42096116349E+02  0.47616304746E+02  0.47000000000E+01 0. -1.
         -5    1    5    5    0  503 -0.68552868643E+02 -0.10049839594E+02 -0.60209514946E+02  0.91911755315E+02  0.47000000000E+01 0. -1.
<mgrwt>
<rscale>  0 0.27413019E+03</rscale>
<asrwt>0</asrwt>
<pdfrwt beam="1">  1        1 0.34481255E-01 0.27413019E+03</pdfrwt>
<pdfrwt beam="2">  1       -1 0.12895671E-01 0.27413019E+03</pdfrwt>
<totfact> 0.51508072E+03</totfact>
</mgrwt>
</event>
<event>
 9    1  0.2117506E-002  0.2755527E+03  0.7818608E-02  0.1098143E+00
         -3   -1    0    0    0  501 -0.00000000000E+00  0.00000000000E+00  0.15868260229E+03  0.15868260229E+03  0.00000000000E+00 0.  1.
          3   -1    0    0  501    0  0.00000000000E+00 -0.00000000000E+00 -0.11962445710E+03  0.11962445710E+03  0.00000000000E+00 0.  1.
         36    2    1    2    0    0  0.00000000000E+00  0.71054273576E-14  0.39058145183E+02  0.27830705939E+03  0.27555268208E+03 0.  0.
         25    2    3    3    0    0  0.94643798277E+01 -0.46906376251E+02  0.52613722774E+02  0.14182711003E+03  0.12270673452E+03 0.  0.
         25    2    3    3    0    0 -0.94643798277E+01  0.46906376251E+02 -0.13555577591E+02  0.13647994936E+03  0.12709539833E+03 0.  0.
          5    1    4    4  502    0  0.12823894650E+01 -0.57032935123E+02  0.87350263703E+02  0.10443447123E+03  0.47000000000E+01 0.  1.
         -5    1    4    4    0  502  0.81819903627E+01  0.10126558871E+02 -0.34736540928E+02  0.37392638801E+02  0.47000000000E+01 0.  1.
          5    1    5    5  503    0 -0.14800217383E+02  0.86769166262E+02  0.11451356090E+02  0.88888459345E+02  0.47000000000E+01 0.  1.
         -5    1    5    5    0  503  0.53358375552E+01 -0.39862790011E+02 -0.25006933682E+02  0.47591490017E+02  0.47000000000E+01 0.  1.
<mgrwt>
<rscale>  0 0.27555268E+03</rscale>
<asrwt>0</asrwt>
<pdfrwt beam="1">  1        3 0.18403763E-01 0.27555268E+03</pdfrwt>
<pdfrwt beam="2">  1       -3 0.24412708E-01 0.27555268E+03</pdfrwt>
<totfact> 0.10374248E+03</totfact>
</mgrwt>
</event>
<event>
 9    1  0.2117506E-002  0.2750388E+03  0.7818608E-02  0.1098430E+00
          2   -1    0    0  501    0  0.00000000000E+00  0.00000000000E+00  0.11525712318E+04  0.11525712318E+04  0.00000000000E+00 0.  1.
         -2   -1    0    0    0  501 -0.00000000000E+00 -0.00000000000E+00 -0.16408172831E+02  0.16408172831E+02  0.00000000000E+00 0.  1.
         36    2    1    2    0    0 -0.71054273576E-14  0.00000000000E+00  0.11361630590E+04  0.11689794046E+04  0.27503881887E+03 0.  0.
         25    2    3    3    0    0 -0.35214136975E+02  0.13903245263E+01  0.74654139017E+03  0.75787170114E+03  0.12571197121E+03 0.  0.
         25    2    3    3    0    0  0.35214136975E+02 -0.13903245263E+01  0.38962166878E+03  0.41110770348E+03  0.12634290889E+03 0.  0.
          5    1    4    4  502    0  0.46079606109E+02  0.73935478620E+01  0.33918981745E+03  0.34241760602E+03  0.47000000000E+01 0.  1.
         -5    1    4    4    0  502 -0.81293743085E+02 -0.60032233357E+01  0.40735157272E+03  0.41545409513E+03  0.47000000000E+01 0.  1.
          5    1    5    5  503    0  0.41212138053E+02  0.12276836406E+02  0.33682727343E+02  0.54824968366E+02  0.47000000000E+01 0. -1.
         -5    1    5    5    0  503 -0.59980010778E+01 -0.13667160933E+02  0.35593894144E+03  0.35628273511E+03  0.47000000000E+01 0. -1.
<mgrwt>
<rscale>  0 0.27503882E+03</rscale>
<asrwt>0</asrwt>
<pdfrwt beam="1">  1        2 0.17731859E+00 0.27503882E+03</pdfrwt>
<pdfrwt beam="2">  1       -2 0.25243352E-02 0.27503882E+03</pdfrwt>
<totfact> 0.11638522E+04</totfact>
</mgrwt>
</event>
<event>
 9    1  0.2117506E-002  0.2753905E+03  0.7818608E-02  0.1098234E+00
         -2   -1    0    0    0  501 -0.00000000000E+00  0.00000000000E+00  0.28992356681E+02  0.28992356681E+02  0.00000000000E+00 0. -1.
          2   -1    0    0  501    0  0.00000000000E+00 -0.00000000000E+00 -0.65396485123E+03  0.65396485123E+03  0.00000000000E+00 0. -1.
         36    2    1    2    0    0 -0.71054273576E-14  0.00000000000E+00 -0.62497249455E+03  0.68295720791E+03  0.27539050255E+03 0.  0.
         25    2    3    3    0    0 -0.56346347789E+01 -0.15501082620E+01 -0.21346303274E+03  0.25077977837E+03  0.13149098429E+03 0.  0.
         25    2    3    3    0    0  0.56346347789E+01  0.15501082620E+01 -0.41150946181E+03  0.43217742954E+03  0.13192096687E+03 0.  0.
          5    1    4    4  502    0 -0.51692345478E+02 -0.36153009541E+02 -0.15998244787E+03  0.17203375340E+03  0.47000000000E+01 0.  1.
         -5    1    4    4    0  502  0.46057710699E+02  0.34602901279E+02 -0.53480584866E+02  0.78746024975E+02  0.47000000000E+01 0.  1.
          5    1    5    5  503    0  0.54152774145E+02 -0.33331903648E+02 -0.28691259866E+03  0.29391234751E+03  0.47000000000E+01 0.  1.
         -5    1    5    5    0  503 -0.48518139366E+02  0.34882011910E+02 -0.12459686315E+03  0.13826508203E+03  0.47000000000E+01 0.  1.
<mgrwt>
<rscale>  0 0.27539050E+03</rscale>
<asrwt>0</asrwt>
<pdfrwt beam="1">  1        2 0.10060997E+00 0.27539050E+03</pdfrwt>
<pdfrwt beam="2">  1       -2 0.44603630E-02 0.27539050E+03</pdfrwt>
<totfact> 0.10568757E+04</totfact>
</mgrwt>
</event>
<event>
 9    1  0.2117506E-002  0.2756758E+03  0.7818608E-02  0.1098074E+00
          2   -1    0    0  501    0  0.00000000000E+00  0.00000000000E+00  0.63172901320E+03  0.63172901320E+03  0.00000000000E+00 0.  1.
         -2   -1    0    0    0  501 -0.00000000000E+00 -0.00000000000E+00 -0.30075056423E+02  0.30075056423E+02  0.00000000000E+00 0.  1.
         36    2    1    2    0    0  0.00000000000E+00  0.00000000000E+00  0.60165395678E+03  0.66180406962E+03  0.27567579303E+03 0.  0.
         25    2    3    3    0    0 -0.12738761290E+02 -0.45317530788E+02  0.29143542201E+03  0.32411567969E+03  0.13379242873E+03 0.  0.
         25    2    3    3    0    0  0.12738761290E+02  0.45317530788E+02  0.31021853477E+03  0.33768838993E+03  0.12482770022E+03 0.  0.
          5    1    4    4  502    0  0.53288087709E+02 -0.30182019836E+02  0.20611980171E+03  0.21507681714E+03  0.47000000000E+01 0.  1.
         -5    1    4    4    0  502 -0.66026848999E+02 -0.15135510952E+02  0.85315620295E+02  0.10903886255E+03  0.47000000000E+01 0.  1.
          5    1    5    5  503    0  0.37640158688E+02  0.29462017128E+02  0.30320296646E+03  0.30698358404E+03  0.47000000000E+01 0.  1.
         -5    1    5    5    0  503 -0.24901397399E+02  0.15855513660E+02  0.70155683042E+01  0.30704805885E+02  0.47000000000E+01 0.  1.
<mgrwt>
<rscale>  0 0.27567579E+03</rscale>
<asrwt>0</asrwt>
<pdfrwt beam="1">  1        2 0.97189070E-01 0.27567579E+03</pdfrwt>
<pdfrwt beam="2">  1       -2 0.46269322E-02 0.27567579E+03</pdfrwt>
<totfact> 0.10416552E+04</totfact>
</mgrwt>
</event>
<event>
 9    1  0.2117506E-002  0.2752466E+03  0.7818608E-02  0.1098314E+00
          2   -1    0    0  501    0  0.00000000000E+00  0.00000000000E+00  0.22540805832E+04  0.22540805832E+04  0.00000000000E+00 0. -1.
         -2   -1    0    0    0  501 -0.00000000000E+00 -0.00000000000E+00 -0.84026169711E+01  0.84026169711E+01  0.00000000000E+00 0. -1.
         36    2    1    2    0    0  0.00000000000E+00  0.00000000000E+00  0.22456779662E+04  0.22624832002E+04  0.27524662223E+03 0.  0.
         25    2    3    3    0    0 -0.20789070496E+02  0.28376107944E+02  0.75341103313E+03  0.76411909471E+03  0.12252516928E+03 0.  0.
         25    2    3    3    0    0  0.20789070496E+02 -0.28376107944E+02  0.14922669331E+04  0.14983641055E+04  0.13037255829E+03 0.  0.
          5    1    4    4  502    0 -0.35321162997E+02  0.40569586988E+02  0.13498079914E+03  0.14538012959E+03  0.47000000000E+01 0. -1.
         -5    1    4    4    0  502  0.14532092501E+02 -0.12193479044E+02  0.61843023399E+03  0.61873896512E+03  0.47000000000E+01 0. -1.
          5    1    5    5  503    0  0.22484648392E+02  0.12176051460E+02  0.13524375731E+04  0.13526874343E+04  0.47000000000E+01 0. -1.
         -5    1    5    5    0  503 -0.16955778959E+01 -0.40552159405E+02  0.13982935996E+03  0.14567667117E+03  0.47000000000E+01 0. -1.
<mgrwt>
<rscale>  0 0.27524662E+03</rscale>
<asrwt>0</asrwt>
<pdfrwt beam="1">  1        2 0.34678115E+00 0.27524662E+03</pdfrwt>
<pdfrwt beam="2">  1       -2 0.12927121E-02 0.27524662E+03</pdfrwt>
<totfact> 0.79905407E+03</totfact>
</mgrwt>
</event>
<event>
 9    1  0.2117506E-002  0.2748338E+03  0.7818608E-02  0.1098545E+00
         -2   -1    0    0    0  501 -0.00000000000E+00  0.00000000000E+00  0.17546332142E+04  0.17546332142E+04  0.00000000000E+00 0. -1.
          2   -1    0    0  501    0  0.00000000000E+00 -0.00000000000E+00 -0.10762021003E+02  0.10762021003E+02  0.00000000000E+00 0. -1.
         36    2    1    2    0    0  0.00000000000E+00  0.71054273576E-14  0.17438711932E+04  0.17653952352E+04  0.27483376432E+03 0.  0.
         25    2    3    3    0    0  0.12319851759E+02  0.19218930971E+02  0.11943792135E+04  0.12012342624E+04  0.12609877660E+03 0.  0.
         25    2    3    3    0    0 -0.12319851759E+02 -0.19218930971E+02  0.54949197968E+03  0.56416097279E+03  0.12575778875E+03 0.  0.
          5    1    4    4  502    0  0.77892546092E+01  0.53512512577E+01  0.11805289323E+04  0.11805761129E+04  0.47000000000E+01 0.  1.
         -5    1    4    4    0  502  0.45305971499E+01  0.13867679713E+02  0.13850281221E+02  0.20658149508E+02  0.47000000000E+01 0.  1.
          5    1    5    5  503    0  0.49555014186E+02  0.35483883167E+01  0.12567203560E+03  0.13521775409E+03  0.47000000000E+01 0.  1.
         -5    1    5    5    0  503 -0.61874865945E+02 -0.22767319288E+02  0.42381994408E+03  0.42894321870E+03  0.47000000000E+01 0.  1.
<mgrwt>
<rscale>  0 0.27483376E+03</rscale>
<asrwt>0</asrwt>
<pdfrwt beam="1">  1        2 0.16556969E-02 0.27483376E+03</pdfrwt>
<pdfrwt beam="2">  1       -2 0.26994334E+00 0.27483376E+03</pdfrwt>
<totfact> 0.39033175E+02</totfact>
</mgrwt>
</event>
<event>
 9    1  0.2117506E-002  0.2767023E+03  0.7818608E-02  0.1097504E+00
          2   -1    0    0  501    0  0.00000000000E+00  0.00000000000E+00  0.15499011076E+03  0.15499011076E+03  0.00000000000E+00 0.  1.
         -2   -1    0    0    0  501 -0.00000000000E+00 -0.00000000000E+00 -0.12349850726E+03  0.12349850726E+03  0.00000000000E+00 0.  1.
         36    2    1    2    0    0  0.00000000000E+00  0.00000000000E+00  0.31491603509E+02  0.27848861802E+03  0.27670234780E+03 0.  0.
         25    2    3    3    0    0  0.23402989771E+02  0.33303505741E+02  0.65774983542E+02  0.14395748786E+03  0.12141081676E+03 0.  0.
         25    2    3    3    0    0 -0.23402989771E+02 -0.33303505741E+02 -0.34283380033E+02  0.13453113016E+03  0.12355748221E+03 0.  0.
          5    1    4    4  502    0  0.81733820489E+01 -0.35928537319E+02  0.62664580340E+02  0.72846438466E+02  0.47000000000E+01 0.  1.
         -5    1    4    4    0  502  0.15229607722E+02  0.69232043060E+02  0.31104032022E+01  0.71111049393E+02  0.47000000000E+01 0.  1.
          5    1    5    5  503    0 -0.66679646194E+02 -0.41067138159E+02 -0.42997531311E+02  0.89462633272E+02  0.47000000000E+01 0. -1.
         -5    1    5    5    0  503  0.43276656423E+02  0.77636324178E+01  0.87141512779E+01  0.45068496890E+02  0.47000000000E+01 0. -1.
<mgrwt>
<rscale>  0 0.27670235E+03</rscale>
<asrwt>0</asrwt>
<pdfrwt beam="1">  1        2 0.23844632E-01 0.27670235E+03</pdfrwt>
<pdfrwt beam="2">  1       -2 0.18999770E-01 0.27670235E+03</pdfrwt>
<totfact> 0.51763870E+03</totfact>
</mgrwt>
</event>
<event>
 9    1  0.2117506E-002  0.2750223E+03  0.7818608E-02  0.1098439E+00
         -2   -1    0    0    0  501 -0.00000000000E+00  0.00000000000E+00  0.21868310981E+02  0.21868310981E+02  0.00000000000E+00 0.  1.
          2   -1    0    0  501    0  0.00000000000E+00 -0.00000000000E+00 -0.86469005037E+03  0.86469005037E+03  0.00000000000E+00 0.  1.
         36    2    1    2    0    0  0.35527136788E-14 -0.17763568394E-14 -0.84282173939E+03  0.88655836135E+03  0.27502226036E+03 0.  0.
         25    2    3    3    0    0 -0.35383975693E+01 -0.13844808312E+02 -0.53700040194E+03  0.55523269366E+03  0.14039128695E+03 0.  0.
         25    2    3    3    0    0  0.35383975693E+01  0.13844808312E+02 -0.30582133745E+03  0.33132566769E+03  0.12667205160E+03 0.  0.
          5    1    4    4  502    0 -0.28396475597E+02 -0.10823451268E+02 -0.52694571533E+03  0.52784219595E+03  0.47000000000E+01 0.  1.
         -5    1    4    4    0  502  0.24858078027E+02 -0.30213570440E+01 -0.10054686603E+02  0.27390497701E+02  0.47000000000E+01 0.  1.
          5    1    5    5  503    0  0.60152522807E+02  0.86160371117E+01 -0.94583072182E+02  0.11251937450E+03  0.47000000000E+01 0. -1.
         -5    1    5    5    0  503 -0.56614125238E+02  0.52287712005E+01 -0.21123826527E+03  0.21880629319E+03  0.47000000000E+01 0. -1.
<mgrwt>
<rscale>  0 0.27502226E+03</rscale>
<asrwt>0</asrwt>
<pdfrwt beam="1">  1        2 0.13302925E+00 0.27502226E+03</pdfrwt>
<pdfrwt beam="2">  1       -2 0.33643552E-02 0.27502226E+03</pdfrwt>
<totfact> 0.11397968E+04</totfact>
</mgrwt>
</event>
<event>
 9    1  0.2117506E-002  0.2733964E+03  0.7818608E-02  0.1099351E+00
          2   -1    0    0  501    0  0.00000000000E+00  0.00000000000E+00  0.28436414931E+03  0.28436414931E+03  0.00000000000E+00 0. -1.
         -2   -1    0    0    0  501 -0.00000000000E+00 -0.00000000000E+00 -0.65712907542E+02  0.65712907542E+02  0.00000000000E+00 0. -1.
         36    2    1    2    0    0  0.00000000000E+00 -0.35527136788E-14  0.21865124177E+03  0.35007705685E+03  0.27339637929E+03 0.  0.
         25    2    3    3    0    0 -0.96972794060E+01 -0.15964963483E+02  0.90754979630E+02  0.15500484958E+03  0.12426230233E+03 0.  0.
         25    2    3    3    0    0  0.96972794060E+01  0.15964963483E+02  0.12789626214E+03  0.19507220727E+03  0.14610542390E+03 0.  0.
          5    1    4    4  502    0 -0.26115496706E+02  0.23764313986E+02  0.10387604108E+03  0.10981385932E+03  0.47000000000E+01 0.  1.
         -5    1    4    4    0  502  0.16418217300E+02 -0.39729277469E+02 -0.13121061451E+02  0.45190990264E+02  0.47000000000E+01 0.  1.
          5    1    5    5  503    0  0.56876445137E+02 -0.42156085375E+02  0.75305935422E+02  0.10346564384E+03  0.47000000000E+01 0. -1.
         -5    1    5    5    0  503 -0.47179165731E+02  0.58121048858E+02  0.52590326717E+02  0.91606563431E+02  0.47000000000E+01 0. -1.
<mgrwt>
<rscale>  0 0.27339638E+03</rscale>
<asrwt>0</asrwt>
<pdfrwt beam="1">  1        2 0.43748330E-01 0.27339638E+03</pdfrwt>
<pdfrwt beam="2">  1       -2 0.10109678E-01 0.27339638E+03</pdfrwt>
<totfact> 0.74976909E+03</totfact>
</mgrwt>
</event>
<event>
 9    1  0.2117506E-002  0.2753319E+03  0.7818608E-02  0.1098266E+00
         -1   -1    0    0    0  501 -0.00000000000E+00  0.00000000000E+00  0.26193496178E+02  0.26193496178E+02  0.00000000000E+00 0.  1.
          1   -1    0    0  501    0  0.00000000000E+00 -0.00000000000E+00 -0.72353513532E+03  0.72353513532E+03  0.00000000000E+00 0.  1.
         36    2    1    2    0    0  0.00000000000E+00  0.71054273576E-14 -0.69734163914E+03  0.74972863150E+03  0.27533190735E+03 0.  0.
         25    2    3    3    0    0  0.72939970603E+02  0.36359104112E+02 -0.32873045209E+03  0.34766417045E+03  0.78513957503E+02 0.  0.
         25    2    3    3    0    0 -0.72939970603E+02 -0.36359104112E+02 -0.36861118705E+03  0.40206446105E+03  0.13834521984E+03 0.  0.
          5    1    4    4  502    0  0.68870126953E+02  0.58230107456E+02 -0.26879472956E+03  0.28356046347E+03  0.47000000000E+01 0.  1.
         -5    1    4    4    0  502  0.40698436493E+01 -0.21871003344E+02 -0.59935722525E+02  0.64103706985E+02  0.47000000000E+01 0.  1.
          5    1    5    5  503    0 -0.66782205381E+01 -0.53071573536E+02 -0.30123526897E+03  0.30598360711E+03  0.47000000000E+01 0. -1.
         -5    1    5    5    0  503 -0.66261750065E+02  0.16712469424E+02 -0.67375918083E+02  0.96080853938E+02  0.47000000000E+01 0. -1.
<mgrwt>
<rscale>  0 0.27533191E+03</rscale>
<asrwt>0</asrwt>
<pdfrwt beam="1">  1        1 0.11131310E+00 0.27533191E+03</pdfrwt>
<pdfrwt beam="2">  1       -1 0.40297685E-02 0.27533191E+03</pdfrwt>
<totfact> 0.65122970E+03</totfact>
</mgrwt>
</event>
<event>
 9    1  0.2117506E-002  0.2756573E+03  0.7818608E-02  0.1098085E+00
         -2   -1    0    0    0  501 -0.00000000000E+00  0.00000000000E+00  0.17308581234E+02  0.17308581234E+02  0.00000000000E+00 0.  1.
          2   -1    0    0  501    0  0.00000000000E+00 -0.00000000000E+00 -0.10975332057E+04  0.10975332057E+04  0.00000000000E+00 0.  1.
         36    2    1    2    0    0 -0.71054273576E-14 -0.71054273576E-14 -0.10802246244E+04  0.11148417869E+04  0.27565734271E+03 0.  0.
         25    2    3    3    0    0 -0.35989294108E+02 -0.37501338912E+02 -0.46224231896E+03  0.48171889865E+03  0.12523400562E+03 0.  0.
         25    2    3    3    0    0  0.35989294108E+02  0.37501338912E+02 -0.61798230548E+03  0.63312288827E+03  0.12743971926E+03 0.  0.
          5    1    4    4  502    0 -0.51688222415E+02 -0.64000781722E+02 -0.18241899385E+03  0.20016631014E+03  0.47000000000E+01 0. -1.
         -5    1    4    4    0  502  0.15698928306E+02  0.26499442810E+02 -0.27982332511E+03  0.28155258851E+03  0.47000000000E+01 0. -1.
          5    1    5    5  503    0  0.81564727790E+02  0.32594866314E+02 -0.33213934369E+03  0.34358967353E+03  0.47000000000E+01 0. -1.
         -5    1    5    5    0  503 -0.45575433682E+02  0.49064725980E+01 -0.28584296179E+03  0.28953321474E+03  0.47000000000E+01 0. -1.
<mgrwt>
<rscale>  0 0.27565734E+03</rscale>
<asrwt>0</asrwt>
<pdfrwt beam="1">  1        2 0.16885124E+00 0.27565734E+03</pdfrwt>
<pdfrwt beam="2">  1       -2 0.26628590E-02 0.27565734E+03</pdfrwt>
<totfact> 0.11576998E+04</totfact>
</mgrwt>
</event>
<event>
 9    1  0.2117506E-002  0.2671091E+03  0.7818608E-02  0.1102946E+00
          1   -1    0    0  501    0  0.00000000000E+00  0.00000000000E+00  0.21504902224E+02  0.21504902224E+02  0.00000000000E+00 0. -1.
         -1   -1    0    0    0  501 -0.00000000000E+00 -0.00000000000E+00 -0.82943032209E+03  0.82943032209E+03  0.00000000000E+00 0. -1.
         36    2    1    2    0    0 -0.88817841970E-15  0.00000000000E+00 -0.80792541986E+03  0.85093522431E+03  0.26710910114E+03 0.  0.
         25    2    3    3    0    0 -0.42515611055E+01 -0.25857619047E+02 -0.52855143594E+03  0.54360810174E+03  0.12432399451E+03 0.  0.
         25    2    3    3    0    0  0.42515611055E+01  0.25857619047E+02 -0.27937398392E+03  0.30732712257E+03  0.12535328132E+03 0.  0.
          5    1    4    4  502    0  0.25415225707E+02  0.32486877645E+02 -0.36544940541E+03  0.36779979449E+03  0.47000000000E+01 0.  1.
         -5    1    4    4    0  502 -0.29666786813E+02 -0.58344496692E+02 -0.16310203053E+03  0.17580830725E+03  0.47000000000E+01 0.  1.
          5    1    5    5  503    0 -0.79057490066E+01  0.56370662761E+02 -0.51050918147E+02  0.76605735628E+02  0.47000000000E+01 0.  1.
         -5    1    5    5    0  503  0.12157310112E+02 -0.30513043714E+02 -0.22832306578E+03  0.23072138694E+03  0.47000000000E+01 0.  1.
<mgrwt>
<rscale>  0 0.26710910E+03</rscale>
<asrwt>0</asrwt>
<pdfrwt beam="1">  1        1 0.33084467E-02 0.26710910E+03</pdfrwt>
<pdfrwt beam="2">  1       -1 0.12760466E+00 0.26710910E+03</pdfrwt>
<totfact> 0.16895978E+03</totfact>
</mgrwt>
</event>
<event>
 9    1  0.2117506E-002  0.2748320E+03  0.7818608E-02  0.1098546E+00
          2   -1    0    0  501    0  0.00000000000E+00  0.00000000000E+00  0.31673072880E+03  0.31673072880E+03  0.00000000000E+00 0. -1.
         -2   -1    0    0    0  501 -0.00000000000E+00 -0.00000000000E+00 -0.59618945818E+02  0.59618945818E+02  0.00000000000E+00 0. -1.
         36    2    1    2    0    0  0.00000000000E+00  0.00000000000E+00  0.25711178298E+03  0.37634967462E+03  0.27483196437E+03 0.  0.
         25    2    3    3    0    0  0.19133179268E+02 -0.51839467554E+02  0.98304792543E+02  0.17062254911E+03  0.12804223164E+03 0.  0.
         25    2    3    3    0    0 -0.19133179268E+02  0.51839467554E+02  0.15880699044E+03  0.20572712551E+03  0.11853514674E+03 0.  0.
          5    1    4    4  502    0 -0.10569138760E+02 -0.52672073428E+02  0.12130648661E+03  0.13275318341E+03  0.47000000000E+01 0. -1.
         -5    1    4    4    0  502  0.29702318028E+02  0.83260587320E+00 -0.23001694063E+02  0.37869365700E+02  0.47000000000E+01 0. -1.
          5    1    5    5  503    0  0.28255370137E+02  0.49400915648E+02  0.22598475875E+02  0.61413333409E+02  0.47000000000E+01 0.  1.
         -5    1    5    5    0  503 -0.47388549405E+02  0.24385519062E+01  0.13620851457E+03  0.14431379210E+03  0.47000000000E+01 0.  1.
<mgrwt>
<rscale>  0 0.27483196E+03</rscale>
<asrwt>0</asrwt>
<pdfrwt beam="1">  1        2 0.48727804E-01 0.27483196E+03</pdfrwt>
<pdfrwt beam="2">  1       -2 0.91721457E-02 0.27483196E+03</pdfrwt>
<totfact> 0.77918549E+03</totfact>
</mgrwt>
</event>
<event>
 9    1  0.2117506E-002  0.2652548E+03  0.7818608E-02  0.1104027E+00
         -1   -1    0    0    0  501 -0.00000000000E+00  0.00000000000E+00  0.20486956489E+03  0.20486956489E+03  0.00000000000E+00 0. -1.
          1   -1    0    0  501    0  0.00000000000E+00 -0.00000000000E+00 -0.85859653210E+02  0.85859653210E+02  0.00000000000E+00 0. -1.
         36    2    1    2    0    0  0.00000000000E+00  0.35527136788E-14  0.11900991168E+03  0.29072921810E+03  0.26525481933E+03 0.  0.
         25    2    3    3    0    0  0.35169249790E+02  0.23652501592E+02  0.83393707800E+02  0.15513807628E+03  0.12376184893E+03 0.  0.
         25    2    3    3    0    0 -0.35169249790E+02 -0.23652501592E+02  0.35616203882E+02  0.13559114182E+03  0.12377449979E+03 0.  0.
          5    1    4    4  502    0 -0.39786500826E+01 -0.16643793300E+02  0.95784699234E+02  0.97414804415E+02  0.47000000000E+01 0. -1.
         -5    1    4    4    0  502  0.39147899873E+02  0.40296294892E+02 -0.12390991434E+02  0.57723271868E+02  0.47000000000E+01 0. -1.
          5    1    5    5  503    0 -0.74685530064E+02 -0.68990929501E+01  0.49788478578E+02  0.90147149060E+02  0.47000000000E+01 0. -1.
         -5    1    5    5    0  503  0.39516280274E+02 -0.16753408642E+02 -0.14172274696E+02  0.45443992759E+02  0.47000000000E+01 0. -1.
<mgrwt>
<rscale>  0 0.26525482E+03</rscale>
<asrwt>0</asrwt>
<pdfrwt beam="1">  1        1 0.13209177E-01 0.26525482E+03</pdfrwt>
<pdfrwt beam="2">  1       -1 0.31518394E-01 0.26525482E+03</pdfrwt>
<totfact> 0.41109151E+03</totfact>
</mgrwt>
</event>
<event>
 9    1  0.2117506E-002  0.2745860E+03  0.7818608E-02  0.1098683E+00
          1   -1    0    0  501    0  0.00000000000E+00  0.00000000000E+00  0.66284259433E+02  0.66284259433E+02  0.00000000000E+00 0. -1.
         -1   -1    0    0    0  501 -0.00000000000E+00 -0.00000000000E+00 -0.28437167459E+03  0.28437167459E+03  0.00000000000E+00 0. -1.
         36    2    1    2    0    0  0.00000000000E+00  0.35527136788E-14 -0.21808741516E+03  0.35065593403E+03  0.27458598547E+03 0.  0.
         25    2    3    3    0    0  0.37178383759E+02 -0.12976012733E+02 -0.65917696727E+02  0.15059037391E+03  0.12954423509E+03 0.  0.
         25    2    3    3    0    0 -0.37178383759E+02  0.12976012733E+02 -0.15216971843E+03  0.20006556012E+03  0.12377397147E+03 0.  0.
          5    1    4    4  502    0  0.44178574970E+02  0.25733202077E+02  0.20687956014E+02  0.55353642153E+02  0.47000000000E+01 0. -1.
         -5    1    4    4    0  502 -0.70001912119E+01 -0.38709214810E+02 -0.86605652741E+02  0.95236731752E+02  0.47000000000E+01 0. -1.
          5    1    5    5  503    0 -0.59544667903E+01  0.24672115738E+02 -0.16273913149E+03  0.16477343198E+03  0.47000000000E+01 0.  1.
         -5    1    5    5    0  503 -0.31223916968E+02 -0.11696103006E+02  0.10569413053E+02  0.35292128140E+02  0.47000000000E+01 0.  1.
<mgrwt>
<rscale>  0 0.27458599E+03</rscale>
<asrwt>0</asrwt>
<pdfrwt beam="1">  1        1 0.10197578E-01 0.27458599E+03</pdfrwt>
<pdfrwt beam="2">  1       -1 0.43749488E-01 0.27458599E+03</pdfrwt>
<totfact> 0.32677279E+03</totfact>
</mgrwt>
</event>
<event>
 9    1  0.2117506E-002  0.2745548E+03  0.7818608E-02  0.1098701E+00
         -1   -1    0    0    0  501 -0.00000000000E+00  0.00000000000E+00  0.40372715487E+02  0.40372715487E+02  0.00000000000E+00 0.  1.
          1   -1    0    0  501    0  0.00000000000E+00 -0.00000000000E+00 -0.46677787677E+03  0.46677787677E+03  0.00000000000E+00 0.  1.
         36    2    1    2    0    0 -0.71054273576E-14  0.71054273576E-14 -0.42640516128E+03  0.50715059225E+03  0.27455484271E+03 0.  0.
         25    2    3    3    0    0 -0.39561195145E+02 -0.39234309724E+02 -0.17420121437E+03  0.22020200613E+03  0.12263132224E+03 0.  0.
         25    2    3    3    0    0  0.39561195145E+02  0.39234309724E+02 -0.25220394691E+03  0.28694858613E+03  0.12501296342E+03 0.  0.
          5    1    4    4  502    0 -0.27049676412E+02 -0.35919981204E+01  0.11979831643E+02  0.30169418468E+02  0.47000000000E+01 0.  1.
         -5    1    4    4    0  502 -0.12511518733E+02 -0.35642311604E+02 -0.18618104602E+03  0.19003258766E+03  0.47000000000E+01 0.  1.
          5    1    5    5  503    0 -0.31423751660E+02  0.28146532446E+01 -0.16742931447E+03  0.17044072220E+03  0.47000000000E+01 0. -1.
         -5    1    5    5    0  503  0.70984946805E+02  0.36419656479E+02 -0.84774632441E+02  0.11650786393E+03  0.47000000000E+01 0. -1.
<mgrwt>
<rscale>  0 0.27455484E+03</rscale>
<asrwt>0</asrwt>
<pdfrwt beam="1">  1        1 0.71811976E-01 0.27455484E+03</pdfrwt>
<pdfrwt beam="2">  1       -1 0.62111874E-02 0.27455484E+03</pdfrwt>
<totfact> 0.62420360E+03</totfact>
</mgrwt>
</event>
<event>
 9    1  0.2117506E-002  0.2718347E+03  0.7818608E-02  0.1100234E+00
         -3   -1    0    0    0  501 -0.00000000000E+00  0.00000000000E+00  0.54750808503E+02  0.54750808503E+02  0.00000000000E+00 0.  1.
          3   -1    0    0  501    0  0.00000000000E+00 -0.00000000000E+00 -0.33741093707E+03  0.33741093707E+03  0.00000000000E+00 0.  1.
         36    2    1    2    0    0  0.00000000000E+00 -0.71054273576E-14 -0.28266012857E+03  0.39216174557E+03  0.27183466742E+03 0.  0.
         25    2    3    3    0    0 -0.31910159622E+02 -0.40762194570E+02 -0.16369635350E+03  0.21110161690E+03  0.12283151760E+03 0.  0.
         25    2    3    3    0    0  0.31910159622E+02  0.40762194570E+02 -0.11896377507E+03  0.18106012867E+03  0.12629558829E+03 0.  0.
          5    1    4    4  502    0 -0.15613265330E+02  0.36876105422E+01  0.17240454662E+02  0.24014491516E+02  0.47000000000E+01 0.  1.
         -5    1    4    4    0  502 -0.16296894292E+02 -0.44449805112E+02 -0.18093680816E+03  0.18708712539E+03  0.47000000000E+01 0.  1.
          5    1    5    5  503    0  0.19127420432E+02  0.32507032111E+02 -0.14535152387E+03  0.15023887926E+03  0.47000000000E+01 0. -1.
         -5    1    5    5    0  503  0.12782739190E+02  0.82551624583E+01  0.26387748803E+02  0.30821249412E+02  0.47000000000E+01 0. -1.
<mgrwt>
<rscale>  0 0.27183467E+03</rscale>
<asrwt>0</asrwt>
<pdfrwt beam="1">  1        3 0.51909375E-01 0.27183467E+03</pdfrwt>
<pdfrwt beam="2">  1       -3 0.84232013E-02 0.27183467E+03</pdfrwt>
<totfact> 0.92240597E+02</totfact>
</mgrwt>
</event>
<event>
 9    1  0.2117506E-002  0.2743505E+03  0.7818608E-02  0.1098815E+00
          2   -1    0    0  501    0  0.00000000000E+00  0.00000000000E+00  0.24703866779E+04  0.24703866779E+04  0.00000000000E+00 0.  1.
         -2   -1    0    0    0  501 -0.00000000000E+00 -0.00000000000E+00 -0.76170446354E+01  0.76170446354E+01  0.00000000000E+00 0.  1.
         36    2    1    2    0    0  0.00000000000E+00 -0.71054273576E-14  0.24627696332E+04  0.24780037225E+04  0.27435047361E+03 0.  0.
         25    2    3    3    0    0 -0.34691376244E+02  0.41601997973E+02  0.13592018516E+04  0.13666575785E+04  0.13186753015E+03 0.  0.
         25    2    3    3    0    0  0.34691376244E+02 -0.41601997973E+02  0.11035677816E+04  0.11113461440E+04  0.11955829304E+03 0.  0.
          5    1    4    4  502    0 -0.32113355203E+02  0.79441601382E+02  0.55948653836E+03  0.56602960366E+03  0.47000000000E+01 0. -1.
         -5    1    4    4    0  502 -0.25780210415E+01 -0.37839603409E+02  0.79971531326E+03  0.80062797481E+03  0.47000000000E+01 0. -1.
          5    1    5    5  503    0  0.19153666972E+02  0.39586839120E+02  0.52869156919E+03  0.53053826076E+03  0.47000000000E+01 0.  1.
         -5    1    5    5    0  503  0.15537709272E+02 -0.81188837092E+02  0.57487621243E+03  0.58080788329E+03  0.47000000000E+01 0.  1.
<mgrwt>
<rscale>  0 0.27435047E+03</rscale>
<asrwt>0</asrwt>
<pdfrwt beam="1">  1        2 0.38005885E+00 0.27435047E+03</pdfrwt>
<pdfrwt beam="2">  1       -2 0.11718550E-02 0.27435047E+03</pdfrwt>
<totfact> 0.70461108E+03</totfact>
</mgrwt>
</event>
<event>
 9    1  0.2117506E-002  0.2746937E+03  0.7818608E-02  0.1098623E+00
          1   -1    0    0  501    0  0.00000000000E+00  0.00000000000E+00  0.64963623887E+03  0.64963623887E+03  0.00000000000E+00 0. -1.
         -1   -1    0    0    0  501 -0.00000000000E+00 -0.00000000000E+00 -0.29038035589E+02  0.29038035589E+02  0.00000000000E+00 0. -1.
         36    2    1    2    0    0  0.35527136788E-14  0.00000000000E+00  0.62059820328E+03  0.67867427446E+03  0.27469372198E+03 0.  0.
         25    2    3    3    0    0 -0.31632875650E+02 -0.85703168867E+01  0.41461952403E+03  0.43238470512E+03  0.11820784390E+03 0.  0.
         25    2    3    3    0    0  0.31632875650E+02  0.85703168867E+01  0.20597867925E+03  0.24628956934E+03  0.13098567291E+03 0.  0.
          5    1    4    4  502    0  0.44162307111E+02  0.67228972786E+01  0.16660494260E+03  0.17255377021E+03  0.47000000000E+01 0. -1.
         -5    1    4    4    0  502 -0.75795182761E+02 -0.15293214165E+02  0.24801458144E+03  0.25983093491E+03  0.47000000000E+01 0. -1.
          5    1    5    5  503    0  0.19821148711E+02  0.52396475002E+02  0.18967696219E+03  0.19783252643E+03  0.47000000000E+01 0. -1.
         -5    1    5    5    0  503  0.11811726939E+02 -0.43826158115E+02  0.16301717060E+02  0.48457042909E+02  0.47000000000E+01 0. -1.
<mgrwt>
<rscale>  0 0.27469372E+03</rscale>
<asrwt>0</asrwt>
<pdfrwt beam="1">  1        1 0.99944026E-01 0.27469372E+03</pdfrwt>
<pdfrwt beam="2">  1       -1 0.44673906E-02 0.27469372E+03</pdfrwt>
<totfact> 0.65284778E+03</totfact>
</mgrwt>
</event>
<event>
 9    1  0.2117506E-002  0.2748711E+03  0.7818608E-02  0.1098524E+00
         -1   -1    0    0    0  501 -0.00000000000E+00  0.00000000000E+00  0.45996625071E+02  0.45996625071E+02  0.00000000000E+00 0. -1.
          1   -1    0    0  501    0  0.00000000000E+00 -0.00000000000E+00 -0.41065045602E+03  0.41065045602E+03  0.00000000000E+00 0. -1.
         36    2    1    2    0    0  0.00000000000E+00  0.35527136788E-14 -0.36465383094E+03  0.45664708109E+03  0.27487113388E+03 0.  0.
         25    2    3    3    0    0  0.26226177053E+02  0.15719715617E+02 -0.11364217894E+03  0.17113262752E+03  0.12424536026E+03 0.  0.
         25    2    3    3    0    0 -0.26226177053E+02 -0.15719715617E+02 -0.25101165201E+03  0.28551445357E+03  0.13257726778E+03 0.  0.
          5    1    4    4  502    0 -0.56653398688E+01  0.45349740225E+01 -0.13207035852E+03  0.13235305688E+03  0.47000000000E+01 0.  1.
         -5    1    4    4    0  502  0.31891516922E+02  0.11184741594E+02  0.18428179585E+02  0.38779570639E+02  0.47000000000E+01 0.  1.
          5    1    5    5  503    0 -0.64237113667E+02 -0.46563522336E+02 -0.19722151581E+03  0.21263345147E+03  0.47000000000E+01 0. -1.
         -5    1    5    5    0  503  0.38010936614E+02  0.30843806719E+02 -0.53790136199E+02  0.72881002102E+02  0.47000000000E+01 0. -1.
<mgrwt>
<rscale>  0 0.27487113E+03</rscale>
<asrwt>0</asrwt>
<pdfrwt beam="1">  1        1 0.63176992E-01 0.27487113E+03</pdfrwt>
<pdfrwt beam="2">  1       -1 0.70764040E-02 0.27487113E+03</pdfrwt>
<totfact> 0.60506383E+03</totfact>
</mgrwt>
</event>
<event>
 9    1  0.2117506E-002  0.2745373E+03  0.7818608E-02  0.1098711E+00
         -2   -1    0    0    0  501 -0.00000000000E+00  0.00000000000E+00  0.36286790671E+02  0.36286790671E+02  0.00000000000E+00 0. -1.
          2   -1    0    0  501    0  0.00000000000E+00 -0.00000000000E+00 -0.51927108147E+03  0.51927108147E+03  0.00000000000E+00 0. -1.
         36    2    1    2    0    0  0.00000000000E+00  0.14210854715E-13 -0.48298429080E+03  0.55555787214E+03  0.27453729098E+03 0.  0.
         25    2    3    3    0    0 -0.17433165501E+02 -0.41275435713E+02 -0.32476008497E+03  0.35104000333E+03  0.12550854271E+03 0.  0.
         25    2    3    3    0    0  0.17433165501E+02  0.41275435713E+02 -0.15822420583E+03  0.20451786881E+03  0.12159392460E+03 0.  0.
          5    1    4    4  502    0  0.83014693020E+01 -0.80734589873E+02 -0.24664992346E+03  0.25970225863E+03  0.47000000000E+01 0.  1.
         -5    1    4    4    0  502 -0.25734634803E+02  0.39459154161E+02 -0.78110161516E+02  0.91337744704E+02  0.47000000000E+01 0.  1.
          5    1    5    5  503    0  0.52990047531E+02 -0.14880951100E+02 -0.10719030061E+03  0.12058705730E+03  0.47000000000E+01 0.  1.
         -5    1    5    5    0  503 -0.35556882030E+02  0.56156386813E+02 -0.51033905218E+02  0.83930811514E+02  0.47000000000E+01 0.  1.
<mgrwt>
<rscale>  0 0.27453729E+03</rscale>
<asrwt>0</asrwt>
<pdfrwt beam="1">  1        2 0.79887859E-01 0.27453729E+03</pdfrwt>
<pdfrwt beam="2">  1       -2 0.55825831E-02 0.27453729E+03</pdfrwt>
<totfact> 0.98066827E+03</totfact>
</mgrwt>
</event>
<event>
 9    1  0.2117506E-002  0.2759028E+03  0.7818608E-02  0.1097948E+00
         -1   -1    0    0    0  501 -0.00000000000E+00  0.00000000000E+00  0.11338261319E+02  0.11338261319E+02  0.00000000000E+00 0.  1.
          1   -1    0    0  501    0  0.00000000000E+00 -0.00000000000E+00 -0.16784395587E+04  0.16784395587E+04  0.00000000000E+00 0.  1.
         36    2    1    2    0    0  0.14210854715E-13 -0.71054273576E-14 -0.16671012974E+04  0.16897778201E+04  0.27590278234E+03 0.  0.
         25    2    3    3    0    0  0.80341178762E+02 -0.25073198568E+02 -0.70506420368E+03  0.71602993707E+03  0.92195277458E+02 0.  0.
         25    2    3    3    0    0 -0.80341178762E+02  0.25073198568E+02 -0.96203709374E+03  0.97374788298E+03  0.12484470189E+03 0.  0.
          5    1    4    4  502    0 -0.15412736944E+02  0.77809650507E+01 -0.20627227303E+03  0.20704694274E+03  0.47000000000E+01 0. -1.
         -5    1    4    4    0  502  0.95753915706E+02 -0.32854163619E+02 -0.49879193064E+03  0.50898299433E+03  0.47000000000E+01 0. -1.
          5    1    5    5  503    0 -0.10443817552E+03  0.38609868243E+02 -0.57524561649E+03  0.58594168969E+03  0.47000000000E+01 0.  1.
         -5    1    5    5    0  503  0.24096996761E+02 -0.13536669675E+02 -0.38679147725E+03  0.38780619329E+03  0.47000000000E+01 0.  1.
<mgrwt>
<rscale>  0 0.27590278E+03</rscale>
<asrwt>0</asrwt>
<pdfrwt beam="1">  1        1 0.25822150E+00 0.27590278E+03</pdfrwt>
<pdfrwt beam="2">  1       -1 0.17443477E-02 0.27590278E+03</pdfrwt>
<totfact> 0.45737503E+03</totfact>
</mgrwt>
</event>
<event>
 9    1  0.2117506E-002  0.2744058E+03  0.7818608E-02  0.1098784E+00
          2   -1    0    0  501    0  0.00000000000E+00  0.00000000000E+00  0.37642700573E+03  0.37642700573E+03  0.00000000000E+00 0.  1.
         -2   -1    0    0    0  501 -0.00000000000E+00 -0.00000000000E+00 -0.50008726151E+02  0.50008726151E+02  0.00000000000E+00 0.  1.
         36    2    1    2    0    0 -0.71054273576E-14  0.00000000000E+00  0.32641827958E+03  0.42643573188E+03  0.27440579473E+03 0.  0.
         25    2    3    3    0    0 -0.18851499649E+02 -0.12839087813E+02  0.17417494458E+03  0.22658142789E+03  0.14311537628E+03 0.  0.
         25    2    3    3    0    0  0.18851499649E+02  0.12839087813E+02  0.15224333499E+03  0.19985430399E+03  0.12744994531E+03 0.  0.
          5    1    4    4  502    0 -0.33556099044E+02 -0.17862006625E+02 -0.11659928631E+02  0.40038818656E+02  0.47000000000E+01 0. -1.
         -5    1    4    4    0  502  0.14704599395E+02  0.50229188119E+01  0.18583487321E+03  0.18654260923E+03  0.47000000000E+01 0. -1.
          5    1    5    5  503    0  0.56336514291E+02 -0.27865890368E+02  0.40068623396E+02  0.74685308256E+02  0.47000000000E+01 0.  1.
         -5    1    5    5    0  503 -0.37485014642E+02  0.40704978181E+02  0.11217471160E+03  0.12516899574E+03  0.47000000000E+01 0.  1.
<mgrwt>
<rscale>  0 0.27440579E+03</rscale>
<asrwt>0</asrwt>
<pdfrwt beam="1">  1        2 0.57911845E-01 0.27440579E+03</pdfrwt>
<pdfrwt beam="2">  1       -2 0.76936504E-02 0.27440579E+03</pdfrwt>
<totfact> 0.85190154E+03</totfact>
</mgrwt>
</event>
<event>
 9    1  0.2117506E-002  0.2796630E+03  0.7818608E-02  0.1095873E+00
          1   -1    0    0  501    0  0.00000000000E+00  0.00000000000E+00  0.83658782520E+02  0.83658782520E+02  0.00000000000E+00 0. -1.
         -1   -1    0    0    0  501 -0.00000000000E+00 -0.00000000000E+00 -0.23372136444E+03  0.23372136444E+03  0.00000000000E+00 0. -1.
         36    2    1    2    0    0  0.35527136788E-14  0.00000000000E+00 -0.15006258192E+03  0.31738014696E+03  0.27966297429E+03 0.  0.
         25    2    3    3    0    0  0.27520372935E+02  0.40003063179E+02 -0.12461781494E+03  0.17946226370E+03  0.11966406437E+03 0.  0.
         25    2    3    3    0    0 -0.27520372935E+02 -0.40003063179E+02 -0.25444766982E+02  0.13791788326E+03  0.12655548335E+03 0.  0.
          5    1    4    4  502    0 -0.11248870506E+02  0.74628306512E+02 -0.60863610718E+02  0.97068997781E+02  0.47000000000E+01 0. -1.
         -5    1    4    4    0  502  0.38769243440E+02 -0.34625243333E+02 -0.63754204218E+02  0.82393265916E+02  0.47000000000E+01 0. -1.
          5    1    5    5  503    0 -0.76940197905E+02 -0.32035153612E+02 -0.26646978306E+02  0.87625319248E+02  0.47000000000E+01 0. -1.
         -5    1    5    5    0  503  0.49419824970E+02 -0.79679095672E+01  0.12022113237E+01  0.50292564013E+02  0.47000000000E+01 0. -1.
<mgrwt>
<rscale>  0 0.27966297E+03</rscale>
<asrwt>0</asrwt>
<pdfrwt beam="1">  1        1 0.12870582E-01 0.27966297E+03</pdfrwt>
<pdfrwt beam="2">  1       -1 0.35957133E-01 0.27966297E+03</pdfrwt>
<totfact> 0.33936317E+03</totfact>
</mgrwt>
</event>
<event>
 9    1  0.2117506E-002  0.2705321E+03  0.7818608E-02  0.1100975E+00
         -1   -1    0    0    0  501 -0.00000000000E+00  0.00000000000E+00  0.13437873413E+03  0.13437873413E+03  0.00000000000E+00 0.  1.
          1   -1    0    0  501    0  0.00000000000E+00 -0.00000000000E+00 -0.13615919122E+03  0.13615919122E+03  0.00000000000E+00 0.  1.
         36    2    1    2    0    0  0.17763568394E-14  0.71054273576E-14 -0.17804570938E+01  0.27053792534E+03  0.27053206653E+03 0.  0.
         25    2    3    3    0    0 -0.87494873163E+01  0.37017338258E+02 -0.37811000780E+02  0.13616134176E+03  0.12515351513E+03 0.  0.
         25    2    3    3    0    0  0.87494873163E+01 -0.37017338258E+02  0.36030543687E+02  0.13437658359E+03  0.12374178469E+03 0.  0.
          5    1    4    4  502    0 -0.14958476995E+00 -0.34437937827E+02 -0.52105333167E+02  0.62634253263E+02  0.47000000000E+01 0.  1.
         -5    1    4    4    0  502 -0.85999025463E+01  0.71455276085E+02  0.14294332387E+02  0.73527088495E+02  0.47000000000E+01 0.  1.
          5    1    5    5  503    0 -0.57418129025E+02 -0.19456301866E+02  0.15492884743E+02  0.62749571319E+02  0.47000000000E+01 0.  1.
         -5    1    5    5    0  503  0.66167616342E+02 -0.17561036392E+02  0.20537658943E+02  0.71627012267E+02  0.47000000000E+01 0.  1.
<mgrwt>
<rscale>  0 0.27053207E+03</rscale>
<asrwt>0</asrwt>
<pdfrwt beam="1">  1        1 0.20947568E-01 0.27053207E+03</pdfrwt>
<pdfrwt beam="2">  1       -1 0.20673651E-01 0.27053207E+03</pdfrwt>
<totfact> 0.45580063E+03</totfact>
</mgrwt>
</event>
<event>
 9    1  0.2117506E-002  0.2752749E+03  0.7818608E-02  0.1098298E+00
         -4   -1    0    0    0  501 -0.00000000000E+00  0.00000000000E+00  0.65620788049E+02  0.65620788049E+02  0.00000000000E+00 0.  1.
          4   -1    0    0  501    0  0.00000000000E+00 -0.00000000000E+00 -0.28869006242E+03  0.28869006242E+03  0.00000000000E+00 0.  1.
         36    2    1    2    0    0  0.17763568394E-14 -0.71054273576E-14 -0.22306927437E+03  0.35431085047E+03  0.27527491276E+03 0.  0.
         25    2    3    3    0    0  0.13602932896E+02  0.46202350419E+02 -0.84553332280E+02  0.16340897745E+03  0.13127654376E+03 0.  0.
         25    2    3    3    0    0 -0.13602932896E+02 -0.46202350419E+02 -0.13851594209E+03  0.19090187303E+03  0.12221768261E+03 0.  0.
          5    1    4    4  502    0  0.52808578818E+02  0.73797617030E+02 -0.63380066202E+02  0.11078789224E+03  0.47000000000E+01 0. -1.
         -5    1    4    4    0  502 -0.39205645921E+02 -0.27595266611E+02 -0.21173266078E+02  0.52621085202E+02  0.47000000000E+01 0. -1.
          5    1    5    5  503    0  0.15038750869E+02  0.13407571785E+02 -0.12040859880E+03  0.12217302352E+03  0.47000000000E+01 0.  1.
         -5    1    5    5    0  503 -0.28641683766E+02 -0.59609922204E+02 -0.18107343289E+02  0.68728849511E+02  0.47000000000E+01 0.  1.
<mgrwt>
<rscale>  0 0.27527491E+03</rscale>
<asrwt>0</asrwt>
<pdfrwt beam="1">  1        4 0.44413855E-01 0.27527491E+03</pdfrwt>
<pdfrwt beam="2">  1       -4 0.10095506E-01 0.27527491E+03</pdfrwt>
<totfact> 0.69085540E+02</totfact>
</mgrwt>
</event>
<event>
 9    1  0.2117506E-002  0.2750221E+03  0.7818608E-02  0.1098439E+00
          2   -1    0    0  501    0  0.00000000000E+00  0.00000000000E+00  0.36612639567E+04  0.36612639567E+04  0.00000000000E+00 0.  1.
         -2   -1    0    0    0  501 -0.00000000000E+00 -0.00000000000E+00 -0.51646879153E+01  0.51646879153E+01  0.00000000000E+00 0.  1.
         36    2    1    2    0    0 -0.35527136788E-14  0.00000000000E+00  0.36560992688E+04  0.36664286446E+04  0.27502207702E+03 0.  0.
         25    2    3    3    0    0 -0.14705034951E+02  0.14207207640E+02  0.12694558212E+04  0.12765034854E+04  0.13238196051E+03 0.  0.
         25    2    3    3    0    0  0.14705034951E+02 -0.14207207640E+02  0.23866434475E+04  0.23899251591E+04  0.12352019240E+03 0.  0.
          5    1    4    4  502    0 -0.45456874655E+02  0.51500985062E+02  0.10226226489E+04  0.10249379742E+04  0.47000000000E+01 0. -1.
         -5    1    4    4    0  502  0.30751839704E+02 -0.37293777421E+02  0.24683317235E+03  0.25156551125E+03  0.47000000000E+01 0. -1.
          5    1    5    5  503    0  0.32126996510E+02 -0.64033899982E+02  0.12761456786E+04  0.12781636700E+04  0.47000000000E+01 0.  1.
         -5    1    5    5    0  503 -0.17421961559E+02  0.49826692341E+02  0.11104977689E+04  0.11117614892E+04  0.47000000000E+01 0.  1.
<mgrwt>
<rscale>  0 0.27502208E+03</rscale>
<asrwt>0</asrwt>
<pdfrwt beam="1">  1        2 0.56326930E+00 0.27502208E+03</pdfrwt>
<pdfrwt beam="2">  1       -2 0.79457030E-03 0.27502208E+03</pdfrwt>
<totfact> 0.23478873E+03</totfact>
</mgrwt>
</event>
<event>
 9    1  0.2117506E-002  0.2747003E+03  0.7818608E-02  0.1098619E+00
         -1   -1    0    0    0  501 -0.00000000000E+00  0.00000000000E+00  0.17832129608E+02  0.17832129608E+02  0.00000000000E+00 0.  1.
          1   -1    0    0  501    0  0.00000000000E+00 -0.00000000000E+00 -0.10579252606E+04  0.10579252606E+04  0.00000000000E+00 0.  1.
         36    2    1    2    0    0  0.35527136788E-14  0.00000000000E+00 -0.10400931310E+04  0.10757573902E+04  0.27470027566E+03 0.  0.
         25    2    3    3    0    0 -0.20663380282E+02  0.47922593497E+02 -0.30312835216E+03  0.32577252906E+03  0.10731911552E+03 0.  0.
         25    2    3    3    0    0  0.20663380282E+02 -0.47922593497E+02 -0.73696477882E+03  0.74998486113E+03  0.12898316347E+03 0.  0.
          5    1    4    4  502    0 -0.26714740970E+02  0.36115255968E+02 -0.30768131678E+03  0.31097889284E+03  0.47000000000E+01 0. -1.
         -5    1    4    4    0  502  0.60513606876E+01  0.11807337529E+02  0.45529646204E+01  0.14793636217E+02  0.47000000000E+01 0. -1.
          5    1    5    5  503    0  0.29715453520E+02  0.36967941257E+02 -0.16794931821E+03  0.17458150058E+03  0.47000000000E+01 0. -1.
         -5    1    5    5    0  503 -0.90520732378E+01 -0.84890534754E+02 -0.56901546061E+03  0.57540336056E+03  0.47000000000E+01 0. -1.
<mgrwt>
<rscale>  0 0.27470028E+03</rscale>
<asrwt>0</asrwt>
<pdfrwt beam="1">  1        1 0.16275776E+00 0.27470028E+03</pdfrwt>
<pdfrwt beam="2">  1       -1 0.27434041E-02 0.27470028E+03</pdfrwt>
<totfact> 0.62314296E+03</totfact>
</mgrwt>
</event>
<event>
 9    1  0.2117506E-002  0.2748178E+03  0.7818608E-02  0.1098553E+00
          2   -1    0    0  501    0  0.00000000000E+00  0.00000000000E+00  0.13185019298E+03  0.13185019298E+03  0.00000000000E+00 0.  1.
         -2   -1    0    0    0  501 -0.00000000000E+00 -0.00000000000E+00 -0.14320198094E+03  0.14320198094E+03  0.00000000000E+00 0.  1.
         36    2    1    2    0    0  0.00000000000E+00  0.71054273576E-14 -0.11351787959E+02  0.27505217393E+03  0.27481782201E+03 0.  0.
         25    2    3    3    0    0  0.11216909287E+02  0.47769043581E+02 -0.26545058782E+02  0.13656655965E+03  0.12465185314E+03 0.  0.
         25    2    3    3    0    0 -0.11216909287E+02 -0.47769043581E+02  0.15193270823E+02  0.13848561428E+03  0.12860687892E+03 0.  0.
          5    1    4    4  502    0 -0.29240453441E+02 -0.31272840852E+02 -0.19766935359E+02  0.47390045641E+02  0.47000000000E+01 0.  1.
         -5    1    4    4    0  502  0.40457362728E+02  0.79041884433E+02 -0.67781234228E+01  0.89176514009E+02  0.47000000000E+01 0.  1.
          5    1    5    5  503    0  0.37591661373E+02  0.27621782615E+02 -0.19797066947E+01  0.46926592868E+02  0.47000000000E+01 0.  1.
         -5    1    5    5    0  503 -0.48808570660E+02 -0.75390826197E+02  0.17172977517E+02  0.91559021409E+02  0.47000000000E+01 0.  1.
<mgrwt>
<rscale>  0 0.27481782E+03</rscale>
<asrwt>0</asrwt>
<pdfrwt beam="1">  1        2 0.20284645E-01 0.27481782E+03</pdfrwt>
<pdfrwt beam="2">  1       -2 0.22031074E-01 0.27481782E+03</pdfrwt>
<totfact> 0.48213827E+03</totfact>
</mgrwt>
</event>
<event>
 9    1  0.2117506E-002  0.2753952E+03  0.7818608E-02  0.1098231E+00
          2   -1    0    0  501    0  0.00000000000E+00  0.00000000000E+00  0.85337050064E+03  0.85337050064E+03  0.00000000000E+00 0.  1.
         -2   -1    0    0    0  501 -0.00000000000E+00 -0.00000000000E+00 -0.22218519207E+02  0.22218519207E+02  0.00000000000E+00 0.  1.
         36    2    1    2    0    0  0.00000000000E+00  0.35527136788E-14  0.83115198143E+03  0.87558901985E+03  0.27539519865E+03 0.  0.
         25    2    3    3    0    0  0.48064003948E+02  0.12532809900E+02  0.30532929739E+03  0.33324688665E+03  0.12393662822E+03 0.  0.
         25    2    3    3    0    0 -0.48064003948E+02 -0.12532809900E+02  0.52582268404E+03  0.54234213320E+03  0.12320014039E+03 0.  0.
          5    1    4    4  502    0  0.54803003054E+02 -0.22013379154E+02  0.56403232457E+02  0.81800810736E+02  0.47000000000E+01 0. -1.
         -5    1    4    4    0  502 -0.67389991061E+01  0.34546189053E+02  0.24892606493E+03  0.25144607591E+03  0.47000000000E+01 0. -1.
          5    1    5    5  503    0 -0.31734757495E+02  0.38389918015E+02  0.42663975126E+03  0.42956308966E+03  0.47000000000E+01 0.  1.
         -5    1    5    5    0  503 -0.16329246453E+02 -0.50922727914E+02  0.99182932779E+02  0.11277904354E+03  0.47000000000E+01 0.  1.
<mgrwt>
<rscale>  0 0.27539520E+03</rscale>
<asrwt>0</asrwt>
<pdfrwt beam="1">  1        2 0.13128774E+00 0.27539520E+03</pdfrwt>
<pdfrwt beam="2">  1       -2 0.34182344E-02 0.27539520E+03</pdfrwt>
<totfact> 0.11324976E+04</totfact>
</mgrwt>
</event>
<event>
 9    1  0.2117506E-002  0.2748061E+03  0.7818608E-02  0.1098560E+00
         -1   -1    0    0    0  501 -0.00000000000E+00  0.00000000000E+00  0.52001629982E+02  0.52001629982E+02  0.00000000000E+00 0.  1.
          1   -1    0    0  501    0  0.00000000000E+00 -0.00000000000E+00 -0.36305791310E+03  0.36305791310E+03  0.00000000000E+00 0.  1.
         36    2    1    2    0    0  0.35527136788E-14  0.71054273576E-14 -0.31105628312E+03  0.41505954308E+03  0.27480613719E+03 0.  0.
         25    2    3    3    0    0  0.27432292908E+02 -0.53524595212E+02 -0.15923212488E+03  0.20918682671E+03  0.12160117552E+03 0.  0.
         25    2    3    3    0    0 -0.27432292908E+02  0.53524595212E+02 -0.15182415824E+03  0.20587271637E+03  0.12536182567E+03 0.  0.
          5    1    4    4  502    0 -0.42013351260E+02  0.64681935571E+01 -0.62840426194E+02  0.76012948740E+02  0.47000000000E+01 0.  1.
         -5    1    4    4    0  502  0.69445644168E+02 -0.59992788769E+02 -0.96391698685E+02  0.13317387797E+03  0.47000000000E+01 0.  1.
          5    1    5    5  503    0 -0.31688085779E+02  0.13990475782E+02 -0.16103681561E+03  0.16478717843E+03  0.47000000000E+01 0.  1.
         -5    1    5    5    0  503  0.42557928709E+01  0.39534119430E+02  0.92126573718E+01  0.41085537941E+02  0.47000000000E+01 0.  1.
<mgrwt>
<rscale>  0 0.27480614E+03</rscale>
<asrwt>0</asrwt>
<pdfrwt beam="1">  1        1 0.55855064E-01 0.27480614E+03</pdfrwt>
<pdfrwt beam="2">  1       -1 0.80002508E-02 0.27480614E+03</pdfrwt>
<totfact> 0.58751854E+03</totfact>
</mgrwt>
</event>
<event>
 8    1  0.2117506E-002  0.2990484E+03  0.7818608E-02  0.1085717E+00
          1   -1    0    0  501    0  0.00000000000E+00  0.00000000000E+00  0.89891246233E+02  0.89891246233E+02  0.00000000000E+00 0. -1.
         -1   -1    0    0    0  501 -0.00000000000E+00 -0.00000000000E+00 -0.24871702032E+03  0.24871702032E+03  0.00000000000E+00 0. -1.
         25    2    1    2    0    0  0.54802524493E+02  0.13800473749E+02 -0.13415162927E+02  0.13931071249E+03  0.12662439833E+03 0.  0.
         25    2    1    2    0    0 -0.54802524493E+02 -0.13800473749E+02 -0.14541061116E+03  0.19929755406E+03  0.12402217322E+03 0.  0.
          5    1    3    3  502    0  0.44673864938E+02  0.47699846231E+02  0.38736122929E+02  0.76115745799E+02  0.47000000000E+01 0.  1.
         -5    1    3    3    0  502  0.10128659555E+02 -0.33899372483E+02 -0.52151285856E+02  0.63194966694E+02  0.47000000000E+01 0.  1.
          5    1    4    4  503    0 -0.58573659308E+02 -0.27753766064E+02 -0.13322593027E+02  0.66337972387E+02  0.47000000000E+01 0.  1.
         -5    1    4    4    0  503  0.37711348148E+01  0.13953292315E+02 -0.13208801814E+03  0.13295958168E+03  0.47000000000E+01 0.  1.
<mgrwt>
<rscale>  0 0.29904838E+03</rscale>
<asrwt>0</asrwt>
<pdfrwt beam="1">  1        1 0.13829422E-01 0.29904838E+03</pdfrwt>
<pdfrwt beam="2">  1       -1 0.38264157E-01 0.29904838E+03</pdfrwt>
<totfact> 0.27708425E+03</totfact>
</mgrwt>
</event>
<event>
 9    1  0.2117506E-002  0.2746764E+03  0.7818608E-02  0.1098633E+00
          1   -1    0    0  501    0  0.00000000000E+00  0.00000000000E+00  0.70614227001E+02  0.70614227001E+02  0.00000000000E+00 0. -1.
         -1   -1    0    0    0  501 -0.00000000000E+00 -0.00000000000E+00 -0.26711028305E+03  0.26711028305E+03  0.00000000000E+00 0. -1.
         36    2    1    2    0    0 -0.71054273576E-14 -0.71054273576E-14 -0.19649605605E+03  0.33772451005E+03  0.27467643628E+03 0.  0.
         25    2    3    3    0    0 -0.33012915662E+02 -0.41460476784E+02 -0.73920297322E+02  0.15415165539E+03  0.12445761836E+03 0.  0.
         25    2    3    3    0    0  0.33012915662E+02  0.41460476784E+02 -0.12257575873E+03  0.18357285466E+03  0.12595774134E+03 0.  0.
          5    1    4    4  502    0 -0.48383637392E+01 -0.45272899021E+02 -0.10330705407E+03  0.11299328551E+03  0.47000000000E+01 0. -1.
         -5    1    4    4    0  502 -0.28174551923E+02  0.38124222364E+01  0.29386756747E+02  0.41158369884E+02  0.47000000000E+01 0. -1.
          5    1    5    5  503    0  0.48868691460E+02 -0.27332440583E+02 -0.21431704794E+02  0.60138334560E+02  0.47000000000E+01 0.  1.
         -5    1    5    5    0  503 -0.15855775798E+02  0.68792917367E+02 -0.10114405393E+03  0.12343452010E+03  0.47000000000E+01 0.  1.
<mgrwt>
<rscale>  0 0.27467644E+03</rscale>
<asrwt>0</asrwt>
<pdfrwt beam="1">  1        1 0.10863727E-01 0.27467644E+03</pdfrwt>
<pdfrwt beam="2">  1       -1 0.41093890E-01 0.27467644E+03</pdfrwt>
<totfact> 0.33588348E+03</totfact>
</mgrwt>
</event>
<event>
 9    1  0.2117506E-002  0.2749871E+03  0.7818608E-02  0.1098459E+00
          1   -1    0    0  501    0  0.00000000000E+00  0.00000000000E+00  0.24607498343E+03  0.24607498343E+03  0.00000000000E+00 0. -1.
         -1   -1    0    0    0  501 -0.00000000000E+00 -0.00000000000E+00 -0.76824022728E+02  0.76824022728E+02  0.00000000000E+00 0. -1.
         36    2    1    2    0    0 -0.35527136788E-14  0.00000000000E+00  0.16925096070E+03  0.32289900615E+03  0.27498705511E+03 0.  0.
         25    2    3    3    0    0  0.14616004831E+02  0.47598300150E+02  0.12928127190E+03  0.18255108319E+03  0.11887819370E+03 0.  0.
         25    2    3    3    0    0 -0.14616004831E+02 -0.47598300150E+02  0.39969688803E+02  0.14034792296E+03  0.12498294957E+03 0.  0.
          5    1    4    4  502    0  0.21799970717E+01  0.36063173642E+02  0.15057756555E+03  0.15492255526E+03  0.47000000000E+01 0. -1.
         -5    1    4    4    0  502  0.12436007759E+02  0.11535126508E+02 -0.21296293653E+02  0.27628527936E+02  0.47000000000E+01 0. -1.
          5    1    5    5  503    0 -0.46875924383E+02 -0.33108700777E+02  0.72144757937E+02  0.92306524426E+02  0.47000000000E+01 0. -1.
         -5    1    5    5    0  503  0.32259919552E+02 -0.14489599372E+02 -0.32175069134E+02  0.48041398536E+02  0.47000000000E+01 0. -1.
<mgrwt>
<rscale>  0 0.27498706E+03</rscale>
<asrwt>0</asrwt>
<pdfrwt beam="1">  1        1 0.37857689E-01 0.27498706E+03</pdfrwt>
<pdfrwt beam="2">  1       -1 0.11819081E-01 0.27498706E+03</pdfrwt>
<totfact> 0.52505491E+03</totfact>
</mgrwt>
</event>
<event>
 9    1  0.2117506E-002  0.2740682E+03  0.7818608E-02  0.1098974E+00
         -1   -1    0    0    0  501 -0.00000000000E+00  0.00000000000E+00  0.18842679529E+03  0.18842679529E+03  0.00000000000E+00 0. -1.
          1   -1    0    0  501    0  0.00000000000E+00 -0.00000000000E+00 -0.99658555809E+02  0.99658555809E+02  0.00000000000E+00 0. -1.
         36    2    1    2    0    0  0.00000000000E+00  0.00000000000E+00  0.88768239477E+02  0.28808535110E+03  0.27406818344E+03 0.  0.
         25    2    3    3    0    0 -0.19210517440E+02  0.66018017381E+02  0.42339715965E+02  0.13631919200E+03  0.10983099726E+03 0.  0.
         25    2    3    3    0    0  0.19210517440E+02 -0.66018017381E+02  0.46428523513E+02  0.15176615910E+03  0.12708240103E+03 0.  0.
          5    1    4    4  502    0  0.33759884343E+02  0.67787394242E+02  0.19000003053E+02  0.78217330081E+02  0.47000000000E+01 0.  1.
         -5    1    4    4    0  502 -0.52970401783E+02 -0.17693768610E+01  0.23339712911E+02  0.58101861918E+02  0.47000000000E+01 0.  1.
          5    1    5    5  503    0 -0.53827263019E+02 -0.20949528195E+02  0.25434965337E+02  0.63287316560E+02  0.47000000000E+01 0. -1.
         -5    1    5    5    0  503  0.73037780458E+02 -0.45068489187E+02  0.20993558176E+02  0.88478842537E+02  0.47000000000E+01 0. -1.
<mgrwt>
<rscale>  0 0.27406818E+03</rscale>
<asrwt>0</asrwt>
<pdfrwt beam="1">  1        1 0.15332086E-01 0.27406818E+03</pdfrwt>
<pdfrwt beam="2">  1       -1 0.28988738E-01 0.27406818E+03</pdfrwt>
<totfact> 0.38999415E+03</totfact>
</mgrwt>
</event>
<event>
 9    1  0.2117506E-002  0.2748720E+03  0.7818608E-02  0.1098523E+00
          1   -1    0    0  501    0  0.00000000000E+00  0.00000000000E+00  0.48012458455E+04  0.48012458455E+04  0.00000000000E+00 0.  1.
         -1   -1    0    0    0  501 -0.00000000000E+00 -0.00000000000E+00 -0.39341146436E+01  0.39341146436E+01  0.00000000000E+00 0.  1.
         36    2    1    2    0    0  0.00000000000E+00 -0.71054273576E-14  0.47973117308E+04  0.48051799601E+04  0.27487198175E+03 0.  0.
         25    2    3    3    0    0 -0.47261730786E+02 -0.53702646268E+02  0.26665120743E+04  0.26701917783E+04  0.12049831974E+03 0.  0.
         25    2    3    3    0    0  0.47261730786E+02  0.53702646268E+02  0.21307996565E+04  0.21349881818E+04  0.11291463523E+03 0.  0.
          5    1    4    4  502    0  0.23983097510E+02 -0.62594889639E+00  0.14033111074E+03  0.14244469600E+03  0.47000000000E+01 0.  1.
         -5    1    4    4    0  502 -0.71244828296E+02 -0.53076697372E+02  0.25261809636E+04  0.25277470823E+04  0.47000000000E+01 0.  1.
          5    1    5    5  503    0  0.46774280749E+02  0.32743973295E+02  0.40267157687E+03  0.40672655426E+03  0.47000000000E+01 0. -1.
         -5    1    5    5    0  503  0.48745003705E+00  0.20958672973E+02  0.17281280796E+04  0.17282616275E+04  0.47000000000E+01 0. -1.
<mgrwt>
<rscale>  0 0.27487198E+03</rscale>
<asrwt>0</asrwt>
<pdfrwt beam="1">  1        1 0.73864852E+00 0.27487198E+03</pdfrwt>
<pdfrwt beam="2">  1       -1 0.60525225E-03 0.27487198E+03</pdfrwt>
<totfact> 0.83224476E+01</totfact>
</mgrwt>
</event>
<event>
 9    1  0.2117506E-002  0.2742579E+03  0.7818608E-02  0.1098867E+00
         -2   -1    0    0    0  501 -0.00000000000E+00  0.00000000000E+00  0.18871538333E+02  0.18871538333E+02  0.00000000000E+00 0. -1.
          2   -1    0    0  501    0  0.00000000000E+00 -0.00000000000E+00 -0.99643974046E+03  0.99643974046E+03  0.00000000000E+00 0. -1.
         36    2    1    2    0    0  0.00000000000E+00  0.71054273576E-14 -0.97756820213E+03  0.10153112788E+04  0.27425791335E+03 0.  0.
         25    2    3    3    0    0 -0.20880543771E+02  0.39396926598E+02 -0.46038880186E+03  0.47983768801E+03  0.12766457231E+03 0.  0.
         25    2    3    3    0    0  0.20880543771E+02 -0.39396926598E+02 -0.51717940027E+03  0.53547359078E+03  0.13141278261E+03 0.  0.
          5    1    4    4  502    0 -0.20417435731E+02  0.82673444615E+02 -0.22849637186E+03  0.24389434614E+03  0.47000000000E+01 0. -1.
         -5    1    4    4    0  502 -0.46310803957E+00 -0.43276518017E+02 -0.23189243000E+03  0.23594334186E+03  0.47000000000E+01 0. -1.
          5    1    5    5  503    0  0.50087871179E+02 -0.11239499711E+02 -0.72694046302E+02  0.89115854711E+02  0.47000000000E+01 0. -1.
         -5    1    5    5    0  503 -0.29207327409E+02 -0.28157426888E+02 -0.44448535397E+03  0.44635773607E+03  0.47000000000E+01 0. -1.
<mgrwt>
<rscale>  0 0.27425791E+03</rscale>
<asrwt>0</asrwt>
<pdfrwt beam="1">  1        2 0.15329845E+00 0.27425791E+03</pdfrwt>
<pdfrwt beam="2">  1       -2 0.29033131E-02 0.27425791E+03</pdfrwt>
<totfact> 0.11707447E+04</totfact>
</mgrwt>
</event>
<event>
 9    1  0.2117506E-002  0.2753580E+03  0.7818608E-02  0.1098252E+00
          1   -1    0    0  501    0  0.00000000000E+00  0.00000000000E+00  0.11919541687E+04  0.11919541687E+04  0.00000000000E+00 0.  1.
         -1   -1    0    0    0  501 -0.00000000000E+00 -0.00000000000E+00 -0.15902881532E+02  0.15902881532E+02  0.00000000000E+00 0.  1.
         36    2    1    2    0    0 -0.14210854715E-13  0.00000000000E+00  0.11760512872E+04  0.12078570502E+04  0.27535799198E+03 0.  0.
         25    2    3    3    0    0 -0.29286779154E+02 -0.43628956970E+02  0.71875979785E+03  0.73196396220E+03  0.12804059368E+03 0.  0.
         25    2    3    3    0    0  0.29286779154E+02  0.43628956970E+02  0.45729148933E+03  0.47589308805E+03  0.12082021237E+03 0.  0.
          5    1    4    4  502    0 -0.41123440713E+02 -0.51019211914E+02  0.15936924726E+03  0.17237965174E+03  0.47000000000E+01 0. -1.
         -5    1    4    4    0  502  0.11836661559E+02  0.73902549445E+01  0.55939055059E+03  0.55958431046E+03  0.47000000000E+01 0. -1.
          5    1    5    5  503    0 -0.44121654980E+02  0.28455341208E+01  0.21107504468E+03  0.21570716722E+03  0.47000000000E+01 0.  1.
         -5    1    5    5    0  503  0.73408434134E+02  0.40783422849E+02  0.24621644465E+03  0.26018592083E+03  0.47000000000E+01 0.  1.
<mgrwt>
<rscale>  0 0.27535799E+03</rscale>
<asrwt>0</asrwt>
<pdfrwt beam="1">  1        1 0.18337749E+00 0.27535799E+03</pdfrwt>
<pdfrwt beam="2">  1       -1 0.24465981E-02 0.27535799E+03</pdfrwt>
<totfact> 0.59132599E+03</totfact>
</mgrwt>
</event>
<event>
 9    1  0.2117506E-002  0.2752807E+03  0.7818608E-02  0.1098295E+00
          3   -1    0    0  501    0  0.00000000000E+00  0.00000000000E+00  0.81340543662E+02  0.81340543662E+02  0.00000000000E+00 0. -1.
         -3   -1    0    0    0  501 -0.00000000000E+00 -0.00000000000E+00 -0.23290805926E+03  0.23290805926E+03  0.00000000000E+00 0. -1.
         36    2    1    2    0    0  0.00000000000E+00  0.71054273576E-14 -0.15156751560E+03  0.31424860292E+03  0.27528071609E+03 0.  0.
         25    2    3    3    0    0  0.18278965068E+02  0.48979908371E+02 -0.97681798392E+02  0.16687754656E+03  0.12479274747E+03 0.  0.
         25    2    3    3    0    0 -0.18278965068E+02 -0.48979908371E+02 -0.53885717206E+02  0.14737105636E+03  0.12681248261E+03 0.  0.
          5    1    4    4  502    0  0.60962139101E+02  0.39751783661E+02 -0.16799361106E+02  0.74839129081E+02  0.47000000000E+01 0.  1.
         -5    1    4    4    0  502 -0.42683174033E+02  0.92281247093E+01 -0.80882437286E+02  0.92038417481E+02  0.47000000000E+01 0.  1.
          5    1    5    5  503    0  0.54069206445E+02 -0.19434272139E+02 -0.13196232038E+02  0.59138824466E+02  0.47000000000E+01 0. -1.
         -5    1    5    5    0  503 -0.72348171513E+02 -0.29545636231E+02 -0.40689485168E+02  0.88232231894E+02  0.47000000000E+01 0. -1.
<mgrwt>
<rscale>  0 0.27528072E+03</rscale>
<asrwt>0</asrwt>
<pdfrwt beam="1">  1        3 0.12513930E-01 0.27528072E+03</pdfrwt>
<pdfrwt beam="2">  1       -3 0.35832009E-01 0.27528072E+03</pdfrwt>
<totfact> 0.98804610E+02</totfact>
</mgrwt>
</event>
<event>
 9    1  0.2117506E-002  0.2747215E+03  0.7818608E-02  0.1098607E+00
          1   -1    0    0  501    0  0.00000000000E+00  0.00000000000E+00  0.75046660953E+03  0.75046660953E+03  0.00000000000E+00 0.  1.
         -1   -1    0    0    0  501 -0.00000000000E+00 -0.00000000000E+00 -0.25141666843E+02  0.25141666843E+02  0.00000000000E+00 0.  1.
         36    2    1    2    0    0  0.00000000000E+00  0.00000000000E+00  0.72532494269E+03  0.77560827638E+03  0.27472154246E+03 0.  0.
         25    2    3    3    0    0 -0.66641304582E+02  0.95586832543E+01  0.33547620279E+03  0.36590867741E+03  0.12966281526E+03 0.  0.
         25    2    3    3    0    0  0.66641304582E+02 -0.95586832543E+01  0.38984873990E+03  0.40969959897E+03  0.10648610000E+03 0.  0.
          5    1    4    4  502    0  0.21203525689E+02 -0.35027515911E+02  0.15337019541E+03  0.15881128176E+03  0.47000000000E+01 0. -1.
         -5    1    4    4    0  502 -0.87844830271E+02  0.44586199165E+02  0.18210600738E+03  0.20709739565E+03  0.47000000000E+01 0. -1.
          5    1    5    5  503    0  0.35864287767E+02 -0.50209081230E+02  0.11978607266E+03  0.13482578455E+03  0.47000000000E+01 0.  1.
         -5    1    5    5    0  503  0.30777016815E+02  0.40650397976E+02  0.27006266724E+03  0.27487381442E+03  0.47000000000E+01 0.  1.
<mgrwt>
<rscale>  0 0.27472154E+03</rscale>
<asrwt>0</asrwt>
<pdfrwt beam="1">  1        1 0.11545638E+00 0.27472154E+03</pdfrwt>
<pdfrwt beam="2">  1       -1 0.38679493E-02 0.27472154E+03</pdfrwt>
<totfact> 0.65547818E+03</totfact>
</mgrwt>
</event>
<event>
 9    1  0.2117506E-002  0.2750573E+03  0.7818608E-02  0.1098420E+00
         -1   -1    0    0    0  501 -0.00000000000E+00  0.00000000000E+00  0.19517107543E+03  0.19517107543E+03  0.00000000000E+00 0.  1.
          1   -1    0    0  501    0  0.00000000000E+00 -0.00000000000E+00 -0.96910481097E+02  0.96910481097E+02  0.00000000000E+00 0.  1.
         36    2    1    2    0    0 -0.71054273576E-14  0.00000000000E+00  0.98260594331E+02  0.29208155653E+03  0.27505725088E+03 0.  0.
         25    2    3    3    0    0 -0.37978259077E+02 -0.38322552456E+02  0.26235278957E+02  0.14026604690E+03  0.12678843742E+03 0.  0.
         25    2    3    3    0    0  0.37978259077E+02  0.38322552456E+02  0.72025315373E+02  0.15181550962E+03  0.12226748021E+03 0.  0.
          5    1    4    4  502    0 -0.48420152104E+02 -0.68597657324E+02 -0.17457921936E+02  0.85889573048E+02  0.47000000000E+01 0.  1.
         -5    1    4    4    0  502  0.10441893027E+02  0.30275104868E+02  0.43693200893E+02  0.54376473857E+02  0.47000000000E+01 0.  1.
          5    1    5    5  503    0  0.52357528962E+02  0.65858756254E+02  0.83248614914E+02  0.11845298012E+03  0.47000000000E+01 0.  1.
         -5    1    5    5    0  503 -0.14379269885E+02 -0.27536203799E+02 -0.11223299541E+02  0.33362529500E+02  0.47000000000E+01 0.  1.
<mgrwt>
<rscale>  0 0.27505725E+03</rscale>
<asrwt>0</asrwt>
<pdfrwt beam="1">  1        1 0.14909305E-01 0.27505725E+03</pdfrwt>
<pdfrwt beam="2">  1       -1 0.30026319E-01 0.27505725E+03</pdfrwt>
<totfact> 0.38115827E+03</totfact>
</mgrwt>
</event>
<event>
 9    1  0.2117506E-002  0.2762837E+03  0.7818608E-02  0.1097736E+00
          2   -1    0    0  501    0  0.00000000000E+00  0.00000000000E+00  0.11697361141E+04  0.11697361141E+04  0.00000000000E+00 0.  1.
         -2   -1    0    0    0  501 -0.00000000000E+00 -0.00000000000E+00 -0.16314079824E+02  0.16314079824E+02  0.00000000000E+00 0.  1.
         36    2    1    2    0    0  0.00000000000E+00  0.00000000000E+00  0.11534220343E+04  0.11860501939E+04  0.27628368275E+03 0.  0.
         25    2    3    3    0    0  0.54714107786E+02 -0.10666368030E+02  0.33669958351E+03  0.35807119760E+03  0.10835574751E+03 0.  0.
         25    2    3    3    0    0 -0.54714107786E+02  0.10666368030E+02  0.81672245077E+03  0.82797899633E+03  0.12412192299E+03 0.  0.
          5    1    4    4  502    0  0.43648016332E+01  0.37641810929E+02  0.49705539109E+02  0.62679247294E+02  0.47000000000E+01 0. -1.
         -5    1    4    4    0  502  0.50349306153E+02 -0.48308178959E+02  0.28699404440E+03  0.29539195031E+03  0.47000000000E+01 0. -1.
          5    1    5    5  503    0  0.98208583330E+01  0.18429802240E+02  0.22383806548E+02  0.30971465328E+02  0.47000000000E+01 0. -1.
         -5    1    5    5    0  503 -0.64534966119E+02 -0.77634342097E+01  0.79433864422E+03  0.79700753100E+03  0.47000000000E+01 0. -1.
<mgrwt>
<rscale>  0 0.27628368E+03</rscale>
<asrwt>0</asrwt>
<pdfrwt beam="1">  1        2 0.17995934E+00 0.27628368E+03</pdfrwt>
<pdfrwt beam="2">  1       -2 0.25098594E-02 0.27628368E+03</pdfrwt>
<totfact> 0.11475684E+04</totfact>
</mgrwt>
</event>
<event>
 9    1  0.2117506E-002  0.2750517E+03  0.7818608E-02  0.1098423E+00
         -1   -1    0    0    0  501 -0.00000000000E+00  0.00000000000E+00  0.20470728124E+03  0.20470728124E+03  0.00000000000E+00 0. -1.
          1   -1    0    0  501    0  0.00000000000E+00 -0.00000000000E+00 -0.92392197338E+02  0.92392197338E+02  0.00000000000E+00 0. -1.
         36    2    1    2    0    0  0.35527136788E-14  0.71054273576E-14  0.11231508390E+03  0.29709947858E+03  0.27505167169E+03 0.  0.
         25    2    3    3    0    0  0.24765576268E+02  0.23761266538E+02  0.96475232107E+02  0.16876656425E+03  0.13415197070E+03 0.  0.
         25    2    3    3    0    0 -0.24765576268E+02 -0.23761266538E+02  0.15839851798E+02  0.12833291433E+03  0.12263973435E+03 0.  0.
          5    1    4    4  502    0  0.31625865194E+02  0.66822173823E+02  0.10036013197E+03  0.12473830347E+03  0.47000000000E+01 0. -1.
         -5    1    4    4    0  502 -0.68602889268E+01 -0.43060907286E+02 -0.38848998607E+01  0.44028260780E+02  0.47000000000E+01 0. -1.
          5    1    5    5  503    0 -0.48924051012E+02 -0.55837684556E+02 -0.16930114386E+02  0.76289767054E+02  0.47000000000E+01 0. -1.
         -5    1    5    5    0  503  0.24158474744E+02  0.32076418019E+02  0.32769966184E+02  0.52043147278E+02  0.47000000000E+01 0. -1.
<mgrwt>
<rscale>  0 0.27505167E+03</rscale>
<asrwt>0</asrwt>
<pdfrwt beam="1">  1        1 0.14214184E-01 0.27505167E+03</pdfrwt>
<pdfrwt beam="2">  1       -1 0.31493428E-01 0.27505167E+03</pdfrwt>
<totfact> 0.37411378E+03</totfact>
</mgrwt>
</event>
<event>
 9    1  0.2117506E-002  0.2747735E+03  0.7818608E-02  0.1098578E+00
         -3   -1    0    0    0  501 -0.00000000000E+00  0.00000000000E+00  0.41070091755E+02  0.41070091755E+02  0.00000000000E+00 0.  1.
          3   -1    0    0  501    0  0.00000000000E+00 -0.00000000000E+00 -0.45958316114E+03  0.45958316114E+03  0.00000000000E+00 0.  1.
         36    2    1    2    0    0  0.71054273576E-14  0.00000000000E+00 -0.41851306938E+03  0.50065325289E+03  0.27477352563E+03 0.  0.
         25    2    3    3    0    0 -0.37120820868E+02  0.54231386822E+02 -0.22785338916E+03  0.26522799314E+03  0.11878435391E+03 0.  0.
         25    2    3    3    0    0  0.37120820868E+02 -0.54231386822E+02 -0.19065968023E+03  0.23542525976E+03  0.12146991648E+03 0.  0.
          5    1    4    4  502    0  0.40419453844E+02  0.41370675670E+01 -0.48401354199E+02  0.63368988199E+02  0.47000000000E+01 0. -1.
         -5    1    4    4    0  502 -0.77540274712E+02  0.50094319255E+02 -0.17945203496E+03  0.20185900494E+03  0.47000000000E+01 0. -1.
          5    1    5    5  503    0  0.19043485568E+02  0.66739837896E+00  0.13085395774E+02  0.23588500286E+02  0.47000000000E+01 0.  1.
         -5    1    5    5    0  503  0.18077335300E+02 -0.54898785201E+02 -0.20374507600E+03  0.21183675947E+03  0.47000000000E+01 0.  1.
<mgrwt>
<rscale>  0 0.27477353E+03</rscale>
<asrwt>0</asrwt>
<pdfrwt beam="1">  1        3 0.70705104E-01 0.27477353E+03</pdfrwt>
<pdfrwt beam="2">  1       -3 0.63184755E-02 0.27477353E+03</pdfrwt>
<totfact> 0.77568034E+02</totfact>
</mgrwt>
</event>
<event>
 9    1  0.2117506E-002  0.2753413E+03  0.7818608E-02  0.1098261E+00
          1   -1    0    0  501    0  0.00000000000E+00  0.00000000000E+00  0.18877380369E+02  0.18877380369E+02  0.00000000000E+00 0. -1.
         -1   -1    0    0    0  501 -0.00000000000E+00 -0.00000000000E+00 -0.10040167787E+04  0.10040167787E+04  0.00000000000E+00 0. -1.
         36    2    1    2    0    0  0.00000000000E+00  0.35527136788E-14 -0.98513939832E+03  0.10228941591E+04  0.27534129097E+03 0.  0.
         25    2    3    3    0    0 -0.36706537405E+02 -0.70318010113E+01 -0.69736441007E+03  0.70701504370E+03  0.11025577299E+03 0.  0.
         25    2    3    3    0    0  0.36706537405E+02  0.70318010113E+01 -0.28777498825E+03  0.31587911535E+03  0.12477321644E+03 0.  0.
          5    1    4    4  502    0 -0.66738089411E+02  0.25286082572E+02 -0.46236809040E+03  0.46786718155E+03  0.47000000000E+01 0.  1.
         -5    1    4    4    0  502  0.30031552007E+02 -0.32317883583E+02 -0.23499631967E+03  0.23914786216E+03  0.47000000000E+01 0.  1.
          5    1    5    5  503    0  0.60322981804E+02 -0.21173370909E+02 -0.26435756738E+03  0.27201872583E+03  0.47000000000E+01 0.  1.
         -5    1    5    5    0  503 -0.23616444399E+02  0.28205171920E+02 -0.23417420868E+02  0.43860389524E+02  0.47000000000E+01 0.  1.
<mgrwt>
<rscale>  0 0.27534129E+03</rscale>
<asrwt>0</asrwt>
<pdfrwt beam="1">  1        1 0.29042124E-02 0.27534129E+03</pdfrwt>
<pdfrwt beam="2">  1       -1 0.15446412E+00 0.27534129E+03</pdfrwt>
<totfact> 0.12479172E+03</totfact>
</mgrwt>
</event>
<event>
 9    1  0.2117506E-002  0.2753448E+03  0.7818608E-02  0.1098259E+00
         -1   -1    0    0    0  501 -0.00000000000E+00  0.00000000000E+00  0.52326411415E+02  0.52326411415E+02  0.00000000000E+00 0.  1.
          1   -1    0    0  501    0  0.00000000000E+00 -0.00000000000E+00 -0.36222025059E+03  0.36222025059E+03  0.00000000000E+00 0.  1.
         36    2    1    2    0    0  0.00000000000E+00  0.00000000000E+00 -0.30989383918E+03  0.41454666201E+03  0.27534477192E+03 0.  0.
         25    2    3    3    0    0 -0.58018465180E+02  0.19290755797E+01 -0.15964169324E+03  0.20946273379E+03  0.12255326593E+03 0.  0.
         25    2    3    3    0    0  0.58018465180E+02 -0.19290755797E+01 -0.15025214594E+03  0.20508392822E+03  0.12694032701E+03 0.  0.
          5    1    4    4  502    0  0.18694531258E+02 -0.31449920764E+02 -0.10007137358E+03  0.10665342388E+03  0.47000000000E+01 0. -1.
         -5    1    4    4    0  502 -0.76712996438E+02  0.33378996344E+02 -0.59570319662E+02  0.10280930991E+03  0.47000000000E+01 0. -1.
          5    1    5    5  503    0  0.60903235116E+02 -0.42550159602E+02 -0.14598317457E+03  0.16386853690E+03  0.47000000000E+01 0. -1.
         -5    1    5    5    0  503 -0.28847699361E+01  0.40621084022E+02 -0.42689713665E+01  0.41215391315E+02  0.47000000000E+01 0. -1.
<mgrwt>
<rscale>  0 0.27534477E+03</rscale>
<asrwt>0</asrwt>
<pdfrwt beam="1">  1        1 0.55726192E-01 0.27534477E+03</pdfrwt>
<pdfrwt beam="2">  1       -1 0.80502172E-02 0.27534477E+03</pdfrwt>
<totfact> 0.58370571E+03</totfact>
</mgrwt>
</event>
<event>
 9    1  0.2117506E-002  0.2780361E+03  0.7818608E-02  0.1096766E+00
          2   -1    0    0  501    0  0.00000000000E+00  0.00000000000E+00  0.20858702824E+04  0.20858702824E+04  0.00000000000E+00 0. -1.
         -2   -1    0    0    0  501 -0.00000000000E+00 -0.00000000000E+00 -0.92652063231E+01  0.92652063231E+01  0.00000000000E+00 0. -1.
         36    2    1    2    0    0  0.00000000000E+00  0.71054273576E-14  0.20766050761E+04  0.20951354888E+04  0.27803610219E+03 0.  0.
         25    2    3    3    0    0  0.32747461056E+02 -0.15972563619E+02  0.10298367572E+04  0.10390608621E+04  0.13325242835E+03 0.  0.
         25    2    3    3    0    0 -0.32747461056E+02  0.15972563619E+02  0.10467683189E+04  0.10560746266E+04  0.13506363172E+03 0.  0.
          5    1    4    4  502    0  0.67041600011E+02  0.21762060453E+02  0.82117444295E+03  0.82420732778E+03  0.47000000000E+01 0.  1.
         -5    1    4    4    0  502 -0.34294138955E+02 -0.37734624072E+02  0.20866231429E+03  0.21485353435E+03  0.47000000000E+01 0.  1.
          5    1    5    5  503    0 -0.28336724436E+02 -0.58475527015E+02  0.47965244646E+03  0.48405672871E+03  0.47000000000E+01 0. -1.
         -5    1    5    5    0  503 -0.44107366197E+01  0.74448090634E+02  0.56711587241E+03  0.57201789791E+03  0.47000000000E+01 0. -1.
<mgrwt>
<rscale>  0 0.27803610E+03</rscale>
<asrwt>0</asrwt>
<pdfrwt beam="1">  1        2 0.32090275E+00 0.27803610E+03</pdfrwt>
<pdfrwt beam="2">  1       -2 0.14254180E-02 0.27803610E+03</pdfrwt>
<totfact> 0.85102607E+03</totfact>
</mgrwt>
</event>
<event>
 9    1  0.2117506E-002  0.2747227E+03  0.7818608E-02  0.1098607E+00
          4   -1    0    0  501    0  0.00000000000E+00  0.00000000000E+00  0.13132694244E+03  0.13132694244E+03  0.00000000000E+00 0. -1.
         -4   -1    0    0    0  501 -0.00000000000E+00 -0.00000000000E+00 -0.14367303306E+03  0.14367303306E+03  0.00000000000E+00 0. -1.
         36    2    1    2    0    0 -0.17763568394E-14 -0.71054273576E-14 -0.12346090620E+02  0.27499997550E+03  0.27472269759E+03 0.  0.
         25    2    3    3    0    0  0.15793508457E+02 -0.42009218404E+02  0.38181499650E+02  0.13671275010E+03  0.12336263529E+03 0.  0.
         25    2    3    3    0    0 -0.15793508457E+02  0.42009218404E+02 -0.50527590270E+02  0.13828722540E+03  0.12064870488E+03 0.  0.
          5    1    4    4  502    0 -0.14216303133E+02 -0.80143083591E+02  0.31934683786E+02  0.87561013874E+02  0.47000000000E+01 0. -1.
         -5    1    4    4    0  502  0.30009811590E+02  0.38133865187E+02  0.62468158643E+01  0.49151736228E+02  0.47000000000E+01 0. -1.
          5    1    5    5  503    0 -0.14309490121E+02 -0.41421607714E+02 -0.26061072164E+02  0.51203325825E+02  0.47000000000E+01 0. -1.
         -5    1    5    5    0  503 -0.14840183358E+01  0.83430826118E+02 -0.24466518106E+02  0.87083899576E+02  0.47000000000E+01 0. -1.
<mgrwt>
<rscale>  0 0.27472270E+03</rscale>
<asrwt>0</asrwt>
<pdfrwt beam="1">  1        4 0.20204145E-01 0.27472270E+03</pdfrwt>
<pdfrwt beam="2">  1       -4 0.22103543E-01 0.27472270E+03</pdfrwt>
<totfact> 0.78107096E+02</totfact>
</mgrwt>
</event>
<event>
 9    1  0.2117506E-002  0.2750850E+03  0.7818608E-02  0.1098404E+00
          2   -1    0    0  501    0  0.00000000000E+00  0.00000000000E+00  0.24318968071E+03  0.24318968071E+03  0.00000000000E+00 0. -1.
         -2   -1    0    0    0  501 -0.00000000000E+00 -0.00000000000E+00 -0.77790887854E+02  0.77790887854E+02  0.00000000000E+00 0. -1.
         36    2    1    2    0    0  0.71054273576E-14 -0.71054273576E-14  0.16539879285E+03  0.32098056856E+03  0.27508501362E+03 0.  0.
         25    2    3    3    0    0  0.30354424834E+02 -0.48024267449E+02  0.10991239586E+03  0.17653901867E+03  0.12592683978E+03 0.  0.
         25    2    3    3    0    0 -0.30354424834E+02  0.48024267449E+02  0.55486396989E+02  0.14444154989E+03  0.12065197766E+03 0.  0.
          5    1    4    4  502    0 -0.47030987575E+01 -0.64803355232E+02  0.59086267448E+01  0.65410976581E+02  0.47000000000E+01 0.  1.
         -5    1    4    4    0  502  0.35057523591E+02  0.16779087783E+02  0.10400376912E+03  0.11112804209E+03  0.47000000000E+01 0.  1.
          5    1    5    5  503    0 -0.57665044770E+02  0.50952670292E+02  0.77208885344E+02  0.10910881712E+03  0.47000000000E+01 0. -1.
         -5    1    5    5    0  503  0.27310619937E+02 -0.29284028429E+01 -0.21722488355E+02  0.35332732768E+02  0.47000000000E+01 0. -1.
<mgrwt>
<rscale>  0 0.27508501E+03</rscale>
<asrwt>0</asrwt>
<pdfrwt beam="1">  1        2 0.37413797E-01 0.27508501E+03</pdfrwt>
<pdfrwt beam="2">  1       -2 0.11967829E-01 0.27508501E+03</pdfrwt>
<totfact> 0.67740527E+03</totfact>
</mgrwt>
</event>
<event>
 9    1  0.2117506E-002  0.2721419E+03  0.7818608E-02  0.1100060E+00
          2   -1    0    0  501    0  0.00000000000E+00  0.00000000000E+00  0.13812474464E+03  0.13812474464E+03  0.00000000000E+00 0. -1.
         -2   -1    0    0    0  501 -0.00000000000E+00 -0.00000000000E+00 -0.13404764521E+03  0.13404764521E+03  0.00000000000E+00 0. -1.
         36    2    1    2    0    0  0.00000000000E+00  0.00000000000E+00  0.40770994285E+01  0.27217238986E+03  0.27214185099E+03 0.  0.
         25    2    3    3    0    0 -0.34436322470E+02 -0.29079642546E+02  0.20578512154E+02  0.13238450228E+03  0.12276276050E+03 0.  0.
         25    2    3    3    0    0  0.34436322470E+02  0.29079642546E+02 -0.16501412725E+02  0.13978788758E+03  0.13128926451E+03 0.  0.
          5    1    4    4  502    0 -0.75544392939E+02  0.64077345997E+01  0.16424991691E+02  0.77716695242E+02  0.47000000000E+01 0. -1.
         -5    1    4    4    0  502  0.41108070469E+02 -0.35487377145E+02  0.41535204629E+01  0.54667807040E+02  0.47000000000E+01 0. -1.
          5    1    5    5  503    0  0.22106200076E+02 -0.19705932939E+02  0.48762335438E+02  0.57243892532E+02  0.47000000000E+01 0.  1.
         -5    1    5    5    0  503  0.12330122395E+02  0.48785575485E+02 -0.65263748163E+02  0.82543995045E+02  0.47000000000E+01 0.  1.
<mgrwt>
<rscale>  0 0.27214185E+03</rscale>
<asrwt>0</asrwt>
<pdfrwt beam="1">  1        2 0.21249961E-01 0.27214185E+03</pdfrwt>
<pdfrwt beam="2">  1       -2 0.20622715E-01 0.27214185E+03</pdfrwt>
<totfact> 0.51226541E+03</totfact>
</mgrwt>
</event>
<event>
 9    1  0.2117506E-002  0.2757637E+03  0.7818608E-02  0.1098025E+00
         -3   -1    0    0    0  501 -0.00000000000E+00  0.00000000000E+00  0.13652955073E+03  0.13652955073E+03  0.00000000000E+00 0. -1.
          3   -1    0    0  501    0  0.00000000000E+00 -0.00000000000E+00 -0.13924752294E+03  0.13924752294E+03  0.00000000000E+00 0. -1.
         36    2    1    2    0    0  0.71054273576E-14 -0.17763568394E-14 -0.27179722057E+01  0.27577707366E+03  0.27576367960E+03 0.  0.
         25    2    3    3    0    0  0.48084076099E+02  0.57396175415E+01  0.26541020071E+02  0.14023637512E+03  0.12890614251E+03 0.  0.
         25    2    3    3    0    0 -0.48084076099E+02 -0.57396175415E+01 -0.29258992276E+02  0.13554069854E+03  0.12316724706E+03 0.  0.
          5    1    4    4  502    0  0.28969865215E+02 -0.60101082615E+02  0.90477058771E+00  0.66890222244E+02  0.47000000000E+01 0. -1.
         -5    1    4    4    0  502  0.19114210884E+02  0.65840700156E+02  0.25636249483E+02  0.73346152880E+02  0.47000000000E+01 0. -1.
          5    1    5    5  503    0 -0.56116242710E+02 -0.83838635296E+01 -0.71959300666E+02  0.91758121253E+02  0.47000000000E+01 0.  1.
         -5    1    5    5    0  503  0.80321666107E+01  0.26442459882E+01  0.42700308390E+02  0.43782577287E+02  0.47000000000E+01 0.  1.
<mgrwt>
<rscale>  0 0.27576368E+03</rscale>
<asrwt>0</asrwt>
<pdfrwt beam="1">  1        3 0.21422696E-01 0.27576368E+03</pdfrwt>
<pdfrwt beam="2">  1       -3 0.21004546E-01 0.27576368E+03</pdfrwt>
<totfact> 0.10388248E+03</totfact>
</mgrwt>
</event>
<event>
 9    1  0.2117506E-002  0.2759107E+03  0.7818608E-02  0.1097944E+00
         -1   -1    0    0    0  501 -0.00000000000E+00  0.00000000000E+00  0.19593346922E+02  0.19593346922E+02  0.00000000000E+00 0.  1.
          1   -1    0    0  501    0  0.00000000000E+00 -0.00000000000E+00 -0.97133361484E+03  0.97133361484E+03  0.00000000000E+00 0.  1.
         36    2    1    2    0    0  0.00000000000E+00  0.00000000000E+00 -0.95174026792E+03  0.99092696176E+03  0.27591068477E+03 0.  0.
         25    2    3    3    0    0 -0.69528347917E+01 -0.51669700416E+02 -0.38258957669E+03  0.40608807845E+03  0.12575628578E+03 0.  0.
         25    2    3    3    0    0  0.69528347917E+01  0.51669700416E+02 -0.56915069123E+03  0.58483888331E+03  0.12403995429E+03 0.  0.
          5    1    4    4  502    0 -0.59155092468E+02  0.13391059535E+00 -0.12874597148E+03  0.14176374032E+03  0.47000000000E+01 0. -1.
         -5    1    4    4    0  502  0.52202257677E+02 -0.51803611011E+02 -0.25384360521E+03  0.26432433813E+03  0.47000000000E+01 0. -1.
          5    1    5    5  503    0  0.53002932802E+02 -0.11054553746E+02 -0.28789094709E+03  0.29297576941E+03  0.47000000000E+01 0. -1.
         -5    1    5    5    0  503 -0.46050098010E+02  0.62724254162E+02 -0.28125974413E+03  0.29186311390E+03  0.47000000000E+01 0. -1.
<mgrwt>
<rscale>  0 0.27591068E+03</rscale>
<asrwt>0</asrwt>
<pdfrwt beam="1">  1        1 0.14943595E+00 0.27591068E+03</pdfrwt>
<pdfrwt beam="2">  1       -1 0.30143610E-02 0.27591068E+03</pdfrwt>
<totfact> 0.62919789E+03</totfact>
</mgrwt>
</event>
<event>
 9    1  0.2117506E-002  0.2748059E+03  0.7818608E-02  0.1098560E+00
         -1   -1    0    0    0  501 -0.00000000000E+00  0.00000000000E+00  0.39171644893E+04  0.39171644893E+04  0.00000000000E+00 0. -1.
          1   -1    0    0  501    0  0.00000000000E+00 -0.00000000000E+00 -0.48197021318E+01  0.48197021318E+01  0.00000000000E+00 0. -1.
         36    2    1    2    0    0  0.17763568394E-14  0.14210854715E-13  0.39123447872E+04  0.39219841914E+04  0.27480586631E+03 0.  0.
         25    2    3    3    0    0  0.14929104030E+02 -0.40013255777E+02  0.25048059543E+04  0.25083637560E+04  0.12653823527E+03 0.  0.
         25    2    3    3    0    0 -0.14929104030E+02  0.40013255777E+02  0.14075388329E+04  0.14136204354E+04  0.12382742275E+03 0.  0.
          5    1    4    4  502    0 -0.36500711119E+01  0.20853142706E+02  0.19137924829E+04  0.19139153415E+04  0.47000000000E+01 0.  1.
         -5    1    4    4    0  502  0.18579175142E+02 -0.60866398482E+02  0.59101347134E+03  0.59444841452E+03  0.47000000000E+01 0.  1.
          5    1    5    5  503    0  0.32278998078E+02  0.44478866504E+02  0.11726708629E+04  0.11739673530E+04  0.47000000000E+01 0. -1.
         -5    1    5    5    0  503 -0.47208102108E+02 -0.44656107269E+01  0.23486797001E+03  0.23965308244E+03  0.47000000000E+01 0. -1.
<mgrwt>
<rscale>  0 0.27480587E+03</rscale>
<asrwt>0</asrwt>
<pdfrwt beam="1">  1        1 0.74149577E-03 0.27480587E+03</pdfrwt>
<pdfrwt beam="2">  1       -1 0.60263815E+00 0.27480587E+03</pdfrwt>
<totfact> 0.12456588E+01</totfact>
</mgrwt>
</event>
<event>
 9    1  0.2117506E-002  0.2764109E+03  0.7818608E-02  0.1097666E+00
          1   -1    0    0  501    0  0.00000000000E+00  0.00000000000E+00  0.70138448941E+02  0.70138448941E+02  0.00000000000E+00 0.  1.
         -1   -1    0    0    0  501 -0.00000000000E+00 -0.00000000000E+00 -0.27232915888E+03  0.27232915888E+03  0.00000000000E+00 0.  1.
         36    2    1    2    0    0 -0.35527136788E-14  0.35527136788E-14 -0.20219070994E+03  0.34246760782E+03  0.27641088839E+03 0.  0.
         25    2    3    3    0    0 -0.31305795138E+02  0.26709803741E+02 -0.26000368653E+02  0.13331468511E+03  0.12411011107E+03 0.  0.
         25    2    3    3    0    0  0.31305795138E+02 -0.26709803741E+02 -0.17619034128E+03  0.20915292271E+03  0.10492112414E+03 0.  0.
          5    1    4    4  502    0 -0.39521846993E+02 -0.26865321556E+02  0.28882550184E+02  0.56035824230E+02  0.47000000000E+01 0. -1.
         -5    1    4    4    0  502  0.82160518556E+01  0.53575125297E+02 -0.54882918836E+02  0.77278860879E+02  0.47000000000E+01 0. -1.
          5    1    5    5  503    0 -0.28467889103E+02 -0.20760350060E+02 -0.17932040005E+02  0.39812823353E+02  0.47000000000E+01 0. -1.
         -5    1    5    5    0  503  0.59773684240E+02 -0.59494536806E+01 -0.15825830128E+03  0.16934009936E+03  0.47000000000E+01 0. -1.
<mgrwt>
<rscale>  0 0.27641089E+03</rscale>
<asrwt>0</asrwt>
<pdfrwt beam="1">  1        1 0.10790530E-01 0.27641089E+03</pdfrwt>
<pdfrwt beam="2">  1       -1 0.41896795E-01 0.27641089E+03</pdfrwt>
<totfact> 0.32747465E+03</totfact>
</mgrwt>
</event>
<event>
 9    1  0.2117506E-002  0.2770099E+03  0.7818608E-02  0.1097333E+00
          1   -1    0    0  501    0  0.00000000000E+00  0.00000000000E+00  0.86155163849E+03  0.86155163849E+03  0.00000000000E+00 0. -1.
         -1   -1    0    0    0  501 -0.00000000000E+00 -0.00000000000E+00 -0.22266363970E+02  0.22266363970E+02  0.00000000000E+00 0. -1.
         36    2    1    2    0    0 -0.88817841970E-15  0.00000000000E+00  0.83928527452E+03  0.88381800246E+03  0.27700990857E+03 0.  0.
         25    2    3    3    0    0 -0.49570326671E+01  0.27193325713E+02  0.26315374034E+03  0.29353157304E+03  0.12707023326E+03 0.  0.
         25    2    3    3    0    0  0.49570326671E+01 -0.27193325713E+02  0.57613153418E+03  0.59028642942E+03  0.12548495903E+03 0.  0.
          5    1    4    4  502    0  0.46485016281E+01  0.71964431122E+02  0.96029663724E+02  0.12018433437E+03  0.47000000000E+01 0. -1.
         -5    1    4    4    0  502 -0.96055342952E+01 -0.44771105409E+02  0.16712407661E+03  0.17334723866E+03  0.47000000000E+01 0. -1.
          5    1    5    5  503    0 -0.17705585774E+01  0.47495241090E+02  0.14519288528E+03  0.15284631739E+03  0.47000000000E+01 0.  1.
         -5    1    5    5    0  503  0.67275912445E+01 -0.74688566803E+02  0.43093864890E+03  0.43744011203E+03  0.47000000000E+01 0.  1.
<mgrwt>
<rscale>  0 0.27700991E+03</rscale>
<asrwt>0</asrwt>
<pdfrwt beam="1">  1        1 0.13254638E+00 0.27700991E+03</pdfrwt>
<pdfrwt beam="2">  1       -1 0.34255951E-02 0.27700991E+03</pdfrwt>
<totfact> 0.63430476E+03</totfact>
</mgrwt>
</event>
<event>
 9    1  0.2117506E-002  0.2750301E+03  0.7818608E-02  0.1098435E+00
         -1   -1    0    0    0  501 -0.00000000000E+00  0.00000000000E+00  0.61293499968E+02  0.61293499968E+02  0.00000000000E+00 0.  1.
          1   -1    0    0  501    0  0.00000000000E+00 -0.00000000000E+00 -0.30852203733E+03  0.30852203733E+03  0.00000000000E+00 0.  1.
         36    2    1    2    0    0  0.71054273576E-14  0.00000000000E+00 -0.24722853736E+03  0.36981553730E+03  0.27503014733E+03 0.  0.
         25    2    3    3    0    0  0.20513228903E+02  0.39385990021E+02 -0.16851552781E+03  0.21302634056E+03  0.12251812066E+03 0.  0.
         25    2    3    3    0    0 -0.20513228903E+02 -0.39385990021E+02 -0.78713009554E+02  0.15678919674E+03  0.12812129242E+03 0.  0.
          5    1    4    4  502    0 -0.44258218185E+00  0.74653945615E+02 -0.56801024431E+02  0.93924724388E+02  0.47000000000E+01 0. -1.
         -5    1    4    4    0  502  0.20955811085E+02 -0.35267955594E+02 -0.11171450338E+03  0.11910161617E+03  0.47000000000E+01 0. -1.
          5    1    5    5  503    0 -0.66385169071E+02  0.66505959414E+01 -0.22006337862E+02  0.70410155553E+02  0.47000000000E+01 0.  1.
         -5    1    5    5    0  503  0.45871940168E+02 -0.46036585962E+02 -0.56706671693E+02  0.86379041186E+02  0.47000000000E+01 0.  1.
<mgrwt>
<rscale>  0 0.27503015E+03</rscale>
<asrwt>0</asrwt>
<pdfrwt beam="1">  1        1 0.47464928E-01 0.27503015E+03</pdfrwt>
<pdfrwt beam="2">  1       -1 0.94297694E-02 0.27503015E+03</pdfrwt>
<totfact> 0.56095031E+03</totfact>
</mgrwt>
</event>
<event>
 9    1  0.2117506E-002  0.2757164E+03  0.7818608E-02  0.1098052E+00
          1   -1    0    0  501    0  0.00000000000E+00  0.00000000000E+00  0.12849666667E+03  0.12849666667E+03  0.00000000000E+00 0.  1.
         -1   -1    0    0    0  501 -0.00000000000E+00 -0.00000000000E+00 -0.14790172992E+03  0.14790172992E+03  0.00000000000E+00 0.  1.
         36    2    1    2    0    0  0.00000000000E+00 -0.71054273576E-14 -0.19405063250E+02  0.27639839659E+03  0.27571637086E+03 0.  0.
         25    2    3    3    0    0  0.26995410156E+02  0.58855464619E+02  0.12046080691E+01  0.13971417024E+03  0.12379773988E+03 0.  0.
         25    2    3    3    0    0 -0.26995410156E+02 -0.58855464619E+02 -0.20609671319E+02  0.13668422636E+03  0.11859637978E+03 0.  0.
          5    1    4    4  502    0  0.38829867370E+02  0.12749251106E+02 -0.53214285675E+02  0.67261818319E+02  0.47000000000E+01 0.  1.
         -5    1    4    4    0  502 -0.11834457213E+02  0.46106213513E+02  0.54418893744E+02  0.72452351917E+02  0.47000000000E+01 0.  1.
          5    1    5    5  503    0  0.43807189924E+02 -0.27502490505E+02 -0.27559864537E+02  0.58797049300E+02  0.47000000000E+01 0. -1.
         -5    1    5    5    0  503 -0.70802600081E+02 -0.31352974113E+02  0.69501932180E+01  0.77887177056E+02  0.47000000000E+01 0. -1.
<mgrwt>
<rscale>  0 0.27571637E+03</rscale>
<asrwt>0</asrwt>
<pdfrwt beam="1">  1        1 0.19768718E-01 0.27571637E+03</pdfrwt>
<pdfrwt beam="2">  1       -1 0.22754112E-01 0.27571637E+03</pdfrwt>
<totfact> 0.41993342E+03</totfact>
</mgrwt>
</event>
<event>
 9    1  0.2117506E-002  0.2754506E+03  0.7818608E-02  0.1098200E+00
         -1   -1    0    0    0  501 -0.00000000000E+00  0.00000000000E+00  0.27432075511E+02  0.27432075511E+02  0.00000000000E+00 0.  1.
          1   -1    0    0  501    0  0.00000000000E+00 -0.00000000000E+00 -0.69146251056E+03  0.69146251056E+03  0.00000000000E+00 0.  1.
         36    2    1    2    0    0  0.00000000000E+00  0.00000000000E+00 -0.66403043505E+03  0.71889458607E+03  0.27545055312E+03 0.  0.
         25    2    3    3    0    0  0.53500058969E+02 -0.19704448105E+01 -0.39251235017E+03  0.41511924222E+03  0.12406410142E+03 0.  0.
         25    2    3    3    0    0 -0.53500058969E+02  0.19704448105E+01 -0.27151808488E+03  0.30377534385E+03  0.12526472031E+03 0.  0.
          5    1    4    4  502    0 -0.32016805509E+02 -0.28605976847E+02 -0.16516669661E+03  0.17072054773E+03  0.47000000000E+01 0. -1.
         -5    1    4    4    0  502  0.85516864478E+02  0.26635532036E+02 -0.22734565356E+03  0.24439869449E+03  0.47000000000E+01 0. -1.
          5    1    5    5  503    0  0.18600880717E+02  0.13701663033E+02 -0.20017798723E+03  0.20156151642E+03  0.47000000000E+01 0.  1.
         -5    1    5    5    0  503 -0.72100939686E+02 -0.11731218223E+02 -0.71340097650E+02  0.10221382743E+03  0.47000000000E+01 0.  1.
<mgrwt>
<rscale>  0 0.27545055E+03</rscale>
<asrwt>0</asrwt>
<pdfrwt beam="1">  1        1 0.10637885E+00 0.27545055E+03</pdfrwt>
<pdfrwt beam="2">  1       -1 0.42203193E-02 0.27545055E+03</pdfrwt>
<totfact> 0.64971313E+03</totfact>
</mgrwt>
</event>
<event>
 9    1  0.2117506E-002  0.2747600E+03  0.7818608E-02  0.1098586E+00
          2   -1    0    0  501    0  0.00000000000E+00  0.00000000000E+00  0.14418386789E+04  0.14418386789E+04  0.00000000000E+00 0.  1.
         -2   -1    0    0    0  501 -0.00000000000E+00 -0.00000000000E+00 -0.13089717622E+02  0.13089717622E+02  0.00000000000E+00 0.  1.
         36    2    1    2    0    0  0.00000000000E+00  0.00000000000E+00  0.14287489613E+04  0.14549283965E+04  0.27475997644E+03 0.  0.
         25    2    3    3    0    0  0.39035318252E+02  0.94660232805E+01  0.47420787004E+03  0.49173836161E+03  0.12377459594E+03 0.  0.
         25    2    3    3    0    0 -0.39035318252E+02 -0.94660232805E+01  0.95454109123E+03  0.96319003491E+03  0.12236415664E+03 0.  0.
          5    1    4    4  502    0  0.40436469128E+02  0.60405781632E+02  0.20130887051E+03  0.21408250241E+03  0.47000000000E+01 0. -1.
         -5    1    4    4    0  502 -0.14011508762E+01 -0.50939758352E+02  0.27289899953E+03  0.27765585920E+03  0.47000000000E+01 0. -1.
          5    1    5    5  503    0 -0.95230907402E+01  0.41676301172E+02  0.13901990309E+03  0.14552053735E+03  0.47000000000E+01 0. -1.
         -5    1    5    5    0  503 -0.29512227511E+02 -0.51142324453E+02  0.81552118814E+03  0.81766949755E+03  0.47000000000E+01 0. -1.
<mgrwt>
<rscale>  0 0.27475998E+03</rscale>
<asrwt>0</asrwt>
<pdfrwt beam="1">  1        2 0.22182121E+00 0.27475998E+03</pdfrwt>
<pdfrwt beam="2">  1       -2 0.20138039E-02 0.27475998E+03</pdfrwt>
<totfact> 0.11221056E+04</totfact>
</mgrwt>
</event>
<event>
 9    1  0.2117506E-002  0.2798559E+03  0.7818608E-02  0.1095768E+00
         -3   -1    0    0    0  501 -0.00000000000E+00  0.00000000000E+00  0.11117096524E+03  0.11117096524E+03  0.00000000000E+00 0. -1.
          3   -1    0    0  501    0  0.00000000000E+00 -0.00000000000E+00 -0.17612362529E+03  0.17612362529E+03  0.00000000000E+00 0. -1.
         36    2    1    2    0    0 -0.35527136788E-14  0.14210854715E-13 -0.64952660047E+02  0.28729459052E+03  0.27985591596E+03 0.  0.
         25    2    3    3    0    0 -0.45012882244E+01 -0.72418235562E+02 -0.20419216828E+02  0.13444343967E+03  0.11132579043E+03 0.  0.
         25    2    3    3    0    0  0.45012882244E+01  0.72418235562E+02 -0.44533443219E+02  0.15285115086E+03  0.12694717136E+03 0.  0.
          5    1    4    4  502    0 -0.24669077288E+02 -0.18901358712E+01 -0.49385914738E+02  0.55436401059E+02  0.47000000000E+01 0. -1.
         -5    1    4    4    0  502  0.20167789063E+02 -0.70528099691E+02  0.28966697909E+02  0.79007038607E+02  0.47000000000E+01 0. -1.
          5    1    5    5  503    0  0.65136542995E+02  0.34514998150E+02 -0.15171957629E+02  0.75407775653E+02  0.47000000000E+01 0. -1.
         -5    1    5    5    0  503 -0.60635254770E+02  0.37903237412E+02 -0.29361485589E+02  0.77443375206E+02  0.47000000000E+01 0. -1.
<mgrwt>
<rscale>  0 0.27985592E+03</rscale>
<asrwt>0</asrwt>
<pdfrwt beam="1">  1        3 0.27095942E-01 0.27985592E+03</pdfrwt>
<pdfrwt beam="2">  1       -3 0.17103226E-01 0.27985592E+03</pdfrwt>
<totfact> 0.97647418E+02</totfact>
</mgrwt>
</event>
<event>
 9    1  0.2117506E-002  0.2765226E+03  0.7818608E-02  0.1097603E+00
          1   -1    0    0  501    0  0.00000000000E+00  0.00000000000E+00  0.49207744229E+02  0.49207744229E+02  0.00000000000E+00 0.  1.
         -1   -1    0    0    0  501 -0.00000000000E+00 -0.00000000000E+00 -0.38847934844E+03  0.38847934844E+03  0.00000000000E+00 0.  1.
         36    2    1    2    0    0 -0.35527136788E-14  0.71054273576E-14 -0.33927160421E+03  0.43768709267E+03  0.27652263862E+03 0.  0.
         25    2    3    3    0    0  0.17276151997E+02 -0.56030841147E+02 -0.14533034240E+03  0.19906207756E+03  0.12274722690E+03 0.  0.
         25    2    3    3    0    0 -0.17276151997E+02  0.56030841147E+02 -0.19394126181E+03  0.23862501512E+03  0.12605857455E+03 0.  0.
          5    1    4    4  502    0 -0.18658384002E+02  0.40331340271E+01 -0.12427458440E+03  0.12581996579E+03  0.47000000000E+01 0.  1.
         -5    1    4    4    0  502  0.35934535999E+02 -0.60063975174E+02 -0.21055758003E+02  0.73242111769E+02  0.47000000000E+01 0.  1.
          5    1    5    5  503    0 -0.29390588502E+02 -0.26980937630E+02 -0.18763244054E+02  0.44338775528E+02  0.47000000000E+01 0.  1.
         -5    1    5    5    0  503  0.12114436505E+02  0.83011778777E+02 -0.17517801776E+03  0.19428623959E+03  0.47000000000E+01 0.  1.
<mgrwt>
<rscale>  0 0.27652264E+03</rscale>
<asrwt>0</asrwt>
<pdfrwt beam="1">  1        1 0.75704220E-02 0.27652264E+03</pdfrwt>
<pdfrwt beam="2">  1       -1 0.59766055E-01 0.27652264E+03</pdfrwt>
<totfact> 0.27385422E+03</totfact>
</mgrwt>
</event>
<event>
 9    1  0.2117506E-002  0.2751664E+03  0.7818608E-02  0.1098359E+00
         -1   -1    0    0    0  501 -0.00000000000E+00  0.00000000000E+00  0.60901269197E+02  0.60901269197E+02  0.00000000000E+00 0.  1.
          1   -1    0    0  501    0  0.00000000000E+00 -0.00000000000E+00 -0.31081668678E+03  0.31081668678E+03  0.00000000000E+00 0.  1.
         36    2    1    2    0    0  0.71054273576E-14 -0.35527136788E-14 -0.24991541758E+03  0.37171795597E+03  0.27516635486E+03 0.  0.
         25    2    3    3    0    0  0.56794929312E+02 -0.96756658795E+01 -0.11215320373E+03  0.17632855686E+03  0.12326449754E+03 0.  0.
         25    2    3    3    0    0 -0.56794929312E+02  0.96756658795E+01 -0.13776221385E+03  0.19538939911E+03  0.12601312318E+03 0.  0.
          5    1    4    4  502    0 -0.40469345431E+01 -0.30535471660E+02 -0.10721369327E+03  0.11164971443E+03  0.47000000000E+01 0.  1.
         -5    1    4    4    0  502  0.60841863855E+02  0.20859805781E+02 -0.49395104596E+01  0.64678842430E+02  0.47000000000E+01 0.  1.
          5    1    5    5  503    0 -0.52343021357E+02 -0.42944789534E+02 -0.27853604122E+02  0.73361843594E+02  0.47000000000E+01 0. -1.
         -5    1    5    5    0  503 -0.44519079548E+01  0.52620455414E+02 -0.10990860973E+03  0.12202755551E+03  0.47000000000E+01 0. -1.
<mgrwt>
<rscale>  0 0.27516635E+03</rscale>
<asrwt>0</asrwt>
<pdfrwt beam="1">  1        1 0.47817951E-01 0.27516635E+03</pdfrwt>
<pdfrwt beam="2">  1       -1 0.93694262E-02 0.27516635E+03</pdfrwt>
<totfact> 0.56127204E+03</totfact>
</mgrwt>
</event>
<event>
 9    1  0.2117506E-002  0.2767277E+03  0.7818608E-02  0.1097490E+00
         -2   -1    0    0    0  501 -0.00000000000E+00  0.00000000000E+00  0.30870464342E+02  0.30870464342E+02  0.00000000000E+00 0.  1.
          2   -1    0    0  501    0  0.00000000000E+00 -0.00000000000E+00 -0.62015757166E+03  0.62015757166E+03  0.00000000000E+00 0.  1.
         36    2    1    2    0    0  0.00000000000E+00  0.53290705182E-14 -0.58928710732E+03  0.65102803600E+03  0.27672767988E+03 0.  0.
         25    2    3    3    0    0 -0.59951249285E+02 -0.76709461880E+00 -0.32363888180E+03  0.35152230934E+03  0.12341421079E+03 0.  0.
         25    2    3    3    0    0  0.59951249285E+02  0.76709461880E+00 -0.26564822551E+03  0.29950572666E+03  0.12465937533E+03 0.  0.
          5    1    4    4  502    0  0.21682051068E+02  0.38717745514E+02 -0.81484356546E+02  0.92902989822E+02  0.47000000000E+01 0. -1.
         -5    1    4    4    0  502 -0.81633300353E+02 -0.39484840133E+02 -0.24215452526E+03  0.25861931952E+03  0.47000000000E+01 0. -1.
          5    1    5    5  503    0  0.56986191548E+02 -0.12701811515E+02 -0.27566839594E+03  0.28182249123E+03  0.47000000000E+01 0. -1.
         -5    1    5    5    0  503  0.29650577368E+01  0.13468906133E+02  0.10020170426E+02  0.17683235428E+02  0.47000000000E+01 0. -1.
<mgrwt>
<rscale>  0 0.27672768E+03</rscale>
<asrwt>0</asrwt>
<pdfrwt beam="1">  1        2 0.95408857E-01 0.27672768E+03</pdfrwt>
<pdfrwt beam="2">  1       -2 0.47493022E-02 0.27672768E+03</pdfrwt>
<totfact> 0.10233835E+04</totfact>
</mgrwt>
</event>
<event>
 9    1  0.2117506E-002  0.2758744E+03  0.7818608E-02  0.1097964E+00
         -1   -1    0    0    0  501 -0.00000000000E+00  0.00000000000E+00  0.26944837521E+02  0.26944837521E+02  0.00000000000E+00 0. -1.
          1   -1    0    0  501    0  0.00000000000E+00 -0.00000000000E+00 -0.70613395360E+03  0.70613395360E+03  0.00000000000E+00 0. -1.
         36    2    1    2    0    0  0.35527136788E-14  0.14210854715E-13 -0.67918911608E+03  0.73307879112E+03  0.27587435290E+03 0.  0.
         25    2    3    3    0    0 -0.31032335439E+02 -0.38998924371E+02 -0.46405302917E+03  0.48290418941E+03  0.12396499637E+03 0.  0.
         25    2    3    3    0    0  0.31032335439E+02  0.38998924371E+02 -0.21513608691E+03  0.25017460171E+03  0.11755795807E+03 0.  0.
          5    1    4    4  502    0 -0.63797289686E+02 -0.65219876106E+02 -0.32171277462E+03  0.33443224391E+03  0.47000000000E+01 0.  1.
         -5    1    4    4    0  502  0.32764954247E+02  0.26220951735E+02 -0.14234025455E+03  0.14847194551E+03  0.47000000000E+01 0.  1.
          5    1    5    5  503    0  0.16644999085E+02  0.78963220291E+02 -0.16870196112E+03  0.18706867146E+03  0.47000000000E+01 0.  1.
         -5    1    5    5    0  503  0.14387336354E+02 -0.39964295920E+02 -0.46434125785E+02  0.63105930253E+02  0.47000000000E+01 0.  1.
<mgrwt>
<rscale>  0 0.27587435E+03</rscale>
<asrwt>0</asrwt>
<pdfrwt beam="1">  1        1 0.10863599E+00 0.27587435E+03</pdfrwt>
<pdfrwt beam="2">  1       -1 0.41453597E-02 0.27587435E+03</pdfrwt>
<totfact> 0.64718532E+03</totfact>
</mgrwt>
</event>
<event>
 9    1  0.2117506E-002  0.2770102E+03  0.7818608E-02  0.1097333E+00
          2   -1    0    0  501    0  0.00000000000E+00  0.00000000000E+00  0.20585740188E+04  0.20585740188E+04  0.00000000000E+00 0. -1.
         -2   -1    0    0    0  501 -0.00000000000E+00 -0.00000000000E+00 -0.93189100525E+01  0.93189100525E+01  0.00000000000E+00 0. -1.
         36    2    1    2    0    0 -0.71054273576E-14  0.00000000000E+00  0.20492551088E+04  0.20678929289E+04  0.27701022449E+03 0.  0.
         25    2    3    3    0    0 -0.48798038146E+02  0.81747211515E+01  0.13439707882E+04  0.13508843672E+04  0.12721249699E+03 0.  0.
         25    2    3    3    0    0  0.48798038146E+02 -0.81747211515E+01  0.70528432061E+03  0.71700856172E+03  0.11927795310E+03 0.  0.
          5    1    4    4  502    0 -0.22605020864E+02  0.28908081951E+02  0.12578221568E+04  0.12583661360E+04  0.47000000000E+01 0.  1.
         -5    1    4    4    0  502 -0.26193017281E+02 -0.20733360799E+02  0.86148631358E+02  0.92518231117E+02  0.47000000000E+01 0.  1.
          5    1    5    5  503    0 -0.18257447042E+02  0.10867662985E+02  0.49387212179E+03  0.49435129529E+03  0.47000000000E+01 0.  1.
         -5    1    5    5    0  503  0.67055485188E+02 -0.19042384137E+02  0.21141219882E+03  0.22265726643E+03  0.47000000000E+01 0.  1.
<mgrwt>
<rscale>  0 0.27701022E+03</rscale>
<asrwt>0</asrwt>
<pdfrwt beam="1">  1        2 0.31670333E+00 0.27701022E+03</pdfrwt>
<pdfrwt beam="2">  1       -2 0.14336801E-02 0.27701022E+03</pdfrwt>
<totfact> 0.87231566E+03</totfact>
</mgrwt>
</event>
<event>
 9    1  0.2117506E-002  0.2743798E+03  0.7818608E-02  0.1098799E+00
         -1   -1    0    0    0  501 -0.00000000000E+00  0.00000000000E+00  0.46277320536E+02  0.46277320536E+02  0.00000000000E+00 0. -1.
          1   -1    0    0  501    0  0.00000000000E+00 -0.00000000000E+00 -0.40670183673E+03  0.40670183673E+03  0.00000000000E+00 0. -1.
         36    2    1    2    0    0  0.71054273576E-14  0.71054273576E-14 -0.36042451620E+03  0.45297915727E+03  0.27437981894E+03 0.  0.
         25    2    3    3    0    0 -0.14656788705E+02  0.50042005216E+02 -0.15535851190E+03  0.20722563604E+03  0.12683522094E+03 0.  0.
         25    2    3    3    0    0  0.14656788705E+02 -0.50042005216E+02 -0.20506600430E+03  0.24575352123E+03  0.12499481324E+03 0.  0.
          5    1    4    4  502    0  0.33104534277E+02 -0.29016286009E+02 -0.57656601595E+02  0.72692700809E+02  0.47000000000E+01 0.  1.
         -5    1    4    4    0  502 -0.47761322981E+02  0.79058291226E+02 -0.97701910304E+02  0.13453293523E+03  0.47000000000E+01 0.  1.
          5    1    5    5  503    0 -0.52161746652E+02 -0.52052714752E+01 -0.60120005904E+02  0.79902739470E+02  0.47000000000E+01 0. -1.
         -5    1    5    5    0  503  0.66818535356E+02 -0.44836733741E+02 -0.14494599839E+03  0.16585078176E+03  0.47000000000E+01 0. -1.
<mgrwt>
<rscale>  0 0.27437982E+03</rscale>
<asrwt>0</asrwt>
<pdfrwt beam="1">  1        1 0.62569509E-01 0.27437982E+03</pdfrwt>
<pdfrwt beam="2">  1       -1 0.71195882E-02 0.27437982E+03</pdfrwt>
<totfact> 0.60695893E+03</totfact>
</mgrwt>
</event>
<event>
 9    1  0.2117506E-002  0.2744934E+03  0.7818608E-02  0.1098735E+00
         -2   -1    0    0    0  501 -0.00000000000E+00  0.00000000000E+00  0.23365512737E+03  0.23365512737E+03  0.00000000000E+00 0. -1.
          2   -1    0    0  501    0  0.00000000000E+00 -0.00000000000E+00 -0.80617348322E+02  0.80617348322E+02  0.00000000000E+00 0. -1.
         36    2    1    2    0    0  0.00000000000E+00  0.71054273576E-14  0.15303777904E+03  0.31427247569E+03  0.27449340094E+03 0.  0.
         25    2    3    3    0    0  0.16314335557E+02 -0.21628635426E+02  0.11828708567E+03  0.17277987705E+03  0.12299225936E+03 0.  0.
         25    2    3    3    0    0 -0.16314335557E+02  0.21628635426E+02  0.34750693371E+02  0.14149259863E+03  0.13445664492E+03 0.  0.
          5    1    4    4  502    0  0.60333210992E+02 -0.45426745368E+02  0.69932489149E+02  0.10303556950E+03  0.47000000000E+01 0.  1.
         -5    1    4    4    0  502 -0.44018875435E+02  0.23798109942E+02  0.48354596524E+02  0.69744307555E+02  0.47000000000E+01 0.  1.
          5    1    5    5  503    0  0.38547500181E+00 -0.51953194649E+02 -0.10741380921E+02  0.53261151784E+02  0.47000000000E+01 0. -1.
         -5    1    5    5    0  503 -0.16699810559E+02  0.73581830075E+02  0.45492074292E+02  0.88231446850E+02  0.47000000000E+01 0. -1.
<mgrwt>
<rscale>  0 0.27449340E+03</rscale>
<asrwt>0</asrwt>
<pdfrwt beam="1">  1        2 0.12402669E-01 0.27449340E+03</pdfrwt>
<pdfrwt beam="2">  1       -2 0.35946942E-01 0.27449340E+03</pdfrwt>
<totfact> 0.35663334E+03</totfact>
</mgrwt>
</event>
<event>
 9    1  0.2117506E-002  0.2749469E+03  0.7818608E-02  0.1098481E+00
          2   -1    0    0  501    0  0.00000000000E+00  0.00000000000E+00  0.17841156589E+03  0.17841156589E+03  0.00000000000E+00 0. -1.
         -2   -1    0    0    0  501 -0.00000000000E+00 -0.00000000000E+00 -0.10592892346E+03  0.10592892346E+03  0.00000000000E+00 0. -1.
         36    2    1    2    0    0  0.35527136788E-14 -0.14210854715E-13  0.72482642431E+02  0.28434048935E+03  0.27494686838E+03 0.  0.
         25    2    3    3    0    0  0.16059850272E+01 -0.55208283864E+02  0.13865780303E+02  0.13683135332E+03  0.12441875097E+03 0.  0.
         25    2    3    3    0    0 -0.16059850272E+01  0.55208283864E+02  0.58616862127E+02  0.14750913604E+03  0.12358185503E+03 0.  0.
          5    1    4    4  502    0 -0.31258263446E+02  0.23080003823E+02  0.31191704649E+02  0.50047757683E+02  0.47000000000E+01 0. -1.
         -5    1    4    4    0  502  0.32864248474E+02 -0.78288287687E+02 -0.17325924346E+02  0.86783595634E+02  0.47000000000E+01 0. -1.
          5    1    5    5  503    0  0.23635465394E+02 -0.28182037289E+02  0.46412941325E+02  0.59406342865E+02  0.47000000000E+01 0.  1.
         -5    1    5    5    0  503 -0.25241450422E+02  0.83390321153E+02  0.12203920802E+02  0.88102793170E+02  0.47000000000E+01 0.  1.
<mgrwt>
<rscale>  0 0.27494687E+03</rscale>
<asrwt>0</asrwt>
<pdfrwt beam="1">  1        2 0.27447933E-01 0.27494687E+03</pdfrwt>
<pdfrwt beam="2">  1       -2 0.16296757E-01 0.27494687E+03</pdfrwt>
<totfact> 0.57270888E+03</totfact>
</mgrwt>
</event>
<event>
 9    1  0.2117506E-002  0.2748915E+03  0.7818608E-02  0.1098512E+00
          2   -1    0    0  501    0  0.00000000000E+00  0.00000000000E+00  0.11605308555E+04  0.11605308555E+04  0.00000000000E+00 0.  1.
         -2   -1    0    0    0  501 -0.00000000000E+00 -0.00000000000E+00 -0.16278179796E+02  0.16278179796E+02  0.00000000000E+00 0.  1.
         36    2    1    2    0    0 -0.14210854715E-13  0.00000000000E+00  0.11442526757E+04  0.11768090353E+04  0.27489146894E+03 0.  0.
         25    2    3    3    0    0 -0.39894608929E+02  0.27630127885E+02  0.73011539242E+03  0.74219644840E+03  0.12422591515E+03 0.  0.
         25    2    3    3    0    0  0.39894608929E+02 -0.27630127885E+02  0.41413728327E+03  0.43461258687E+03  0.12257001054E+03 0.  0.
          5    1    4    4  502    0  0.59086865013E+00  0.14824127193E+02  0.57784737435E+01  0.16600741899E+02  0.47000000000E+01 0. -1.
         -5    1    4    4    0  502 -0.40485477579E+02  0.12806000692E+02  0.72433691867E+03  0.72559570651E+03  0.47000000000E+01 0. -1.
          5    1    5    5  503    0  0.75869526484E+02  0.63195219114E+01  0.30974223579E+03  0.31899602511E+03  0.47000000000E+01 0. -1.
         -5    1    5    5    0  503 -0.35974917556E+02 -0.33949649796E+02  0.10439504748E+03  0.11561656176E+03  0.47000000000E+01 0. -1.
<mgrwt>
<rscale>  0 0.27489147E+03</rscale>
<asrwt>0</asrwt>
<pdfrwt beam="1">  1        2 0.17854314E+00 0.27489147E+03</pdfrwt>
<pdfrwt beam="2">  1       -2 0.25043363E-02 0.27489147E+03</pdfrwt>
<totfact> 0.11652528E+04</totfact>
</mgrwt>
</event>
<event>
 9    1  0.2117506E-002  0.2752762E+03  0.7818608E-02  0.1098297E+00
         -1   -1    0    0    0  501 -0.00000000000E+00  0.00000000000E+00  0.30450695567E+03  0.30450695567E+03  0.00000000000E+00 0. -1.
          1   -1    0    0  501    0  0.00000000000E+00 -0.00000000000E+00 -0.62212853055E+02  0.62212853055E+02  0.00000000000E+00 0. -1.
         36    2    1    2    0    0  0.00000000000E+00  0.00000000000E+00  0.24229410261E+03  0.36671980872E+03  0.27527619939E+03 0.  0.
         25    2    3    3    0    0  0.41933748203E+02 -0.25123799540E+02  0.16010683938E+03  0.20916212501E+03  0.12539916260E+03 0.  0.
         25    2    3    3    0    0 -0.41933748203E+02  0.25123799540E+02  0.82187263237E+02  0.15755768372E+03  0.12521993818E+03 0.  0.
          5    1    4    4  502    0  0.46560284446E+02 -0.14090647231E+02  0.17942300940E+03  0.18595997615E+03  0.47000000000E+01 0.  1.
         -5    1    4    4    0  502 -0.46265362423E+01 -0.11033152309E+02 -0.19316170020E+02  0.23202148860E+02  0.47000000000E+01 0.  1.
          5    1    5    5  503    0 -0.18127069069E+02 -0.49453152057E+02  0.50026921313E+02  0.72794146313E+02  0.47000000000E+01 0. -1.
         -5    1    5    5    0  503 -0.23806679134E+02  0.74576951596E+02  0.32160341924E+02  0.84763537405E+02  0.47000000000E+01 0. -1.
<mgrwt>
<rscale>  0 0.27527620E+03</rscale>
<asrwt>0</asrwt>
<pdfrwt beam="1">  1        1 0.95712083E-02 0.27527620E+03</pdfrwt>
<pdfrwt beam="2">  1       -1 0.46847223E-01 0.27527620E+03</pdfrwt>
<totfact> 0.31433624E+03</totfact>
</mgrwt>
</event>
<event>
 9    1  0.2117506E-002  0.2741773E+03  0.7818608E-02  0.1098912E+00
         -1   -1    0    0    0  501 -0.00000000000E+00  0.00000000000E+00  0.61663172089E+02  0.61663172089E+02  0.00000000000E+00 0. -1.
          1   -1    0    0  501    0  0.00000000000E+00 -0.00000000000E+00 -0.30477344654E+03  0.30477344654E+03  0.00000000000E+00 0. -1.
         36    2    1    2    0    0 -0.71054273576E-14  0.00000000000E+00 -0.24311027445E+03  0.36643661863E+03  0.27417729652E+03 0.  0.
         25    2    3    3    0    0 -0.28912615445E+02  0.37786083597E+02 -0.11005537312E+03  0.17567026477E+03  0.12839053441E+03 0.  0.
         25    2    3    3    0    0  0.28912615445E+02 -0.37786083597E+02 -0.13305490133E+03  0.19076635386E+03  0.12815797888E+03 0.  0.
          5    1    4    4  502    0 -0.30394668624E+02 -0.14098363126E+02  0.17346029439E+02  0.38020710947E+02  0.47000000000E+01 0.  1.
         -5    1    4    4    0  502  0.14820531794E+01  0.51884446724E+02 -0.12740140256E+03  0.13764955382E+03  0.47000000000E+01 0.  1.
          5    1    5    5  503    0  0.74815721334E+02  0.30409352324E+01 -0.70058470910E+02  0.10264949485E+03  0.47000000000E+01 0. -1.
         -5    1    5    5    0  503 -0.45903105889E+02 -0.40827018830E+02 -0.62996430421E+02  0.88116859014E+02  0.47000000000E+01 0. -1.
<mgrwt>
<rscale>  0 0.27417730E+03</rscale>
<asrwt>0</asrwt>
<pdfrwt beam="1">  1        1 0.46888223E-01 0.27417730E+03</pdfrwt>
<pdfrwt beam="2">  1       -1 0.94866418E-02 0.27417730E+03</pdfrwt>
<totfact> 0.56433759E+03</totfact>
</mgrwt>
</event>
<event>
 9    1  0.2117506E-002  0.2760173E+03  0.7818608E-02  0.1097884E+00
          1   -1    0    0  501    0  0.00000000000E+00  0.00000000000E+00  0.12084430117E+03  0.12084430117E+03  0.00000000000E+00 0.  1.
         -1   -1    0    0    0  501 -0.00000000000E+00 -0.00000000000E+00 -0.15761095028E+03  0.15761095028E+03  0.00000000000E+00 0.  1.
         36    2    1    2    0    0 -0.35527136788E-14  0.71054273576E-14 -0.36766649113E+02  0.27845525145E+03  0.27601728310E+03 0.  0.
         25    2    3    3    0    0 -0.33770578761E+01  0.35550362878E+02 -0.57338418419E+02  0.14568303185E+03  0.12907601916E+03 0.  0.
         25    2    3    3    0    0  0.33770578761E+01 -0.35550362878E+02  0.20571769305E+02  0.13277221959E+03  0.12621422972E+03 0.  0.
          5    1    4    4  502    0  0.26804401504E+02  0.16587828938E+02  0.34554196173E+02  0.47007600258E+02  0.47000000000E+01 0. -1.
         -5    1    4    4    0  502 -0.30181459380E+02  0.18962533940E+02 -0.91892614592E+02  0.98675431594E+02  0.47000000000E+01 0. -1.
          5    1    5    5  503    0  0.50124363993E+02 -0.48092553628E+01  0.48493426053E+02  0.70066277004E+02  0.47000000000E+01 0. -1.
         -5    1    5    5    0  503 -0.46747306117E+02 -0.30741107515E+02 -0.27921656747E+02  0.62705942589E+02  0.47000000000E+01 0. -1.
<mgrwt>
<rscale>  0 0.27601728E+03</rscale>
<asrwt>0</asrwt>
<pdfrwt beam="1">  1        1 0.18591431E-01 0.27601728E+03</pdfrwt>
<pdfrwt beam="2">  1       -1 0.24247838E-01 0.27601728E+03</pdfrwt>
<totfact> 0.40928469E+03</totfact>
</mgrwt>
</event>
<event>
 9    1  0.2117506E-002  0.2747215E+03  0.7818608E-02  0.1098607E+00
         -2   -1    0    0    0  501 -0.00000000000E+00  0.00000000000E+00  0.12733472798E+03  0.12733472798E+03  0.00000000000E+00 0.  1.
          2   -1    0    0  501    0  0.00000000000E+00 -0.00000000000E+00 -0.14817622511E+03  0.14817622511E+03  0.00000000000E+00 0.  1.
         36    2    1    2    0    0  0.00000000000E+00  0.00000000000E+00 -0.20841497131E+02  0.27551095308E+03  0.27472152676E+03 0.  0.
         25    2    3    3    0    0  0.33832093916E+02  0.43344532358E+01  0.36303135830E+02  0.13479161843E+03  0.12524960944E+03 0.  0.
         25    2    3    3    0    0 -0.33832093916E+02 -0.43344532358E+01 -0.57144632961E+02  0.14071933465E+03  0.12398799944E+03 0.  0.
          5    1    4    4  502    0  0.80628288845E+02 -0.69506006212E+01  0.27701085710E+02  0.85666049055E+02  0.47000000000E+01 0.  1.
         -5    1    4    4    0  502 -0.46796194929E+02  0.11285053857E+02  0.86020501205E+01  0.49125569378E+02  0.47000000000E+01 0.  1.
          5    1    5    5  503    0 -0.37016957879E+02 -0.15070868331E+01  0.33310543437E+02  0.50042070155E+02  0.47000000000E+01 0.  1.
         -5    1    5    5    0  503  0.31848639628E+01 -0.28273664027E+01 -0.90455176398E+02  0.90677264496E+02  0.47000000000E+01 0.  1.
<mgrwt>
<rscale>  0 0.27472153E+03</rscale>
<asrwt>0</asrwt>
<pdfrwt beam="1">  1        2 0.22796342E-01 0.27472153E+03</pdfrwt>
<pdfrwt beam="2">  1       -2 0.19589958E-01 0.27472153E+03</pdfrwt>
<totfact> 0.51674557E+03</totfact>
</mgrwt>
</event>
<event>
 9    1  0.2117506E-002  0.2784430E+03  0.7818608E-02  0.1096542E+00
         -2   -1    0    0    0  501 -0.00000000000E+00  0.00000000000E+00  0.11634667124E+02  0.11634667124E+02  0.00000000000E+00 0. -1.
          2   -1    0    0  501    0  0.00000000000E+00 -0.00000000000E+00 -0.16659368085E+04  0.16659368085E+04  0.00000000000E+00 0. -1.
         36    2    1    2    0    0  0.00000000000E+00  0.00000000000E+00 -0.16543021414E+04  0.16775714756E+04  0.27844295801E+03 0.  0.
         25    2    3    3    0    0  0.65840437672E+02 -0.38557262450E+02 -0.79522129689E+03  0.80610585961E+03  0.10774098637E+03 0.  0.
         25    2    3    3    0    0 -0.65840437672E+02  0.38557262450E+02 -0.85908084448E+03  0.87146561601E+03  0.12494317435E+03 0.  0.
          5    1    4    4  502    0  0.90654843013E+02 -0.45944587840E+02 -0.53747329981E+03  0.54701813838E+03  0.47000000000E+01 0.  1.
         -5    1    4    4    0  502 -0.24814405341E+02  0.73873253895E+01 -0.25774799709E+03  0.25908772123E+03  0.47000000000E+01 0.  1.
          5    1    5    5  503    0 -0.33884084380E+02  0.17589486881E+02 -0.58833112851E+02  0.70291865751E+02  0.47000000000E+01 0.  1.
         -5    1    5    5    0  503 -0.31956353291E+02  0.20967775569E+02 -0.80024773163E+03  0.80117375026E+03  0.47000000000E+01 0.  1.
<mgrwt>
<rscale>  0 0.27844296E+03</rscale>
<asrwt>0</asrwt>
<pdfrwt beam="1">  1        2 0.25629818E+00 0.27844296E+03</pdfrwt>
<pdfrwt beam="2">  1       -2 0.17899473E-02 0.27844296E+03</pdfrwt>
<totfact> 0.10138587E+04</totfact>
</mgrwt>
</event>
<event>
 9    1  0.2117506E-002  0.2753480E+03  0.7818608E-02  0.1098257E+00
          1   -1    0    0  501    0  0.00000000000E+00  0.00000000000E+00  0.15824952394E+03  0.15824952394E+03  0.00000000000E+00 0.  1.
         -1   -1    0    0    0  501 -0.00000000000E+00 -0.00000000000E+00 -0.11977373218E+03  0.11977373218E+03  0.00000000000E+00 0.  1.
         36    2    1    2    0    0  0.71054273576E-14  0.00000000000E+00  0.38475791755E+02  0.27802325612E+03  0.27534804228E+03 0.  0.
         25    2    3    3    0    0 -0.29523625966E+02 -0.44663731407E+02  0.26795619748E+01  0.13674122537E+03  0.12579542626E+03 0.  0.
         25    2    3    3    0    0  0.29523625966E+02  0.44663731407E+02  0.35796229781E+02  0.14128203075E+03  0.12574875249E+03 0.  0.
          5    1    4    4  502    0  0.48681450907E+02 -0.58638802595E+01  0.23289538187E+01  0.49313109616E+02  0.47000000000E+01 0.  1.
         -5    1    4    4    0  502 -0.78205076873E+02 -0.38799851147E+02  0.35060815610E+00  0.87428115751E+02  0.47000000000E+01 0.  1.
          5    1    5    5  503    0 -0.40215985462E+02  0.12771266274E+02  0.47340521740E+02  0.63589666830E+02  0.47000000000E+01 0.  1.
         -5    1    5    5    0  503  0.69739611428E+02  0.31892465133E+02 -0.11544291959E+02  0.77692363919E+02  0.47000000000E+01 0.  1.
<mgrwt>
<rscale>  0 0.27534804E+03</rscale>
<asrwt>0</asrwt>
<pdfrwt beam="1">  1        1 0.24346081E-01 0.27534804E+03</pdfrwt>
<pdfrwt beam="2">  1       -1 0.18426728E-01 0.27534804E+03</pdfrwt>
<totfact> 0.45343785E+03</totfact>
</mgrwt>
</event>
<event>
 9    1  0.2117506E-002  0.2759866E+03  0.7818608E-02  0.1097901E+00
          2   -1    0    0  501    0  0.00000000000E+00  0.00000000000E+00  0.81290425289E+03  0.81290425289E+03  0.00000000000E+00 0.  1.
         -2   -1    0    0    0  501 -0.00000000000E+00 -0.00000000000E+00 -0.23424834807E+02  0.23424834807E+02  0.00000000000E+00 0.  1.
         36    2    1    2    0    0  0.00000000000E+00 -0.35527136788E-14  0.78947941808E+03  0.83632908770E+03  0.27598657821E+03 0.  0.
         25    2    3    3    0    0  0.53819782000E+02 -0.81901146685E+01  0.34998860264E+03  0.37564430130E+03  0.12511183881E+03 0.  0.
         25    2    3    3    0    0 -0.53819782000E+02  0.81901146685E+01  0.43949081544E+03  0.46068478639E+03  0.12694348603E+03 0.  0.
          5    1    4    4  502    0 -0.16099872014E+02 -0.40578448561E+01 -0.13997633932E+01  0.17312461445E+02  0.47000000000E+01 0. -1.
         -5    1    4    4    0  502  0.69919654014E+02 -0.41322698124E+01  0.35138836603E+03  0.35833183986E+03  0.47000000000E+01 0. -1.
          5    1    5    5  503    0 -0.18942225747E+01  0.62002786160E+02  0.22702718896E+03  0.23539619389E+03  0.47000000000E+01 0. -1.
         -5    1    5    5    0  503 -0.51925559425E+02 -0.53812671491E+02  0.21246362648E+03  0.22528859250E+03  0.47000000000E+01 0. -1.
<mgrwt>
<rscale>  0 0.27598658E+03</rscale>
<asrwt>0</asrwt>
<pdfrwt beam="1">  1        2 0.12506217E+00 0.27598658E+03</pdfrwt>
<pdfrwt beam="2">  1       -2 0.36038214E-02 0.27598658E+03</pdfrwt>
<totfact> 0.11143155E+04</totfact>
</mgrwt>
</event>
<event>
 9    1  0.2117506E-002  0.2749186E+03  0.7818608E-02  0.1098497E+00
         -1   -1    0    0    0  501 -0.00000000000E+00  0.00000000000E+00  0.86379398304E+02  0.86379398304E+02  0.00000000000E+00 0.  1.
          1   -1    0    0  501    0  0.00000000000E+00 -0.00000000000E+00 -0.21874504337E+03  0.21874504337E+03  0.00000000000E+00 0.  1.
         36    2    1    2    0    0 -0.71054273576E-14  0.00000000000E+00 -0.13236564506E+03  0.30512444167E+03  0.27491864417E+03 0.  0.
         25    2    3    3    0    0  0.44751698666E+02 -0.14532111810E+02 -0.12487206190E+02  0.13157783174E+03  0.12224114970E+03 0.  0.
         25    2    3    3    0    0 -0.44751698666E+02  0.14532111810E+02 -0.11987843887E+03  0.17354660993E+03  0.11633438402E+03 0.  0.
          5    1    4    4  502    0  0.39858449174E+02 -0.53334061855E+02  0.30401056434E+02  0.73345295396E+02  0.47000000000E+01 0. -1.
         -5    1    4    4    0  502  0.48932494924E+01  0.38801950045E+02 -0.42888262623E+02  0.58232536342E+02  0.47000000000E+01 0. -1.
          5    1    5    5  503    0  0.25867556275E+02  0.36872793735E+02 -0.21013115964E+02  0.49923686042E+02  0.47000000000E+01 0.  1.
         -5    1    5    5    0  503 -0.70619254941E+02 -0.22340681925E+02 -0.98865322909E+02  0.12362292389E+03  0.47000000000E+01 0.  1.
<mgrwt>
<rscale>  0 0.27491864E+03</rscale>
<asrwt>0</asrwt>
<pdfrwt beam="1">  1        1 0.33653083E-01 0.27491864E+03</pdfrwt>
<pdfrwt beam="2">  1       -1 0.13289138E-01 0.27491864E+03</pdfrwt>
<totfact> 0.50661727E+03</totfact>
</mgrwt>
</event>
<event>
 9    1  0.2117506E-002  0.2750915E+03  0.7818608E-02  0.1098400E+00
         -4   -1    0    0    0  501 -0.00000000000E+00  0.00000000000E+00  0.17815623345E+03  0.17815623345E+03  0.00000000000E+00 0. -1.
          4   -1    0    0  501    0  0.00000000000E+00 -0.00000000000E+00 -0.10619240176E+03  0.10619240176E+03  0.00000000000E+00 0. -1.
         36    2    1    2    0    0  0.71054273576E-14 -0.17763568394E-14  0.71963831689E+02  0.28434863521E+03  0.27509153617E+03 0.  0.
         25    2    3    3    0    0 -0.36945172351E+02 -0.68835776415E+01  0.30401253719E+02  0.14560492803E+03  0.13734711296E+03 0.  0.
         25    2    3    3    0    0  0.36945172351E+02  0.68835776415E+01  0.41562577970E+02  0.13874370717E+03  0.12692532841E+03 0.  0.
          5    1    4    4  502    0  0.41778692772E+02 -0.27616657906E+02 -0.14718548326E+02  0.52410539288E+02  0.47000000000E+01 0.  1.
         -5    1    4    4    0  502 -0.78723865123E+02  0.20733080265E+02  0.45119802045E+02  0.93194388746E+02  0.47000000000E+01 0.  1.
          5    1    5    5  503    0  0.27630032257E+02  0.80675230088E+00  0.87168258867E+02  0.91566723681E+02  0.47000000000E+01 0. -1.
         -5    1    5    5    0  503  0.93151400945E+01  0.60768253407E+01 -0.45605680897E+02  0.47176983490E+02  0.47000000000E+01 0. -1.
<mgrwt>
<rscale>  0 0.27509154E+03</rscale>
<asrwt>0</asrwt>
<pdfrwt beam="1">  1        4 0.16337293E-01 0.27509154E+03</pdfrwt>
<pdfrwt beam="2">  1       -4 0.27408651E-01 0.27509154E+03</pdfrwt>
<totfact> 0.76693424E+02</totfact>
</mgrwt>
</event>
<event>
 9    1  0.2117506E-002  0.2746389E+03  0.7818608E-02  0.1098654E+00
          1   -1    0    0  501    0  0.00000000000E+00  0.00000000000E+00  0.22955584997E+04  0.22955584997E+04  0.00000000000E+00 0. -1.
         -1   -1    0    0    0  501 -0.00000000000E+00 -0.00000000000E+00 -0.82144002525E+01  0.82144002525E+01  0.00000000000E+00 0. -1.
         36    2    1    2    0    0  0.00000000000E+00  0.00000000000E+00  0.22873440994E+04  0.23037728999E+04  0.27463893620E+03 0.  0.
         25    2    3    3    0    0 -0.35737899099E+02 -0.12639872542E+02  0.13038300989E+04  0.13115237399E+04  0.13669173240E+03 0.  0.
         25    2    3    3    0    0  0.35737899099E+02  0.12639872542E+02  0.98351400055E+03  0.99224916006E+03  0.12578411087E+03 0.  0.
          5    1    4    4  502    0  0.12352961380E+02  0.56206543964E+02  0.53009624524E+03  0.53323155426E+03  0.47000000000E+01 0. -1.
         -5    1    4    4    0  502 -0.48090860479E+02 -0.68846416507E+02  0.77373385363E+03  0.77829218561E+03  0.47000000000E+01 0. -1.
          5    1    5    5  503    0 -0.32577347451E+02  0.43585470683E+02  0.33937629502E+03  0.34374312567E+03  0.47000000000E+01 0.  1.
         -5    1    5    5    0  503  0.68315246551E+02 -0.30945598141E+02  0.64413770553E+03  0.64850603439E+03  0.47000000000E+01 0.  1.
<mgrwt>
<rscale>  0 0.27463894E+03</rscale>
<asrwt>0</asrwt>
<pdfrwt beam="1">  1        1 0.35316234E+00 0.27463894E+03</pdfrwt>
<pdfrwt beam="2">  1       -1 0.12637557E-02 0.27463894E+03</pdfrwt>
<totfact> 0.28986666E+03</totfact>
</mgrwt>
</event>
<event>
 9    1  0.2117506E-002  0.2754700E+03  0.7818608E-02  0.1098189E+00
         -2   -1    0    0    0  501 -0.00000000000E+00  0.00000000000E+00  0.70028127924E+01  0.70028127924E+01  0.00000000000E+00 0. -1.
          2   -1    0    0  501    0  0.00000000000E+00 -0.00000000000E+00 -0.27090444354E+04  0.27090444354E+04  0.00000000000E+00 0. -1.
         36    2    1    2    0    0  0.35527136788E-14  0.00000000000E+00 -0.27020416226E+04  0.27160472482E+04  0.27547000583E+03 0.  0.
         25    2    3    3    0    0  0.46201237883E+01 -0.31368817209E+02 -0.13433489107E+04  0.13511062667E+04  0.14105495329E+03 0.  0.
         25    2    3    3    0    0 -0.46201237883E+01  0.31368817209E+02 -0.13586927119E+04  0.13649409815E+04  0.12654109721E+03 0.  0.
          5    1    4    4  502    0  0.44847013071E+02 -0.41469462914E+02 -0.26658414843E+03  0.27353275696E+03  0.47000000000E+01 0. -1.
         -5    1    4    4    0  502 -0.40226889283E+02  0.10100645705E+02 -0.10767647623E+04  0.10775735098E+04  0.47000000000E+01 0. -1.
          5    1    5    5  503    0  0.86748502121E+01 -0.24936711014E+02 -0.70300013982E+02  0.75241441695E+02  0.47000000000E+01 0. -1.
         -5    1    5    5    0  503 -0.13294974000E+02  0.56305528223E+02 -0.12883926979E+04  0.12896995398E+04  0.47000000000E+01 0. -1.
<mgrwt>
<rscale>  0 0.27547001E+03</rscale>
<asrwt>0</asrwt>
<pdfrwt beam="1">  1        2 0.41677645E+00 0.27547001E+03</pdfrwt>
<pdfrwt beam="2">  1       -2 0.10773548E-02 0.27547001E+03</pdfrwt>
<totfact> 0.58708607E+03</totfact>
</mgrwt>
</event>
<event>
 9    1  0.2117506E-002  0.2753040E+03  0.7818608E-02  0.1098282E+00
         -2   -1    0    0    0  501 -0.00000000000E+00  0.00000000000E+00  0.32812310718E+02  0.32812310718E+02  0.00000000000E+00 0.  1.
          2   -1    0    0  501    0  0.00000000000E+00 -0.00000000000E+00 -0.57746824924E+03  0.57746824924E+03  0.00000000000E+00 0.  1.
         36    2    1    2    0    0  0.00000000000E+00  0.71054273576E-14 -0.54465593852E+03  0.61028055996E+03  0.27530396019E+03 0.  0.
         25    2    3    3    0    0  0.40688129952E+02 -0.37639695594E+02 -0.23709240559E+03  0.27381931329E+03  0.12526746161E+03 0.  0.
         25    2    3    3    0    0 -0.40688129952E+02  0.37639695594E+02 -0.30756353293E+03  0.33646124666E+03  0.12465381309E+03 0.  0.
          5    1    4    4  502    0  0.39133468202E+02 -0.30400204043E+02 -0.15614785151E+02  0.52168115307E+02  0.47000000000E+01 0.  1.
         -5    1    4    4    0  502  0.15546617497E+01 -0.72394915512E+01 -0.22147762044E+03  0.22165119798E+03  0.47000000000E+01 0.  1.
          5    1    5    5  503    0 -0.51576408761E+02  0.49732140792E+02 -0.31099818138E+03  0.31917921391E+03  0.47000000000E+01 0.  1.
         -5    1    5    5    0  503  0.10888278809E+02 -0.12092445198E+02  0.34346484527E+01  0.17282032759E+02  0.47000000000E+01 0.  1.
<mgrwt>
<rscale>  0 0.27530396E+03</rscale>
<asrwt>0</asrwt>
<pdfrwt beam="1">  1        2 0.88841263E-01 0.27530396E+03</pdfrwt>
<pdfrwt beam="2">  1       -2 0.50480482E-02 0.27530396E+03</pdfrwt>
<totfact> 0.10131949E+04</totfact>
</mgrwt>
</event>
<event>
 9    1  0.2117506E-002  0.2747864E+03  0.7818608E-02  0.1098571E+00
          2   -1    0    0  501    0  0.00000000000E+00  0.00000000000E+00  0.16675309023E+04  0.16675309023E+04  0.00000000000E+00 0.  1.
         -2   -1    0    0    0  501 -0.00000000000E+00 -0.00000000000E+00 -0.11320266706E+02  0.11320266706E+02  0.00000000000E+00 0.  1.
         36    2    1    2    0    0  0.71054273576E-14 -0.35527136788E-14  0.16562106356E+04  0.16788511690E+04  0.27478642291E+03 0.  0.
         25    2    3    3    0    0  0.53276930775E+02 -0.15431917678E+02  0.68224419640E+03  0.69569117951E+03  0.12430807809E+03 0.  0.
         25    2    3    3    0    0 -0.53276930775E+02  0.15431917678E+02  0.97396643916E+03  0.98315998947E+03  0.12213257080E+03 0.  0.
          5    1    4    4  502    0  0.10859919568E+00 -0.63870515342E+02  0.32058381795E+03  0.32691822962E+03  0.47000000000E+01 0.  1.
         -5    1    4    4    0  502  0.53168331579E+02  0.48438597663E+02  0.36166037845E+03  0.36877294989E+03  0.47000000000E+01 0.  1.
          5    1    5    5  503    0  0.20590596683E+02  0.21230397411E+02  0.69830134800E+02  0.75980524953E+02  0.47000000000E+01 0.  1.
         -5    1    5    5    0  503 -0.73867527458E+02 -0.57984797327E+01  0.90413630436E+03  0.90717946452E+03  0.47000000000E+01 0.  1.
<mgrwt>
<rscale>  0 0.27478642E+03</rscale>
<asrwt>0</asrwt>
<pdfrwt beam="1">  1        2 0.25654302E+00 0.27478642E+03</pdfrwt>
<pdfrwt beam="2">  1       -2 0.17415808E-02 0.27478642E+03</pdfrwt>
<totfact> 0.10531739E+04</totfact>
</mgrwt>
</event>
<event>
 9    1  0.2117506E-002  0.2771268E+03  0.7818608E-02  0.1097269E+00
         -1   -1    0    0    0  501 -0.00000000000E+00  0.00000000000E+00  0.61342615451E+02  0.61342615451E+02  0.00000000000E+00 0.  1.
          1   -1    0    0  501    0  0.00000000000E+00 -0.00000000000E+00 -0.31299304110E+03  0.31299304110E+03  0.00000000000E+00 0.  1.
         36    2    1    2    0    0  0.00000000000E+00  0.00000000000E+00 -0.25165042564E+03  0.37433565655E+03  0.27712677069E+03 0.  0.
         25    2    3    3    0    0  0.61667837937E+02 -0.10482365280E+01 -0.11222856031E+03  0.17818219246E+03  0.12389359517E+03 0.  0.
         25    2    3    3    0    0 -0.61667837937E+02  0.10482365280E+01 -0.13942186533E+03  0.19615346409E+03  0.12342489175E+03 0.  0.
          5    1    4    4  502    0 -0.31010603907E+02 -0.26312812269E+02 -0.45015022836E+02  0.60847875272E+02  0.47000000000E+01 0.  1.
         -5    1    4    4    0  502  0.92678441845E+02  0.25264575741E+02 -0.67213537475E+02  0.11733431719E+03  0.47000000000E+01 0.  1.
          5    1    5    5  503    0 -0.37810220957E+02  0.52681298109E+02 -0.27644382544E+02  0.70648664995E+02  0.47000000000E+01 0.  1.
         -5    1    5    5    0  503 -0.23857616981E+02 -0.51633061581E+02 -0.11177748279E+03  0.12550479909E+03  0.47000000000E+01 0.  1.
<mgrwt>
<rscale>  0 0.27712677E+03</rscale>
<asrwt>0</asrwt>
<pdfrwt beam="1">  1        1 0.48152775E-01 0.27712677E+03</pdfrwt>
<pdfrwt beam="2">  1       -1 0.94373255E-02 0.27712677E+03</pdfrwt>
<totfact> 0.55033223E+03</totfact>
</mgrwt>
</event>
<event>
 9    1  0.2117506E-002  0.2742901E+03  0.7818608E-02  0.1098849E+00
         -1   -1    0    0    0  501 -0.00000000000E+00  0.00000000000E+00  0.15338940474E+02  0.15338940474E+02  0.00000000000E+00 0.  1.
          1   -1    0    0  501    0  0.00000000000E+00 -0.00000000000E+00 -0.12262103852E+04  0.12262103852E+04  0.00000000000E+00 0.  1.
         36    2    1    2    0    0  0.00000000000E+00 -0.35527136788E-14 -0.12108714447E+04  0.12415493257E+04  0.27429012455E+03 0.  0.
         25    2    3    3    0    0  0.21851962490E+02 -0.79182554913E+01 -0.36121198239E+03  0.38268034105E+03  0.12421731025E+03 0.  0.
         25    2    3    3    0    0 -0.21851962490E+02  0.79182554913E+01 -0.84965946234E+03  0.85886898463E+03  0.12326606908E+03 0.  0.
          5    1    4    4  502    0  0.22207831177E+02 -0.18864307428E+02 -0.98485474404E+01  0.31114847694E+02  0.47000000000E+01 0.  1.
         -5    1    4    4    0  502 -0.35586868687E+00  0.10946051936E+02 -0.35136343495E+03  0.35156549335E+03  0.47000000000E+01 0.  1.
          5    1    5    5  503    0  0.45897872431E+02  0.27417562732E+02 -0.42433595785E+03  0.42771653295E+03  0.47000000000E+01 0.  1.
         -5    1    5    5    0  503 -0.67749834922E+02 -0.19499307241E+02 -0.42532350449E+03  0.43115245168E+03  0.47000000000E+01 0.  1.
<mgrwt>
<rscale>  0 0.27429012E+03</rscale>
<asrwt>0</asrwt>
<pdfrwt beam="1">  1        1 0.18864775E+00 0.27429012E+03</pdfrwt>
<pdfrwt beam="2">  1       -1 0.23598370E-02 0.27429012E+03</pdfrwt>
<totfact> 0.59006798E+03</totfact>
</mgrwt>
</event>
<event>
 9    1  0.2117506E-002  0.2753175E+03  0.7818608E-02  0.1098274E+00
         -2   -1    0    0    0  501 -0.00000000000E+00  0.00000000000E+00  0.13633662737E+03  0.13633662737E+03  0.00000000000E+00 0.  1.
          2   -1    0    0  501    0  0.00000000000E+00 -0.00000000000E+00 -0.13899365091E+03  0.13899365091E+03  0.00000000000E+00 0.  1.
         36    2    1    2    0    0  0.35527136788E-14  0.00000000000E+00 -0.26570235330E+01  0.27533027828E+03  0.27531745742E+03 0.  0.
         25    2    3    3    0    0 -0.28666427610E+02 -0.28432611304E+02  0.26258504667E+02  0.13369076553E+03  0.12471380943E+03 0.  0.
         25    2    3    3    0    0  0.28666427610E+02  0.28432611304E+02 -0.28915528200E+02  0.14163951275E+03  0.13264790365E+03 0.  0.
          5    1    4    4  502    0  0.17888949522E+02 -0.63163900023E+02 -0.76673774910E+01  0.66261387389E+02  0.47000000000E+01 0. -1.
         -5    1    4    4    0  502 -0.46555377132E+02  0.34731288719E+02  0.33925882158E+02  0.67429378139E+02  0.47000000000E+01 0. -1.
          5    1    5    5  503    0  0.24886089497E+02  0.71941059091E+02  0.16954218403E+02  0.78130461122E+02  0.47000000000E+01 0. -1.
         -5    1    5    5    0  503  0.37803381135E+01 -0.43508447786E+02 -0.45869746604E+02  0.63509051627E+02  0.47000000000E+01 0. -1.
<mgrwt>
<rscale>  0 0.27531746E+03</rscale>
<asrwt>0</asrwt>
<pdfrwt beam="1">  1        2 0.21383639E-01 0.27531746E+03</pdfrwt>
<pdfrwt beam="2">  1       -2 0.20974866E-01 0.27531746E+03</pdfrwt>
<totfact> 0.49423486E+03</totfact>
</mgrwt>
</event>
<event>
 9    1  0.2117506E-002  0.2740616E+03  0.7818608E-02  0.1098977E+00
         -2   -1    0    0    0  501 -0.00000000000E+00  0.00000000000E+00  0.93223941348E+01  0.93223941348E+01  0.00000000000E+00 0. -1.
          2   -1    0    0  501    0  0.00000000000E+00 -0.00000000000E+00 -0.20142296356E+04  0.20142296356E+04  0.00000000000E+00 0. -1.
         36    2    1    2    0    0  0.14210854715E-13 -0.17763568394E-14 -0.20049072415E+04  0.20235520297E+04  0.27406161746E+03 0.  0.
         25    2    3    3    0    0  0.46630819387E+02 -0.88927415985E+01 -0.82911728608E+03  0.84029246618E+03  0.12807201285E+03 0.  0.
         25    2    3    3    0    0 -0.46630819387E+02  0.88927415985E+01 -0.11757899554E+04  0.11832595635E+04  0.12396637199E+03 0.  0.
          5    1    4    4  502    0  0.43184008687E+02  0.10075438051E+02 -0.85671713544E+02  0.96582118219E+02  0.47000000000E+01 0.  1.
         -5    1    4    4    0  502  0.34468106993E+01 -0.18968179650E+02 -0.74344557254E+03  0.74371034796E+03  0.47000000000E+01 0.  1.
          5    1    5    5  503    0  0.95140064310E+00  0.48999570460E+01 -0.37553343619E+00  0.68662775649E+01  0.47000000000E+01 0. -1.
         -5    1    5    5    0  503 -0.47582220030E+02  0.39927845526E+01 -0.11754144219E+04  0.11763932860E+04  0.47000000000E+01 0. -1.
<mgrwt>
<rscale>  0 0.27406162E+03</rscale>
<asrwt>0</asrwt>
<pdfrwt beam="1">  1        2 0.30988156E+00 0.27406162E+03</pdfrwt>
<pdfrwt beam="2">  1       -2 0.14342141E-02 0.27406162E+03</pdfrwt>
<totfact> 0.91994994E+03</totfact>
</mgrwt>
</event>
<event>
 9    1  0.2117506E-002  0.2750029E+03  0.7818608E-02  0.1098450E+00
          1   -1    0    0  501    0  0.00000000000E+00  0.00000000000E+00  0.11935543977E+03  0.11935543977E+03  0.00000000000E+00 0.  1.
         -1   -1    0    0    0  501 -0.00000000000E+00 -0.00000000000E+00 -0.15840630346E+03  0.15840630346E+03  0.00000000000E+00 0.  1.
         36    2    1    2    0    0  0.00000000000E+00  0.00000000000E+00 -0.39050863687E+02  0.27776174323E+03  0.27500293826E+03 0.  0.
         25    2    3    3    0    0 -0.60651659702E+00 -0.38604612752E+02  0.13717087015E+02  0.13460615343E+03  0.12821846231E+03 0.  0.
         25    2    3    3    0    0  0.60651659702E+00  0.38604612752E+02 -0.52767950703E+02  0.14315558980E+03  0.12735141256E+03 0.  0.
          5    1    4    4  502    0 -0.88156290261E+01  0.45028110471E+02 -0.99330543288E+01  0.47180521574E+02  0.47000000000E+01 0.  1.
         -5    1    4    4    0  502  0.82091124291E+01 -0.83632723223E+02  0.23650141344E+02  0.87425631860E+02  0.47000000000E+01 0.  1.
          5    1    5    5  503    0 -0.28271110173E+02 -0.35150673350E+02 -0.44232159256E+02  0.63351396353E+02  0.47000000000E+01 0. -1.
         -5    1    5    5    0  503  0.28877626770E+02  0.73755286102E+02 -0.85357914464E+01  0.79804193446E+02  0.47000000000E+01 0. -1.
<mgrwt>
<rscale>  0 0.27500294E+03</rscale>
<asrwt>0</asrwt>
<pdfrwt beam="1">  1        1 0.18362375E-01 0.27500294E+03</pdfrwt>
<pdfrwt beam="2">  1       -1 0.24370201E-01 0.27500294E+03</pdfrwt>
<totfact> 0.41240745E+03</totfact>
</mgrwt>
</event>
<event>
 9    1  0.2117506E-002  0.2738890E+03  0.7818608E-02  0.1099074E+00
          2   -1    0    0  501    0  0.00000000000E+00  0.00000000000E+00  0.15167418834E+04  0.15167418834E+04  0.00000000000E+00 0. -1.
         -2   -1    0    0    0  501 -0.00000000000E+00 -0.00000000000E+00 -0.12364530996E+02  0.12364530996E+02  0.00000000000E+00 0. -1.
         36    2    1    2    0    0 -0.71054273576E-14  0.17763568394E-14  0.15043773524E+04  0.15291064144E+04  0.27388904345E+03 0.  0.
         25    2    3    3    0    0 -0.49360788952E+02  0.78005484723E+01  0.82213711426E+03  0.83280172654E+03  0.12309323722E+03 0.  0.
         25    2    3    3    0    0  0.49360788952E+02 -0.78005484723E+01  0.68224023816E+03  0.69630468787E+03  0.12996591761E+03 0.  0.
          5    1    4    4  502    0  0.11675924821E+02  0.24967220921E+02  0.62585640766E+03  0.62648066399E+03  0.47000000000E+01 0. -1.
         -5    1    4    4    0  502 -0.61036713773E+02 -0.17166672449E+02  0.19628070660E+03  0.20632106255E+03  0.47000000000E+01 0. -1.
          5    1    5    5  503    0 -0.31521806098E+02  0.97346805242E+01  0.41895220857E+03  0.42027542318E+03  0.47000000000E+01 0. -1.
         -5    1    5    5    0  503  0.80882595050E+02 -0.17535228997E+02  0.26328802959E+03  0.27602926469E+03  0.47000000000E+01 0. -1.
<mgrwt>
<rscale>  0 0.27388904E+03</rscale>
<asrwt>0</asrwt>
<pdfrwt beam="1">  1        2 0.23334476E+00 0.27388904E+03</pdfrwt>
<pdfrwt beam="2">  1       -2 0.19022367E-02 0.27388904E+03</pdfrwt>
<totfact> 0.11122421E+04</totfact>
</mgrwt>
</event>
<event>
 9    1  0.2117506E-002  0.2749056E+03  0.7818608E-02  0.1098504E+00
          1   -1    0    0  501    0  0.00000000000E+00  0.00000000000E+00  0.74944195095E+03  0.74944195095E+03  0.00000000000E+00 0.  1.
         -1   -1    0    0    0  501 -0.00000000000E+00 -0.00000000000E+00 -0.25209779305E+02  0.25209779305E+02  0.00000000000E+00 0.  1.
         36    2    1    2    0    0 -0.71054273576E-14  0.00000000000E+00  0.72423217165E+03  0.77465173026E+03  0.27490555604E+03 0.  0.
         25    2    3    3    0    0  0.73952695650E+01  0.52898942941E+02  0.41046141870E+03  0.43279618334E+03  0.12641586884E+03 0.  0.
         25    2    3    3    0    0 -0.73952695650E+01 -0.52898942941E+02  0.31377075295E+03  0.34185554692E+03  0.12474029572E+03 0.  0.
          5    1    4    4  502    0 -0.53915529952E+02  0.27345587420E+02  0.11591760386E+03  0.13081913624E+03  0.47000000000E+01 0.  1.
         -5    1    4    4    0  502  0.61310799517E+02  0.25553355521E+02  0.29454381484E+03  0.30197704710E+03  0.47000000000E+01 0.  1.
          5    1    5    5  503    0 -0.58267499757E+02 -0.41334112878E+02  0.10839093871E+03  0.12990110088E+03  0.47000000000E+01 0.  1.
         -5    1    5    5    0  503  0.50872230192E+02 -0.11564830063E+02  0.20537981424E+03  0.21195444604E+03  0.47000000000E+01 0.  1.
<mgrwt>
<rscale>  0 0.27490556E+03</rscale>
<asrwt>0</asrwt>
<pdfrwt beam="1">  1        1 0.11529874E+00 0.27490556E+03</pdfrwt>
<pdfrwt beam="2">  1       -1 0.38784282E-02 0.27490556E+03</pdfrwt>
<totfact> 0.65419758E+03</totfact>
</mgrwt>
</event>
<event>
 9    1  0.2117506E-002  0.2752248E+03  0.7818608E-02  0.1098326E+00
         -1   -1    0    0    0  501 -0.00000000000E+00  0.00000000000E+00  0.27940129267E+03  0.27940129267E+03  0.00000000000E+00 0.  1.
          1   -1    0    0  501    0  0.00000000000E+00 -0.00000000000E+00 -0.67777702018E+02  0.67777702018E+02  0.00000000000E+00 0.  1.
         36    2    1    2    0    0 -0.71054273576E-14  0.00000000000E+00  0.21162359065E+03  0.34717899469E+03  0.27522483578E+03 0.  0.
         25    2    3    3    0    0  0.24656202368E+02 -0.18527243354E+02  0.16441084115E+03  0.20936130248E+03  0.12589695480E+03 0.  0.
         25    2    3    3    0    0 -0.24656202368E+02  0.18527243354E+02  0.47212749501E+02  0.13781769220E+03  0.12575168193E+03 0.  0.
          5    1    4    4  502    0  0.74984965673E+02 -0.17641633293E+02  0.11626661478E+03  0.13954923151E+03  0.47000000000E+01 0.  1.
         -5    1    4    4    0  502 -0.50328763305E+02 -0.88561006030E+00  0.48144226365E+02  0.69812070971E+02  0.47000000000E+01 0.  1.
          5    1    5    5  503    0  0.44201245276E+02  0.33068532871E+02  0.36824855249E+02  0.66523964962E+02  0.47000000000E+01 0. -1.
         -5    1    5    5    0  503 -0.68857447645E+02 -0.14541289517E+02  0.10387894252E+02  0.71293727241E+02  0.47000000000E+01 0. -1.
<mgrwt>
<rscale>  0 0.27522484E+03</rscale>
<asrwt>0</asrwt>
<pdfrwt beam="1">  1        1 0.10427339E-01 0.27522484E+03</pdfrwt>
<pdfrwt beam="2">  1       -1 0.42984814E-01 0.27522484E+03</pdfrwt>
<totfact> 0.32739868E+03</totfact>
</mgrwt>
</event>
<event>
 9    1  0.2117506E-002  0.2784067E+03  0.7818608E-02  0.1096562E+00
          2   -1    0    0  501    0  0.00000000000E+00  0.00000000000E+00  0.27766546182E+03  0.27766546182E+03  0.00000000000E+00 0.  1.
         -2   -1    0    0    0  501 -0.00000000000E+00 -0.00000000000E+00 -0.69787472925E+02  0.69787472925E+02  0.00000000000E+00 0.  1.
         36    2    1    2    0    0  0.00000000000E+00 -0.35527136788E-14  0.20787798889E+03  0.34745293474E+03  0.27840668741E+03 0.  0.
         25    2    3    3    0    0 -0.21194727404E+02  0.28002715683E+02  0.36807694426E+02  0.13263535662E+03  0.12249066455E+03 0.  0.
         25    2    3    3    0    0  0.21194727404E+02 -0.28002715683E+02  0.17107029447E+03  0.21481757812E+03  0.12509267631E+03 0.  0.
          5    1    4    4  502    0  0.29826693205E+02  0.46458714799E+01  0.63389021148E+02  0.70366709114E+02  0.47000000000E+01 0. -1.
         -5    1    4    4    0  502 -0.51021420609E+02  0.23356844203E+02 -0.26581326722E+02  0.62268647507E+02  0.47000000000E+01 0. -1.
          5    1    5    5  503    0 -0.34610338887E+02 -0.41398542323E+02  0.28820214051E+02  0.61354784673E+02  0.47000000000E+01 0.  1.
         -5    1    5    5    0  503  0.55805066291E+02  0.13395826640E+02  0.14225008042E+03  0.15346279345E+03  0.47000000000E+01 0.  1.
<mgrwt>
<rscale>  0 0.27840669E+03</rscale>
<asrwt>0</asrwt>
<pdfrwt beam="1">  1        2 0.42717763E-01 0.27840669E+03</pdfrwt>
<pdfrwt beam="2">  1       -2 0.10736534E-01 0.27840669E+03</pdfrwt>
<totfact> 0.69934851E+03</totfact>
</mgrwt>
</event>
<event>
 9    1  0.2117506E-002  0.2749795E+03  0.7818608E-02  0.1098463E+00
          1   -1    0    0  501    0  0.00000000000E+00  0.00000000000E+00  0.13751758215E+04  0.13751758215E+04  0.00000000000E+00 0. -1.
         -1   -1    0    0    0  501 -0.00000000000E+00 -0.00000000000E+00 -0.13746193471E+02  0.13746193471E+02  0.00000000000E+00 0. -1.
         36    2    1    2    0    0 -0.71054273576E-14  0.71054273576E-14  0.13614296280E+04  0.13889220150E+04  0.27497951123E+03 0.  0.
         25    2    3    3    0    0  0.46770480537E+02  0.19503796042E+02  0.56811558529E+03  0.58417331690E+03  0.12623497939E+03 0.  0.
         25    2    3    3    0    0 -0.46770480537E+02 -0.19503796042E+02  0.79331404273E+03  0.80474869806E+03  0.12532127004E+03 0.  0.
          5    1    4    4  502    0  0.41492062390E+02 -0.48141003538E+02  0.20268883726E+03  0.21247117972E+03  0.47000000000E+01 0. -1.
         -5    1    4    4    0  502  0.52784181469E+01  0.67644799579E+02  0.36542674803E+03  0.37170213718E+03  0.47000000000E+01 0. -1.
          5    1    5    5  503    0 -0.85521146073E+02  0.99772955811E+01  0.49760589921E+03  0.50502191416E+03  0.47000000000E+01 0.  1.
         -5    1    5    5    0  503  0.38750665536E+02 -0.29481091623E+02  0.29570814352E+03  0.29972678390E+03  0.47000000000E+01 0.  1.
<mgrwt>
<rscale>  0 0.27497951E+03</rscale>
<asrwt>0</asrwt>
<pdfrwt beam="1">  1        1 0.21156540E+00 0.27497951E+03</pdfrwt>
<pdfrwt beam="2">  1       -1 0.21148001E-02 0.27497951E+03</pdfrwt>
<totfact> 0.54803229E+03</totfact>
</mgrwt>
</event>
<event>
 9    1  0.2117506E-002  0.2751511E+03  0.7818608E-02  0.1098367E+00
          1   -1    0    0  501    0  0.00000000000E+00  0.00000000000E+00  0.52603832832E+03  0.52603832832E+03  0.00000000000E+00 0. -1.
         -1   -1    0    0    0  501 -0.00000000000E+00 -0.00000000000E+00 -0.35980328729E+02  0.35980328729E+02  0.00000000000E+00 0. -1.
         36    2    1    2    0    0  0.35527136788E-14  0.71054273576E-14  0.49005799960E+03  0.56201865705E+03  0.27515110014E+03 0.  0.
         25    2    3    3    0    0  0.20611526565E+02  0.50616736212E+02  0.17971223705E+03  0.22273375360E+03  0.11969522897E+03 0.  0.
         25    2    3    3    0    0 -0.20611526565E+02 -0.50616736212E+02  0.31034576255E+03  0.33928490345E+03  0.12574921219E+03 0.  0.
          5    1    4    4  502    0  0.40142933361E+01 -0.36956293479E+01 -0.16718714205E+02  0.18203780705E+02  0.47000000000E+01 0.  1.
         -5    1    4    4    0  502  0.16597233229E+02  0.54312365560E+02  0.19643095125E+03  0.20452997290E+03  0.47000000000E+01 0.  1.
          5    1    5    5  503    0  0.42204105857E+02  0.15633214356E+01  0.18347632888E+03  0.18833290681E+03  0.47000000000E+01 0.  1.
         -5    1    5    5    0  503 -0.62815632423E+02 -0.52180057648E+02  0.12686943366E+03  0.15095199664E+03  0.47000000000E+01 0.  1.
<mgrwt>
<rscale>  0 0.27515110E+03</rscale>
<asrwt>0</asrwt>
<pdfrwt beam="1">  1        1 0.80928968E-01 0.27515110E+03</pdfrwt>
<pdfrwt beam="2">  1       -1 0.55354356E-02 0.27515110E+03</pdfrwt>
<totfact> 0.63368948E+03</totfact>
</mgrwt>
</event>
<event>
 9    1  0.2117506E-002  0.2744691E+03  0.7818608E-02  0.1098749E+00
          2   -1    0    0  501    0  0.00000000000E+00  0.00000000000E+00  0.31051835221E+04  0.31051835221E+04  0.00000000000E+00 0.  1.
         -2   -1    0    0    0  501 -0.00000000000E+00 -0.00000000000E+00 -0.60651238165E+01  0.60651238165E+01  0.00000000000E+00 0.  1.
         36    2    1    2    0    0  0.00000000000E+00  0.35527136788E-14  0.30991183983E+04  0.31112486459E+04  0.27446910598E+03 0.  0.
         25    2    3    3    0    0  0.51501649496E+02  0.10721567181E+02  0.17605162137E+04  0.17660750013E+04  0.12975438203E+03 0.  0.
         25    2    3    3    0    0 -0.51501649496E+02 -0.10721567181E+02  0.13386021846E+04  0.13451736446E+04  0.12193831909E+03 0.  0.
          5    1    4    4  502    0 -0.42589767776E+02  0.14407693213E+02  0.64451561905E+03  0.64609901961E+03  0.47000000000E+01 0.  1.
         -5    1    4    4    0  502  0.94091417271E+02 -0.36861260316E+01  0.11160005946E+04  0.11199759817E+04  0.47000000000E+01 0.  1.
          5    1    5    5  503    0 -0.83605535690E+02  0.21770690166E+02  0.92063594670E+03  0.92469264348E+03  0.47000000000E+01 0.  1.
         -5    1    5    5    0  503  0.32103886194E+02 -0.32492257347E+02  0.41796623787E+03  0.42048100112E+03  0.47000000000E+01 0.  1.
<mgrwt>
<rscale>  0 0.27446911E+03</rscale>
<asrwt>0</asrwt>
<pdfrwt beam="1">  1        2 0.47771927E+00 0.27446911E+03</pdfrwt>
<pdfrwt beam="2">  1       -2 0.93309845E-03 0.27446911E+03</pdfrwt>
<totfact> 0.42493486E+03</totfact>
</mgrwt>
</event>
<event>
 9    1  0.2117506E-002  0.2747079E+03  0.7818608E-02  0.1098615E+00
          2   -1    0    0  501    0  0.00000000000E+00  0.00000000000E+00  0.98054358180E+03  0.98054358180E+03  0.00000000000E+00 0.  1.
         -2   -1    0    0    0  501 -0.00000000000E+00 -0.00000000000E+00 -0.19240459357E+02  0.19240459357E+02  0.00000000000E+00 0.  1.
         36    2    1    2    0    0  0.35527136788E-14  0.00000000000E+00  0.96130312244E+03  0.99978404116E+03  0.27470790985E+03 0.  0.
         25    2    3    3    0    0 -0.21440175968E+01 -0.59556204392E+02  0.51410080822E+03  0.53206980012E+03  0.12347911927E+03 0.  0.
         25    2    3    3    0    0  0.21440175968E+01  0.59556204392E+02  0.44720231422E+03  0.46771424104E+03  0.12334975934E+03 0.  0.
          5    1    4    4  502    0 -0.25700638973E+02 -0.87737177810E+02  0.43766916036E+03  0.44714060332E+03  0.47000000000E+01 0.  1.
         -5    1    4    4    0  502  0.23556621376E+02  0.28180973418E+02  0.76431647863E+02  0.84929196796E+02  0.47000000000E+01 0.  1.
          5    1    5    5  503    0 -0.30286929021E+02  0.27724057122E+01  0.34448797100E+03  0.34585985090E+03  0.47000000000E+01 0.  1.
         -5    1    5    5    0  503  0.32430946618E+02  0.56783798680E+02  0.10271434322E+03  0.12185439013E+03  0.47000000000E+01 0.  1.
<mgrwt>
<rscale>  0 0.27470791E+03</rscale>
<asrwt>0</asrwt>
<pdfrwt beam="1">  1        2 0.15085282E+00 0.27470791E+03</pdfrwt>
<pdfrwt beam="2">  1       -2 0.29600714E-02 0.27470791E+03</pdfrwt>
<totfact> 0.11635142E+04</totfact>
</mgrwt>
</event>
<event>
 9    1  0.2117506E-002  0.2748341E+03  0.7818608E-02  0.1098544E+00
          2   -1    0    0  501    0  0.00000000000E+00  0.00000000000E+00  0.15923467680E+04  0.15923467680E+04  0.00000000000E+00 0. -1.
         -2   -1    0    0    0  501 -0.00000000000E+00 -0.00000000000E+00 -0.11858879912E+02  0.11858879912E+02  0.00000000000E+00 0. -1.
         36    2    1    2    0    0  0.35527136788E-14  0.00000000000E+00  0.15804878881E+04  0.16042056479E+04  0.27483412524E+03 0.  0.
         25    2    3    3    0    0  0.19552695685E+02 -0.96027362885E+01  0.11246260317E+04  0.11318274901E+04  0.12559950553E+03 0.  0.
         25    2    3    3    0    0 -0.19552695685E+02  0.96027362885E+01  0.45586185639E+03  0.47237815778E+03  0.12188753581E+03 0.  0.
          5    1    4    4  502    0 -0.12503958073E+02  0.31221169171E+02  0.92137773051E+03  0.92200332030E+03  0.47000000000E+01 0.  1.
         -5    1    4    4    0  502  0.32056653758E+02 -0.40823905460E+02  0.20324830117E+03  0.20982416981E+03  0.47000000000E+01 0.  1.
          5    1    5    5  503    0 -0.19811713311E+02 -0.52262274649E+02  0.28814407017E+03  0.29355228582E+03  0.47000000000E+01 0.  1.
         -5    1    5    5    0  503  0.25901762576E+00  0.61865010938E+02  0.16771778622E+03  0.17882587196E+03  0.47000000000E+01 0.  1.
<mgrwt>
<rscale>  0 0.27483413E+03</rscale>
<asrwt>0</asrwt>
<pdfrwt beam="1">  1        2 0.24497626E+00 0.27483413E+03</pdfrwt>
<pdfrwt beam="2">  1       -2 0.18244443E-02 0.27483413E+03</pdfrwt>
<totfact> 0.10780364E+04</totfact>
</mgrwt>
</event>
<event>
 9    1  0.2117506E-002  0.2749363E+03  0.7818608E-02  0.1098487E+00
         -1   -1    0    0    0  501 -0.00000000000E+00  0.00000000000E+00  0.59349819852E+02  0.59349819852E+02  0.00000000000E+00 0.  1.
          1   -1    0    0  501    0  0.00000000000E+00 -0.00000000000E+00 -0.31840859367E+03  0.31840859367E+03  0.00000000000E+00 0.  1.
         36    2    1    2    0    0  0.00000000000E+00  0.35527136788E-14 -0.25905877382E+03  0.37775841352E+03  0.27493630298E+03 0.  0.
         25    2    3    3    0    0  0.80214856952E+01 -0.11206858470E+02 -0.54565915633E+02  0.13780005956E+03  0.12578346218E+03 0.  0.
         25    2    3    3    0    0 -0.80214856952E+01  0.11206858470E+02 -0.20449285818E+03  0.23995835396E+03  0.12479080366E+03 0.  0.
          5    1    4    4  502    0  0.41546640717E+02  0.44394689069E+02 -0.20563234872E+02  0.64357970764E+02  0.47000000000E+01 0. -1.
         -5    1    4    4    0  502 -0.33525155022E+02 -0.55601547540E+02 -0.34002680762E+02  0.73442088798E+02  0.47000000000E+01 0. -1.
          5    1    5    5  503    0  0.41223953445E+02 -0.15756178019E+01 -0.15726674303E+02  0.44399495422E+02  0.47000000000E+01 0.  1.
         -5    1    5    5    0  503 -0.49245439140E+02  0.12782476272E+02 -0.18876618388E+03  0.19555885854E+03  0.47000000000E+01 0.  1.
<mgrwt>
<rscale>  0 0.27493630E+03</rscale>
<asrwt>0</asrwt>
<pdfrwt beam="1">  1        1 0.48985938E-01 0.27493630E+03</pdfrwt>
<pdfrwt beam="2">  1       -1 0.91307414E-02 0.27493630E+03</pdfrwt>
<totfact> 0.56650246E+03</totfact>
</mgrwt>
</event>
<event>
 9    1  0.2117506E-002  0.2749703E+03  0.7818608E-02  0.1098468E+00
          1   -1    0    0  501    0  0.00000000000E+00  0.00000000000E+00  0.23635412492E+04  0.23635412492E+04  0.00000000000E+00 0. -1.
         -1   -1    0    0    0  501 -0.00000000000E+00 -0.00000000000E+00 -0.79973905141E+01  0.79973905141E+01  0.00000000000E+00 0. -1.
         36    2    1    2    0    0  0.35527136788E-14 -0.53290705182E-14  0.23555438587E+04  0.23715386397E+04  0.27497027015E+03 0.  0.
         25    2    3    3    0    0  0.29035264341E+02 -0.13473118812E+01  0.11376600369E+04  0.11460130843E+04  0.13502136178E+03 0.  0.
         25    2    3    3    0    0 -0.29035264341E+02  0.13473118812E+01  0.12178838219E+04  0.12255255554E+04  0.13351787010E+03 0.  0.
          5    1    4    4  502    0 -0.33274046964E+02  0.15293855257E+02  0.86509316593E+03  0.86588067304E+03  0.47000000000E+01 0.  1.
         -5    1    4    4    0  502  0.62309311305E+02 -0.16641167138E+02  0.27256687092E+03  0.28013241127E+03  0.47000000000E+01 0.  1.
          5    1    5    5  503    0 -0.34433386685E+02 -0.39147009548E+02  0.10886314769E+04  0.10898893196E+04  0.47000000000E+01 0.  1.
         -5    1    5    5    0  503  0.53981223433E+01  0.40494321430E+02  0.12925234496E+03  0.13563623583E+03  0.47000000000E+01 0.  1.
<mgrwt>
<rscale>  0 0.27497027E+03</rscale>
<asrwt>0</asrwt>
<pdfrwt beam="1">  1        1 0.36362117E+00 0.27497027E+03</pdfrwt>
<pdfrwt beam="2">  1       -1 0.12303697E-02 0.27497027E+03</pdfrwt>
<totfact> 0.27187977E+03</totfact>
</mgrwt>
</event>
<event>
 9    1  0.2117506E-002  0.2743566E+03  0.7818608E-02  0.1098812E+00
         -2   -1    0    0    0  501 -0.00000000000E+00  0.00000000000E+00  0.80643165912E+02  0.80643165912E+02  0.00000000000E+00 0. -1.
          2   -1    0    0  501    0  0.00000000000E+00 -0.00000000000E+00 -0.23334748050E+03  0.23334748050E+03  0.00000000000E+00 0. -1.
         36    2    1    2    0    0 -0.35527136788E-14 -0.35527136788E-14 -0.15270431459E+03  0.31399064642E+03  0.27435655331E+03 0.  0.
         25    2    3    3    0    0 -0.21080301562E+01  0.16296957997E+02 -0.13238302484E+03  0.18429633007E+03  0.12716067544E+03 0.  0.
         25    2    3    3    0    0  0.21080301562E+01 -0.16296957997E+02 -0.20321289751E+02  0.12969431635E+03  0.12703395705E+03 0.  0.
          5    1    4    4  502    0  0.34351417213E+02 -0.35627916150E+02 -0.17007578405E+02  0.52542516089E+02  0.47000000000E+01 0. -1.
         -5    1    4    4    0  502 -0.36459447369E+02  0.51924874147E+02 -0.11537544644E+03  0.13175381398E+03  0.47000000000E+01 0. -1.
          5    1    5    5  503    0 -0.11332549594E+02 -0.32056999198E+02  0.47511960963E+02  0.58613601770E+02  0.47000000000E+01 0.  1.
         -5    1    5    5    0  503  0.13440579750E+02  0.15760041202E+02 -0.67833250714E+02  0.71080714579E+02  0.47000000000E+01 0.  1.
<mgrwt>
<rscale>  0 0.27435655E+03</rscale>
<asrwt>0</asrwt>
<pdfrwt beam="1">  1        2 0.35899612E-01 0.27435655E+03</pdfrwt>
<pdfrwt beam="2">  1       -2 0.12406641E-01 0.27435655E+03</pdfrwt>
<totfact> 0.66827034E+03</totfact>
</mgrwt>
</event>
<event>
 9    1  0.2117506E-002  0.2739831E+03  0.7818608E-02  0.1099021E+00
          1   -1    0    0  501    0  0.00000000000E+00  0.00000000000E+00  0.90786257742E+02  0.90786257742E+02  0.00000000000E+00 0. -1.
         -1   -1    0    0    0  501 -0.00000000000E+00 -0.00000000000E+00 -0.20671286121E+03  0.20671286121E+03  0.00000000000E+00 0. -1.
         36    2    1    2    0    0  0.35527136788E-14  0.00000000000E+00 -0.11592660347E+03  0.29749911895E+03  0.27398311697E+03 0.  0.
         25    2    3    3    0    0 -0.87045614625E+01 -0.58554898421E+01  0.60147824482E+01  0.12044524703E+03  0.11983665454E+03 0.  0.
         25    2    3    3    0    0  0.87045614625E+01  0.58554898421E+01 -0.12194138592E+03  0.17705387192E+03  0.12793871897E+03 0.  0.
          5    1    4    4  502    0 -0.49143934720E+02 -0.21565237054E+02  0.38353895984E+02  0.66130908856E+02  0.47000000000E+01 0. -1.
         -5    1    4    4    0  502  0.40439373257E+02  0.15709747212E+02 -0.32339113536E+02  0.54314338173E+02  0.47000000000E+01 0. -1.
          5    1    5    5  503    0  0.36142955382E+02 -0.68648123093E+00 -0.13903739478E+03  0.14373681375E+03  0.47000000000E+01 0.  1.
         -5    1    5    5    0  503 -0.27438393920E+02  0.65419710730E+01  0.17096008860E+02  0.33317058174E+02  0.47000000000E+01 0.  1.
<mgrwt>
<rscale>  0 0.27398312E+03</rscale>
<asrwt>0</asrwt>
<pdfrwt beam="1">  1        1 0.13967117E-01 0.27398312E+03</pdfrwt>
<pdfrwt beam="2">  1       -1 0.31801978E-01 0.27398312E+03</pdfrwt>
<totfact> 0.37647027E+03</totfact>
</mgrwt>
</event>
<event>
 9    1  0.2117506E-002  0.2750739E+03  0.7818608E-02  0.1098410E+00
          2   -1    0    0  501    0  0.00000000000E+00  0.00000000000E+00  0.28080528071E+03  0.28080528071E+03  0.00000000000E+00 0. -1.
         -2   -1    0    0    0  501 -0.00000000000E+00 -0.00000000000E+00 -0.67364867694E+02  0.67364867694E+02  0.00000000000E+00 0. -1.
         36    2    1    2    0    0  0.17763568394E-14  0.35527136788E-14  0.21344041302E+03  0.34817014841E+03  0.27507388522E+03 0.  0.
         25    2    3    3    0    0  0.10210986382E+02  0.24911125991E+02  0.16065001428E+03  0.20483998480E+03  0.12420210885E+03 0.  0.
         25    2    3    3    0    0 -0.10210986382E+02 -0.24911125991E+02  0.52790398739E+02  0.14333016361E+03  0.13050624951E+03 0.  0.
          5    1    4    4  502    0  0.13619766973E+01 -0.13830568501E+02 -0.17163616615E+02  0.22579179367E+02  0.47000000000E+01 0. -1.
         -5    1    4    4    0  502  0.88490096849E+01  0.38741694492E+02  0.17781363089E+03  0.18226080543E+03  0.47000000000E+01 0. -1.
          5    1    5    5  503    0  0.40552262060E+02  0.23196337591E+02 -0.11363167708E+02  0.48309084199E+02  0.47000000000E+01 0.  1.
         -5    1    5    5    0  503 -0.50763248442E+02 -0.48107463582E+02  0.64153566446E+02  0.95021079411E+02  0.47000000000E+01 0.  1.
<mgrwt>
<rscale>  0 0.27507389E+03</rscale>
<asrwt>0</asrwt>
<pdfrwt beam="1">  1        2 0.43200812E-01 0.27507389E+03</pdfrwt>
<pdfrwt beam="2">  1       -2 0.10363826E-01 0.27507389E+03</pdfrwt>
<totfact> 0.73070486E+03</totfact>
</mgrwt>
</event>
<event>
 9    1  0.2117506E-002  0.2751990E+03  0.7818608E-02  0.1098340E+00
          1   -1    0    0  501    0  0.00000000000E+00  0.00000000000E+00  0.45645465815E+02  0.45645465815E+02  0.00000000000E+00 0.  1.
         -1   -1    0    0    0  501 -0.00000000000E+00 -0.00000000000E+00 -0.41479749792E+03  0.41479749792E+03  0.00000000000E+00 0.  1.
         36    2    1    2    0    0  0.71054273576E-14  0.71054273576E-14 -0.36915203211E+03  0.46044296374E+03  0.27519901898E+03 0.  0.
         25    2    3    3    0    0 -0.37563225367E+02 -0.43201947102E+02 -0.21337187919E+03  0.25754183069E+03  0.13237383273E+03 0.  0.
         25    2    3    3    0    0  0.37563225367E+02  0.43201947102E+02 -0.15578015292E+03  0.20290113305E+03  0.11672193288E+03 0.  0.
          5    1    4    4  502    0  0.74064830239E+01 -0.44505155918E+02 -0.65506564874E+01  0.45831932040E+02  0.47000000000E+01 0.  1.
         -5    1    4    4    0  502 -0.44969708390E+02  0.13032088161E+01 -0.20682122270E+03  0.21170989865E+03  0.47000000000E+01 0.  1.
          5    1    5    5  503    0 -0.88544313531E+01  0.62033090445E+02 -0.34695940429E+02  0.71780244824E+02  0.47000000000E+01 0. -1.
         -5    1    5    5    0  503  0.46417656720E+02 -0.18831143343E+02 -0.12108421249E+03  0.13112088823E+03  0.47000000000E+01 0. -1.
<mgrwt>
<rscale>  0 0.27519902E+03</rscale>
<asrwt>0</asrwt>
<pdfrwt beam="1">  1        1 0.70223794E-02 0.27519902E+03</pdfrwt>
<pdfrwt beam="2">  1       -1 0.63815000E-01 0.27519902E+03</pdfrwt>
<totfact> 0.26722319E+03</totfact>
</mgrwt>
</event>
<event>
 9    1  0.2117506E-002  0.2773494E+03  0.7818608E-02  0.1097145E+00
         -2   -1    0    0    0  501 -0.00000000000E+00  0.00000000000E+00  0.91723557496E+01  0.91723557496E+01  0.00000000000E+00 0. -1.
          2   -1    0    0  501    0  0.00000000000E+00 -0.00000000000E+00 -0.20965907949E+04  0.20965907949E+04  0.00000000000E+00 0. -1.
         36    2    1    2    0    0  0.71054273576E-14 -0.71054273576E-14 -0.20874184392E+04  0.21057631507E+04  0.27734943037E+03 0.  0.
         25    2    3    3    0    0 -0.21841058706E+02  0.57134799321E+02 -0.93011174450E+03  0.94056010050E+03  0.12571407344E+03 0.  0.
         25    2    3    3    0    0  0.21841058706E+02 -0.57134799321E+02 -0.11573066947E+04  0.11652030502E+04  0.12082195766E+03 0.  0.
          5    1    4    4  502    0 -0.62669490442E+02  0.52786586779E+02 -0.79613100593E+03  0.80035027168E+03  0.47000000000E+01 0. -1.
         -5    1    4    4    0  502  0.40828431736E+02  0.43482125418E+01 -0.13398073857E+03  0.14020982882E+03  0.47000000000E+01 0. -1.
          5    1    5    5  503    0  0.68795748491E+02 -0.35626877746E+02 -0.85151649932E+03  0.85504652975E+03  0.47000000000E+01 0.  1.
         -5    1    5    5    0  503 -0.46954689785E+02 -0.21507921576E+02 -0.30579019535E+03  0.31015652042E+03  0.47000000000E+01 0.  1.
<mgrwt>
<rscale>  0 0.27734943E+03</rscale>
<asrwt>0</asrwt>
<pdfrwt beam="1">  1        2 0.32255236E+00 0.27734943E+03</pdfrwt>
<pdfrwt beam="2">  1       -2 0.14111320E-02 0.27734943E+03</pdfrwt>
<totfact> 0.85244262E+03</totfact>
</mgrwt>
</event>
<event>
 9    1  0.2117506E-002  0.2744434E+03  0.7818608E-02  0.1098763E+00
          2   -1    0    0  501    0  0.00000000000E+00  0.00000000000E+00  0.16937988304E+03  0.16937988304E+03  0.00000000000E+00 0. -1.
         -2   -1    0    0    0  501 -0.00000000000E+00 -0.00000000000E+00 -0.11116898176E+03  0.11116898176E+03  0.00000000000E+00 0. -1.
         36    2    1    2    0    0 -0.14210854715E-13  0.35527136788E-14  0.58210901281E+02  0.28054886480E+03  0.27444335757E+03 0.  0.
         25    2    3    3    0    0  0.54365698341E+02  0.10262843502E+02  0.37898188195E+02  0.14409357482E+03  0.12753717310E+03 0.  0.
         25    2    3    3    0    0 -0.54365698341E+02 -0.10262843502E+02  0.20312713085E+02  0.13645528998E+03  0.12307105565E+03 0.  0.
          5    1    4    4  502    0  0.90616362721E+02  0.43986292866E+01  0.51767727113E+02  0.10455936449E+03  0.47000000000E+01 0. -1.
         -5    1    4    4    0  502 -0.36250664380E+02  0.58642142153E+01 -0.13869538918E+02  0.39534210326E+02  0.47000000000E+01 0. -1.
          5    1    5    5  503    0 -0.84616242410E+02  0.24883354567E+02  0.13021266738E+02  0.89278962816E+02  0.47000000000E+01 0. -1.
         -5    1    5    5    0  503  0.30250544069E+02 -0.35146198069E+02  0.72914463474E+01  0.47176327167E+02  0.47000000000E+01 0. -1.
<mgrwt>
<rscale>  0 0.27444336E+03</rscale>
<asrwt>0</asrwt>
<pdfrwt beam="1">  1        2 0.26058444E-01 0.27444336E+03</pdfrwt>
<pdfrwt beam="2">  1       -2 0.17102920E-01 0.27444336E+03</pdfrwt>
<totfact> 0.55960772E+03</totfact>
</mgrwt>
</event>
<event>
 9    1  0.2117506E-002  0.2757686E+03  0.7818608E-02  0.1098023E+00
          2   -1    0    0  501    0  0.00000000000E+00  0.00000000000E+00  0.15252403237E+04  0.15252403237E+04  0.00000000000E+00 0.  1.
         -2   -1    0    0    0  501 -0.00000000000E+00 -0.00000000000E+00 -0.12464975902E+02  0.12464975902E+02  0.00000000000E+00 0.  1.
         36    2    1    2    0    0  0.00000000000E+00  0.00000000000E+00  0.15127753478E+04  0.15377052996E+04  0.27576862678E+03 0.  0.
         25    2    3    3    0    0 -0.55691884203E+01 -0.49309488619E+02  0.65100086985E+03  0.66616218698E+03  0.13231585428E+03 0.  0.
         25    2    3    3    0    0  0.55691884203E+01  0.49309488619E+02  0.86177447792E+03  0.87154311259E+03  0.12029008597E+03 0.  0.
          5    1    4    4  502    0  0.49436880540E+02 -0.62693135228E+02  0.45970022339E+03  0.46660563621E+03  0.47000000000E+01 0. -1.
         -5    1    4    4    0  502 -0.55006068960E+02  0.13383646608E+02  0.19130064646E+03  0.19955655077E+03  0.47000000000E+01 0. -1.
          5    1    5    5  503    0 -0.41999421503E+02  0.51045260396E+02  0.69179858124E+03  0.69496542146E+03  0.47000000000E+01 0. -1.
         -5    1    5    5    0  503  0.47568609923E+02 -0.17357717770E+01  0.16997589668E+03  0.17657769113E+03  0.47000000000E+01 0. -1.
<mgrwt>
<rscale>  0 0.27576863E+03</rscale>
<asrwt>0</asrwt>
<pdfrwt beam="1">  1        2 0.23465221E+00 0.27576863E+03</pdfrwt>
<pdfrwt beam="2">  1       -2 0.19176898E-02 0.27576863E+03</pdfrwt>
<totfact> 0.10878236E+04</totfact>
</mgrwt>
</event>
<event>
 9    1  0.2117506E-002  0.2750906E+03  0.7818608E-02  0.1098401E+00
         -2   -1    0    0    0  501 -0.00000000000E+00  0.00000000000E+00  0.61877938732E+02  0.61877938732E+02  0.00000000000E+00 0.  1.
          2   -1    0    0  501    0  0.00000000000E+00 -0.00000000000E+00 -0.30574250923E+03  0.30574250923E+03  0.00000000000E+00 0.  1.
         36    2    1    2    0    0  0.71054273576E-14  0.00000000000E+00 -0.24386457050E+03  0.36762044796E+03  0.27509064873E+03 0.  0.
         25    2    3    3    0    0 -0.45082983674E+02 -0.10270366254E+02 -0.10959918556E+03  0.16293219650E+03  0.11134165143E+03 0.  0.
         25    2    3    3    0    0  0.45082983674E+02  0.10270366254E+02 -0.13426538494E+03  0.20468825146E+03  0.14741821750E+03 0.  0.
          5    1    4    4  502    0  0.20617654852E+02 -0.30725612097E+02 -0.79229752601E+02  0.87570512318E+02  0.47000000000E+01 0.  1.
         -5    1    4    4    0  502 -0.65700638526E+02  0.20455245842E+02 -0.30369432957E+02  0.75361684186E+02  0.47000000000E+01 0.  1.
          5    1    5    5  503    0  0.26427799272E+02 -0.22668129927E+01  0.29136297921E+02  0.39680988799E+02  0.47000000000E+01 0.  1.
         -5    1    5    5    0  503  0.18655184402E+02  0.12537179247E+02 -0.16340168286E+03  0.16500726266E+03  0.47000000000E+01 0.  1.
<mgrwt>
<rscale>  0 0.27509065E+03</rscale>
<asrwt>0</asrwt>
<pdfrwt beam="1">  1        2 0.47037309E-01 0.27509065E+03</pdfrwt>
<pdfrwt beam="2">  1       -2 0.95196829E-02 0.27509065E+03</pdfrwt>
<totfact> 0.76316648E+03</totfact>
</mgrwt>
</event>
<event>
 9    1  0.2117506E-002  0.2751630E+03  0.7818608E-02  0.1098361E+00
         -1   -1    0    0    0  501 -0.00000000000E+00  0.00000000000E+00  0.15657858123E+02  0.15657858123E+02  0.00000000000E+00 0. -1.
          1   -1    0    0  501    0  0.00000000000E+00 -0.00000000000E+00 -0.12088921987E+04  0.12088921987E+04  0.00000000000E+00 0. -1.
         36    2    1    2    0    0 -0.71054273576E-14  0.00000000000E+00 -0.11932343406E+04  0.12245500569E+04  0.27516295197E+03 0.  0.
         25    2    3    3    0    0 -0.86453405008E+01 -0.69438603971E+01 -0.34916470103E+03  0.37062406546E+03  0.12378711704E+03 0.  0.
         25    2    3    3    0    0  0.86453405008E+01  0.69438603971E+01 -0.84406963959E+03  0.85392599140E+03  0.12889174995E+03 0.  0.
          5    1    4    4  502    0  0.36340039974E+02  0.42231100514E+02 -0.13032458393E+03  0.14181202887E+03  0.47000000000E+01 0. -1.
         -5    1    4    4    0  502 -0.44985380475E+02 -0.49174960912E+02 -0.21884011710E+03  0.22881203659E+03  0.47000000000E+01 0. -1.
          5    1    5    5  503    0 -0.48742614378E+02 -0.32918858758E+02 -0.35575247334E+03  0.36061254278E+03  0.47000000000E+01 0. -1.
         -5    1    5    5    0  503  0.57387954878E+02  0.39862719155E+02 -0.48831716625E+03  0.49331344863E+03  0.47000000000E+01 0. -1.
<mgrwt>
<rscale>  0 0.27516295E+03</rscale>
<asrwt>0</asrwt>
<pdfrwt beam="1">  1        1 0.18598339E+00 0.27516295E+03</pdfrwt>
<pdfrwt beam="2">  1       -1 0.24089016E-02 0.27516295E+03</pdfrwt>
<totfact> 0.58866950E+03</totfact>
</mgrwt>
</event>
<event>
 9    1  0.2117506E-002  0.2745330E+03  0.7818608E-02  0.1098713E+00
          2   -1    0    0  501    0  0.00000000000E+00  0.00000000000E+00  0.61575107462E+03  0.61575107462E+03  0.00000000000E+00 0.  1.
         -2   -1    0    0    0  501 -0.00000000000E+00 -0.00000000000E+00 -0.30600175685E+02  0.30600175685E+02  0.00000000000E+00 0.  1.
         36    2    1    2    0    0  0.00000000000E+00  0.00000000000E+00  0.58515089893E+03  0.64635125031E+03  0.27453299300E+03 0.  0.
         25    2    3    3    0    0  0.28903040414E+02  0.21364284096E+02  0.17610030409E+03  0.21719094561E+03  0.12193757164E+03 0.  0.
         25    2    3    3    0    0 -0.28903040414E+02 -0.21364284096E+02  0.40905059485E+03  0.42916030469E+03  0.12475720259E+03 0.  0.
          5    1    4    4  502    0 -0.41138171717E+02  0.35581928044E+02  0.63512027007E+02  0.83751360288E+02  0.47000000000E+01 0. -1.
         -5    1    4    4    0  502  0.70041212131E+02 -0.14217643948E+02  0.11258827708E+03  0.13343958533E+03  0.47000000000E+01 0. -1.
          5    1    5    5  503    0 -0.55691095811E+02 -0.86770475497E+01  0.75873832333E+02  0.94634654011E+02  0.47000000000E+01 0.  1.
         -5    1    5    5    0  503  0.26788055398E+02 -0.12687236546E+02  0.33317676251E+03  0.33452565068E+03  0.47000000000E+01 0.  1.
<mgrwt>
<rscale>  0 0.27453299E+03</rscale>
<asrwt>0</asrwt>
<pdfrwt beam="1">  1        2 0.94730926E-01 0.27453299E+03</pdfrwt>
<pdfrwt beam="2">  1       -2 0.47077198E-02 0.27453299E+03</pdfrwt>
<totfact> 0.10454961E+04</totfact>
</mgrwt>
</event>
<event>
 9    1  0.2117506E-002  0.2746883E+03  0.7818608E-02  0.1098626E+00
          2   -1    0    0  501    0  0.00000000000E+00  0.00000000000E+00  0.51342616277E+02  0.51342616277E+02  0.00000000000E+00 0. -1.
         -2   -1    0    0    0  501 -0.00000000000E+00 -0.00000000000E+00 -0.36740261881E+03  0.36740261881E+03  0.00000000000E+00 0. -1.
         36    2    1    2    0    0  0.00000000000E+00  0.00000000000E+00 -0.31606000253E+03  0.41874523508E+03  0.27468827188E+03 0.  0.
         25    2    3    3    0    0  0.33458324060E+01 -0.22951368265E+02 -0.10550676972E+03  0.16555196784E+03  0.12545045118E+03 0.  0.
         25    2    3    3    0    0 -0.33458324060E+01  0.22951368265E+02 -0.21055323281E+03  0.25319326724E+03  0.13869465320E+03 0.  0.
          5    1    4    4  502    0 -0.43971089788E+02 -0.59556785733E+01 -0.10604818266E+03  0.11505317853E+03  0.47000000000E+01 0.  1.
         -5    1    4    4    0  502  0.47316922194E+02 -0.16995689692E+02  0.54141294572E+00  0.50498789312E+02  0.47000000000E+01 0.  1.
          5    1    5    5  503    0  0.36169594773E+02 -0.21659772184E+02 -0.95408544796E+01  0.43479917448E+02  0.47000000000E+01 0.  1.
         -5    1    5    5    0  503 -0.39515427179E+02  0.44611140449E+02 -0.20101237833E+03  0.20971334979E+03  0.47000000000E+01 0.  1.
<mgrwt>
<rscale>  0 0.27468827E+03</rscale>
<asrwt>0</asrwt>
<pdfrwt beam="1">  1        2 0.78988642E-02 0.27468827E+03</pdfrwt>
<pdfrwt beam="2">  1       -2 0.56523479E-01 0.27468827E+03</pdfrwt>
<totfact> 0.25786268E+03</totfact>
</mgrwt>
</event>
<event>
 9    1  0.2117506E-002  0.2774216E+03  0.7818608E-02  0.1097106E+00
          2   -1    0    0  501    0  0.00000000000E+00  0.00000000000E+00  0.30159097440E+04  0.30159097440E+04  0.00000000000E+00 0.  1.
         -2   -1    0    0    0  501 -0.00000000000E+00 -0.00000000000E+00 -0.63797265978E+01  0.63797265978E+01  0.00000000000E+00 0.  1.
         36    2    1    2    0    0  0.00000000000E+00  0.26645352591E-14  0.30095300174E+04  0.30222894706E+04  0.27742155367E+03 0.  0.
         25    2    3    3    0    0  0.47776921923E+02 -0.67799112353E+01  0.11106032533E+04  0.11191609485E+04  0.12943353867E+03 0.  0.
         25    2    3    3    0    0 -0.47776921923E+02  0.67799112353E+01  0.18989267641E+04  0.19031285221E+04  0.11681915404E+03 0.  0.
          5    1    4    4  502    0  0.22123852870E+01 -0.31041242315E+02  0.94742722003E+03  0.94794983023E+03  0.47000000000E+01 0.  1.
         -5    1    4    4    0  502  0.45564536636E+02  0.24261331079E+02  0.16317603324E+03  0.17121111823E+03  0.47000000000E+01 0.  1.
          5    1    5    5  503    0  0.26909808096E+02  0.12686408784E+02  0.11615785478E+04  0.11619689735E+04  0.47000000000E+01 0.  1.
         -5    1    5    5    0  503 -0.74686730018E+02 -0.59064975485E+01  0.73734821631E+03  0.74115954858E+03  0.47000000000E+01 0.  1.
<mgrwt>
<rscale>  0 0.27742155E+03</rscale>
<asrwt>0</asrwt>
<pdfrwt beam="1">  1        2 0.46398498E+00 0.27742155E+03</pdfrwt>
<pdfrwt beam="2">  1       -2 0.98149881E-03 0.27742155E+03</pdfrwt>
<totfact> 0.44656404E+03</totfact>
</mgrwt>
</event>
<event>
 9    1  0.2117506E-002  0.2751867E+03  0.7818608E-02  0.1098347E+00
          3   -1    0    0  501    0  0.00000000000E+00  0.00000000000E+00  0.49053307224E+02  0.49053307224E+02  0.00000000000E+00 0. -1.
         -3   -1    0    0    0  501 -0.00000000000E+00 -0.00000000000E+00 -0.38594594966E+03  0.38594594966E+03  0.00000000000E+00 0. -1.
         36    2    1    2    0    0  0.00000000000E+00  0.00000000000E+00 -0.33689264244E+03  0.43499925688E+03  0.27518666567E+03 0.  0.
         25    2    3    3    0    0 -0.43433452072E+02 -0.33544109358E+02 -0.16600629521E+03  0.21545443777E+03  0.12590016948E+03 0.  0.
         25    2    3    3    0    0  0.43433452072E+02  0.33544109358E+02 -0.17088634723E+03  0.21954481911E+03  0.12643619695E+03 0.  0.
          5    1    4    4  502    0 -0.68109443580E+02  0.87409418995E+01 -0.14774408642E+03  0.16298989368E+03  0.47000000000E+01 0. -1.
         -5    1    4    4    0  502  0.24675991508E+02 -0.42285051258E+02 -0.18262208787E+02  0.52464544089E+02  0.47000000000E+01 0. -1.
          5    1    5    5  503    0  0.40624933367E+02 -0.29788855291E+02 -0.14001507645E+03  0.14887603146E+03  0.47000000000E+01 0. -1.
         -5    1    5    5    0  503  0.28085187053E+01  0.63332964649E+02 -0.30871270778E+02  0.70668787651E+02  0.47000000000E+01 0. -1.
<mgrwt>
<rscale>  0 0.27518667E+03</rscale>
<asrwt>0</asrwt>
<pdfrwt beam="1">  1        3 0.75466626E-02 0.27518667E+03</pdfrwt>
<pdfrwt beam="2">  1       -3 0.59376300E-01 0.27518667E+03</pdfrwt>
<totfact> 0.83902669E+02</totfact>
</mgrwt>
</event>
<event>
 9    1  0.2117506E-002  0.2753507E+03  0.7818608E-02  0.1098256E+00
          2   -1    0    0  501    0  0.00000000000E+00  0.00000000000E+00  0.26121307512E+03  0.26121307512E+03  0.00000000000E+00 0.  1.
         -2   -1    0    0    0  501 -0.00000000000E+00 -0.00000000000E+00 -0.72563358278E+02  0.72563358278E+02  0.00000000000E+00 0.  1.
         36    2    1    2    0    0  0.00000000000E+00 -0.17763568394E-14  0.18864971685E+03  0.33377643340E+03  0.27535067065E+03 0.  0.
         25    2    3    3    0    0  0.22061060370E+02 -0.43662207356E+00  0.31535589199E+02  0.13100079880E+03  0.12521914740E+03 0.  0.
         25    2    3    3    0    0 -0.22061060370E+02  0.43662207356E+00  0.15711412765E+03  0.20277563460E+03  0.12627837447E+03 0.  0.
          5    1    4    4  502    0  0.61118505879E+01  0.30112152143E+02 -0.40473370174E+02  0.51032147883E+02  0.47000000000E+01 0. -1.
         -5    1    4    4    0  502  0.15949209782E+02 -0.30548774217E+02  0.72008959374E+02  0.79968650913E+02  0.47000000000E+01 0. -1.
          5    1    5    5  503    0 -0.57491628344E+02 -0.12423571207E+02  0.22906626628E+02  0.63296413759E+02  0.47000000000E+01 0. -1.
         -5    1    5    5    0  503  0.35430567975E+02  0.12860193281E+02  0.13420750102E+03  0.13947922085E+03  0.47000000000E+01 0. -1.
<mgrwt>
<rscale>  0 0.27535067E+03</rscale>
<asrwt>0</asrwt>
<pdfrwt beam="1">  1        2 0.40186627E-01 0.27535067E+03</pdfrwt>
<pdfrwt beam="2">  1       -2 0.11163594E-01 0.27535067E+03</pdfrwt>
<totfact> 0.70136491E+03</totfact>
</mgrwt>
</event>
<event>
 9    1  0.2117506E-002  0.2775798E+03  0.7818608E-02  0.1097018E+00
         -1   -1    0    0    0  501 -0.00000000000E+00  0.00000000000E+00  0.95540694716E+02  0.95540694716E+02  0.00000000000E+00 0.  1.
          1   -1    0    0  501    0  0.00000000000E+00 -0.00000000000E+00 -0.20161704107E+03  0.20161704107E+03  0.00000000000E+00 0.  1.
         36    2    1    2    0    0 -0.17763568394E-14  0.00000000000E+00 -0.10607634636E+03  0.29715773579E+03  0.27757976994E+03 0.  0.
         25    2    3    3    0    0  0.12125980073E+02  0.21755087672E+02 -0.23982295697E+02  0.14709848058E+03  0.14297723332E+03 0.  0.
         25    2    3    3    0    0 -0.12125980073E+02 -0.21755087672E+02 -0.82094050659E+02  0.15005925521E+03  0.12311792594E+03 0.  0.
          5    1    4    4  502    0  0.48523408632E+02 -0.45386759238E+02 -0.23340089838E+02  0.70578529973E+02  0.47000000000E+01 0. -1.
         -5    1    4    4    0  502 -0.36397428559E+02  0.67141846910E+02 -0.64220585820E+00  0.76519950605E+02  0.47000000000E+01 0. -1.
          5    1    5    5  503    0  0.12896143297E+02  0.17764464820E+01  0.29832334367E+02  0.32886539007E+02  0.47000000000E+01 0. -1.
         -5    1    5    5    0  503 -0.25022123370E+02 -0.23531534154E+02 -0.11192638503E+03  0.11717271620E+03  0.47000000000E+01 0. -1.
<mgrwt>
<rscale>  0 0.27757977E+03</rscale>
<asrwt>0</asrwt>
<pdfrwt beam="1">  1        1 0.31018006E-01 0.27757977E+03</pdfrwt>
<pdfrwt beam="2">  1       -1 0.14698569E-01 0.27757977E+03</pdfrwt>
<totfact> 0.47894266E+03</totfact>
</mgrwt>
</event>
<event>
 9    1  0.2117506E-002  0.2755028E+03  0.7818608E-02  0.1098171E+00
          1   -1    0    0  501    0  0.00000000000E+00  0.00000000000E+00  0.18816079401E+02  0.18816079401E+02  0.00000000000E+00 0. -1.
         -1   -1    0    0    0  501 -0.00000000000E+00 -0.00000000000E+00 -0.10084699293E+04  0.10084699293E+04  0.00000000000E+00 0. -1.
         36    2    1    2    0    0  0.71054273576E-14 -0.10658141036E-13 -0.98965384986E+03  0.10272860087E+04  0.27550281496E+03 0.  0.
         25    2    3    3    0    0 -0.48807063503E+02  0.22665534168E+02 -0.60126999907E+03  0.61624342934E+03  0.12383253428E+03 0.  0.
         25    2    3    3    0    0  0.48807063503E+02 -0.22665534168E+02 -0.38838385080E+03  0.41104257932E+03  0.12336178731E+03 0.  0.
          5    1    4    4  502    0 -0.51188551257E+02  0.53864941015E+02 -0.19481265673E+03  0.20855637337E+03  0.47000000000E+01 0. -1.
         -5    1    4    4    0  502  0.23814877546E+01 -0.31199406847E+02 -0.40645734233E+03  0.40768705597E+03  0.47000000000E+01 0. -1.
          5    1    5    5  503    0  0.54532173425E+02 -0.67422449989E+02 -0.21637312608E+03  0.23315008984E+03  0.47000000000E+01 0. -1.
         -5    1    5    5    0  503 -0.57251099225E+01  0.44756915820E+02 -0.17201072471E+03  0.17789248948E+03  0.47000000000E+01 0. -1.
<mgrwt>
<rscale>  0 0.27550281E+03</rscale>
<asrwt>0</asrwt>
<pdfrwt beam="1">  1        1 0.28947819E-02 0.27550281E+03</pdfrwt>
<pdfrwt beam="2">  1       -1 0.15514919E+00 0.27550281E+03</pdfrwt>
<totfact> 0.12389629E+03</totfact>
</mgrwt>
</event>
<event>
 9    1  0.2117506E-002  0.2745591E+03  0.7818608E-02  0.1098698E+00
          1   -1    0    0  501    0  0.00000000000E+00  0.00000000000E+00  0.80228617285E+03  0.80228617285E+03  0.00000000000E+00 0. -1.
         -1   -1    0    0    0  501 -0.00000000000E+00 -0.00000000000E+00 -0.23489958656E+02  0.23489958656E+02  0.00000000000E+00 0. -1.
         36    2    1    2    0    0 -0.17763568394E-14 -0.26645352591E-14  0.77879621419E+03  0.82577613150E+03  0.27455905762E+03 0.  0.
         25    2    3    3    0    0  0.55146713236E+01 -0.45566663207E+01  0.57946934896E+03  0.59072598180E+03  0.11454817494E+03 0.  0.
         25    2    3    3    0    0 -0.55146713236E+01  0.45566663207E+01  0.19932686522E+03  0.23505014970E+03  0.12436317326E+03 0.  0.
          5    1    4    4  502    0 -0.53692026831E+02 -0.34517203544E+01  0.23098498513E+03  0.23721488460E+03  0.47000000000E+01 0.  1.
         -5    1    4    4    0  502  0.59206698154E+02 -0.11049459663E+01  0.34848436384E+03  0.35351109721E+03  0.47000000000E+01 0.  1.
          5    1    5    5  503    0  0.18604786009E+01 -0.46991757101E+02  0.25860249962E+02  0.53875125467E+02  0.47000000000E+01 0.  1.
         -5    1    5    5    0  503 -0.73751499245E+01  0.51548423422E+02  0.17346661526E+03  0.18117502423E+03  0.47000000000E+01 0.  1.
<mgrwt>
<rscale>  0 0.27455906E+03</rscale>
<asrwt>0</asrwt>
<pdfrwt beam="1">  1        1 0.12342862E+00 0.27455906E+03</pdfrwt>
<pdfrwt beam="2">  1       -1 0.36138404E-02 0.27455906E+03</pdfrwt>
<totfact> 0.65506329E+03</totfact>
</mgrwt>
</event>
<event>
 9    1  0.2117506E-002  0.2744515E+03  0.7818608E-02  0.1098759E+00
         -2   -1    0    0    0  501 -0.00000000000E+00  0.00000000000E+00  0.17293018349E+02  0.17293018349E+02  0.00000000000E+00 0.  1.
          2   -1    0    0  501    0  0.00000000000E+00 -0.00000000000E+00 -0.10889312711E+04  0.10889312711E+04  0.00000000000E+00 0.  1.
         36    2    1    2    0    0  0.00000000000E+00 -0.71054273576E-14 -0.10716382527E+04  0.11062242894E+04  0.27445151449E+03 0.  0.
         25    2    3    3    0    0 -0.42363198183E+02  0.11866445882E+02 -0.72608607909E+03  0.73827380998E+03  0.12614186914E+03 0.  0.
         25    2    3    3    0    0  0.42363198183E+02 -0.11866445882E+02 -0.34555217361E+03  0.36795047942E+03  0.11851496750E+03 0.  0.
          5    1    4    4  502    0 -0.22984255231E+02 -0.48461075630E+02 -0.16408773526E+03  0.17269518436E+03  0.47000000000E+01 0.  1.
         -5    1    4    4    0  502 -0.19378942952E+02  0.60327521512E+02 -0.56199834384E+03  0.56557862562E+03  0.47000000000E+01 0.  1.
          5    1    5    5  503    0 -0.15804403613E+02 -0.37619045418E+02 -0.24811127065E+03  0.25148809987E+03  0.47000000000E+01 0. -1.
         -5    1    5    5    0  503  0.58167601796E+02  0.25752599536E+02 -0.97440902958E+02  0.11646237955E+03  0.47000000000E+01 0. -1.
<mgrwt>
<rscale>  0 0.27445151E+03</rscale>
<asrwt>0</asrwt>
<pdfrwt beam="1">  1        2 0.16752791E+00 0.27445151E+03</pdfrwt>
<pdfrwt beam="2">  1       -2 0.26604640E-02 0.27445151E+03</pdfrwt>
<totfact> 0.11726921E+04</totfact>
</mgrwt>
</event>
<event>
 9    1  0.2117506E-002  0.2749085E+03  0.7818608E-02  0.1098503E+00
          2   -1    0    0  501    0  0.00000000000E+00  0.00000000000E+00  0.26392140704E+04  0.26392140704E+04  0.00000000000E+00 0. -1.
         -2   -1    0    0    0  501 -0.00000000000E+00 -0.00000000000E+00 -0.71588260501E+01  0.71588260501E+01  0.00000000000E+00 0. -1.
         36    2    1    2    0    0  0.00000000000E+00 -0.14210854715E-13  0.26320552443E+04  0.26463728964E+04  0.27490852616E+03 0.  0.
         25    2    3    3    0    0  0.21442705618E+01  0.51873886070E+02  0.10690241068E+04  0.10774259541E+04  0.12384929460E+03 0.  0.
         25    2    3    3    0    0 -0.21442705618E+01 -0.51873886070E+02  0.15630311376E+04  0.15689469423E+04  0.12582794958E+03 0.  0.
          5    1    4    4  502    0 -0.47736205214E+02  0.50370658279E+02  0.84523831867E+03  0.84809542733E+03  0.47000000000E+01 0. -1.
         -5    1    4    4    0  502  0.49880475776E+02  0.15032277910E+01  0.22378578812E+03  0.22933052680E+03  0.47000000000E+01 0. -1.
          5    1    5    5  503    0 -0.59375011096E+02 -0.49255653741E+02  0.78522630247E+03  0.78902087898E+03  0.47000000000E+01 0.  1.
         -5    1    5    5    0  503  0.57230740534E+02 -0.26182323290E+01  0.77780483508E+03  0.77992606334E+03  0.47000000000E+01 0.  1.
<mgrwt>
<rscale>  0 0.27490853E+03</rscale>
<asrwt>0</asrwt>
<pdfrwt beam="1">  1        2 0.40603216E+00 0.27490853E+03</pdfrwt>
<pdfrwt beam="2">  1       -2 0.11013600E-02 0.27490853E+03</pdfrwt>
<totfact> 0.62227003E+03</totfact>
</mgrwt>
</event>
<event>
 9    1  0.2117506E-002  0.2745133E+03  0.7818608E-02  0.1098724E+00
         -2   -1    0    0    0  501 -0.00000000000E+00  0.00000000000E+00  0.73451577188E+02  0.73451577188E+02  0.00000000000E+00 0.  1.
          2   -1    0    0  501    0  0.00000000000E+00 -0.00000000000E+00 -0.25648711783E+03  0.25648711783E+03  0.00000000000E+00 0.  1.
         36    2    1    2    0    0 -0.71054273576E-14  0.00000000000E+00 -0.18303554064E+03  0.32993869501E+03  0.27451326622E+03 0.  0.
         25    2    3    3    0    0  0.40810885663E+02 -0.21462820941E+01 -0.14935179383E+03  0.19412585085E+03  0.11708438295E+03 0.  0.
         25    2    3    3    0    0 -0.40810885663E+02  0.21462820941E+01 -0.33683746803E+02  0.13581284416E+03  0.12506158053E+03 0.  0.
          5    1    4    4  502    0 -0.27671105297E+02  0.98880393049E+01 -0.11029216202E+03  0.11423622189E+03  0.47000000000E+01 0.  1.
         -5    1    4    4    0  502  0.68481990959E+02 -0.12034321399E+02 -0.39059631815E+02  0.79889628956E+02  0.47000000000E+01 0.  1.
          5    1    5    5  503    0 -0.41361944641E+00  0.58272570384E+02 -0.31627847565E+02  0.66470100660E+02  0.47000000000E+01 0. -1.
         -5    1    5    5    0  503 -0.40397266216E+02 -0.56126288290E+02 -0.20558992380E+01  0.69342743503E+02  0.47000000000E+01 0. -1.
<mgrwt>
<rscale>  0 0.27451327E+03</rscale>
<asrwt>0</asrwt>
<pdfrwt beam="1">  1        2 0.39459557E-01 0.27451327E+03</pdfrwt>
<pdfrwt beam="2">  1       -2 0.11300242E-01 0.27451327E+03</pdfrwt>
<totfact> 0.70138910E+03</totfact>
</mgrwt>
</event>
<event>
 9    1  0.2117506E-002  0.2780932E+03  0.7818608E-02  0.1096735E+00
         -2   -1    0    0    0  501 -0.00000000000E+00  0.00000000000E+00  0.85134945555E+01  0.85134945555E+01  0.00000000000E+00 0. -1.
          2   -1    0    0  501    0  0.00000000000E+00 -0.00000000000E+00 -0.22709772960E+04  0.22709772960E+04  0.00000000000E+00 0. -1.
         36    2    1    2    0    0  0.71054273576E-14  0.71054273576E-14 -0.22624638015E+04  0.22794907906E+04  0.27809317033E+03 0.  0.
         25    2    3    3    0    0  0.35899905905E+02  0.33811447662E+02 -0.15397488999E+04  0.15454634222E+04  0.12328218496E+03 0.  0.
         25    2    3    3    0    0 -0.35899905905E+02 -0.33811447662E+02 -0.72271490156E+03  0.73402736845E+03  0.11852143883E+03 0.  0.
          5    1    4    4  502    0  0.53987453618E+02 -0.32104616980E+02 -0.63126854942E+03  0.63440320228E+03  0.47000000000E+01 0. -1.
         -5    1    4    4    0  502 -0.18087547713E+02  0.65916064643E+02 -0.90848035052E+03  0.91106021987E+03  0.47000000000E+01 0. -1.
          5    1    5    5  503    0 -0.56311092572E+02  0.21646639294E+02 -0.49649930037E+03  0.50017313143E+03  0.47000000000E+01 0. -1.
         -5    1    5    5    0  503  0.20411186667E+02 -0.55458086956E+02 -0.22621560119E+03  0.23385423702E+03  0.47000000000E+01 0. -1.
<mgrwt>
<rscale>  0 0.27809317E+03</rscale>
<asrwt>0</asrwt>
<pdfrwt beam="1">  1        2 0.34938127E+00 0.27809317E+03</pdfrwt>
<pdfrwt beam="2">  1       -2 0.13097678E-02 0.27809317E+03</pdfrwt>
<totfact> 0.76778295E+03</totfact>
</mgrwt>
</event>
<event>
 9    1  0.2117506E-002  0.2743435E+03  0.7818608E-02  0.1098819E+00
         -1   -1    0    0    0  501 -0.00000000000E+00  0.00000000000E+00  0.29685643488E+02  0.29685643488E+02  0.00000000000E+00 0.  1.
          1   -1    0    0  501    0  0.00000000000E+00 -0.00000000000E+00 -0.63384465737E+03  0.63384465737E+03  0.00000000000E+00 0.  1.
         36    2    1    2    0    0 -0.21316282073E-13 -0.35527136788E-14 -0.60415901388E+03  0.66353030085E+03  0.27434348197E+03 0.  0.
         25    2    3    3    0    0  0.50019884795E+02  0.12887280690E+02 -0.23620140496E+03  0.27210188235E+03  0.12482091088E+03 0.  0.
         25    2    3    3    0    0 -0.50019884795E+02 -0.12887280690E+02 -0.36795760892E+03  0.39142841851E+03  0.12310700215E+03 0.  0.
          5    1    4    4  502    0 -0.39355212175E+01  0.15813971714E+02 -0.21205315306E+03  0.21273034516E+03  0.47000000000E+01 0.  1.
         -5    1    4    4    0  502  0.53955406012E+02 -0.29266910241E+01 -0.24148251905E+02  0.59371537191E+02  0.47000000000E+01 0.  1.
          5    1    5    5  503    0  0.92513929299E+01  0.47532936409E+02 -0.12759800108E+03  0.13655880855E+03  0.47000000000E+01 0. -1.
         -5    1    5    5    0  503 -0.59271277725E+02 -0.60420217099E+02 -0.24035960784E+03  0.25486960995E+03  0.47000000000E+01 0. -1.
<mgrwt>
<rscale>  0 0.27434348E+03</rscale>
<asrwt>0</asrwt>
<pdfrwt beam="1">  1        1 0.97514559E-01 0.27434348E+03</pdfrwt>
<pdfrwt beam="2">  1       -1 0.45670222E-02 0.27434348E+03</pdfrwt>
<totfact> 0.65408943E+03</totfact>
</mgrwt>
</event>
<event>
 9    1  0.2117506E-002  0.2734811E+03  0.7818608E-02  0.1099304E+00
         -2   -1    0    0    0  501 -0.00000000000E+00  0.00000000000E+00  0.25117968716E+02  0.25117968716E+02  0.00000000000E+00 0.  1.
          2   -1    0    0  501    0  0.00000000000E+00 -0.00000000000E+00 -0.74440624544E+03  0.74440624544E+03  0.00000000000E+00 0.  1.
         36    2    1    2    0    0  0.14210854715E-13 -0.35527136788E-14 -0.71928827673E+03  0.76952421416E+03  0.27348106176E+03 0.  0.
         25    2    3    3    0    0 -0.72882743825E+02  0.30707480995E+02 -0.27818325016E+03  0.31486103166E+03  0.12448576163E+03 0.  0.
         25    2    3    3    0    0  0.72882743825E+02 -0.30707480995E+02 -0.44110502656E+03  0.45466318250E+03  0.76747125855E+02 0.  0.
          5    1    4    4  502    0 -0.42733414399E+02  0.26827088940E+01 -0.10962699875E+02  0.44447861836E+02  0.47000000000E+01 0.  1.
         -5    1    4    4    0  502 -0.30149329426E+02  0.28024772101E+02 -0.26722055029E+03  0.27041316982E+03  0.47000000000E+01 0.  1.
          5    1    5    5  503    0  0.16191213027E+02 -0.76444125827E+01 -0.30259683901E+03  0.30316254618E+03  0.47000000000E+01 0.  1.
         -5    1    5    5    0  503  0.56691530798E+02 -0.23063068413E+02 -0.13850818755E+03  0.15150063632E+03  0.47000000000E+01 0.  1.
<mgrwt>
<rscale>  0 0.27348106E+03</rscale>
<asrwt>0</asrwt>
<pdfrwt beam="1">  1        2 0.11452405E+00 0.27348106E+03</pdfrwt>
<pdfrwt beam="2">  1       -2 0.38643023E-02 0.27348106E+03</pdfrwt>
<totfact> 0.11208627E+04</totfact>
</mgrwt>
</event>
<event>
 9    1  0.2117506E-002  0.2749725E+03  0.7818608E-02  0.1098467E+00
          1   -1    0    0  501    0  0.00000000000E+00  0.00000000000E+00  0.39808178879E+03  0.39808178879E+03  0.00000000000E+00 0. -1.
         -1   -1    0    0    0  501 -0.00000000000E+00 -0.00000000000E+00 -0.47483878218E+02  0.47483878218E+02  0.00000000000E+00 0. -1.
         36    2    1    2    0    0 -0.35527136788E-14  0.00000000000E+00  0.35059791057E+03  0.44556566701E+03  0.27497248720E+03 0.  0.
         25    2    3    3    0    0 -0.26371283708E+02 -0.32347592965E+02  0.23315224624E+03  0.26663055198E+03  0.12243394116E+03 0.  0.
         25    2    3    3    0    0  0.26371283708E+02  0.32347592965E+02  0.11744566433E+03  0.17893511503E+03  0.12838411095E+03 0.  0.
          5    1    4    4  502    0 -0.61750870788E+01  0.42762615531E+02  0.13184405313E+03  0.13882261103E+03  0.47000000000E+01 0. -1.
         -5    1    4    4    0  502 -0.20196196629E+02 -0.75110208496E+02  0.10130819311E+03  0.12780794095E+03  0.47000000000E+01 0. -1.
          5    1    5    5  503    0  0.58162387969E+02  0.56037443620E+02  0.36656286573E+02  0.88819095959E+02  0.47000000000E+01 0. -1.
         -5    1    5    5    0  503 -0.31791104261E+02 -0.23689850655E+02  0.80789377757E+02  0.90116019067E+02  0.47000000000E+01 0. -1.
<mgrwt>
<rscale>  0 0.27497249E+03</rscale>
<asrwt>0</asrwt>
<pdfrwt beam="1">  1        1 0.61243350E-01 0.27497249E+03</pdfrwt>
<pdfrwt beam="2">  1       -1 0.73052123E-02 0.27497249E+03</pdfrwt>
<totfact> 0.59998508E+03</totfact>
</mgrwt>
</event>
<event>
 9    1  0.2117506E-002  0.2687389E+03  0.7818608E-02  0.1102004E+00
          2   -1    0    0  501    0  0.00000000000E+00  0.00000000000E+00  0.46116446843E+03  0.46116446843E+03  0.00000000000E+00 0.  1.
         -2   -1    0    0    0  501 -0.00000000000E+00 -0.00000000000E+00 -0.39151201206E+02  0.39151201206E+02  0.00000000000E+00 0.  1.
         36    2    1    2    0    0  0.71054273576E-14  0.00000000000E+00  0.42201326723E+03  0.50031566964E+03  0.26873885385E+03 0.  0.
         25    2    3    3    0    0 -0.22992462871E+01 -0.18627292763E+02  0.12546923823E+03  0.17807605882E+03  0.12496515679E+03 0.  0.
         25    2    3    3    0    0  0.22992462871E+01  0.18627292763E+02  0.29654402899E+03  0.32223961082E+03  0.12469058939E+03 0.  0.
          5    1    4    4  502    0 -0.40060777601E+02 -0.57844977697E+02  0.82697599053E+02  0.10868252038E+03  0.47000000000E+01 0.  1.
         -5    1    4    4    0  502  0.37761531314E+02  0.39217684933E+02  0.42771639181E+02  0.69393538438E+02  0.47000000000E+01 0.  1.
          5    1    5    5  503    0 -0.52715076799E+02 -0.20362623545E+02  0.10866115806E+03  0.12256774874E+03  0.47000000000E+01 0.  1.
         -5    1    5    5    0  503  0.55014323087E+02  0.38989916308E+02  0.18788287093E+03  0.19967186209E+03  0.47000000000E+01 0.  1.
<mgrwt>
<rscale>  0 0.26873885E+03</rscale>
<asrwt>0</asrwt>
<pdfrwt beam="1">  1        2 0.70948376E-01 0.26873885E+03</pdfrwt>
<pdfrwt beam="2">  1       -2 0.60232621E-02 0.26873885E+03</pdfrwt>
<totfact> 0.99561056E+03</totfact>
</mgrwt>
</event>
<event>
 9    1  0.2117506E-002  0.2735162E+03  0.7818608E-02  0.1099284E+00
         -2   -1    0    0    0  501 -0.00000000000E+00  0.00000000000E+00  0.10189162498E+03  0.10189162498E+03  0.00000000000E+00 0. -1.
          2   -1    0    0  501    0  0.00000000000E+00 -0.00000000000E+00 -0.18355561213E+03  0.18355561213E+03  0.00000000000E+00 0. -1.
         36    2    1    2    0    0  0.17763568394E-14  0.00000000000E+00 -0.81663987142E+02  0.28544723711E+03  0.27351621228E+03 0.  0.
         25    2    3    3    0    0 -0.12153069718E+02  0.47242019825E+02 -0.99079961379E+01  0.13663571559E+03  0.12724639424E+03 0.  0.
         25    2    3    3    0    0  0.12153069718E+02 -0.47242019825E+02 -0.71755991004E+02  0.14881152152E+03  0.12089847457E+03 0.  0.
          5    1    4    4  502    0 -0.11918058258E+02  0.85290503575E+02  0.19370843292E+02  0.88395869149E+02  0.47000000000E+01 0.  1.
         -5    1    4    4    0  502 -0.23501145942E+00 -0.38048483750E+02 -0.29278839430E+02  0.48239846439E+02  0.47000000000E+01 0.  1.
          5    1    5    5  503    0 -0.15775269311E+02 -0.67983490992E+02 -0.86063586146E+02  0.11090376472E+03  0.47000000000E+01 0. -1.
         -5    1    5    5    0  503  0.27928339028E+02  0.20741471166E+02  0.14307595142E+02  0.37907756802E+02  0.47000000000E+01 0. -1.
<mgrwt>
<rscale>  0 0.27351621E+03</rscale>
<asrwt>0</asrwt>
<pdfrwt beam="1">  1        2 0.28239325E-01 0.27351621E+03</pdfrwt>
<pdfrwt beam="2">  1       -2 0.15675635E-01 0.27351621E+03</pdfrwt>
<totfact> 0.59195949E+03</totfact>
</mgrwt>
</event>
<event>
 9    1  0.2117506E-002  0.2694389E+03  0.7818608E-02  0.1101601E+00
         -2   -1    0    0    0  501 -0.00000000000E+00  0.00000000000E+00  0.15543656086E+02  0.15543656086E+02  0.00000000000E+00 0.  1.
          2   -1    0    0  501    0  0.00000000000E+00 -0.00000000000E+00 -0.11676355212E+04  0.11676355212E+04  0.00000000000E+00 0.  1.
         36    2    1    2    0    0  0.10658141036E-13  0.00000000000E+00 -0.11520918651E+04  0.11831791773E+04  0.26943886116E+03 0.  0.
         25    2    3    3    0    0 -0.90352721056E+01 -0.29633908199E+01 -0.77484184559E+03  0.78511173941E+03  0.12621465782E+03 0.  0.
         25    2    3    3    0    0  0.90352721056E+01  0.29633908199E+01 -0.37725001950E+03  0.39806743786E+03  0.12668737128E+03 0.  0.
          5    1    4    4  502    0  0.93110556433E+01 -0.10777209806E+02 -0.75916851833E+03  0.75931664886E+03  0.47000000000E+01 0.  1.
         -5    1    4    4    0  502 -0.18346327749E+02  0.78138189862E+01 -0.15673327260E+02  0.25795090549E+02  0.47000000000E+01 0.  1.
          5    1    5    5  503    0 -0.55358253315E+02 -0.15220048260E+02 -0.13672223550E+03  0.14836187435E+03  0.47000000000E+01 0. -1.
         -5    1    5    5    0  503  0.64393525421E+02  0.18183439080E+02 -0.24052778400E+03  0.24970556351E+03  0.47000000000E+01 0. -1.
<mgrwt>
<rscale>  0 0.26943886E+03</rscale>
<asrwt>0</asrwt>
<pdfrwt beam="1">  1        2 0.17963625E+00 0.26943886E+03</pdfrwt>
<pdfrwt beam="2">  1       -2 0.23913315E-02 0.26943886E+03</pdfrwt>
<totfact> 0.12351978E+04</totfact>
</mgrwt>
</event>
<event>
 9    1  0.2117506E-002  0.2755796E+03  0.7818608E-02  0.1098128E+00
         -1   -1    0    0    0  501 -0.00000000000E+00  0.00000000000E+00  0.12972455918E+02  0.12972455918E+02  0.00000000000E+00 0. -1.
          1   -1    0    0  501    0  0.00000000000E+00 -0.00000000000E+00 -0.14635651676E+04  0.14635651676E+04  0.00000000000E+00 0. -1.
         36    2    1    2    0    0  0.71054273576E-14 -0.35527136788E-14 -0.14505927117E+04  0.14765376235E+04  0.27557964090E+03 0.  0.
         25    2    3    3    0    0 -0.36881259691E+02  0.17194978421E+02 -0.97898976487E+03  0.98744365972E+03  0.12234429617E+03 0.  0.
         25    2    3    3    0    0  0.36881259691E+02 -0.17194978421E+02 -0.47160294684E+03  0.48909396382E+03  0.12307587652E+03 0.  0.
          5    1    4    4  502    0  0.16597766681E+02 -0.29508013664E+02 -0.10205604560E+03  0.10762776209E+03  0.47000000000E+01 0.  1.
         -5    1    4    4    0  502 -0.53479026372E+02  0.46702992084E+02 -0.87693371927E+03  0.87981589763E+03  0.47000000000E+01 0.  1.
          5    1    5    5  503    0 -0.45598764343E+01 -0.11601136898E+01  0.62678896080E+01  0.91386419673E+01  0.47000000000E+01 0. -1.
         -5    1    5    5    0  503  0.41441136125E+02 -0.16034864731E+02 -0.47787083645E+03  0.47995532185E+03  0.47000000000E+01 0. -1.
<mgrwt>
<rscale>  0 0.27557964E+03</rscale>
<asrwt>0</asrwt>
<pdfrwt beam="1">  1        1 0.22516392E+00 0.27557964E+03</pdfrwt>
<pdfrwt beam="2">  1       -1 0.19957620E-02 0.27557964E+03</pdfrwt>
<totfact> 0.52049226E+03</totfact>
</mgrwt>
</event>
<event>
 9    1  0.2117506E-002  0.2759390E+03  0.7818608E-02  0.1097928E+00
          2   -1    0    0  501    0  0.00000000000E+00  0.00000000000E+00  0.10547399107E+03  0.10547399107E+03  0.00000000000E+00 0. -1.
         -2   -1    0    0    0  501 -0.00000000000E+00 -0.00000000000E+00 -0.18047650003E+03  0.18047650003E+03  0.00000000000E+00 0. -1.
         36    2    1    2    0    0  0.00000000000E+00  0.00000000000E+00 -0.75002508957E+02  0.28595049110E+03  0.27593895523E+03 0.  0.
         25    2    3    3    0    0 -0.33802048477E+02  0.62298332301E+02 -0.84638534500E+02  0.16399913984E+03  0.12127809223E+03 0.  0.
         25    2    3    3    0    0  0.33802048477E+02 -0.62298332301E+02  0.96360255424E+01  0.12195135127E+03  0.98770534064E+02 0.  0.
          5    1    4    4  502    0 -0.73448371610E+02  0.32172263385E+02 -0.20933111057E+02  0.83006041720E+02  0.47000000000E+01 0. -1.
         -5    1    4    4    0  502  0.39646323133E+02  0.30126068915E+02 -0.63705423443E+02  0.80993098115E+02  0.47000000000E+01 0. -1.
          5    1    5    5  503    0  0.44591230115E+02 -0.37098991006E+02  0.47395941615E+02  0.75054501653E+02  0.47000000000E+01 0. -1.
         -5    1    5    5    0  503 -0.10789181638E+02 -0.25199341294E+02 -0.37759916072E+02  0.46896849616E+02  0.47000000000E+01 0. -1.
<mgrwt>
<rscale>  0 0.27593896E+03</rscale>
<asrwt>0</asrwt>
<pdfrwt beam="1">  1        2 0.16226768E-01 0.27593896E+03</pdfrwt>
<pdfrwt beam="2">  1       -2 0.27765616E-01 0.27593896E+03</pdfrwt>
<totfact> 0.41544114E+03</totfact>
</mgrwt>
</event>
<event>
 8    1  0.2117506E-002  0.3013070E+03  0.7818608E-02  0.1084589E+00
         -2   -1    0    0    0  501 -0.00000000000E+00  0.00000000000E+00  0.12233473614E+02  0.12233473614E+02  0.00000000000E+00 0.  1.
          2   -1    0    0  501    0  0.00000000000E+00 -0.00000000000E+00 -0.18552770518E+04  0.18552770518E+04  0.00000000000E+00 0.  1.
         25    2    1    2    0    0  0.31496316079E+02 -0.70173287347E+02 -0.11071697676E+04  0.11166057282E+04  0.12274831892E+03 0.  0.
         25    2    1    2    0    0 -0.31496316079E+02  0.70173287347E+02 -0.73587381065E+03  0.75090479727E+03  0.12818518314E+03 0.  0.
          5    1    3    3  502    0 -0.46138211265E+02 -0.23384007329E+02 -0.49977717817E+03  0.50246876933E+03  0.47000000000E+01 0.  1.
         -5    1    3    3    0  502  0.77634527344E+02 -0.46789280018E+02 -0.60739258940E+03  0.61413695884E+03  0.47000000000E+01 0.  1.
          5    1    4    4  503    0 -0.76425927304E+02  0.34825126775E+02 -0.31094841213E+03  0.32212531230E+03  0.47000000000E+01 0.  1.
         -5    1    4    4    0  503  0.44929611225E+02  0.35348160572E+02 -0.42492539852E+03  0.42877948497E+03  0.47000000000E+01 0.  1.
<mgrwt>
<rscale>  0 0.30130704E+03</rscale>
<asrwt>0</asrwt>
<pdfrwt beam="1">  1        2 0.28542719E+00 0.30130704E+03</pdfrwt>
<pdfrwt beam="2">  1       -2 0.18820732E-02 0.30130704E+03</pdfrwt>
<totfact> 0.74913933E+03</totfact>
</mgrwt>
</event>
<event>
 9    1  0.2117506E-002  0.2745258E+03  0.7818608E-02  0.1098717E+00
          2   -1    0    0  501    0  0.00000000000E+00  0.00000000000E+00  0.43404032201E+03  0.43404032201E+03  0.00000000000E+00 0. -1.
         -2   -1    0    0    0  501 -0.00000000000E+00 -0.00000000000E+00 -0.43408654700E+02  0.43408654700E+02  0.00000000000E+00 0. -1.
         36    2    1    2    0    0 -0.35527136788E-14  0.00000000000E+00  0.39063166731E+03  0.47744897671E+03  0.27452582002E+03 0.  0.
         25    2    3    3    0    0  0.12574241462E+02  0.20657632377E+02  0.99420875894E+02  0.16118661671E+03  0.12454623848E+03 0.  0.
         25    2    3    3    0    0 -0.12574241462E+02 -0.20657632377E+02  0.29121079142E+03  0.31626236000E+03  0.12096820239E+03 0.  0.
          5    1    4    4  502    0  0.43639016901E+02 -0.31889663467E+02  0.13892246489E+02  0.56003561892E+02  0.47000000000E+01 0.  1.
         -5    1    4    4    0  502 -0.31064775439E+02  0.52547295844E+02  0.85528629406E+02  0.10518305482E+03  0.47000000000E+01 0.  1.
          5    1    5    5  503    0 -0.70939395017E+01 -0.22796316553E+02 -0.61388104351E+00  0.24340560305E+02  0.47000000000E+01 0. -1.
         -5    1    5    5    0  503 -0.54803019601E+01  0.21386841755E+01  0.29182467246E+03  0.29192179969E+03  0.47000000000E+01 0. -1.
<mgrwt>
<rscale>  0 0.27452582E+03</rscale>
<asrwt>0</asrwt>
<pdfrwt beam="1">  1        2 0.66775431E-01 0.27452582E+03</pdfrwt>
<pdfrwt beam="2">  1       -2 0.66782549E-02 0.27452582E+03</pdfrwt>
<totfact> 0.90870123E+03</totfact>
</mgrwt>
</event>
<event>
 9    1  0.2117506E-002  0.2740133E+03  0.7818608E-02  0.1099004E+00
          2   -1    0    0  501    0  0.00000000000E+00  0.00000000000E+00  0.79068369132E+03  0.79068369132E+03  0.00000000000E+00 0.  1.
         -2   -1    0    0    0  501 -0.00000000000E+00 -0.00000000000E+00 -0.23739989698E+02  0.23739989698E+02  0.00000000000E+00 0.  1.
         36    2    1    2    0    0  0.71054273576E-14 -0.17763568394E-14  0.76694370162E+03  0.81442368102E+03  0.27401330396E+03 0.  0.
         25    2    3    3    0    0 -0.55719417924E+02  0.13742787991E+02  0.41005484612E+03  0.43181696663E+03  0.12258628834E+03 0.  0.
         25    2    3    3    0    0  0.55719417924E+02 -0.13742787991E+02  0.35688885551E+03  0.38260671439E+03  0.12539826537E+03 0.  0.
          5    1    4    4  502    0 -0.11165798362E+02  0.79728268255E+01 -0.42062432572E+01  0.15100447112E+02  0.47000000000E+01 0.  1.
         -5    1    4    4    0  502 -0.44553619562E+02  0.57699611655E+01  0.41426108937E+03  0.41671651951E+03  0.47000000000E+01 0.  1.
          5    1    5    5  503    0  0.93825872600E+02  0.28586634298E+01  0.27561766666E+03  0.29120208533E+03  0.47000000000E+01 0. -1.
         -5    1    5    5    0  503 -0.38106454676E+02 -0.16601451421E+02  0.81271188842E+02  0.91404629057E+02  0.47000000000E+01 0. -1.
<mgrwt>
<rscale>  0 0.27401330E+03</rscale>
<asrwt>0</asrwt>
<pdfrwt beam="1">  1        2 0.12164362E+00 0.27401330E+03</pdfrwt>
<pdfrwt beam="2">  1       -2 0.36523067E-02 0.27401330E+03</pdfrwt>
<totfact> 0.11311957E+04</totfact>
</mgrwt>
</event>
<event>
 9    1  0.2117506E-002  0.2733272E+03  0.7818608E-02  0.1099390E+00
          1   -1    0    0  501    0  0.00000000000E+00  0.00000000000E+00  0.11291073921E+04  0.11291073921E+04  0.00000000000E+00 0.  1.
         -1   -1    0    0    0  501 -0.00000000000E+00 -0.00000000000E+00 -0.16541332863E+02  0.16541332863E+02  0.00000000000E+00 0.  1.
         36    2    1    2    0    0  0.00000000000E+00 -0.35527136788E-14  0.11125660592E+04  0.11456487250E+04  0.27332721205E+03 0.  0.
         25    2    3    3    0    0  0.49483424165E+02  0.31680444337E+02  0.60701817613E+03  0.62246878129E+03  0.12467581044E+03 0.  0.
         25    2    3    3    0    0 -0.49483424165E+02 -0.31680444337E+02  0.50554788309E+03  0.52317994366E+03  0.12118717559E+03 0.  0.
          5    1    4    4  502    0  0.16326956458E+02 -0.11877551380E+02  0.10157974619E+02  0.23085064053E+02  0.47000000000E+01 0. -1.
         -5    1    4    4    0  502  0.33156467707E+02  0.43557995717E+02  0.59686020151E+03  0.59938371724E+03  0.47000000000E+01 0. -1.
          5    1    5    5  503    0 -0.50126307270E+02 -0.10631924305E+01  0.68411874328E+02  0.84947346091E+02  0.47000000000E+01 0. -1.
         -5    1    5    5    0  503  0.64288310492E+00 -0.30617251906E+02  0.43713600877E+03  0.43823259757E+03  0.47000000000E+01 0. -1.
<mgrwt>
<rscale>  0 0.27332721E+03</rscale>
<asrwt>0</asrwt>
<pdfrwt beam="1">  1        1 0.17370877E+00 0.27332721E+03</pdfrwt>
<pdfrwt beam="2">  1       -1 0.25448213E-02 0.27332721E+03</pdfrwt>
<totfact> 0.61818432E+03</totfact>
</mgrwt>
</event>
<event>
 9    1  0.2117506E-002  0.2750265E+03  0.7818608E-02  0.1098437E+00
         -2   -1    0    0    0  501 -0.00000000000E+00  0.00000000000E+00  0.47947021338E+02  0.47947021338E+02  0.00000000000E+00 0. -1.
          2   -1    0    0  501    0  0.00000000000E+00 -0.00000000000E+00 -0.39439130805E+03  0.39439130805E+03  0.00000000000E+00 0. -1.
         36    2    1    2    0    0 -0.35527136788E-14  0.00000000000E+00 -0.34644428672E+03  0.44233832939E+03  0.27502646028E+03 0.  0.
         25    2    3    3    0    0 -0.23183451322E+02 -0.93445690051E+01 -0.87588874719E+02  0.15388425378E+03  0.12403128315E+03 0.  0.
         25    2    3    3    0    0  0.23183451322E+02  0.93445690051E+01 -0.25885541200E+03  0.28845407562E+03  0.12479918283E+03 0.  0.
          5    1    4    4  502    0 -0.63904925042E+02 -0.38215723537E+02 -0.39533231470E+02  0.84434870524E+02  0.47000000000E+01 0.  1.
         -5    1    4    4    0  502  0.40721473720E+02  0.28871154532E+02 -0.48055643249E+02  0.69449383251E+02  0.47000000000E+01 0.  1.
          5    1    5    5  503    0 -0.15484113137E+02  0.57513504803E+02 -0.16953091789E+03  0.17975089183E+03  0.47000000000E+01 0. -1.
         -5    1    5    5    0  503  0.38667564459E+02 -0.48168935798E+02 -0.89324494106E+02  0.10870318378E+03  0.47000000000E+01 0. -1.
<mgrwt>
<rscale>  0 0.27502646E+03</rscale>
<asrwt>0</asrwt>
<pdfrwt beam="1">  1        2 0.60675587E-01 0.27502646E+03</pdfrwt>
<pdfrwt beam="2">  1       -2 0.73764646E-02 0.27502646E+03</pdfrwt>
<totfact> 0.86483893E+03</totfact>
</mgrwt>
</event>
<event>
 9    1  0.2117506E-002  0.2746708E+03  0.7818608E-02  0.1098636E+00
          1   -1    0    0  501    0  0.00000000000E+00  0.00000000000E+00  0.12514373905E+03  0.12514373905E+03  0.00000000000E+00 0.  1.
         -1   -1    0    0    0  501 -0.00000000000E+00 -0.00000000000E+00 -0.15071481157E+03  0.15071481157E+03  0.00000000000E+00 0.  1.
         36    2    1    2    0    0  0.00000000000E+00  0.14210854715E-13 -0.25571072519E+02  0.27585855061E+03  0.27467082153E+03 0.  0.
         25    2    3    3    0    0  0.19673034903E+02 -0.49950741131E+02  0.29391104928E+01  0.13747369733E+03  0.12652380900E+03 0.  0.
         25    2    3    3    0    0 -0.19673034903E+02  0.49950741131E+02 -0.28510183012E+02  0.13838485329E+03  0.12431987871E+03 0.  0.
          5    1    4    4  502    0  0.12142460744E+02 -0.87264784037E+02 -0.22989268632E+02  0.91176632742E+02  0.47000000000E+01 0.  1.
         -5    1    4    4    0  502  0.75305741587E+01  0.37314042906E+02  0.25928379125E+02  0.46297064585E+02  0.47000000000E+01 0.  1.
          5    1    5    5  503    0 -0.18880851271E+02  0.79661304406E+02  0.17076967392E+02  0.83762299274E+02  0.47000000000E+01 0.  1.
         -5    1    5    5    0  503 -0.79218363221E+00 -0.29710563275E+02 -0.45587150404E+02  0.54622554014E+02  0.47000000000E+01 0.  1.
<mgrwt>
<rscale>  0 0.27467082E+03</rscale>
<asrwt>0</asrwt>
<pdfrwt beam="1">  1        1 0.19252883E-01 0.27467082E+03</pdfrwt>
<pdfrwt beam="2">  1       -1 0.23186894E-01 0.27467082E+03</pdfrwt>
<totfact> 0.42117488E+03</totfact>
</mgrwt>
</event>
<event>
 9    1  0.2117506E-002  0.2680502E+03  0.7818608E-02  0.1102401E+00
          2   -1    0    0  501    0  0.00000000000E+00  0.00000000000E+00  0.25110190451E+03  0.25110190451E+03  0.00000000000E+00 0.  1.
         -2   -1    0    0    0  501 -0.00000000000E+00 -0.00000000000E+00 -0.71535607291E+02  0.71535607291E+02  0.00000000000E+00 0.  1.
         36    2    1    2    0    0 -0.71054273576E-14  0.14210854715E-13  0.17956629722E+03  0.32263751180E+03  0.26805019852E+03 0.  0.
         25    2    3    3    0    0 -0.35924771456E+02  0.49385551540E+02  0.78068112637E+02  0.15141905437E+03  0.11447086054E+03 0.  0.
         25    2    3    3    0    0  0.35924771456E+02 -0.49385551540E+02  0.10149818458E+03  0.17121845743E+03  0.12362991865E+03 0.  0.
          5    1    4    4  502    0 -0.40963011963E+01  0.82724008883E+02  0.56075703298E+02  0.10013299071E+03  0.47000000000E+01 0.  1.
         -5    1    4    4    0  502 -0.31828470260E+02 -0.33338457344E+02  0.21992409340E+02  0.51286063660E+02  0.47000000000E+01 0.  1.
          5    1    5    5  503    0 -0.51112190885E+01  0.38456269431E+02  0.17360636556E+02  0.42760857344E+02  0.47000000000E+01 0. -1.
         -5    1    5    5    0  503  0.41035990545E+02 -0.87841820971E+02  0.84137548025E+02  0.12845760008E+03  0.47000000000E+01 0. -1.
<mgrwt>
<rscale>  0 0.26805020E+03</rscale>
<asrwt>0</asrwt>
<pdfrwt beam="1">  1        2 0.38631062E-01 0.26805020E+03</pdfrwt>
<pdfrwt beam="2">  1       -2 0.11005478E-01 0.26805020E+03</pdfrwt>
<totfact> 0.74802903E+03</totfact>
</mgrwt>
</event>
<event>
 9    1  0.2117506E-002  0.2730417E+03  0.7818608E-02  0.1099551E+00
         -1   -1    0    0    0  501 -0.00000000000E+00  0.00000000000E+00  0.71118824443E+01  0.71118824443E+01  0.00000000000E+00 0.  1.
          1   -1    0    0  501    0  0.00000000000E+00 -0.00000000000E+00 -0.26206762878E+04  0.26206762878E+04  0.00000000000E+00 0.  1.
         36    2    1    2    0    0  0.35527136788E-14  0.00000000000E+00 -0.26135644053E+04  0.26277881702E+04  0.27304169413E+03 0.  0.
         25    2    3    3    0    0  0.27227826170E+02  0.51774543270E+02 -0.12569351786E+04  0.12642131795E+04  0.12217594744E+03 0.  0.
         25    2    3    3    0    0 -0.27227826170E+02 -0.51774543270E+02 -0.13566292268E+04  0.13635749908E+04  0.12438624799E+03 0.  0.
          5    1    4    4  502    0 -0.27300523877E+02  0.71657805788E+02 -0.66630290103E+03  0.67071738136E+03  0.47000000000E+01 0.  1.
         -5    1    4    4    0  502  0.54528350047E+02 -0.19883262518E+02 -0.59063227756E+03  0.59349579812E+03  0.47000000000E+01 0.  1.
          5    1    5    5  503    0  0.26566214602E+02  0.28021840290E+02 -0.50988820784E+03  0.51136978967E+03  0.47000000000E+01 0. -1.
         -5    1    5    5    0  503 -0.53794040772E+02 -0.79796383559E+02 -0.84674101892E+03  0.85220520109E+03  0.47000000000E+01 0. -1.
<mgrwt>
<rscale>  0 0.27304169E+03</rscale>
<asrwt>0</asrwt>
<pdfrwt beam="1">  1        1 0.40318141E+00 0.27304169E+03</pdfrwt>
<pdfrwt beam="2">  1       -1 0.10941345E-02 0.27304169E+03</pdfrwt>
<totfact> 0.21745217E+03</totfact>
</mgrwt>
</event>
<event>
 9    1  0.2117506E-002  0.2746925E+03  0.7818608E-02  0.1098624E+00
          1   -1    0    0  501    0  0.00000000000E+00  0.00000000000E+00  0.37600425856E+03  0.37600425856E+03  0.00000000000E+00 0. -1.
         -1   -1    0    0    0  501 -0.00000000000E+00 -0.00000000000E+00 -0.50169633087E+02  0.50169633087E+02  0.00000000000E+00 0. -1.
         36    2    1    2    0    0  0.71054273576E-14  0.71054273576E-14  0.32583462548E+03  0.42617389165E+03  0.27469252404E+03 0.  0.
         25    2    3    3    0    0 -0.33939067068E+02 -0.22387698376E+02  0.98118583427E+02  0.16379606309E+03  0.12469492595E+03 0.  0.
         25    2    3    3    0    0  0.33939067068E+02  0.22387698376E+02  0.22771604205E+03  0.26237782856E+03  0.12383238592E+03 0.  0.
          5    1    4    4  502    0 -0.43682401517E+02  0.41911334932E+02  0.70341542870E+02  0.92923274003E+02  0.47000000000E+01 0.  1.
         -5    1    4    4    0  502  0.97433344494E+01 -0.64299033308E+02  0.27777040558E+02  0.70872789085E+02  0.47000000000E+01 0.  1.
          5    1    5    5  503    0  0.43667906993E+02  0.34672108159E+02  0.23703477990E+03  0.24355003196E+03  0.47000000000E+01 0. -1.
         -5    1    5    5    0  503 -0.97288399251E+01 -0.12284409782E+02 -0.93187378473E+01  0.18827796607E+02  0.47000000000E+01 0. -1.
<mgrwt>
<rscale>  0 0.27469252E+03</rscale>
<asrwt>0</asrwt>
<pdfrwt beam="1">  1        1 0.57846807E-01 0.27469252E+03</pdfrwt>
<pdfrwt beam="2">  1       -1 0.77184053E-02 0.27469252E+03</pdfrwt>
<totfact> 0.59348520E+03</totfact>
</mgrwt>
</event>
<event>
 9    1  0.2117506E-002  0.2749478E+03  0.7818608E-02  0.1098481E+00
          2   -1    0    0  501    0  0.00000000000E+00  0.00000000000E+00  0.64134509081E+03  0.64134509081E+03  0.00000000000E+00 0. -1.
         -2   -1    0    0    0  501 -0.00000000000E+00 -0.00000000000E+00 -0.29467868517E+02  0.29467868517E+02  0.00000000000E+00 0. -1.
         36    2    1    2    0    0  0.00000000000E+00  0.00000000000E+00  0.61187722230E+03  0.67081295933E+03  0.27494779730E+03 0.  0.
         25    2    3    3    0    0 -0.44475032384E+02  0.31863200234E+02  0.33914881065E+03  0.36642938152E+03  0.12749621109E+03 0.  0.
         25    2    3    3    0    0  0.44475032384E+02 -0.31863200234E+02  0.27272841165E+03  0.30438357781E+03  0.12359321942E+03 0.  0.
          5    1    4    4  502    0  0.34659525586E+02  0.34299700066E+02  0.67261009044E+02  0.83209888091E+02  0.47000000000E+01 0.  1.
         -5    1    4    4    0  502 -0.79134557970E+02 -0.24364998318E+01  0.27188780161E+03  0.28321949343E+03  0.47000000000E+01 0.  1.
          5    1    5    5  503    0  0.58869973567E+02 -0.33368923760E+02  0.27958259507E+03  0.28769371965E+03  0.47000000000E+01 0.  1.
         -5    1    5    5    0  503 -0.14394941183E+02  0.15057235256E+01 -0.68541834226E+01  0.16689858160E+02  0.47000000000E+01 0.  1.
<mgrwt>
<rscale>  0 0.27494780E+03</rscale>
<asrwt>0</asrwt>
<pdfrwt beam="1">  1        2 0.98668465E-01 0.27494780E+03</pdfrwt>
<pdfrwt beam="2">  1       -2 0.45335187E-02 0.27494780E+03</pdfrwt>
<totfact> 0.10552282E+04</totfact>
</mgrwt>
</event>
<event>
 9    1  0.2117506E-002  0.2659835E+03  0.7818608E-02  0.1103601E+00
          2   -1    0    0  501    0  0.00000000000E+00  0.00000000000E+00  0.85090436161E+02  0.85090436161E+02  0.00000000000E+00 0. -1.
         -2   -1    0    0    0  501 -0.00000000000E+00 -0.00000000000E+00 -0.20785895593E+03  0.20785895593E+03  0.00000000000E+00 0. -1.
         36    2    1    2    0    0  0.00000000000E+00  0.00000000000E+00 -0.12276851977E+03  0.29294939209E+03  0.26598352746E+03 0.  0.
         25    2    3    3    0    0  0.26062128014E+02  0.42399901467E+01 -0.13778601614E+02  0.12646545763E+03  0.12290829947E+03 0.  0.
         25    2    3    3    0    0 -0.26062128014E+02 -0.42399901467E+01 -0.10898991816E+03  0.16648393447E+03  0.12304830816E+03 0.  0.
          5    1    4    4  502    0  0.42968910034E+02 -0.47611824002E+02 -0.27643545349E+02  0.69996204281E+02  0.47000000000E+01 0. -1.
         -5    1    4    4    0  502 -0.16906782020E+02  0.51851814149E+02  0.13864943735E+02  0.56469253347E+02  0.47000000000E+01 0. -1.
          5    1    5    5  503    0  0.43084272095E+02  0.14932869874E+02 -0.15189044180E+02  0.48291222471E+02  0.47000000000E+01 0. -1.
         -5    1    5    5    0  503 -0.69146400110E+02 -0.19172860021E+02 -0.93800873979E+02  0.11819271200E+03  0.47000000000E+01 0. -1.
<mgrwt>
<rscale>  0 0.26598353E+03</rscale>
<asrwt>0</asrwt>
<pdfrwt beam="1">  1        2 0.13090836E-01 0.26598353E+03</pdfrwt>
<pdfrwt beam="2">  1       -2 0.31978301E-01 0.26598353E+03</pdfrwt>
<totfact> 0.41457482E+03</totfact>
</mgrwt>
</event>
<event>
 9    1  0.2117506E-002  0.2754318E+03  0.7818608E-02  0.1098210E+00
          2   -1    0    0  501    0  0.00000000000E+00  0.00000000000E+00  0.37716884311E+04  0.37716884311E+04  0.00000000000E+00 0.  1.
         -2   -1    0    0    0  501 -0.00000000000E+00 -0.00000000000E+00 -0.50284293490E+01  0.50284293490E+01  0.00000000000E+00 0.  1.
         36    2    1    2    0    0 -0.71054273576E-14  0.14210854715E-13  0.37666600018E+04  0.37767168605E+04  0.27543179775E+03 0.  0.
         25    2    3    3    0    0 -0.45795891753E+02  0.47680701808E+02  0.19348468130E+04  0.19400459934E+04  0.12560077090E+03 0.  0.
         25    2    3    3    0    0  0.45795891753E+02 -0.47680701808E+02  0.18318131887E+04  0.18366708671E+04  0.11597242090E+03 0.  0.
          5    1    4    4  502    0 -0.32785871472E+02 -0.91732390344E+01  0.15825468017E+04  0.15829199384E+04  0.47000000000E+01 0. -1.
         -5    1    4    4    0  502 -0.13010020281E+02  0.56853940842E+02  0.35230001126E+03  0.35712605499E+03  0.47000000000E+01 0. -1.
          5    1    5    5  503    0  0.28543719521E+02  0.33886131534E+02  0.41147712272E+03  0.41388226147E+03  0.47000000000E+01 0. -1.
         -5    1    5    5    0  503  0.17252172232E+02 -0.81566833342E+02  0.14203360660E+04  0.14227886056E+04  0.47000000000E+01 0. -1.
<mgrwt>
<rscale>  0 0.27543180E+03</rscale>
<asrwt>0</asrwt>
<pdfrwt beam="1">  1        2 0.58025749E+00 0.27543180E+03</pdfrwt>
<pdfrwt beam="2">  1       -2 0.77360753E-03 0.27543180E+03</pdfrwt>
<totfact> 0.20411692E+03</totfact>
</mgrwt>
</event>
<event>
 9    1  0.2117506E-002  0.2751852E+03  0.7818608E-02  0.1098348E+00
          2   -1    0    0  501    0  0.00000000000E+00  0.00000000000E+00  0.10488993329E+03  0.10488993329E+03  0.00000000000E+00 0.  1.
         -2   -1    0    0    0  501 -0.00000000000E+00 -0.00000000000E+00 -0.18049139543E+03  0.18049139543E+03  0.00000000000E+00 0.  1.
         36    2    1    2    0    0  0.35527136788E-14  0.00000000000E+00 -0.75601462141E+02  0.28538132871E+03  0.27518524979E+03 0.  0.
         25    2    3    3    0    0 -0.34497553801E+01  0.37985834077E+02 -0.90790456549E+02  0.15600432851E+03  0.12099429371E+03 0.  0.
         25    2    3    3    0    0  0.34497553801E+01 -0.37985834077E+02  0.15188994408E+02  0.12937700020E+03  0.12269017168E+03 0.  0.
          5    1    4    4  502    0  0.82979496725E+01  0.23201271572E+02  0.26862006938E+02  0.36753399680E+02  0.47000000000E+01 0. -1.
         -5    1    4    4    0  502 -0.11747705053E+02  0.14784562505E+02 -0.11765246349E+03  0.11925092883E+03  0.47000000000E+01 0. -1.
          5    1    5    5  503    0  0.40603577843E+02  0.27975046235E+02  0.19901767323E+02  0.53379997078E+02  0.47000000000E+01 0.  1.
         -5    1    5    5    0  503 -0.37153822463E+02 -0.65960880311E+02 -0.47127729144E+01  0.75997003122E+02  0.47000000000E+01 0.  1.
<mgrwt>
<rscale>  0 0.27518525E+03</rscale>
<asrwt>0</asrwt>
<pdfrwt beam="1">  1        2 0.16136913E-01 0.27518525E+03</pdfrwt>
<pdfrwt beam="2">  1       -2 0.27767907E-01 0.27518525E+03</pdfrwt>
<totfact> 0.41806083E+03</totfact>
</mgrwt>
</event>
<event>
 9    1  0.2117506E-002  0.2776199E+03  0.7818608E-02  0.1096996E+00
          2   -1    0    0  501    0  0.00000000000E+00  0.00000000000E+00  0.86836920522E+02  0.86836920522E+02  0.00000000000E+00 0. -1.
         -2   -1    0    0    0  501 -0.00000000000E+00 -0.00000000000E+00 -0.22188947240E+03  0.22188947240E+03  0.00000000000E+00 0. -1.
         36    2    1    2    0    0  0.00000000000E+00  0.00000000000E+00 -0.13505255187E+03  0.30872639292E+03  0.27761987306E+03 0.  0.
         25    2    3    3    0    0 -0.88598084563E+01  0.58796934584E+02 -0.29312159897E+02  0.14056547961E+03  0.12395110172E+03 0.  0.
         25    2    3    3    0    0  0.88598084563E+01 -0.58796934584E+02 -0.10574039198E+03  0.16816091331E+03  0.11645379576E+03 0.  0.
          5    1    4    4  502    0 -0.78574228443E+01 -0.33159026379E+02 -0.33997279349E+02  0.48364916285E+02  0.47000000000E+01 0.  1.
         -5    1    4    4    0  502 -0.10023856120E+01  0.91955960963E+02  0.46851194516E+01  0.92200563327E+02  0.47000000000E+01 0.  1.
          5    1    5    5  503    0  0.37959431970E+01 -0.54710379065E+01  0.25266239026E+02  0.26548338461E+02  0.47000000000E+01 0.  1.
         -5    1    5    5    0  503  0.50638652592E+01 -0.53325896678E+02 -0.13100663100E+03  0.14161257485E+03  0.47000000000E+01 0.  1.
<mgrwt>
<rscale>  0 0.27761987E+03</rscale>
<asrwt>0</asrwt>
<pdfrwt beam="1">  1        2 0.13359526E-01 0.27761987E+03</pdfrwt>
<pdfrwt beam="2">  1       -2 0.34136842E-01 0.27761987E+03</pdfrwt>
<totfact> 0.35912547E+03</totfact>
</mgrwt>
</event>
<event>
 8    1  0.2117506E-002  0.2536353E+03  0.7818608E-02  0.1111029E+00
          2   -1    0    0  501    0  0.00000000000E+00  0.00000000000E+00  0.10905836667E+04  0.10905836667E+04  0.00000000000E+00 0.  1.
         -2   -1    0    0    0  501 -0.00000000000E+00 -0.00000000000E+00 -0.14746883723E+02  0.14746883723E+02  0.00000000000E+00 0.  1.
         25    2    1    2    0    0  0.18843463622E+02  0.25893408629E+02  0.38166780658E+03  0.39924292305E+03  0.11269007185E+03 0.  0.
         25    2    1    2    0    0 -0.18843463622E+02 -0.25893408629E+02  0.69416897636E+03  0.70608762734E+03  0.12515440466E+03 0.  0.
          5    1    3    3  502    0 -0.36613273583E+02  0.36004447585E+02  0.10657021555E+03  0.11838983440E+03  0.47000000000E+01 0.  1.
         -5    1    3    3    0  502  0.55456737205E+02 -0.10111038956E+02  0.27509759103E+03  0.28085308865E+03  0.47000000000E+01 0.  1.
          5    1    4    4  503    0 -0.52196580484E+02 -0.28772040234E+02  0.15927103050E+03  0.17012249842E+03  0.47000000000E+01 0. -1.
         -5    1    4    4    0  503  0.33353116862E+02  0.28786316047E+01  0.53489794586E+03  0.53596512892E+03  0.47000000000E+01 0. -1.
<mgrwt>
<rscale>  0 0.25363525E+03</rscale>
<asrwt>0</asrwt>
<pdfrwt beam="1">  1        2 0.16778204E+00 0.25363525E+03</pdfrwt>
<pdfrwt beam="2">  1       -2 0.22687522E-02 0.25363525E+03</pdfrwt>
<totfact> 0.14766727E+04</totfact>
</mgrwt>
</event>
<event>
 9    1  0.2117506E-002  0.2751665E+03  0.7818608E-02  0.1098359E+00
          2   -1    0    0  501    0  0.00000000000E+00  0.00000000000E+00  0.13347195915E+04  0.13347195915E+04  0.00000000000E+00 0.  1.
         -2   -1    0    0    0  501 -0.00000000000E+00 -0.00000000000E+00 -0.14182115184E+02  0.14182115184E+02  0.00000000000E+00 0.  1.
         36    2    1    2    0    0  0.71054273576E-14  0.21316282073E-13  0.13205374763E+04  0.13489017067E+04  0.27516647313E+03 0.  0.
         25    2    3    3    0    0  0.34599827901E+02  0.43859107693E+02  0.60284086211E+03  0.61844602371E+03  0.12624424656E+03 0.  0.
         25    2    3    3    0    0 -0.34599827901E+02 -0.43859107693E+02  0.71769661419E+03  0.73045568296E+03  0.12392056057E+03 0.  0.
          5    1    4    4  502    0 -0.76253812821E+01  0.66532567579E+01  0.50758434036E+03  0.50770696750E+03  0.47000000000E+01 0. -1.
         -5    1    4    4    0  502  0.42225209183E+02  0.37205850935E+02  0.95256521749E+02  0.11073905621E+03  0.47000000000E+01 0. -1.
          5    1    5    5  503    0  0.26424171130E+02  0.28859089682E+02  0.26248587178E+03  0.26542796906E+03  0.47000000000E+01 0. -1.
         -5    1    5    5    0  503 -0.61023999031E+02 -0.72718197375E+02  0.45521074241E+03  0.46502771390E+03  0.47000000000E+01 0. -1.
<mgrwt>
<rscale>  0 0.27516647E+03</rscale>
<asrwt>0</asrwt>
<pdfrwt beam="1">  1        2 0.20534138E+00 0.27516647E+03</pdfrwt>
<pdfrwt beam="2">  1       -2 0.21818649E-02 0.27516647E+03</pdfrwt>
<totfact> 0.11404474E+04</totfact>
</mgrwt>
</event>
<event>
 9    1  0.2117506E-002  0.2745892E+03  0.7818608E-02  0.1098681E+00
         -1   -1    0    0    0  501 -0.00000000000E+00  0.00000000000E+00  0.42183768609E+02  0.42183768609E+02  0.00000000000E+00 0.  1.
          1   -1    0    0  501    0  0.00000000000E+00 -0.00000000000E+00 -0.44684983094E+03  0.44684983094E+03  0.00000000000E+00 0.  1.
         36    2    1    2    0    0  0.53290705182E-14 -0.71054273576E-14 -0.40466606233E+03  0.48903359955E+03  0.27458921954E+03 0.  0.
         25    2    3    3    0    0  0.41849096970E+01  0.35634179562E+02 -0.26142511411E+03  0.29221270289E+03  0.12553033587E+03 0.  0.
         25    2    3    3    0    0 -0.41849096970E+01 -0.35634179562E+02 -0.14324094822E+03  0.19682089665E+03  0.13012758313E+03 0.  0.
          5    1    4    4  502    0  0.13327970316E+01 -0.34513317517E+01  0.13343923130E+02  0.14623211798E+02  0.47000000000E+01 0.  1.
         -5    1    4    4    0  502  0.28521126653E+01  0.39085511314E+02 -0.27476903724E+03  0.27758949110E+03  0.47000000000E+01 0.  1.
          5    1    5    5  503    0 -0.38396260091E+02  0.31253314103E+02 -0.22608199040E+02  0.54628409232E+02  0.47000000000E+01 0.  1.
         -5    1    5    5    0  503  0.34211350394E+02 -0.66887493665E+02 -0.12063274918E+03  0.14219248742E+03  0.47000000000E+01 0.  1.
<mgrwt>
<rscale>  0 0.27458922E+03</rscale>
<asrwt>0</asrwt>
<pdfrwt beam="1">  1        1 0.68746128E-01 0.27458922E+03</pdfrwt>
<pdfrwt beam="2">  1       -1 0.64898106E-02 0.27458922E+03</pdfrwt>
<totfact> 0.61841052E+03</totfact>
</mgrwt>
</event>
<event>
 9    1  0.2117506E-002  0.2747742E+03  0.7818608E-02  0.1098578E+00
          2   -1    0    0  501    0  0.00000000000E+00  0.00000000000E+00  0.14340246636E+03  0.14340246636E+03  0.00000000000E+00 0. -1.
         -2   -1    0    0    0  501 -0.00000000000E+00 -0.00000000000E+00 -0.13162407713E+03  0.13162407713E+03  0.00000000000E+00 0. -1.
         36    2    1    2    0    0  0.00000000000E+00  0.71054273576E-14  0.11778389232E+02  0.27502654348E+03  0.27477421489E+03 0.  0.
         25    2    3    3    0    0  0.48391359855E+02 -0.11582022820E+02 -0.19980061735E+02  0.13694216009E+03  0.12600827506E+03 0.  0.
         25    2    3    3    0    0 -0.48391359855E+02  0.11582022820E+02  0.31758450967E+02  0.13808438339E+03  0.12483120911E+03 0.  0.
          5    1    4    4  502    0 -0.99497863424E+01 -0.44662273926E+02 -0.45811261816E+02  0.64919016241E+02  0.47000000000E+01 0. -1.
         -5    1    4    4    0  502  0.58341146197E+02  0.33080251106E+02  0.25831200081E+02  0.72023143853E+02  0.47000000000E+01 0. -1.
          5    1    5    5  503    0 -0.46311715318E+02  0.16015322094E+02 -0.41576677183E+02  0.64435825463E+02  0.47000000000E+01 0. -1.
         -5    1    5    5    0  503 -0.20796445363E+01 -0.44332992747E+01  0.73335128150E+02  0.73648557926E+02  0.47000000000E+01 0. -1.
<mgrwt>
<rscale>  0 0.27477421E+03</rscale>
<asrwt>0</asrwt>
<pdfrwt beam="1">  1        2 0.22061918E-01 0.27477421E+03</pdfrwt>
<pdfrwt beam="2">  1       -2 0.20249858E-01 0.27477421E+03</pdfrwt>
<totfact> 0.50670627E+03</totfact>
</mgrwt>
</event>
<event>
 9    1  0.2117506E-002  0.2749270E+03  0.7818608E-02  0.1098492E+00
         -2   -1    0    0    0  501 -0.00000000000E+00  0.00000000000E+00  0.19231100906E+03  0.19231100906E+03  0.00000000000E+00 0.  1.
          2   -1    0    0  501    0  0.00000000000E+00 -0.00000000000E+00 -0.98258645884E+02  0.98258645884E+02  0.00000000000E+00 0.  1.
         36    2    1    2    0    0  0.00000000000E+00  0.00000000000E+00  0.94052363177E+02  0.29056965495E+03  0.27492704006E+03 0.  0.
         25    2    3    3    0    0  0.43623961257E+02 -0.15381592372E+02  0.84044102501E+02  0.15768303001E+03  0.12514345132E+03 0.  0.
         25    2    3    3    0    0 -0.43623961257E+02  0.15381592372E+02  0.10008260677E+02  0.13288662493E+03  0.12417345298E+03 0.  0.
          5    1    4    4  502    0 -0.25510688901E+02 -0.46627587250E+02  0.54096488943E+02  0.75983203782E+02  0.47000000000E+01 0. -1.
         -5    1    4    4    0  502  0.69134650159E+02  0.31245994878E+02  0.29947613558E+02  0.81699826232E+02  0.47000000000E+01 0. -1.
          5    1    5    5  503    0  0.21519375373E+02  0.47326219862E+02  0.26188200498E+02  0.58401767509E+02  0.47000000000E+01 0.  1.
         -5    1    5    5    0  503 -0.65143336630E+02 -0.31944627490E+02 -0.16179939821E+02  0.74484857423E+02  0.47000000000E+01 0.  1.
<mgrwt>
<rscale>  0 0.27492704E+03</rscale>
<asrwt>0</asrwt>
<pdfrwt beam="1">  1        2 0.15116715E-01 0.27492704E+03</pdfrwt>
<pdfrwt beam="2">  1       -2 0.29586309E-01 0.27492704E+03</pdfrwt>
<totfact> 0.40273799E+03</totfact>
</mgrwt>
</event>
<event>
 9    1  0.2117506E-002  0.2750663E+03  0.7818608E-02  0.1098415E+00
          3   -1    0    0  501    0  0.00000000000E+00  0.00000000000E+00  0.18301804354E+04  0.18301804354E+04  0.00000000000E+00 0.  1.
         -3   -1    0    0    0  501 -0.00000000000E+00 -0.00000000000E+00 -0.10335244692E+02  0.10335244692E+02  0.00000000000E+00 0.  1.
         36    2    1    2    0    0 -0.71054273576E-14  0.00000000000E+00  0.18198451907E+04  0.18405156801E+04  0.27506626570E+03 0.  0.
         25    2    3    3    0    0  0.60320413284E+02 -0.11820364358E+02  0.98005703362E+03  0.98962804379E+03  0.12277460093E+03 0.  0.
         25    2    3    3    0    0 -0.60320413284E+02  0.11820364358E+02  0.83978815708E+03  0.85088763630E+03  0.12242282286E+03 0.  0.
          5    1    4    4  502    0 -0.15048672646E+02 -0.17185594953E+02  0.38361815153E+02  0.44894610858E+02  0.47000000000E+01 0. -1.
         -5    1    4    4    0  502  0.75369085929E+02  0.53652305950E+01  0.94169521847E+03  0.94473343293E+03  0.47000000000E+01 0. -1.
          5    1    5    5  503    0 -0.84671429149E+02 -0.26486980487E+02  0.62685297002E+03  0.63311732488E+03  0.47000000000E+01 0. -1.
         -5    1    5    5    0  503  0.24351015865E+02  0.38307344846E+02  0.21293518706E+03  0.21777031141E+03  0.47000000000E+01 0. -1.
<mgrwt>
<rscale>  0 0.27506627E+03</rscale>
<asrwt>0</asrwt>
<pdfrwt beam="1">  1        3 0.28156596E+00 0.27506627E+03</pdfrwt>
<pdfrwt beam="2">  1       -3 0.15900391E-02 0.27506627E+03</pdfrwt>
<totfact> 0.19128310E+02</totfact>
</mgrwt>
</event>
<event>
 9    1  0.2117506E-002  0.2749116E+03  0.7818608E-02  0.1098501E+00
          1   -1    0    0  501    0  0.00000000000E+00  0.00000000000E+00  0.50693284738E+03  0.50693284738E+03  0.00000000000E+00 0.  1.
         -1   -1    0    0    0  501 -0.00000000000E+00 -0.00000000000E+00 -0.37271391578E+02  0.37271391578E+02  0.00000000000E+00 0.  1.
         36    2    1    2    0    0 -0.35527136788E-14  0.00000000000E+00  0.46966145580E+03  0.54420423895E+03  0.27491156875E+03 0.  0.
         25    2    3    3    0    0  0.10786029636E+02 -0.39757776830E+02  0.18359010339E+03  0.22811399194E+03  0.12897150074E+03 0.  0.
         25    2    3    3    0    0 -0.10786029636E+02  0.39757776830E+02  0.28607135241E+03  0.31609024702E+03  0.12798127337E+03 0.  0.
          5    1    4    4  502    0 -0.40424531919E+02  0.88094969697E+01  0.13755288181E+03  0.14371720604E+03  0.47000000000E+01 0. -1.
         -5    1    4    4    0  502  0.51210561555E+02 -0.48567273800E+02  0.46037221572E+02  0.84396785894E+02  0.47000000000E+01 0. -1.
          5    1    5    5  503    0 -0.18899037320E+02 -0.42457174549E+02  0.65024341447E+02  0.80062727052E+02  0.47000000000E+01 0.  1.
         -5    1    5    5    0  503  0.81130076841E+01  0.82214951380E+02  0.22104701096E+03  0.23602751996E+03  0.47000000000E+01 0.  1.
<mgrwt>
<rscale>  0 0.27491157E+03</rscale>
<asrwt>0</asrwt>
<pdfrwt beam="1">  1        1 0.77989664E-01 0.27491157E+03</pdfrwt>
<pdfrwt beam="2">  1       -1 0.57340606E-02 0.27491157E+03</pdfrwt>
<totfact> 0.63142348E+03</totfact>
</mgrwt>
</event>
<event>
 9    1  0.2117506E-002  0.2748991E+03  0.7818608E-02  0.1098508E+00
         -1   -1    0    0    0  501 -0.00000000000E+00  0.00000000000E+00  0.94991766843E+01  0.94991766843E+01  0.00000000000E+00 0.  1.
          1   -1    0    0  501    0  0.00000000000E+00 -0.00000000000E+00 -0.19888444549E+04  0.19888444549E+04  0.00000000000E+00 0.  1.
         36    2    1    2    0    0  0.71054273576E-14 -0.71054273576E-14 -0.19793452782E+04  0.19983436316E+04  0.27489914423E+03 0.  0.
         25    2    3    3    0    0 -0.40462158360E+02 -0.38045395597E+02 -0.13708711351E+04  0.13751413793E+04  0.92959699139E+02 0.  0.
         25    2    3    3    0    0  0.40462158360E+02  0.38045395597E+02 -0.60847414309E+03  0.62320225224E+03  0.12270136922E+03 0.  0.
          5    1    4    4  502    0 -0.51855191288E+02 -0.61698803808E+02 -0.94892235085E+03  0.95235047183E+03  0.47000000000E+01 0.  1.
         -5    1    4    4    0  502  0.11393032928E+02  0.23653408211E+02 -0.42194878427E+03  0.42279090750E+03  0.47000000000E+01 0.  1.
          5    1    5    5  503    0  0.50920913002E+02  0.77911604175E+02 -0.41776730096E+03  0.42803593915E+03  0.47000000000E+01 0.  1.
         -5    1    5    5    0  503 -0.10458754642E+02 -0.39866208577E+02 -0.19070684212E+03  0.19516631310E+03  0.47000000000E+01 0.  1.
<mgrwt>
<rscale>  0 0.27489914E+03</rscale>
<asrwt>0</asrwt>
<pdfrwt beam="1">  1        1 0.30597617E+00 0.27489914E+03</pdfrwt>
<pdfrwt beam="2">  1       -1 0.14614113E-02 0.27489914E+03</pdfrwt>
<totfact> 0.37190664E+03</totfact>
</mgrwt>
</event>
<event>
 9    1  0.2117506E-002  0.2738895E+03  0.7818608E-02  0.1099074E+00
         -1   -1    0    0    0  501 -0.00000000000E+00  0.00000000000E+00  0.35157054955E+03  0.35157054955E+03  0.00000000000E+00 0. -1.
          1   -1    0    0  501    0  0.00000000000E+00 -0.00000000000E+00 -0.53343102943E+02  0.53343102943E+02  0.00000000000E+00 0. -1.
         36    2    1    2    0    0 -0.35527136788E-14  0.71054273576E-14  0.29822744660E+03  0.40491365249E+03  0.27388949608E+03 0.  0.
         25    2    3    3    0    0  0.52441902524E+01 -0.53876461237E+02  0.13678737743E+03  0.19318615689E+03  0.12521952718E+03 0.  0.
         25    2    3    3    0    0 -0.52441902524E+01  0.53876461237E+02  0.16144006918E+03  0.21172749560E+03  0.12583903150E+03 0.  0.
          5    1    4    4  502    0 -0.10855429487E+02 -0.76025086401E+02  0.14505737340E+03  0.16419922560E+03  0.47000000000E+01 0. -1.
         -5    1    4    4    0  502  0.16099619740E+02  0.22148625164E+02 -0.82699959706E+01  0.28986931293E+02  0.47000000000E+01 0. -1.
          5    1    5    5  503    0  0.21127819903E+02 -0.75346661489E+01 -0.11947453527E+02  0.25845456344E+02  0.47000000000E+01 0. -1.
         -5    1    5    5    0  503 -0.26372010156E+02  0.61411127386E+02  0.17338752271E+03  0.18588203925E+03  0.47000000000E+01 0. -1.
<mgrwt>
<rscale>  0 0.27388950E+03</rscale>
<asrwt>0</asrwt>
<pdfrwt beam="1">  1        1 0.82066314E-02 0.27388950E+03</pdfrwt>
<pdfrwt beam="2">  1       -1 0.54087775E-01 0.27388950E+03</pdfrwt>
<totfact> 0.29656549E+03</totfact>
</mgrwt>
</event>
<event>
 9    1  0.2117506E-002  0.2744945E+03  0.7818608E-02  0.1098734E+00
          1   -1    0    0  501    0  0.00000000000E+00  0.00000000000E+00  0.26944504716E+03  0.26944504716E+03  0.00000000000E+00 0. -1.
         -1   -1    0    0    0  501 -0.00000000000E+00 -0.00000000000E+00 -0.69909649997E+02  0.69909649997E+02  0.00000000000E+00 0. -1.
         36    2    1    2    0    0  0.71054273576E-14  0.35527136788E-14  0.19953539717E+03  0.33935469716E+03  0.27449450953E+03 0.  0.
         25    2    3    3    0    0  0.49873271698E+02 -0.26125249285E+01  0.66880109533E+02  0.14842870073E+03  0.12273533164E+03 0.  0.
         25    2    3    3    0    0 -0.49873271698E+02  0.26125249285E+01  0.13265528763E+03  0.19092599643E+03  0.12791068078E+03 0.  0.
          5    1    4    4  502    0 -0.11646949348E+02 -0.36614822225E+02  0.67689060186E+02  0.77975608395E+02  0.47000000000E+01 0. -1.
         -5    1    4    4    0  502  0.61520221046E+02  0.34002297297E+02 -0.80895065269E+00  0.70453092339E+02  0.47000000000E+01 0. -1.
          5    1    5    5  503    0 -0.43326190457E+02 -0.22274953258E+02 -0.64644172287E+01  0.49368117366E+02  0.47000000000E+01 0.  1.
         -5    1    5    5    0  503 -0.65470812409E+01  0.24887478186E+02  0.13911970486E+03  0.14155787906E+03  0.47000000000E+01 0.  1.
<mgrwt>
<rscale>  0 0.27449451E+03</rscale>
<asrwt>0</asrwt>
<pdfrwt beam="1">  1        1 0.41453084E-01 0.27449451E+03</pdfrwt>
<pdfrwt beam="2">  1       -1 0.10755331E-01 0.27449451E+03</pdfrwt>
<totfact> 0.54259280E+03</totfact>
</mgrwt>
</event>
<event>
 9    1  0.2117506E-002  0.2745217E+03  0.7818608E-02  0.1098719E+00
          1   -1    0    0  501    0  0.00000000000E+00  0.00000000000E+00  0.42717792487E+03  0.42717792487E+03  0.00000000000E+00 0. -1.
         -1   -1    0    0    0  501 -0.00000000000E+00 -0.00000000000E+00 -0.44104667042E+02  0.44104667042E+02  0.00000000000E+00 0. -1.
         36    2    1    2    0    0 -0.71054273576E-14 -0.71054273576E-14  0.38307325782E+03  0.47128259191E+03  0.27452169418E+03 0.  0.
         25    2    3    3    0    0 -0.42953500317E+02  0.41926952305E+02  0.93516441699E+02  0.16794166988E+03  0.12592143223E+03 0.  0.
         25    2    3    3    0    0  0.42953500317E+02 -0.41926952305E+02  0.28955681612E+03  0.30334092203E+03  0.67599502159E+02 0.  0.
          5    1    4    4  502    0  0.41390993407E+02  0.34762644069E+02  0.29905963618E+02  0.61952501305E+02  0.47000000000E+01 0. -1.
         -5    1    4    4    0  502 -0.84344493724E+02  0.71643082352E+01  0.63610478081E+02  0.10598916858E+03  0.47000000000E+01 0. -1.
          5    1    5    5  503    0  0.54287030585E+02 -0.12364103565E+02  0.14764263286E+03  0.15786193266E+03  0.47000000000E+01 0.  1.
         -5    1    5    5    0  503 -0.11333530268E+02 -0.29562848739E+02  0.14191418327E+03  0.14547898937E+03  0.47000000000E+01 0.  1.
<mgrwt>
<rscale>  0 0.27452169E+03</rscale>
<asrwt>0</asrwt>
<pdfrwt beam="1">  1        1 0.65719678E-01 0.27452169E+03</pdfrwt>
<pdfrwt beam="2">  1       -1 0.67853337E-02 0.27452169E+03</pdfrwt>
<totfact> 0.61285267E+03</totfact>
</mgrwt>
</event>
<event>
 9    1  0.2117506E-002  0.2749796E+03  0.7818608E-02  0.1098463E+00
         -1   -1    0    0    0  501 -0.00000000000E+00  0.00000000000E+00  0.26142671378E+03  0.26142671378E+03  0.00000000000E+00 0.  1.
          1   -1    0    0  501    0  0.00000000000E+00 -0.00000000000E+00 -0.72308750659E+02  0.72308750659E+02  0.00000000000E+00 0.  1.
         36    2    1    2    0    0 -0.35527136788E-14  0.00000000000E+00  0.18911796312E+03  0.33373546444E+03  0.27497955606E+03 0.  0.
         25    2    3    3    0    0  0.18914291075E+02 -0.51238121305E+02  0.12126666254E+03  0.18238870976E+03  0.12480762205E+03 0.  0.
         25    2    3    3    0    0 -0.18914291075E+02  0.51238121305E+02  0.67851300579E+02  0.15134675468E+03  0.12376972845E+03 0.  0.
          5    1    4    4  502    0 -0.52472789253E+02 -0.29908564270E+02  0.43439937279E+02  0.74545516159E+02  0.47000000000E+01 0. -1.
         -5    1    4    4    0  502  0.71387080328E+02 -0.21329557035E+02  0.77826725264E+02  0.10784319360E+03  0.47000000000E+01 0. -1.
          5    1    5    5  503    0  0.18033662305E+02 -0.57055788383E+01  0.79902329064E+02  0.82244992527E+02  0.47000000000E+01 0.  1.
         -5    1    5    5    0  503 -0.36947953379E+02  0.56943700143E+02 -0.12051028485E+02  0.69101762151E+02  0.47000000000E+01 0.  1.
<mgrwt>
<rscale>  0 0.27497956E+03</rscale>
<asrwt>0</asrwt>
<pdfrwt beam="1">  1        1 0.11124423E-01 0.27497956E+03</pdfrwt>
<pdfrwt beam="2">  1       -1 0.40219494E-01 0.27497956E+03</pdfrwt>
<totfact> 0.33811442E+03</totfact>
</mgrwt>
</event>
<event>
 9    1  0.2117506E-002  0.2741883E+03  0.7818608E-02  0.1098906E+00
          2   -1    0    0  501    0  0.00000000000E+00  0.00000000000E+00  0.36292687523E+03  0.36292687523E+03  0.00000000000E+00 0. -1.
         -2   -1    0    0    0  501 -0.00000000000E+00 -0.00000000000E+00 -0.51786743511E+02  0.51786743511E+02  0.00000000000E+00 0. -1.
         36    2    1    2    0    0  0.14210854715E-13  0.71054273576E-14  0.31114013172E+03  0.41471361874E+03  0.27418826380E+03 0.  0.
         25    2    3    3    0    0  0.37467492477E+02  0.45772564325E+02  0.16364328841E+03  0.21327920969E+03  0.12332864552E+03 0.  0.
         25    2    3    3    0    0 -0.37467492477E+02 -0.45772564325E+02  0.14749684331E+03  0.20143440905E+03  0.12378029620E+03 0.  0.
          5    1    4    4  502    0  0.14822108784E+02  0.69519364662E+02  0.33024219819E+02  0.78519590336E+02  0.47000000000E+01 0. -1.
         -5    1    4    4    0  502  0.22645383693E+02 -0.23746800337E+02  0.13061906859E+03  0.13475961936E+03  0.47000000000E+01 0. -1.
          5    1    5    5  503    0 -0.27969218319E+02 -0.63064520392E+02  0.19506359224E+02  0.71847052520E+02  0.47000000000E+01 0.  1.
         -5    1    5    5    0  503 -0.94982741585E+01  0.17291956067E+02  0.12799048409E+03  0.12958735653E+03  0.47000000000E+01 0.  1.
<mgrwt>
<rscale>  0 0.27418826E+03</rscale>
<asrwt>0</asrwt>
<pdfrwt beam="1">  1        2 0.55834902E-01 0.27418826E+03</pdfrwt>
<pdfrwt beam="2">  1       -2 0.79671915E-02 0.27418826E+03</pdfrwt>
<totfact> 0.83920502E+03</totfact>
</mgrwt>
</event>
<event>
 9    1  0.2117506E-002  0.2758113E+03  0.7818608E-02  0.1097999E+00
          1   -1    0    0  501    0  0.00000000000E+00  0.00000000000E+00  0.11685339912E+04  0.11685339912E+04  0.00000000000E+00 0.  1.
         -1   -1    0    0    0  501 -0.00000000000E+00 -0.00000000000E+00 -0.16275067819E+02  0.16275067819E+02  0.00000000000E+00 0.  1.
         36    2    1    2    0    0  0.00000000000E+00  0.26645352591E-14  0.11522589233E+04  0.11848090590E+04  0.27581131198E+03 0.  0.
         25    2    3    3    0    0 -0.49654602754E+01  0.78392423390E+01  0.36073311094E+03  0.38315295055E+03  0.12880876006E+03 0.  0.
         25    2    3    3    0    0  0.49654602754E+01 -0.78392423390E+01  0.79152581241E+03  0.80165610844E+03  0.12670159814E+03 0.  0.
          5    1    4    4  502    0  0.44446735706E+02 -0.39887864002E+02  0.18251994361E+03  0.19209938528E+03  0.47000000000E+01 0. -1.
         -5    1    4    4    0  502 -0.49412195982E+02  0.47727106341E+02  0.17821316733E+03  0.19105356527E+03  0.47000000000E+01 0. -1.
          5    1    5    5  503    0  0.46690006747E+02 -0.94812969126E+01  0.69159435018E+03  0.69324936850E+03  0.47000000000E+01 0.  1.
         -5    1    5    5    0  503 -0.41724546472E+02  0.16420545735E+01  0.99931462226E+02  0.10840673994E+03  0.47000000000E+01 0.  1.
<mgrwt>
<rscale>  0 0.27581131E+03</rscale>
<asrwt>0</asrwt>
<pdfrwt beam="1">  1        1 0.17977439E+00 0.27581131E+03</pdfrwt>
<pdfrwt beam="2">  1       -1 0.25038575E-02 0.27581131E+03</pdfrwt>
<totfact> 0.59368682E+03</totfact>
</mgrwt>
</event>
<event>
 9    1  0.2117506E-002  0.2770041E+03  0.7818608E-02  0.1097337E+00
          1   -1    0    0  501    0  0.00000000000E+00  0.00000000000E+00  0.91033271015E+02  0.91033271015E+02  0.00000000000E+00 0. -1.
         -1   -1    0    0    0  501 -0.00000000000E+00 -0.00000000000E+00 -0.21072320626E+03  0.21072320626E+03  0.00000000000E+00 0. -1.
         36    2    1    2    0    0  0.71054273576E-14  0.00000000000E+00 -0.11968993524E+03  0.30175647727E+03  0.27700413531E+03 0.  0.
         25    2    3    3    0    0 -0.70710221422E+01 -0.59090376456E+02 -0.40721334992E+02  0.14543249754E+03  0.12629612929E+03 0.  0.
         25    2    3    3    0    0  0.70710221422E+01  0.59090376456E+02 -0.78968600250E+02  0.15632397973E+03  0.12107631837E+03 0.  0.
          5    1    4    4  502    0 -0.55993650152E+02 -0.56215758034E+02  0.30703118980E+01  0.79542549141E+02  0.47000000000E+01 0.  1.
         -5    1    4    4    0  502  0.48922628010E+02 -0.28746184219E+01 -0.43791646890E+02  0.65889948397E+02  0.47000000000E+01 0.  1.
          5    1    5    5  503    0 -0.28564212741E+02 -0.35599053299E+01 -0.78875158928E+02  0.84094993141E+02  0.47000000000E+01 0. -1.
         -5    1    5    5    0  503  0.35635234884E+02  0.62650281785E+02 -0.93441321670E-01  0.72228986593E+02  0.47000000000E+01 0. -1.
<mgrwt>
<rscale>  0 0.27700414E+03</rscale>
<asrwt>0</asrwt>
<pdfrwt beam="1">  1        1 0.14005119E-01 0.27700414E+03</pdfrwt>
<pdfrwt beam="2">  1       -1 0.32418955E-01 0.27700414E+03</pdfrwt>
<totfact> 0.36306702E+03</totfact>
</mgrwt>
</event>
<event>
 9    1  0.2117506E-002  0.2736217E+03  0.7818608E-02  0.1099225E+00
          2   -1    0    0  501    0  0.00000000000E+00  0.00000000000E+00  0.72533764234E+03  0.72533764234E+03  0.00000000000E+00 0.  1.
         -2   -1    0    0    0  501 -0.00000000000E+00 -0.00000000000E+00 -0.25804824916E+02  0.25804824916E+02  0.00000000000E+00 0.  1.
         36    2    1    2    0    0 -0.17763568394E-14  0.71054273576E-14  0.69953281742E+03  0.75114246726E+03  0.27362171599E+03 0.  0.
         25    2    3    3    0    0 -0.10899519666E+02  0.14155001584E+02  0.20052681039E+03  0.23617850091E+03  0.12349137220E+03 0.  0.
         25    2    3    3    0    0  0.10899519666E+02 -0.14155001584E+02  0.49900600704E+03  0.51496396635E+03  0.12594335226E+03 0.  0.
          5    1    4    4  502    0  0.14482202783E+02 -0.50338406456E+02  0.62705813257E+02  0.81840078069E+02  0.47000000000E+01 0.  1.
         -5    1    4    4    0  502 -0.25381722450E+02  0.64493408040E+02  0.13782099713E+03  0.15433842284E+03  0.47000000000E+01 0.  1.
          5    1    5    5  503    0 -0.44620190561E+02  0.22736229185E+02  0.12005272928E+03  0.13016391717E+03  0.47000000000E+01 0. -1.
         -5    1    5    5    0  503  0.55519710227E+02 -0.36891230768E+02  0.37895327775E+03  0.38480004918E+03  0.47000000000E+01 0. -1.
<mgrwt>
<rscale>  0 0.27362172E+03</rscale>
<asrwt>0</asrwt>
<pdfrwt beam="1">  1        2 0.11159039E+00 0.27362172E+03</pdfrwt>
<pdfrwt beam="2">  1       -2 0.39699736E-02 0.27362172E+03</pdfrwt>
<totfact> 0.11113496E+04</totfact>
</mgrwt>
</event>
<event>
 9    1  0.2117506E-002  0.2750994E+03  0.7818608E-02  0.1098396E+00
         -1   -1    0    0    0  501 -0.00000000000E+00  0.00000000000E+00  0.18843914375E+02  0.18843914375E+02  0.00000000000E+00 0.  1.
          1   -1    0    0  501    0  0.00000000000E+00 -0.00000000000E+00 -0.10040336993E+04  0.10040336993E+04  0.00000000000E+00 0.  1.
         36    2    1    2    0    0  0.00000000000E+00  0.00000000000E+00 -0.98518978489E+03  0.10228776136E+04  0.27509943699E+03 0.  0.
         25    2    3    3    0    0 -0.25655001475E+02 -0.49133906679E+02 -0.44258502298E+03  0.46339102176E+03  0.12560818684E+03 0.  0.
         25    2    3    3    0    0  0.25655001475E+02  0.49133906679E+02 -0.54260476191E+03  0.55948659188E+03  0.12463145249E+03 0.  0.
          5    1    4    4  502    0  0.55019840985E+01  0.39921992651E+02 -0.97381912570E+02  0.10549580192E+03  0.47000000000E+01 0. -1.
         -5    1    4    4    0  502 -0.31156985573E+02 -0.89055899330E+02 -0.34520311041E+03  0.35789521985E+03  0.47000000000E+01 0. -1.
          5    1    5    5  503    0  0.64803682915E+02 -0.91627035561E+01 -0.24031639481E+03  0.24911349235E+03  0.47000000000E+01 0. -1.
         -5    1    5    5    0  503 -0.39148681440E+02  0.58296610235E+02 -0.30228836711E+03  0.31037309953E+03  0.47000000000E+01 0. -1.
<mgrwt>
<rscale>  0 0.27509944E+03</rscale>
<asrwt>0</asrwt>
<pdfrwt beam="1">  1        1 0.15446672E+00 0.27509944E+03</pdfrwt>
<pdfrwt beam="2">  1       -1 0.28990638E-02 0.27509944E+03</pdfrwt>
<totfact> 0.62969964E+03</totfact>
</mgrwt>
</event>
<event>
 9    1  0.2117506E-002  0.2747023E+03  0.7818608E-02  0.1098618E+00
          4   -1    0    0  501    0  0.00000000000E+00  0.00000000000E+00  0.76388569538E+02  0.76388569538E+02  0.00000000000E+00 0. -1.
         -4   -1    0    0    0  501 -0.00000000000E+00 -0.00000000000E+00 -0.24696546159E+03  0.24696546159E+03  0.00000000000E+00 0. -1.
         36    2    1    2    0    0  0.00000000000E+00  0.71054273576E-14 -0.17057689205E+03  0.32335403113E+03  0.27470229949E+03 0.  0.
         25    2    3    3    0    0  0.11982801450E+02  0.53700469519E+02 -0.91696264808E+02  0.16549465472E+03  0.12630497933E+03 0.  0.
         25    2    3    3    0    0 -0.11982801450E+02 -0.53700469519E+02 -0.78880627242E+02  0.15785937640E+03  0.12518027563E+03 0.  0.
          5    1    4    4  502    0  0.45124563581E+02  0.71368820049E+02 -0.23954242039E+02  0.87895565446E+02  0.47000000000E+01 0.  1.
         -5    1    4    4    0  502 -0.33141762131E+02 -0.17668350530E+02 -0.67742022769E+02  0.77599089276E+02  0.47000000000E+01 0.  1.
          5    1    5    5  503    0  0.36803059687E+02  0.24230172066E+02 -0.31096139181E+02  0.54135259421E+02  0.47000000000E+01 0.  1.
         -5    1    5    5    0  503 -0.48785861136E+02 -0.77930641585E+02 -0.47784488061E+02  0.10372411698E+03  0.47000000000E+01 0.  1.
<mgrwt>
<rscale>  0 0.27470230E+03</rscale>
<asrwt>0</asrwt>
<pdfrwt beam="1">  1        4 0.11752088E-01 0.27470230E+03</pdfrwt>
<pdfrwt beam="2">  1       -4 0.37994687E-01 0.27470230E+03</pdfrwt>
<totfact> 0.72702703E+02</totfact>
</mgrwt>
</event>
<event>
 9    1  0.2117506E-002  0.2751347E+03  0.7818608E-02  0.1098376E+00
         -2   -1    0    0    0  501 -0.00000000000E+00  0.00000000000E+00  0.76738794310E+01  0.76738794310E+01  0.00000000000E+00 0. -1.
          2   -1    0    0  501    0  0.00000000000E+00 -0.00000000000E+00 -0.24661283113E+04  0.24661283113E+04  0.00000000000E+00 0. -1.
         36    2    1    2    0    0 -0.35527136788E-14  0.35527136788E-14 -0.24584544319E+04  0.24738021908E+04  0.27513466755E+03 0.  0.
         25    2    3    3    0    0  0.57332032112E+01 -0.83557377994E+01 -0.17448627823E+04  0.17491403900E+04  0.12183302852E+03 0.  0.
         25    2    3    3    0    0 -0.57332032112E+01  0.83557377994E+01 -0.71359164960E+03  0.72466180078E+03  0.12577358688E+03 0.  0.
          5    1    4    4  502    0  0.49503485545E+02  0.26661509507E+02 -0.53417996851E+03  0.53715152418E+03  0.47000000000E+01 0.  1.
         -5    1    4    4    0  502 -0.43770282334E+02 -0.35017247306E+02 -0.12106828138E+04  0.12119888658E+04  0.47000000000E+01 0.  1.
          5    1    5    5  503    0  0.10103585449E+02 -0.55944416422E+02 -0.25592807464E+03  0.26220817981E+03  0.47000000000E+01 0. -1.
         -5    1    5    5    0  503 -0.15836788660E+02  0.64300154221E+02 -0.45766357495E+03  0.46245362097E+03  0.47000000000E+01 0. -1.
<mgrwt>
<rscale>  0 0.27513467E+03</rscale>
<asrwt>0</asrwt>
<pdfrwt beam="1">  1        2 0.37940471E+00 0.27513467E+03</pdfrwt>
<pdfrwt beam="2">  1       -2 0.11805957E-02 0.27513467E+03</pdfrwt>
<totfact> 0.70075331E+03</totfact>
</mgrwt>
</event>
<event>
 9    1  0.2117506E-002  0.2740002E+03  0.7818608E-02  0.1099012E+00
         -1   -1    0    0    0  501 -0.00000000000E+00  0.00000000000E+00  0.17763713320E+03  0.17763713320E+03  0.00000000000E+00 0. -1.
          1   -1    0    0  501    0  0.00000000000E+00 -0.00000000000E+00 -0.10565937772E+03  0.10565937772E+03  0.00000000000E+00 0. -1.
         36    2    1    2    0    0  0.71054273576E-14  0.00000000000E+00  0.71977755481E+02  0.28329651093E+03  0.27400021135E+03 0.  0.
         25    2    3    3    0    0  0.48012928760E+01 -0.37950525175E+02  0.77146261766E+02  0.15015394719E+03  0.12300962311E+03 0.  0.
         25    2    3    3    0    0 -0.48012928760E+01  0.37950525175E+02 -0.51685062852E+01  0.13314256374E+03  0.12742422865E+03 0.  0.
          5    1    4    4  502    0  0.33154757655E+02 -0.93879454183E+01  0.98423982677E+02  0.10438746017E+03  0.47000000000E+01 0. -1.
         -5    1    4    4    0  502 -0.28353464779E+02 -0.28562579757E+02 -0.21277720911E+02  0.45766487024E+02  0.47000000000E+01 0. -1.
          5    1    5    5  503    0 -0.43078536515E+02 -0.16840292353E+01  0.42064716659E+02  0.60416278024E+02  0.47000000000E+01 0. -1.
         -5    1    5    5    0  503  0.38277243639E+02  0.39634554410E+02 -0.47233222944E+02  0.72726285713E+02  0.47000000000E+01 0. -1.
<mgrwt>
<rscale>  0 0.27400021E+03</rscale>
<asrwt>0</asrwt>
<pdfrwt beam="1">  1        1 0.16255289E-01 0.27400021E+03</pdfrwt>
<pdfrwt beam="2">  1       -1 0.27328790E-01 0.27400021E+03</pdfrwt>
<totfact> 0.39907511E+03</totfact>
</mgrwt>
</event>
<event>
 9    1  0.2117506E-002  0.2743791E+03  0.7818608E-02  0.1098799E+00
         -2   -1    0    0    0  501 -0.00000000000E+00  0.00000000000E+00  0.38379796816E+02  0.38379796816E+02  0.00000000000E+00 0.  1.
          2   -1    0    0  501    0  0.00000000000E+00 -0.00000000000E+00 -0.49038737447E+03  0.49038737447E+03  0.00000000000E+00 0.  1.
         36    2    1    2    0    0 -0.14210854715E-13  0.00000000000E+00 -0.45200757766E+03  0.52876717129E+03  0.27437906475E+03 0.  0.
         25    2    3    3    0    0 -0.42348548342E+02  0.33165983945E+02 -0.26693743189E+03  0.29905133127E+03  0.12362331556E+03 0.  0.
         25    2    3    3    0    0  0.42348548342E+02 -0.33165983945E+02 -0.18507014577E+03  0.22971584002E+03  0.12500010506E+03 0.  0.
          5    1    4    4  502    0 -0.75352522047E+02 -0.13898670836E+02 -0.16336332127E+03  0.18050163535E+03  0.47000000000E+01 0. -1.
         -5    1    4    4    0  502  0.33003973706E+02  0.47064654781E+02 -0.10357411063E+03  0.11854969592E+03  0.47000000000E+01 0. -1.
          5    1    5    5  503    0 -0.10532275053E+02  0.28481097931E+02 -0.37189527845E+01  0.30951936400E+02  0.47000000000E+01 0.  1.
         -5    1    5    5    0  503  0.52880823394E+02 -0.61647081876E+02 -0.18135119298E+03  0.19876390362E+03  0.47000000000E+01 0.  1.
<mgrwt>
<rscale>  0 0.27437906E+03</rscale>
<asrwt>0</asrwt>
<pdfrwt beam="1">  1        2 0.75444207E-01 0.27437906E+03</pdfrwt>
<pdfrwt beam="2">  1       -2 0.59045844E-02 0.27437906E+03</pdfrwt>
<totfact> 0.95960778E+03</totfact>
</mgrwt>
</event>
<event>
 8    1  0.2117506E-002  0.3065201E+03  0.7818608E-02  0.1082026E+00
          1   -1    0    0  501    0  0.00000000000E+00  0.00000000000E+00  0.41517276640E+03  0.41517276640E+03  0.00000000000E+00 0.  1.
         -1   -1    0    0    0  501 -0.00000000000E+00 -0.00000000000E+00 -0.56575583918E+02  0.56575583918E+02  0.00000000000E+00 0.  1.
         25    2    1    2    0    0 -0.72191451011E+02 -0.67173760691E+01  0.26733891690E+03  0.30259628098E+03  0.12181003257E+03 0.  0.
         25    2    1    2    0    0  0.72191451011E+02  0.67173760691E+01  0.91258265585E+02  0.16915206934E+03  0.12258720481E+03 0.  0.
          5    1    3    3  502    0 -0.63096159435E+02 -0.60166664065E+02  0.16730781527E+03  0.18871976009E+03  0.47000000000E+01 0.  1.
         -5    1    3    3    0  502 -0.90952915758E+01  0.53449287996E+02  0.10003110163E+03  0.11387652089E+03  0.47000000000E+01 0.  1.
          5    1    4    4  503    0  0.90177670039E+02 -0.30474103563E+02  0.40536623321E+02  0.10356636033E+03  0.47000000000E+01 0.  1.
         -5    1    4    4    0  503 -0.17986219028E+02  0.37191479632E+02  0.50721642264E+02  0.65585709008E+02  0.47000000000E+01 0.  1.
<mgrwt>
<rscale>  0 0.30652009E+03</rscale>
<asrwt>0</asrwt>
<pdfrwt beam="1">  1        1 0.63872731E-01 0.30652009E+03</pdfrwt>
<pdfrwt beam="2">  1       -1 0.87039363E-02 0.30652009E+03</pdfrwt>
<totfact> 0.43603028E+03</totfact>
</mgrwt>
</event>
<event>
 9    1  0.2117506E-002  0.2746819E+03  0.7818608E-02  0.1098630E+00
          2   -1    0    0  501    0  0.00000000000E+00  0.00000000000E+00  0.27204448765E+03  0.27204448765E+03  0.00000000000E+00 0.  1.
         -2   -1    0    0    0  501 -0.00000000000E+00 -0.00000000000E+00 -0.69336196807E+02  0.69336196807E+02  0.00000000000E+00 0.  1.
         36    2    1    2    0    0  0.35527136788E-14  0.00000000000E+00  0.20270829084E+03  0.34138068445E+03  0.27468185332E+03 0.  0.
         25    2    3    3    0    0 -0.24592384035E+02 -0.40810909463E+02  0.12843723306E+03  0.18624594800E+03  0.12617889930E+03 0.  0.
         25    2    3    3    0    0  0.24592384035E+02  0.40810909463E+02  0.74271057779E+02  0.15513473645E+03  0.12759420342E+03 0.  0.
          5    1    4    4  502    0  0.18551937174E+02 -0.14097096415E+02 -0.18884836660E+02  0.30358352325E+02  0.47000000000E+01 0.  1.
         -5    1    4    4    0  502 -0.43144321209E+02 -0.26713813048E+02  0.14732206972E+03  0.15588759568E+03  0.47000000000E+01 0.  1.
          5    1    5    5  503    0 -0.65298327494E+01 -0.33005466240E+02 -0.13185547617E+02  0.36441023359E+02  0.47000000000E+01 0. -1.
         -5    1    5    5    0  503  0.31122216785E+02  0.73816375703E+02  0.87456605396E+02  0.11869371309E+03  0.47000000000E+01 0. -1.
<mgrwt>
<rscale>  0 0.27468185E+03</rscale>
<asrwt>0</asrwt>
<pdfrwt beam="1">  1        2 0.41852998E-01 0.27468185E+03</pdfrwt>
<pdfrwt beam="2">  1       -2 0.10667107E-01 0.27468185E+03</pdfrwt>
<totfact> 0.72199945E+03</totfact>
</mgrwt>
</event>
<event>
 9    1  0.2117506E-002  0.2749425E+03  0.7818608E-02  0.1098484E+00
         -2   -1    0    0    0  501 -0.00000000000E+00  0.00000000000E+00  0.27854792928E+02  0.27854792928E+02  0.00000000000E+00 0.  1.
          2   -1    0    0  501    0  0.00000000000E+00 -0.00000000000E+00 -0.67845930107E+03  0.67845930107E+03  0.00000000000E+00 0.  1.
         36    2    1    2    0    0  0.35527136788E-14  0.17763568394E-14 -0.65060450814E+03  0.70631409400E+03  0.27494249101E+03 0.  0.
         25    2    3    3    0    0  0.19015692526E+02  0.45502467603E+01 -0.14715506037E+03  0.19433818945E+03  0.12542096627E+03 0.  0.
         25    2    3    3    0    0 -0.19015692526E+02 -0.45502467603E+01 -0.50344944778E+03  0.51197590454E+03  0.90970759378E+02 0.  0.
          5    1    4    4  502    0  0.31880981785E+02  0.44207576364E+02 -0.16543269310E+02  0.57153097616E+02  0.47000000000E+01 0. -1.
         -5    1    4    4    0  502 -0.12865289260E+02 -0.39657329604E+02 -0.13061179106E+03  0.13718509184E+03  0.47000000000E+01 0. -1.
          5    1    5    5  503    0 -0.19039058439E+02  0.13381209859E+02 -0.30440410289E+02  0.38603770568E+02  0.47000000000E+01 0. -1.
         -5    1    5    5    0  503  0.23365913024E-01 -0.17931456619E+02 -0.47300903749E+03  0.47337213398E+03  0.47000000000E+01 0. -1.
<mgrwt>
<rscale>  0 0.27494249E+03</rscale>
<asrwt>0</asrwt>
<pdfrwt beam="1">  1        2 0.10437836E+00 0.27494249E+03</pdfrwt>
<pdfrwt beam="2">  1       -2 0.42853527E-02 0.27494249E+03</pdfrwt>
<totfact> 0.10743964E+04</totfact>
</mgrwt>
</event>
<event>
 9    1  0.2117506E-002  0.2750833E+03  0.7818608E-02  0.1098405E+00
          1   -1    0    0  501    0  0.00000000000E+00  0.00000000000E+00  0.61463712161E+03  0.61463712161E+03  0.00000000000E+00 0. -1.
         -1   -1    0    0    0  501 -0.00000000000E+00 -0.00000000000E+00 -0.30778665496E+02  0.30778665496E+02  0.00000000000E+00 0. -1.
         36    2    1    2    0    0 -0.71054273576E-14  0.71054273576E-14  0.58385845612E+03  0.64541578711E+03  0.27508333550E+03 0.  0.
         25    2    3    3    0    0  0.49257213139E+02 -0.31122835798E+02  0.29149574688E+03  0.32240111759E+03  0.12481108213E+03 0.  0.
         25    2    3    3    0    0 -0.49257213139E+02  0.31122835798E+02  0.29236270924E+03  0.32301466952E+03  0.12436888283E+03 0.  0.
          5    1    4    4  502    0  0.25295587843E+02 -0.79327148879E+02  0.16618031015E+03  0.18593183911E+03  0.47000000000E+01 0. -1.
         -5    1    4    4    0  502  0.23961625297E+02  0.48204313081E+02  0.12531543673E+03  0.13646927848E+03  0.47000000000E+01 0. -1.
          5    1    5    5  503    0 -0.88397145356E+02  0.26889776466E+01  0.19639751255E+03  0.21544224016E+03  0.47000000000E+01 0.  1.
         -5    1    5    5    0  503  0.39139932216E+02  0.28433858152E+02  0.95965196689E+02  0.10757242936E+03  0.47000000000E+01 0.  1.
<mgrwt>
<rscale>  0 0.27508334E+03</rscale>
<asrwt>0</asrwt>
<pdfrwt beam="1">  1        1 0.94559548E-01 0.27508334E+03</pdfrwt>
<pdfrwt beam="2">  1       -1 0.47351798E-02 0.27508334E+03</pdfrwt>
<totfact> 0.64710922E+03</totfact>
</mgrwt>
</event>
<event>
 9    1  0.2117506E-002  0.2755132E+03  0.7818608E-02  0.1098165E+00
          2   -1    0    0  501    0  0.00000000000E+00  0.00000000000E+00  0.42831830034E+03  0.42831830034E+03  0.00000000000E+00 0.  1.
         -2   -1    0    0    0  501 -0.00000000000E+00 -0.00000000000E+00 -0.44305566883E+02  0.44305566883E+02  0.00000000000E+00 0.  1.
         36    2    1    2    0    0  0.35527136788E-14  0.71054273576E-14  0.38401273346E+03  0.47262386723E+03  0.27551323092E+03 0.  0.
         25    2    3    3    0    0 -0.96580931967E+01 -0.55408664363E+02  0.21508798108E+03  0.25386583493E+03  0.12256273370E+03 0.  0.
         25    2    3    3    0    0  0.96580931967E+01  0.55408664363E+02  0.16892475238E+03  0.21875803229E+03  0.12710667124E+03 0.  0.
          5    1    4    4  502    0  0.33027317049E+02 -0.54240059453E+02  0.19738432548E+03  0.20740166264E+03  0.47000000000E+01 0. -1.
         -5    1    4    4    0  502 -0.42685410245E+02 -0.11686049108E+01  0.17703655595E+02  0.46464172291E+02  0.47000000000E+01 0. -1.
          5    1    5    5  503    0 -0.97050926736E+01  0.75354979166E+02  0.38469512515E+02  0.85291002468E+02  0.47000000000E+01 0.  1.
         -5    1    5    5    0  503  0.19363185870E+02 -0.19946314802E+02  0.13045523987E+03  0.13346702983E+03  0.47000000000E+01 0.  1.
<mgrwt>
<rscale>  0 0.27551323E+03</rscale>
<asrwt>0</asrwt>
<pdfrwt beam="1">  1        2 0.65895121E-01 0.27551323E+03</pdfrwt>
<pdfrwt beam="2">  1       -2 0.68162413E-02 0.27551323E+03</pdfrwt>
<totfact> 0.89345160E+03</totfact>
</mgrwt>
</event>
<event>
 9    1  0.2117506E-002  0.2754277E+03  0.7818608E-02  0.1098213E+00
          1   -1    0    0  501    0  0.00000000000E+00  0.00000000000E+00  0.11960897983E+04  0.11960897983E+04  0.00000000000E+00 0.  1.
         -1   -1    0    0    0  501 -0.00000000000E+00 -0.00000000000E+00 -0.15855925298E+02  0.15855925298E+02  0.00000000000E+00 0.  1.
         36    2    1    2    0    0 -0.71054273576E-14 -0.35527136788E-14  0.11802338730E+04  0.12119457236E+04  0.27542774364E+03 0.  0.
         25    2    3    3    0    0  0.36212134874E+02 -0.30766532876E+02  0.73306489260E+03  0.74474087598E+03  0.12246198322E+03 0.  0.
         25    2    3    3    0    0 -0.36212134874E+02  0.30766532876E+02  0.44716898040E+03  0.46720484762E+03  0.12673742284E+03 0.  0.
          5    1    4    4  502    0  0.61665183275E+02  0.15396135635E+02  0.56391158356E+03  0.56750154176E+03  0.47000000000E+01 0.  1.
         -5    1    4    4    0  502 -0.25453048401E+02 -0.46162668511E+02  0.16915330904E+03  0.17723933422E+03  0.47000000000E+01 0.  1.
          5    1    5    5  503    0  0.10606555636E+02  0.39641622905E+02  0.39193170650E+03  0.39410215661E+03  0.47000000000E+01 0.  1.
         -5    1    5    5    0  503 -0.46818690510E+02 -0.88750900293E+01  0.55237273904E+02  0.73102691007E+02  0.47000000000E+01 0.  1.
<mgrwt>
<rscale>  0 0.27542774E+03</rscale>
<asrwt>0</asrwt>
<pdfrwt beam="1">  1        1 0.18401374E+00 0.27542774E+03</pdfrwt>
<pdfrwt beam="2">  1       -1 0.24393741E-02 0.27542774E+03</pdfrwt>
<totfact> 0.58995107E+03</totfact>
</mgrwt>
</event>
<event>
 9    1  0.2117506E-002  0.2740480E+03  0.7818608E-02  0.1098985E+00
          2   -1    0    0  501    0  0.00000000000E+00  0.00000000000E+00  0.74259626454E+03  0.74259626454E+03  0.00000000000E+00 0.  1.
         -2   -1    0    0    0  501 -0.00000000000E+00 -0.00000000000E+00 -0.25283694791E+02  0.25283694791E+02  0.00000000000E+00 0.  1.
         36    2    1    2    0    0  0.88817841970E-15  0.71054273576E-14  0.71731256975E+03  0.76787995933E+03  0.27404800533E+03 0.  0.
         25    2    3    3    0    0  0.28257640858E+01  0.55667402181E+02  0.36591857499E+03  0.39031292966E+03  0.12385852787E+03 0.  0.
         25    2    3    3    0    0 -0.28257640858E+01 -0.55667402181E+02  0.35139399476E+03  0.37756702967E+03  0.12638147703E+03 0.  0.
          5    1    4    4  502    0 -0.35473303873E+01  0.92667990088E+02  0.30284190921E+03  0.31675740230E+03  0.47000000000E+01 0. -1.
         -5    1    4    4    0  502  0.63730944730E+01 -0.37000587907E+02  0.63076665783E+02  0.73555527358E+02  0.47000000000E+01 0. -1.
          5    1    5    5  503    0 -0.22346359043E+02  0.36895134729E+02  0.11354365461E+03  0.12155189110E+03  0.47000000000E+01 0.  1.
         -5    1    5    5    0  503  0.19520594957E+02 -0.92562536910E+02  0.23785034015E+03  0.25601513857E+03  0.47000000000E+01 0.  1.
<mgrwt>
<rscale>  0 0.27404801E+03</rscale>
<asrwt>0</asrwt>
<pdfrwt beam="1">  1        2 0.11424556E+00 0.27404801E+03</pdfrwt>
<pdfrwt beam="2">  1       -2 0.38897998E-02 0.27404801E+03</pdfrwt>
<totfact> 0.11132789E+04</totfact>
</mgrwt>
</event>
<event>
 9    1  0.2117506E-002  0.2622679E+03  0.7818608E-02  0.1105788E+00
          1   -1    0    0  501    0  0.00000000000E+00  0.00000000000E+00  0.58366097697E+02  0.58366097697E+02  0.00000000000E+00 0.  1.
         -1   -1    0    0    0  501 -0.00000000000E+00 -0.00000000000E+00 -0.29462499725E+03  0.29462499725E+03  0.00000000000E+00 0.  1.
         36    2    1    2    0    0 -0.71054273576E-14  0.35527136788E-14 -0.23625889955E+03  0.35299109494E+03  0.26226788879E+03 0.  0.
         25    2    3    3    0    0  0.32282077232E+02 -0.12446820416E+02 -0.10488090485E+03  0.16778205404E+03  0.12630818503E+03 0.  0.
         25    2    3    3    0    0 -0.32282077232E+02  0.12446820416E+02 -0.13137799470E+03  0.18520904091E+03  0.12587754165E+03 0.  0.
          5    1    4    4  502    0  0.43352753300E+02 -0.37590386718E+02 -0.12211923193E+03  0.13500998185E+03  0.47000000000E+01 0. -1.
         -5    1    4    4    0  502 -0.11070676068E+02  0.25143566303E+02  0.17238327079E+02  0.32772072188E+02  0.47000000000E+01 0. -1.
          5    1    5    5  503    0 -0.44885557501E+02 -0.14816739760E+02 -0.14449223507E+03  0.15209978648E+03  0.47000000000E+01 0.  1.
         -5    1    5    5    0  503  0.12603480269E+02  0.27263560175E+02  0.13114240373E+02  0.33109254430E+02  0.47000000000E+01 0.  1.
<mgrwt>
<rscale>  0 0.26226789E+03</rscale>
<asrwt>0</asrwt>
<pdfrwt beam="1">  1        1 0.89793997E-02 0.26226789E+03</pdfrwt>
<pdfrwt beam="2">  1       -1 0.45326922E-01 0.26226789E+03</pdfrwt>
<totfact> 0.36328494E+03</totfact>
</mgrwt>
</event>
<event>
 9    1  0.2117506E-002  0.2754603E+03  0.7818608E-02  0.1098195E+00
         -2   -1    0    0    0  501 -0.00000000000E+00  0.00000000000E+00  0.55589357832E+02  0.55589357832E+02  0.00000000000E+00 0. -1.
          2   -1    0    0  501    0  0.00000000000E+00 -0.00000000000E+00 -0.34124501656E+03  0.34124501656E+03  0.00000000000E+00 0. -1.
         36    2    1    2    0    0  0.00000000000E+00  0.00000000000E+00 -0.28565565873E+03  0.39683437439E+03  0.27546027905E+03 0.  0.
         25    2    3    3    0    0 -0.20130113335E+02 -0.55880461989E+02 -0.83155155202E+02  0.15244715465E+03  0.11312606962E+03 0.  0.
         25    2    3    3    0    0  0.20130113335E+02  0.55880461989E+02 -0.20250050353E+03  0.24438721975E+03  0.12325101116E+03 0.  0.
          5    1    4    4  502    0 -0.53111499720E+02  0.33307131308E+01 -0.60772098825E+02  0.80915159569E+02  0.47000000000E+01 0.  1.
         -5    1    4    4    0  502  0.32981386385E+02 -0.59211175119E+02 -0.22383056377E+02  0.71531995077E+02  0.47000000000E+01 0.  1.
          5    1    5    5  503    0  0.41372400551E+02  0.12432304759E+02 -0.83516719662E+01  0.44250176876E+02  0.47000000000E+01 0.  1.
         -5    1    5    5    0  503 -0.21242287216E+02  0.43448157230E+02 -0.19414883156E+03  0.20013704287E+03  0.47000000000E+01 0.  1.
<mgrwt>
<rscale>  0 0.27546028E+03</rscale>
<asrwt>0</asrwt>
<pdfrwt beam="1">  1        2 0.52499234E-01 0.27546028E+03</pdfrwt>
<pdfrwt beam="2">  1       -2 0.85522088E-02 0.27546028E+03</pdfrwt>
<totfact> 0.80287744E+03</totfact>
</mgrwt>
</event>
<event>
 9    1  0.2117506E-002  0.2747186E+03  0.7818608E-02  0.1098609E+00
         -2   -1    0    0    0  501 -0.00000000000E+00  0.00000000000E+00  0.65444640634E+02  0.65444640634E+02  0.00000000000E+00 0. -1.
          2   -1    0    0  501    0  0.00000000000E+00 -0.00000000000E+00 -0.28829824830E+03  0.28829824830E+03  0.00000000000E+00 0. -1.
         36    2    1    2    0    0  0.00000000000E+00  0.00000000000E+00 -0.22285360767E+03  0.35374288894E+03  0.27471858514E+03 0.  0.
         25    2    3    3    0    0  0.37033911042E+02 -0.14155433782E+02 -0.60306526868E+02  0.14405798021E+03  0.12467532878E+03 0.  0.
         25    2    3    3    0    0 -0.37033911042E+02  0.14155433782E+02 -0.16254708080E+03  0.20968490873E+03  0.12638955890E+03 0.  0.
          5    1    4    4  502    0 -0.50961214324E+01 -0.11673885689E+02  0.36178312619E+02  0.38642080232E+02  0.47000000000E+01 0. -1.
         -5    1    4    4    0  502  0.42130032475E+02 -0.24815480931E+01 -0.96484839486E+02  0.10541589998E+03  0.47000000000E+01 0. -1.
          5    1    5    5  503    0 -0.71205977396E+02 -0.70190412209E+01 -0.15168302552E+03  0.16777779468E+03  0.47000000000E+01 0. -1.
         -5    1    5    5    0  503  0.34172066354E+02  0.21174475003E+02 -0.10864055278E+02  0.41907114046E+02  0.47000000000E+01 0. -1.
<mgrwt>
<rscale>  0 0.27471859E+03</rscale>
<asrwt>0</asrwt>
<pdfrwt beam="1">  1        2 0.44353577E-01 0.27471859E+03</pdfrwt>
<pdfrwt beam="2">  1       -2 0.10068406E-01 0.27471859E+03</pdfrwt>
<totfact> 0.74373229E+03</totfact>
</mgrwt>
</event>
<event>
 9    1  0.2117506E-002  0.2744132E+03  0.7818608E-02  0.1098780E+00
          3   -1    0    0  501    0  0.00000000000E+00  0.00000000000E+00  0.50211068269E+02  0.50211068269E+02  0.00000000000E+00 0.  1.
         -3   -1    0    0    0  501 -0.00000000000E+00 -0.00000000000E+00 -0.37493040940E+03  0.37493040940E+03  0.00000000000E+00 0.  1.
         36    2    1    2    0    0  0.00000000000E+00  0.71054273576E-14 -0.32471934113E+03  0.42514147767E+03  0.27441323862E+03 0.  0.
         25    2    3    3    0    0 -0.25437016018E+01 -0.55080916003E+02 -0.16845437761E+03  0.21624712491E+03  0.12387721328E+03 0.  0.
         25    2    3    3    0    0  0.25437016018E+01  0.55080916003E+02 -0.15626496351E+03  0.20889435276E+03  0.12719172169E+03 0.  0.
          5    1    4    4  502    0  0.51869510052E+02 -0.51210686531E+02 -0.59120403813E+02  0.93969636772E+02  0.47000000000E+01 0.  1.
         -5    1    4    4    0  502 -0.54413211654E+02 -0.38702294728E+01 -0.10933397380E+03  0.12227748814E+03  0.47000000000E+01 0.  1.
          5    1    5    5  503    0  0.35948744292E+02  0.41120506776E+02 -0.16282064646E+03  0.17180180793E+03  0.47000000000E+01 0. -1.
         -5    1    5    5    0  503 -0.33405042690E+02  0.13960409228E+02  0.65556829451E+01  0.37092544828E+02  0.47000000000E+01 0. -1.
<mgrwt>
<rscale>  0 0.27441324E+03</rscale>
<asrwt>0</asrwt>
<pdfrwt beam="1">  1        3 0.77247800E-02 0.27441324E+03</pdfrwt>
<pdfrwt beam="2">  1       -3 0.57681599E-01 0.27441324E+03</pdfrwt>
<totfact> 0.85726171E+02</totfact>
</mgrwt>
</event>
<event>
 9    1  0.2117506E-002  0.2753427E+03  0.7818608E-02  0.1098260E+00
         -1   -1    0    0    0  501 -0.00000000000E+00  0.00000000000E+00  0.22081817442E+03  0.22081817442E+03  0.00000000000E+00 0.  1.
          1   -1    0    0  501    0  0.00000000000E+00 -0.00000000000E+00 -0.85832616354E+02  0.85832616354E+02  0.00000000000E+00 0.  1.
         36    2    1    2    0    0  0.71054273576E-14  0.00000000000E+00  0.13498555806E+03  0.30665079077E+03  0.27534270754E+03 0.  0.
         25    2    3    3    0    0 -0.28561808617E+01  0.20977982328E+02  0.18669475895E+02  0.12772943872E+03  0.12457137180E+03 0.  0.
         25    2    3    3    0    0  0.28561808617E+01 -0.20977982328E+02  0.11631608217E+03  0.17892135206E+03  0.13429514414E+03 0.  0.
          5    1    4    4  502    0 -0.44650461725E+02 -0.34136492719E+00  0.52957004862E+02  0.69428485697E+02  0.47000000000E+01 0.  1.
         -5    1    4    4    0  502  0.41794280863E+02  0.21319347255E+02 -0.34287528967E+02  0.58300953018E+02  0.47000000000E+01 0.  1.
          5    1    5    5  503    0 -0.62884888995E+02 -0.16145989203E+02  0.81245898059E+02  0.10410661930E+03  0.47000000000E+01 0.  1.
         -5    1    5    5    0  503  0.65741069857E+02 -0.48319931247E+01  0.35070184110E+02  0.74814732754E+02  0.47000000000E+01 0.  1.
<mgrwt>
<rscale>  0 0.27534271E+03</rscale>
<asrwt>0</asrwt>
<pdfrwt beam="1">  1        1 0.13205018E-01 0.27534271E+03</pdfrwt>
<pdfrwt beam="2">  1       -1 0.33972027E-01 0.27534271E+03</pdfrwt>
<totfact> 0.36190105E+03</totfact>
</mgrwt>
</event>
<event>
 9    1  0.2117506E-002  0.2733609E+03  0.7818608E-02  0.1099371E+00
         -4   -1    0    0    0  501 -0.00000000000E+00  0.00000000000E+00  0.12876374746E+03  0.12876374746E+03  0.00000000000E+00 0.  1.
          4   -1    0    0  501    0  0.00000000000E+00 -0.00000000000E+00 -0.14508387971E+03  0.14508387971E+03  0.00000000000E+00 0.  1.
         36    2    1    2    0    0  0.00000000000E+00  0.71054273576E-14 -0.16320132253E+02  0.27384762717E+03  0.27336089002E+03 0.  0.
         25    2    3    3    0    0  0.20768183531E+02 -0.47421558732E+02 -0.37070047882E+02  0.14145023008E+03  0.12630858030E+03 0.  0.
         25    2    3    3    0    0 -0.20768183531E+02  0.47421558732E+02  0.20749915629E+02  0.13239739710E+03  0.12007660088E+03 0.  0.
          5    1    4    4  502    0  0.55319489777E+02  0.95114095155E+01  0.13229315515E+02  0.57860328802E+02  0.47000000000E+01 0.  1.
         -5    1    4    4    0  502 -0.34551306246E+02 -0.56932968247E+02 -0.50299363396E+02  0.83589901273E+02  0.47000000000E+01 0.  1.
          5    1    5    5  503    0 -0.54704232483E+02  0.59245176692E+01  0.47006319566E+02  0.72521286808E+02  0.47000000000E+01 0.  1.
         -5    1    5    5    0  503  0.33936048951E+02  0.41497041063E+02 -0.26256403938E+02  0.59876110287E+02  0.47000000000E+01 0.  1.
<mgrwt>
<rscale>  0 0.27336089E+03</rscale>
<asrwt>0</asrwt>
<pdfrwt beam="1">  1        4 0.22320597E-01 0.27336089E+03</pdfrwt>
<pdfrwt beam="2">  1       -4 0.19809807E-01 0.27336089E+03</pdfrwt>
<totfact> 0.79456701E+02</totfact>
</mgrwt>
</event>
<event>
 9    1  0.2117506E-002  0.2748596E+03  0.7818608E-02  0.1098530E+00
          2   -1    0    0  501    0  0.00000000000E+00  0.00000000000E+00  0.33422461598E+04  0.33422461598E+04  0.00000000000E+00 0. -1.
         -2   -1    0    0    0  501 -0.00000000000E+00 -0.00000000000E+00 -0.56509757416E+01  0.56509757416E+01  0.00000000000E+00 0. -1.
         36    2    1    2    0    0  0.14210854715E-13  0.00000000000E+00  0.33365951841E+04  0.33478971356E+04  0.27485961487E+03 0.  0.
         25    2    3    3    0    0  0.42399558336E+02  0.39359169203E+02  0.14697601801E+04  0.14760775812E+04  0.12354421069E+03 0.  0.
         25    2    3    3    0    0 -0.42399558336E+02 -0.39359169203E+02  0.18668350040E+04  0.18718195544E+04  0.12364726130E+03 0.  0.
          5    1    4    4  502    0  0.97612166485E+01  0.32969334397E+02  0.13767678736E+04  0.13772051867E+04  0.47000000000E+01 0. -1.
         -5    1    4    4    0  502  0.32638341687E+02  0.63898348061E+01  0.92992306440E+02  0.98872394499E+02  0.47000000000E+01 0. -1.
          5    1    5    5  503    0  0.31571726942E+02 -0.37740725833E+02  0.38925800985E+03  0.39238377204E+03  0.47000000000E+01 0.  1.
         -5    1    5    5    0  503 -0.73971285278E+02 -0.16184433694E+01  0.14775769942E+04  0.14794357824E+04  0.47000000000E+01 0.  1.
<mgrwt>
<rscale>  0 0.27485961E+03</rscale>
<asrwt>0</asrwt>
<pdfrwt beam="1">  1        2 0.51419014E+00 0.27485961E+03</pdfrwt>
<pdfrwt beam="2">  1       -2 0.86938355E-03 0.27485961E+03</pdfrwt>
<totfact> 0.33549848E+03</totfact>
</mgrwt>
</event>
<event>
 9    1  0.2117506E-002  0.2751398E+03  0.7818608E-02  0.1098373E+00
         -2   -1    0    0    0  501 -0.00000000000E+00  0.00000000000E+00  0.77335927820E+01  0.77335927820E+01  0.00000000000E+00 0.  1.
          2   -1    0    0  501    0  0.00000000000E+00 -0.00000000000E+00 -0.24471782686E+04  0.24471782686E+04  0.00000000000E+00 0.  1.
         36    2    1    2    0    0 -0.71054273576E-14 -0.71054273576E-14 -0.24394446758E+04  0.24549118614E+04  0.27513982041E+03 0.  0.
         25    2    3    3    0    0  0.22028538350E+02  0.43917160694E+02 -0.13725509232E+04  0.13790096350E+04  0.12392563565E+03 0.  0.
         25    2    3    3    0    0 -0.22028538350E+02 -0.43917160694E+02 -0.10668937527E+04  0.10759022264E+04  0.12995902365E+03 0.  0.
          5    1    4    4  502    0  0.66516533000E+02 -0.36303474885E+01 -0.59991977896E+03  0.60362526436E+03  0.47000000000E+01 0. -1.
         -5    1    4    4    0  502 -0.44487994649E+02  0.47547508182E+02 -0.77263114420E+03  0.77538437062E+03  0.47000000000E+01 0. -1.
          5    1    5    5  503    0 -0.38105249683E+02 -0.79135419796E+02 -0.90973136410E+03  0.91397356064E+03  0.47000000000E+01 0. -1.
         -5    1    5    5    0  503  0.16076711333E+02  0.35218259102E+02 -0.15716238857E+03  0.16192866578E+03  0.47000000000E+01 0. -1.
<mgrwt>
<rscale>  0 0.27513982E+03</rscale>
<asrwt>0</asrwt>
<pdfrwt beam="1">  1        2 0.37648847E+00 0.27513982E+03</pdfrwt>
<pdfrwt beam="2">  1       -2 0.11897851E-02 0.27513982E+03</pdfrwt>
<totfact> 0.70956945E+03</totfact>
</mgrwt>
</event>
<event>
 9    1  0.2117506E-002  0.2749725E+03  0.7818608E-02  0.1098467E+00
         -1   -1    0    0    0  501 -0.00000000000E+00  0.00000000000E+00  0.27133869298E+03  0.27133869298E+03  0.00000000000E+00 0.  1.
          1   -1    0    0  501    0  0.00000000000E+00 -0.00000000000E+00 -0.69663762570E+02  0.69663762570E+02  0.00000000000E+00 0.  1.
         36    2    1    2    0    0 -0.71054273576E-14  0.71054273576E-14  0.20167493041E+03  0.34100245555E+03  0.27497253887E+03 0.  0.
         25    2    3    3    0    0  0.33126698131E+02  0.30827886516E+02  0.56445705827E+02  0.14730291046E+03  0.12831326123E+03 0.  0.
         25    2    3    3    0    0 -0.33126698131E+02 -0.30827886516E+02  0.14522922458E+03  0.19369954509E+03  0.11991767751E+03 0.  0.
          5    1    4    4  502    0 -0.76660945572E+01  0.28402012856E+02  0.89630336852E+02  0.94451737010E+02  0.47000000000E+01 0.  1.
         -5    1    4    4    0  502  0.40792792688E+02  0.24258736605E+01 -0.33184631025E+02  0.52851173445E+02  0.47000000000E+01 0.  1.
          5    1    5    5  503    0  0.33013264613E+02 -0.47143899674E+02  0.49171789680E+02  0.75844431683E+02  0.47000000000E+01 0.  1.
         -5    1    5    5    0  503 -0.66139962744E+02  0.16316013158E+02  0.96057434903E+02  0.11785511341E+03  0.47000000000E+01 0.  1.
<mgrwt>
<rscale>  0 0.27497254E+03</rscale>
<asrwt>0</asrwt>
<pdfrwt beam="1">  1        1 0.10717502E-01 0.27497254E+03</pdfrwt>
<pdfrwt beam="2">  1       -1 0.41744414E-01 0.27497254E+03</pdfrwt>
<totfact> 0.33257932E+03</totfact>
</mgrwt>
</event>
<event>
 9    1  0.2117506E-002  0.2718926E+03  0.7818608E-02  0.1100201E+00
          2   -1    0    0  501    0  0.00000000000E+00  0.00000000000E+00  0.22340394610E+02  0.22340394610E+02  0.00000000000E+00 0.  1.
         -2   -1    0    0    0  501 -0.00000000000E+00 -0.00000000000E+00 -0.82726351389E+03  0.82726351389E+03  0.00000000000E+00 0.  1.
         36    2    1    2    0    0 -0.35527136788E-14  0.00000000000E+00 -0.80492311928E+03  0.84960390850E+03  0.27189257692E+03 0.  0.
         25    2    3    3    0    0 -0.10816353300E+02 -0.55084603304E+02 -0.36222624025E+03  0.38691088446E+03  0.12385829149E+03 0.  0.
         25    2    3    3    0    0  0.10816353300E+02  0.55084603304E+02 -0.44269687904E+03  0.46269302404E+03  0.12228246304E+03 0.  0.
          5    1    4    4  502    0 -0.59811173785E+02 -0.17172844220E+02 -0.25915911510E+03  0.26656672716E+03  0.47000000000E+01 0. -1.
         -5    1    4    4    0  502  0.48994820486E+02 -0.37911759085E+02 -0.10306712515E+03  0.12034415731E+03  0.47000000000E+01 0. -1.
          5    1    5    5  503    0  0.16017467338E+02  0.30943740523E+02 -0.43497789273E+03  0.43639653012E+03  0.47000000000E+01 0. -1.
         -5    1    5    5    0  503 -0.52011140385E+01  0.24140862781E+02 -0.77189863109E+01  0.26296493925E+02  0.47000000000E+01 0. -1.
<mgrwt>
<rscale>  0 0.27189258E+03</rscale>
<asrwt>0</asrwt>
<pdfrwt beam="1">  1        2 0.34369843E-02 0.27189258E+03</pdfrwt>
<pdfrwt beam="2">  1       -2 0.12727129E+00 0.27189258E+03</pdfrwt>
<totfact> 0.12502103E+03</totfact>
</mgrwt>
</event>
<event>
 9    1  0.2117506E-002  0.2708358E+03  0.7818608E-02  0.1100802E+00
         -2   -1    0    0    0  501 -0.00000000000E+00  0.00000000000E+00  0.20898547751E+02  0.20898547751E+02  0.00000000000E+00 0.  1.
          2   -1    0    0  501    0  0.00000000000E+00 -0.00000000000E+00 -0.87747729460E+03  0.87747729460E+03  0.00000000000E+00 0.  1.
         36    2    1    2    0    0  0.71054273576E-14  0.17763568394E-14 -0.85657874685E+03  0.89837584235E+03  0.27083575201E+03 0.  0.
         25    2    3    3    0    0  0.32036342868E+02  0.12199863001E+02 -0.31666007995E+03  0.34239192950E+03  0.12563225395E+03 0.  0.
         25    2    3    3    0    0 -0.32036342868E+02 -0.12199863001E+02 -0.53991866690E+03  0.55598391285E+03  0.12818260631E+03 0.  0.
          5    1    4    4  502    0  0.57515411369E+02  0.48780751950E+02 -0.12945024364E+03  0.14989009268E+03  0.47000000000E+01 0. -1.
         -5    1    4    4    0  502 -0.25479068501E+02 -0.36580888949E+02 -0.18720983631E+03  0.19250183682E+03  0.47000000000E+01 0. -1.
          5    1    5    5  503    0  0.33785712473E+01 -0.12078827657E+02  0.14186179894E+01  0.13469049641E+02  0.47000000000E+01 0. -1.
         -5    1    5    5    0  503 -0.35414914115E+02 -0.12103534415E+00 -0.54133728489E+03  0.54251486321E+03  0.47000000000E+01 0. -1.
<mgrwt>
<rscale>  0 0.27083575E+03</rscale>
<asrwt>0</asrwt>
<pdfrwt beam="1">  1        2 0.13499646E+00 0.27083575E+03</pdfrwt>
<pdfrwt beam="2">  1       -2 0.32151623E-02 0.27083575E+03</pdfrwt>
<totfact> 0.11956297E+04</totfact>
</mgrwt>
</event>
<event>
 9    1  0.2117506E-002  0.2748873E+03  0.7818608E-02  0.1098515E+00
          1   -1    0    0  501    0  0.00000000000E+00  0.00000000000E+00  0.48701466021E+03  0.48701466021E+03  0.00000000000E+00 0.  1.
         -1   -1    0    0    0  501 -0.00000000000E+00 -0.00000000000E+00 -0.38788874772E+02  0.38788874772E+02  0.00000000000E+00 0.  1.
         36    2    1    2    0    0  0.71054273576E-14 -0.71054273576E-14  0.44822578544E+03  0.52580353498E+03  0.27488725447E+03 0.  0.
         25    2    3    3    0    0 -0.42779919314E+02  0.19368094127E+02  0.17594156339E+03  0.22022820515E+03  0.12385388185E+03 0.  0.
         25    2    3    3    0    0  0.42779919314E+02 -0.19368094127E+02  0.27228422205E+03  0.30557532983E+03  0.13050800764E+03 0.  0.
          5    1    4    4  502    0 -0.55658205350E+02  0.53546839747E+02  0.16429617530E+03  0.18160512957E+03  0.47000000000E+01 0.  1.
         -5    1    4    4    0  502  0.12878286036E+02 -0.34178745620E+02  0.11645388090E+02  0.38623075579E+02  0.47000000000E+01 0.  1.
          5    1    5    5  503    0  0.22419630217E+02  0.55083239062E+02  0.95252978801E+02  0.11239227293E+03  0.47000000000E+01 0.  1.
         -5    1    5    5    0  503  0.20360289096E+02 -0.74451333189E+02  0.17703124325E+03  0.19318305690E+03  0.47000000000E+01 0.  1.
<mgrwt>
<rscale>  0 0.27488725E+03</rscale>
<asrwt>0</asrwt>
<pdfrwt beam="1">  1        1 0.74925328E-01 0.27488725E+03</pdfrwt>
<pdfrwt beam="2">  1       -1 0.59675195E-02 0.27488725E+03</pdfrwt>
<totfact> 0.62705566E+03</totfact>
</mgrwt>
</event>
<event>
 9    1  0.2117506E-002  0.2733512E+03  0.7818608E-02  0.1099377E+00
          2   -1    0    0  501    0  0.00000000000E+00  0.00000000000E+00  0.20577140115E+04  0.20577140115E+04  0.00000000000E+00 0.  1.
         -2   -1    0    0    0  501 -0.00000000000E+00 -0.00000000000E+00 -0.90781419549E+01  0.90781419549E+01  0.00000000000E+00 0.  1.
         36    2    1    2    0    0  0.00000000000E+00  0.14210854715E-13  0.20486358696E+04  0.20667921535E+04  0.27335120193E+03 0.  0.
         25    2    3    3    0    0 -0.10190193968E+02 -0.49149457757E+02  0.12016342674E+04  0.12092050246E+04  0.12542874419E+03 0.  0.
         25    2    3    3    0    0  0.10190193968E+02  0.49149457757E+02  0.84700160221E+03  0.85758712884E+03  0.12459719160E+03 0.  0.
          5    1    4    4  502    0 -0.52723559192E+02 -0.64263503066E+02  0.58388087121E+03  0.58978685412E+03  0.47000000000E+01 0. -1.
         -5    1    4    4    0  502  0.42533365224E+02  0.15114045309E+02  0.61775339614E+03  0.61941817052E+03  0.47000000000E+01 0. -1.
          5    1    5    5  503    0 -0.37783671049E+02 -0.24923416302E+02  0.25575312118E+03  0.25977015123E+03  0.47000000000E+01 0. -1.
         -5    1    5    5    0  503  0.47973865017E+02  0.74072874058E+02  0.59124848104E+03  0.59781697761E+03  0.47000000000E+01 0. -1.
<mgrwt>
<rscale>  0 0.27335120E+03</rscale>
<asrwt>0</asrwt>
<pdfrwt beam="1">  1        2 0.31657101E+00 0.27335120E+03</pdfrwt>
<pdfrwt beam="2">  1       -2 0.13966389E-02 0.27335120E+03</pdfrwt>
<totfact> 0.90718523E+03</totfact>
</mgrwt>
</event>
<event>
 9    1  0.2117506E-002  0.2748026E+03  0.7818608E-02  0.1098562E+00
          2   -1    0    0  501    0  0.00000000000E+00  0.00000000000E+00  0.95186411549E+02  0.95186411549E+02  0.00000000000E+00 0.  1.
         -2   -1    0    0    0  501 -0.00000000000E+00 -0.00000000000E+00 -0.19833833691E+03  0.19833833691E+03  0.00000000000E+00 0.  1.
         36    2    1    2    0    0 -0.17763568394E-14  0.35527136788E-14 -0.10315192536E+03  0.29352474846E+03  0.27480258050E+03 0.  0.
         25    2    3    3    0    0  0.98718332911E+01 -0.17501409440E+02  0.50508528393E+01  0.12509675851E+03  0.12336910249E+03 0.  0.
         25    2    3    3    0    0 -0.98718332911E+01  0.17501409440E+02 -0.10820277820E+03  0.16842798995E+03  0.12750056535E+03 0.  0.
          5    1    4    4  502    0  0.44046442885E+01 -0.18088451875E+01 -0.58683753513E+02  0.59063912321E+02  0.47000000000E+01 0. -1.
         -5    1    4    4    0  502  0.54671890026E+01 -0.15692564253E+02  0.63734606352E+02  0.66032846185E+02  0.47000000000E+01 0. -1.
          5    1    5    5  503    0 -0.39084409199E+02  0.60969692323E+02 -0.41884872991E+02  0.83793358984E+02  0.47000000000E+01 0.  1.
         -5    1    5    5    0  503  0.29212575908E+02 -0.43468282882E+02 -0.66317905208E+02  0.84634630968E+02  0.47000000000E+01 0.  1.
<mgrwt>
<rscale>  0 0.27480258E+03</rscale>
<asrwt>0</asrwt>
<pdfrwt beam="1">  1        2 0.14644063E-01 0.27480258E+03</pdfrwt>
<pdfrwt beam="2">  1       -2 0.30513590E-01 0.27480258E+03</pdfrwt>
<totfact> 0.39540177E+03</totfact>
</mgrwt>
</event>
<event>
 9    1  0.2117506E-002  0.2759206E+03  0.7818608E-02  0.1097938E+00
         -1   -1    0    0    0  501 -0.00000000000E+00  0.00000000000E+00  0.16198239680E+02  0.16198239680E+02  0.00000000000E+00 0. -1.
          1   -1    0    0  501    0  0.00000000000E+00 -0.00000000000E+00 -0.11750071520E+04  0.11750071520E+04  0.00000000000E+00 0. -1.
         36    2    1    2    0    0 -0.35527136788E-14  0.35527136788E-14 -0.11588089123E+04  0.11912053917E+04  0.27592062245E+03 0.  0.
         25    2    3    3    0    0 -0.10693522307E+01 -0.20308181498E+02 -0.97718206149E+03  0.98508093287E+03  0.12282547475E+03 0.  0.
         25    2    3    3    0    0  0.10693522307E+01  0.20308181498E+02 -0.18162685080E+03  0.20612445878E+03  0.95317437163E+02 0.  0.
          5    1    4    4  502    0  0.14956285489E+02 -0.30310944228E+02 -0.95483182910E+03  0.95544144545E+03  0.47000000000E+01 0.  1.
         -5    1    4    4    0  502 -0.16025637719E+02  0.10002762730E+02 -0.22350232389E+02  0.29639487418E+02  0.47000000000E+01 0.  1.
          5    1    5    5  503    0  0.42412719063E+02 -0.91081457828E+01 -0.59427464554E+02  0.73725915398E+02  0.47000000000E+01 0. -1.
         -5    1    5    5    0  503 -0.41343366833E+02  0.29416327281E+02 -0.12219938625E+03  0.13239854339E+03  0.47000000000E+01 0. -1.
<mgrwt>
<rscale>  0 0.27592062E+03</rscale>
<asrwt>0</asrwt>
<pdfrwt beam="1">  1        1 0.18077030E+00 0.27592062E+03</pdfrwt>
<pdfrwt beam="2">  1       -1 0.24920373E-02 0.27592062E+03</pdfrwt>
<totfact> 0.59158154E+03</totfact>
</mgrwt>
</event>
<event>
 9    1  0.2117506E-002  0.2758449E+03  0.7818608E-02  0.1097980E+00
          2   -1    0    0  501    0  0.00000000000E+00  0.00000000000E+00  0.60259440609E+02  0.60259440609E+02  0.00000000000E+00 0. -1.
         -2   -1    0    0    0  501 -0.00000000000E+00 -0.00000000000E+00 -0.31567833194E+03  0.31567833194E+03  0.00000000000E+00 0. -1.
         36    2    1    2    0    0 -0.71054273576E-14  0.35527136788E-14 -0.25541889133E+03  0.37593777255E+03  0.27584488174E+03 0.  0.
         25    2    3    3    0    0  0.42092768195E+02 -0.12237579321E+02 -0.18918512527E+03  0.23027788280E+03  0.12375512999E+03 0.  0.
         25    2    3    3    0    0 -0.42092768195E+02  0.12237579321E+02 -0.66233766060E+02  0.14565988975E+03  0.12209968155E+03 0.  0.
          5    1    4    4  502    0  0.70223878176E+02  0.21093454147E+02 -0.16397065544E+03  0.17967969479E+03  0.47000000000E+01 0. -1.
         -5    1    4    4    0  502 -0.28131109980E+02 -0.33331033468E+02 -0.25214469833E+02  0.50598188009E+02  0.47000000000E+01 0. -1.
          5    1    5    5  503    0 -0.46834009139E+02  0.59579360511E+02 -0.61319856411E+02  0.97597845270E+02  0.47000000000E+01 0. -1.
         -5    1    5    5    0  503  0.47412409440E+01 -0.47341781190E+02 -0.49139096481E+01  0.48062044484E+02  0.47000000000E+01 0. -1.
<mgrwt>
<rscale>  0 0.27584488E+03</rscale>
<asrwt>0</asrwt>
<pdfrwt beam="1">  1        2 0.92706830E-02 0.27584488E+03</pdfrwt>
<pdfrwt beam="2">  1       -2 0.48565898E-01 0.27584488E+03</pdfrwt>
<totfact> 0.28600059E+03</totfact>
</mgrwt>
</event>
<event>
 9    1  0.2117506E-002  0.2739145E+03  0.7818608E-02  0.1099060E+00
          2   -1    0    0  501    0  0.00000000000E+00  0.00000000000E+00  0.27826805432E+03  0.27826805432E+03  0.00000000000E+00 0. -1.
         -2   -1    0    0    0  501 -0.00000000000E+00 -0.00000000000E+00 -0.67407269708E+02  0.67407269708E+02  0.00000000000E+00 0. -1.
         36    2    1    2    0    0  0.00000000000E+00  0.00000000000E+00  0.21086078461E+03  0.34567532402E+03  0.27391451067E+03 0.  0.
         25    2    3    3    0    0  0.49799311632E+02 -0.21498476899E+02  0.83016845133E+02  0.15788567933E+03  0.12285737753E+03 0.  0.
         25    2    3    3    0    0 -0.49799311632E+02  0.21498476899E+02  0.12784393948E+03  0.18778964469E+03  0.12640696913E+03 0.  0.
          5    1    4    4  502    0  0.19275983800E+02  0.25279146183E+02 -0.21931765416E+02  0.38906183538E+02  0.47000000000E+01 0.  1.
         -5    1    4    4    0  502  0.30523327832E+02 -0.46777623083E+02  0.10494861055E+03  0.11897949579E+03  0.47000000000E+01 0.  1.
          5    1    5    5  503    0 -0.72719744966E+02 -0.72322226181E+01  0.13154323757E+03  0.15055291329E+03  0.47000000000E+01 0.  1.
         -5    1    5    5    0  503  0.22920433334E+02  0.28730699517E+02 -0.36992980889E+01  0.37236731399E+02  0.47000000000E+01 0.  1.
<mgrwt>
<rscale>  0 0.27391451E+03</rscale>
<asrwt>0</asrwt>
<pdfrwt beam="1">  1        2 0.42810469E-01 0.27391451E+03</pdfrwt>
<pdfrwt beam="2">  1       -2 0.10370349E-01 0.27391451E+03</pdfrwt>
<totfact> 0.73701559E+03</totfact>
</mgrwt>
</event>
<event>
 9    1  0.2117506E-002  0.2746230E+03  0.7818608E-02  0.1098663E+00
         -1   -1    0    0    0  501 -0.00000000000E+00  0.00000000000E+00  0.23492776798E+02  0.23492776798E+02  0.00000000000E+00 0.  1.
          1   -1    0    0  501    0  0.00000000000E+00 -0.00000000000E+00 -0.80256350818E+03  0.80256350818E+03  0.00000000000E+00 0.  1.
         36    2    1    2    0    0 -0.71054273576E-14  0.00000000000E+00 -0.77907073139E+03  0.82605628498E+03  0.27462298056E+03 0.  0.
         25    2    3    3    0    0 -0.33418599144E+02  0.41439886270E+01 -0.52763170156E+03  0.54291712441E+03  0.12340914097E+03 0.  0.
         25    2    3    3    0    0  0.33418599144E+02 -0.41439886270E+01 -0.25143902982E+03  0.28313916057E+03  0.12574666246E+03 0.  0.
          5    1    4    4  502    0 -0.61072803067E+02 -0.88588508277E+00 -0.12425940357E+03  0.13853938588E+03  0.47000000000E+01 0. -1.
         -5    1    4    4    0  502  0.27654203924E+02  0.50298737097E+01 -0.40337229800E+03  0.40437773852E+03  0.47000000000E+01 0. -1.
          5    1    5    5  503    0  0.65323469274E+02  0.34106836472E+02 -0.10480968565E+03  0.12820917338E+03  0.47000000000E+01 0. -1.
         -5    1    5    5    0  503 -0.31904870130E+02 -0.38250825099E+02 -0.14662934417E+03  0.15492998719E+03  0.47000000000E+01 0. -1.
<mgrwt>
<rscale>  0 0.27462298E+03</rscale>
<asrwt>0</asrwt>
<pdfrwt beam="1">  1        1 0.12347128E+00 0.27462298E+03</pdfrwt>
<pdfrwt beam="2">  1       -1 0.36142741E-02 0.27462298E+03</pdfrwt>
<totfact> 0.65460167E+03</totfact>
</mgrwt>
</event>
<event>
 9    1  0.2117506E-002  0.2745634E+03  0.7818608E-02  0.1098696E+00
          2   -1    0    0  501    0  0.00000000000E+00  0.00000000000E+00  0.13582509051E+03  0.13582509051E+03  0.00000000000E+00 0.  1.
         -2   -1    0    0    0  501 -0.00000000000E+00 -0.00000000000E+00 -0.13875393953E+03  0.13875393953E+03  0.00000000000E+00 0.  1.
         36    2    1    2    0    0  0.00000000000E+00 -0.35527136788E-14 -0.29288490135E+01  0.27457903004E+03  0.27456340903E+03 0.  0.
         25    2    3    3    0    0 -0.49227737365E+02  0.27303551764E+02 -0.90247301735E+00  0.13663370853E+03  0.12449538861E+03 0.  0.
         25    2    3    3    0    0  0.49227737365E+02 -0.27303551764E+02 -0.20263759962E+01  0.13794532151E+03  0.12592041717E+03 0.  0.
          5    1    4    4  502    0 -0.27614094651E+01  0.22885040664E+02 -0.58086260532E+02  0.62669403468E+02  0.47000000000E+01 0. -1.
         -5    1    4    4    0  502 -0.46466327900E+02  0.44185111000E+01  0.57183787514E+02  0.73964305062E+02  0.47000000000E+01 0. -1.
          5    1    5    5  503    0 -0.32786059298E+02  0.23751517354E+02 -0.57034655911E+01  0.41154340969E+02  0.47000000000E+01 0. -1.
         -5    1    5    5    0  503  0.82013796663E+02 -0.51055069117E+02  0.36770895949E+01  0.96790980538E+02  0.47000000000E+01 0. -1.
<mgrwt>
<rscale>  0 0.27456341E+03</rscale>
<asrwt>0</asrwt>
<pdfrwt beam="1">  1        2 0.20896168E-01 0.27456341E+03</pdfrwt>
<pdfrwt beam="2">  1       -2 0.21346760E-01 0.27456341E+03</pdfrwt>
<totfact> 0.49218998E+03</totfact>
</mgrwt>
</event>
<event>
 9    1  0.2117506E-002  0.2781323E+03  0.7818608E-02  0.1096713E+00
         -2   -1    0    0    0  501 -0.00000000000E+00  0.00000000000E+00  0.12029865255E+03  0.12029865255E+03  0.00000000000E+00 0.  1.
          2   -1    0    0  501    0  0.00000000000E+00 -0.00000000000E+00 -0.16076147654E+03  0.16076147654E+03  0.00000000000E+00 0.  1.
         36    2    1    2    0    0  0.17763568394E-14  0.00000000000E+00 -0.40462823997E+02  0.28106012909E+03  0.27813226357E+03 0.  0.
         25    2    3    3    0    0  0.12999430065E+02 -0.35909214512E+02  0.27516220530E+02  0.13586594514E+03  0.12745177829E+03 0.  0.
         25    2    3    3    0    0 -0.12999430065E+02  0.35909214512E+02 -0.67979044526E+02  0.14519418395E+03  0.12248160551E+03 0.  0.
          5    1    4    4  502    0  0.38294157605E+02  0.35493354045E+02 -0.62533024600E+01  0.52795970298E+02  0.47000000000E+01 0. -1.
         -5    1    4    4    0  502 -0.25294727540E+02 -0.71402568558E+02  0.33769522990E+02  0.83069974846E+02  0.47000000000E+01 0. -1.
          5    1    5    5  503    0  0.56215448516E+01  0.42266934932E+02 -0.99151147739E+02  0.10803303038E+03  0.47000000000E+01 0.  1.
         -5    1    5    5    0  503 -0.18620974917E+02 -0.63577204193E+01  0.31172103213E+02  0.37161153568E+02  0.47000000000E+01 0.  1.
<mgrwt>
<rscale>  0 0.27813226E+03</rscale>
<asrwt>0</asrwt>
<pdfrwt beam="1">  1        2 0.24732535E-01 0.27813226E+03</pdfrwt>
<pdfrwt beam="2">  1       -2 0.18507485E-01 0.27813226E+03</pdfrwt>
<totfact> 0.51957040E+03</totfact>
</mgrwt>
</event>
<event>
 9    1  0.2117506E-002  0.2748963E+03  0.7818608E-02  0.1098510E+00
          2   -1    0    0  501    0  0.00000000000E+00  0.00000000000E+00  0.67810758328E+02  0.67810758328E+02  0.00000000000E+00 0.  1.
         -2   -1    0    0    0  501 -0.00000000000E+00 -0.00000000000E+00 -0.27859881381E+03  0.27859881381E+03  0.00000000000E+00 0.  1.
         36    2    1    2    0    0  0.14210854715E-13  0.35527136788E-14 -0.21078805548E+03  0.34640957214E+03  0.27489632106E+03 0.  0.
         25    2    3    3    0    0  0.37228166309E+02 -0.15372933710E+02 -0.46895961634E+02  0.13942548302E+03  0.12497187940E+03 0.  0.
         25    2    3    3    0    0 -0.37228166309E+02  0.15372933710E+02 -0.16389209385E+03  0.20698408911E+03  0.11983126163E+03 0.  0.
          5    1    4    4  502    0  0.77287565824E+02 -0.32108436700E+02 -0.14537781678E+02  0.85075005933E+02  0.47000000000E+01 0. -1.
         -5    1    4    4    0  502 -0.40059399515E+02  0.16735502990E+02 -0.32358179956E+02  0.54350477090E+02  0.47000000000E+01 0. -1.
          5    1    5    5  503    0 -0.62832498669E+02 -0.67048890899E+01 -0.16065283596E+03  0.17269713989E+03  0.47000000000E+01 0.  1.
         -5    1    5    5    0  503  0.25604332360E+02  0.22077822800E+02 -0.32392578912E+01  0.34286949221E+02  0.47000000000E+01 0.  1.
<mgrwt>
<rscale>  0 0.27489632E+03</rscale>
<asrwt>0</asrwt>
<pdfrwt beam="1">  1        2 0.10432424E-01 0.27489632E+03</pdfrwt>
<pdfrwt beam="2">  1       -2 0.42861356E-01 0.27489632E+03</pdfrwt>
<totfact> 0.31536739E+03</totfact>
</mgrwt>
</event>
<event>
 9    1  0.2117506E-002  0.2778979E+03  0.7818608E-02  0.1096843E+00
         -1   -1    0    0    0  501 -0.00000000000E+00  0.00000000000E+00  0.65731000376E+03  0.65731000376E+03  0.00000000000E+00 0.  1.
          1   -1    0    0  501    0  0.00000000000E+00 -0.00000000000E+00 -0.29372453602E+02  0.29372453602E+02  0.00000000000E+00 0.  1.
         36    2    1    2    0    0 -0.71054273576E-14  0.35527136788E-14  0.62793755016E+03  0.68668245737E+03  0.27789787756E+03 0.  0.
         25    2    3    3    0    0 -0.39081806485E+02  0.13299988261E+02  0.41677060552E+03  0.43738861087E+03  0.12612209169E+03 0.  0.
         25    2    3    3    0    0  0.39081806485E+02 -0.13299988261E+02  0.21116694464E+03  0.24929384649E+03  0.12590339989E+03 0.  0.
          5    1    4    4  502    0 -0.17146218274E+02 -0.29583349417E+02  0.24944737692E+02  0.42585177026E+02  0.47000000000E+01 0. -1.
         -5    1    4    4    0  502 -0.21935588211E+02  0.42883337678E+02  0.39182586782E+03  0.39480343385E+03  0.47000000000E+01 0. -1.
          5    1    5    5  503    0  0.77277868418E+02 -0.28010023560E+02  0.17899112195E+03  0.19701863390E+03  0.47000000000E+01 0.  1.
         -5    1    5    5    0  503 -0.38196061933E+02  0.14710035298E+02  0.32175822696E+02  0.52275212595E+02  0.47000000000E+01 0.  1.
<mgrwt>
<rscale>  0 0.27789788E+03</rscale>
<asrwt>0</asrwt>
<pdfrwt beam="1">  1        1 0.45188395E-02 0.27789788E+03</pdfrwt>
<pdfrwt beam="2">  1       -1 0.10112460E+00 0.27789788E+03</pdfrwt>
<totfact> 0.18830309E+03</totfact>
</mgrwt>
</event>
<event>
 9    1  0.2117506E-002  0.2748677E+03  0.7818608E-02  0.1098526E+00
         -1   -1    0    0    0  501 -0.00000000000E+00  0.00000000000E+00  0.60755702233E+03  0.60755702233E+03  0.00000000000E+00 0. -1.
          1   -1    0    0  501    0  0.00000000000E+00 -0.00000000000E+00 -0.31088538036E+02  0.31088538036E+02  0.00000000000E+00 0. -1.
         36    2    1    2    0    0  0.71054273576E-14 -0.71054273576E-14  0.57646848429E+03  0.63864556036E+03  0.27486767433E+03 0.  0.
         25    2    3    3    0    0  0.26834167676E+02 -0.40169651436E+02  0.37240121224E+03  0.39636922168E+03  0.12685512826E+03 0.  0.
         25    2    3    3    0    0 -0.26834167676E+02  0.40169651436E+02  0.20406727205E+03  0.24227633868E+03  0.12132888902E+03 0.  0.
          5    1    4    4  502    0  0.72510762064E+02 -0.64187909893E+01  0.26411196918E+03  0.27400042657E+03  0.47000000000E+01 0.  1.
         -5    1    4    4    0  502 -0.45676594388E+02 -0.33750860446E+02  0.10828924306E+03  0.12236879511E+03  0.47000000000E+01 0.  1.
          5    1    5    5  503    0  0.34532990635E+02  0.56941117649E+02  0.10130912870E+03  0.12132785286E+03  0.47000000000E+01 0. -1.
         -5    1    5    5    0  503 -0.61367158311E+02 -0.16771466213E+02  0.10275814335E+03  0.12094848582E+03  0.47000000000E+01 0. -1.
<mgrwt>
<rscale>  0 0.27486767E+03</rscale>
<asrwt>0</asrwt>
<pdfrwt beam="1">  1        1 0.47828525E-02 0.27486767E+03</pdfrwt>
<pdfrwt beam="2">  1       -1 0.93470302E-01 0.27486767E+03</pdfrwt>
<totfact> 0.20696654E+03</totfact>
</mgrwt>
</event>
<event>
 9    1  0.2117506E-002  0.2760163E+03  0.7818608E-02  0.1097885E+00
         -2   -1    0    0    0  501 -0.00000000000E+00  0.00000000000E+00  0.40026962030E+02  0.40026962030E+02  0.00000000000E+00 0. -1.
          2   -1    0    0  501    0  0.00000000000E+00 -0.00000000000E+00 -0.47583549181E+03  0.47583549181E+03  0.00000000000E+00 0. -1.
         36    2    1    2    0    0 -0.71054273576E-14  0.00000000000E+00 -0.43580852978E+03  0.51586245384E+03  0.27601629781E+03 0.  0.
         25    2    3    3    0    0 -0.40540897485E+02 -0.22062149539E+02 -0.29511071505E+03  0.32184734580E+03  0.11985439938E+03 0.  0.
         25    2    3    3    0    0  0.40540897485E+02  0.22062149539E+02 -0.14069781474E+03  0.19401510805E+03  0.12536221228E+03 0.  0.
          5    1    4    4  502    0 -0.28674992610E+01 -0.27933544841E+02 -0.46392495444E+01  0.28846457595E+02  0.47000000000E+01 0. -1.
         -5    1    4    4    0  502 -0.37673398224E+02  0.58713953019E+01 -0.29047146550E+03  0.29300088820E+03  0.47000000000E+01 0. -1.
          5    1    5    5  503    0  0.59794576772E+02 -0.35437177854E+02 -0.54153662105E+02  0.88237713621E+02  0.47000000000E+01 0. -1.
         -5    1    5    5    0  503 -0.19253679287E+02  0.57499327394E+02 -0.86544152631E+02  0.10577739443E+03  0.47000000000E+01 0. -1.
<mgrwt>
<rscale>  0 0.27601630E+03</rscale>
<asrwt>0</asrwt>
<pdfrwt beam="1">  1        2 0.73205461E-01 0.27601630E+03</pdfrwt>
<pdfrwt beam="2">  1       -2 0.61579941E-02 0.27601630E+03</pdfrwt>
<totfact> 0.93055401E+03</totfact>
</mgrwt>
</event>
<event>
 9    1  0.2117506E-002  0.2762203E+03  0.7818608E-02  0.1097771E+00
         -2   -1    0    0    0  501 -0.00000000000E+00  0.00000000000E+00  0.39524497401E+02  0.39524497401E+02  0.00000000000E+00 0.  1.
          2   -1    0    0  501    0  0.00000000000E+00 -0.00000000000E+00 -0.48259733063E+03  0.48259733063E+03  0.00000000000E+00 0.  1.
         36    2    1    2    0    0  0.00000000000E+00 -0.71054273576E-14 -0.44307283323E+03  0.52212182803E+03  0.27622032467E+03 0.  0.
         25    2    3    3    0    0 -0.16896859974E+02 -0.39800846357E+02 -0.15424928295E+03  0.20387010572E+03  0.12609745226E+03 0.  0.
         25    2    3    3    0    0  0.16896859974E+02  0.39800846357E+02 -0.28882355028E+03  0.31825172231E+03  0.12647333440E+03 0.  0.
          5    1    4    4  502    0  0.26479085377E+02 -0.54101667206E+02 -0.22703810966E+02  0.64542121047E+02  0.47000000000E+01 0. -1.
         -5    1    4    4    0  502 -0.43375945351E+02  0.14300820849E+02 -0.13154547199E+03  0.13932798467E+03  0.47000000000E+01 0. -1.
          5    1    5    5  503    0  0.16959058611E+02  0.75034192643E+02 -0.10074616448E+03  0.12684486348E+03  0.47000000000E+01 0.  1.
         -5    1    5    5    0  503 -0.62198637271E-01 -0.35233346286E+02 -0.18807738580E+03  0.19140685883E+03  0.47000000000E+01 0.  1.
<mgrwt>
<rscale>  0 0.27622032E+03</rscale>
<asrwt>0</asrwt>
<pdfrwt beam="1">  1        2 0.74245747E-01 0.27622032E+03</pdfrwt>
<pdfrwt beam="2">  1       -2 0.60806916E-02 0.27622032E+03</pdfrwt>
<totfact> 0.93405261E+03</totfact>
</mgrwt>
</event>
<event>
 9    1  0.2117506E-002  0.2723310E+03  0.7818608E-02  0.1099953E+00
         -2   -1    0    0    0  501 -0.00000000000E+00  0.00000000000E+00  0.40386673969E+03  0.40386673969E+03  0.00000000000E+00 0. -1.
          2   -1    0    0  501    0  0.00000000000E+00 -0.00000000000E+00 -0.45908824101E+02  0.45908824101E+02  0.00000000000E+00 0. -1.
         36    2    1    2    0    0  0.00000000000E+00  0.00000000000E+00  0.35795791559E+03  0.44977556379E+03  0.27233102734E+03 0.  0.
         25    2    3    3    0    0  0.13208378799E+02 -0.27805024650E+02  0.11433215437E+03  0.17325894355E+03  0.12648809957E+03 0.  0.
         25    2    3    3    0    0 -0.13208378799E+02  0.27805024650E+02  0.24362576122E+03  0.27651662024E+03  0.12712336163E+03 0.  0.
          5    1    4    4  502    0 -0.28014513642E+02 -0.93964303867E+01 -0.16924929992E+02  0.34375123764E+02  0.47000000000E+01 0. -1.
         -5    1    4    4    0  502  0.41222892440E+02 -0.18408594263E+02  0.13125708436E+03  0.13888381979E+03  0.47000000000E+01 0. -1.
          5    1    5    5  503    0 -0.33734482988E+02  0.18265149320E+02  0.76341765401E+01  0.39395452448E+02  0.47000000000E+01 0. -1.
         -5    1    5    5    0  503  0.20526104189E+02  0.95398753304E+01  0.23599158468E+03  0.23712116779E+03  0.47000000000E+01 0. -1.
<mgrwt>
<rscale>  0 0.27233103E+03</rscale>
<asrwt>0</asrwt>
<pdfrwt beam="1">  1        2 0.70628963E-02 0.27233103E+03</pdfrwt>
<pdfrwt beam="2">  1       -2 0.62133342E-01 0.27233103E+03</pdfrwt>
<totfact> 0.24464912E+03</totfact>
</mgrwt>
</event>
<event>
 9    1  0.2117506E-002  0.2746185E+03  0.7818608E-02  0.1098665E+00
         -1   -1    0    0    0  501 -0.00000000000E+00  0.00000000000E+00  0.42267137307E+02  0.42267137307E+02  0.00000000000E+00 0.  1.
          1   -1    0    0  501    0  0.00000000000E+00 -0.00000000000E+00 -0.44606359606E+03  0.44606359606E+03  0.00000000000E+00 0.  1.
         36    2    1    2    0    0  0.00000000000E+00 -0.14210854715E-13 -0.40379645876E+03  0.48833073337E+03  0.27461850821E+03 0.  0.
         25    2    3    3    0    0 -0.26493658918E+02  0.66788947296E+02 -0.17941213866E+03  0.23060076322E+03  0.12579872437E+03 0.  0.
         25    2    3    3    0    0  0.26493658918E+02 -0.66788947296E+02 -0.22438432010E+03  0.25772997016E+03  0.10446883251E+03 0.  0.
          5    1    4    4  502    0 -0.71429726786E+02  0.62657525719E+02 -0.14598528925E+03  0.17424685385E+03  0.47000000000E+01 0. -1.
         -5    1    4    4    0  502  0.44936067868E+02  0.41314215764E+01 -0.33426849403E+02  0.56353909365E+02  0.47000000000E+01 0. -1.
          5    1    5    5  503    0  0.26143134743E+02  0.12719855867E+02 -0.13426906959E+03  0.13746101730E+03  0.47000000000E+01 0. -1.
         -5    1    5    5    0  503  0.35052417452E+00 -0.79508803163E+02 -0.90115250509E+02  0.12026895286E+03  0.47000000000E+01 0. -1.
<mgrwt>
<rscale>  0 0.27461851E+03</rscale>
<asrwt>0</asrwt>
<pdfrwt beam="1">  1        1 0.68625164E-01 0.27461851E+03</pdfrwt>
<pdfrwt beam="2">  1       -1 0.65026370E-02 0.27461851E+03</pdfrwt>
<totfact> 0.61798295E+03</totfact>
</mgrwt>
</event>
<event>
 9    1  0.2117506E-002  0.2753718E+03  0.7818608E-02  0.1098244E+00
         -2   -1    0    0    0  501 -0.00000000000E+00  0.00000000000E+00  0.88772907559E+02  0.88772907559E+02  0.00000000000E+00 0.  1.
          2   -1    0    0  501    0  0.00000000000E+00 -0.00000000000E+00 -0.21354948358E+03  0.21354948358E+03  0.00000000000E+00 0.  1.
         36    2    1    2    0    0 -0.71054273576E-14  0.35527136788E-14 -0.12477657602E+03  0.30232239114E+03  0.27537181094E+03 0.  0.
         25    2    3    3    0    0  0.44879276887E+02 -0.28388055443E+02 -0.81159097635E+02  0.16145336853E+03  0.12907501654E+03 0.  0.
         25    2    3    3    0    0 -0.44879276887E+02  0.28388055443E+02 -0.43617478383E+02  0.14086902261E+03  0.12296977647E+03 0.  0.
          5    1    4    4  502    0  0.59740215146E+02  0.37423566124E+02 -0.52394262155E+02  0.87958315774E+02  0.47000000000E+01 0.  1.
         -5    1    4    4    0  502 -0.14860938259E+02 -0.65811621567E+02 -0.28764835480E+02  0.73495052754E+02  0.47000000000E+01 0.  1.
          5    1    5    5  503    0 -0.21870987662E+02 -0.29615739601E+02  0.27460708522E+02  0.46169390790E+02  0.47000000000E+01 0. -1.
         -5    1    5    5    0  503 -0.23008289225E+02  0.58003795044E+02 -0.71078186906E+02  0.94699631818E+02  0.47000000000E+01 0. -1.
<mgrwt>
<rscale>  0 0.27537181E+03</rscale>
<asrwt>0</asrwt>
<pdfrwt beam="1">  1        2 0.32853767E-01 0.27537181E+03</pdfrwt>
<pdfrwt beam="2">  1       -2 0.13657370E-01 0.27537181E+03</pdfrwt>
<totfact> 0.62946337E+03</totfact>
</mgrwt>
</event>
<event>
 9    1  0.2117506E-002  0.2740210E+03  0.7818608E-02  0.1099000E+00
          1   -1    0    0  501    0  0.00000000000E+00  0.00000000000E+00  0.34443731799E+03  0.34443731799E+03  0.00000000000E+00 0. -1.
         -1   -1    0    0    0  501 -0.00000000000E+00 -0.00000000000E+00 -0.54500123418E+02  0.54500123418E+02  0.00000000000E+00 0. -1.
         36    2    1    2    0    0  0.00000000000E+00  0.00000000000E+00  0.28993719457E+03  0.39893744141E+03  0.27402099438E+03 0.  0.
         25    2    3    3    0    0 -0.33665050795E+02 -0.44152763148E+02  0.17298228862E+03  0.22096007406E+03  0.12576835856E+03 0.  0.
         25    2    3    3    0    0  0.33665050795E+02  0.44152763148E+02  0.11695490595E+03  0.17797736735E+03  0.12212571852E+03 0.  0.
          5    1    4    4  502    0 -0.45477348783E+02 -0.75117111718E+02  0.16434289043E+03  0.18639057208E+03  0.47000000000E+01 0. -1.
         -5    1    4    4    0  502  0.11812297988E+02  0.30964348570E+02  0.86393981901E+01  0.34569501981E+02  0.47000000000E+01 0. -1.
          5    1    5    5  503    0  0.79961955307E+02  0.26190917266E+02  0.73700641128E+02  0.11195424488E+03  0.47000000000E+01 0.  1.
         -5    1    5    5    0  503 -0.46296904513E+02  0.17961845882E+02  0.43254264821E+02  0.66023122466E+02  0.47000000000E+01 0.  1.
<mgrwt>
<rscale>  0 0.27402099E+03</rscale>
<asrwt>0</asrwt>
<pdfrwt beam="1">  1        1 0.52990355E-01 0.27402099E+03</pdfrwt>
<pdfrwt beam="2">  1       -1 0.83846346E-02 0.27402099E+03</pdfrwt>
<totfact> 0.58457006E+03</totfact>
</mgrwt>
</event>
<event>
 9    1  0.2117506E-002  0.2757540E+03  0.7818608E-02  0.1098031E+00
         -1   -1    0    0    0  501 -0.00000000000E+00  0.00000000000E+00  0.28650589572E+03  0.28650589572E+03  0.00000000000E+00 0. -1.
          1   -1    0    0  501    0  0.00000000000E+00 -0.00000000000E+00 -0.66351392410E+02  0.66351392410E+02  0.00000000000E+00 0. -1.
         36    2    1    2    0    0  0.00000000000E+00 -0.35527136788E-14  0.22015450331E+03  0.35285728813E+03  0.27575398539E+03 0.  0.
         25    2    3    3    0    0  0.74172057884E+01  0.13957928691E+02  0.50325896942E+02  0.13850189511E+03  0.12806342308E+03 0.  0.
         25    2    3    3    0    0 -0.74172057884E+01 -0.13957928691E+02  0.16982860637E+03  0.21435539302E+03  0.12983312467E+03 0.  0.
          5    1    4    4  502    0  0.59815150531E+02 -0.14103870953E+02  0.18580595488E+01  0.61662904523E+02  0.47000000000E+01 0.  1.
         -5    1    4    4    0  502 -0.52397944742E+02  0.28061799644E+02  0.48467837393E+02  0.76838990585E+02  0.47000000000E+01 0.  1.
          5    1    5    5  503    0  0.40611915666E+02 -0.34097340727E+02  0.22092841084E+02  0.57638007997E+02  0.47000000000E+01 0. -1.
         -5    1    5    5    0  503 -0.48029121455E+02  0.20139412036E+02  0.14773576529E+03  0.15671738503E+03  0.47000000000E+01 0. -1.
<mgrwt>
<rscale>  0 0.27575399E+03</rscale>
<asrwt>0</asrwt>
<pdfrwt beam="1">  1        1 0.10207907E-01 0.27575399E+03</pdfrwt>
<pdfrwt beam="2">  1       -1 0.44077829E-01 0.27575399E+03</pdfrwt>
<totfact> 0.32199289E+03</totfact>
</mgrwt>
</event>
<event>
 8    1  0.2117506E-002  0.2903695E+03  0.7818608E-02  0.1090156E+00
         -1   -1    0    0    0  501 -0.00000000000E+00  0.00000000000E+00  0.17197944482E+03  0.17197944482E+03  0.00000000000E+00 0.  1.
          1   -1    0    0  501    0  0.00000000000E+00 -0.00000000000E+00 -0.12256469655E+03  0.12256469655E+03  0.00000000000E+00 0.  1.
         25    2    1    2    0    0  0.65339940695E+00 -0.17807267485E+02 -0.46626763326E+02  0.13311765375E+03  0.12340473644E+03 0.  0.
         25    2    1    2    0    0 -0.65339940695E+00  0.17807267485E+02  0.96041511596E+02  0.16142648762E+03  0.12851853271E+03 0.  0.
          5    1    3    3  502    0  0.38093990845E+02 -0.56341070139E+02 -0.39299825673E+02  0.78689482276E+02  0.47000000000E+01 0.  1.
         -5    1    3    3    0  502 -0.37440591438E+02  0.38533802654E+02 -0.73269376529E+01  0.54428171470E+02  0.47000000000E+01 0.  1.
          5    1    4    4  503    0 -0.40625340209E+02 -0.41375997951E+02  0.43092760089E+02  0.72397979569E+02  0.47000000000E+01 0.  1.
         -5    1    4    4    0  503  0.39971940802E+02  0.59183265436E+02  0.52948751507E+02  0.89028508048E+02  0.47000000000E+01 0.  1.
<mgrwt>
<rscale>  0 0.29036948E+03</rscale>
<asrwt>0</asrwt>
<pdfrwt beam="1">  1        1 0.18856107E-01 0.29036948E+03</pdfrwt>
<pdfrwt beam="2">  1       -1 0.26458376E-01 0.29036948E+03</pdfrwt>
<totfact> 0.34792933E+03</totfact>
</mgrwt>
</event>
<event>
 9    1  0.2117506E-002  0.2752555E+03  0.7818608E-02  0.1098309E+00
         -2   -1    0    0    0  501 -0.00000000000E+00  0.00000000000E+00  0.45461424516E+02  0.45461424516E+02  0.00000000000E+00 0. -1.
          2   -1    0    0  501    0  0.00000000000E+00 -0.00000000000E+00 -0.41664781749E+03  0.41664781749E+03  0.00000000000E+00 0. -1.
         36    2    1    2    0    0 -0.35527136788E-14 -0.35527136788E-14 -0.37118639298E+03  0.46210924201E+03  0.27525554167E+03 0.  0.
         25    2    3    3    0    0 -0.19165797014E+02  0.20279343616E+02 -0.27905707736E+03  0.30513882906E+03  0.12024255911E+03 0.  0.
         25    2    3    3    0    0  0.19165797014E+02 -0.20279343616E+02 -0.92129315619E+02  0.15697041295E+03  0.12398919385E+03 0.  0.
          5    1    4    4  502    0 -0.53752682561E+02 -0.12988027767E+02 -0.22902325954E+03  0.23565182613E+03  0.47000000000E+01 0. -1.
         -5    1    4    4    0  502  0.34586885547E+02  0.33267371383E+02 -0.50033817820E+02  0.69487002931E+02  0.47000000000E+01 0. -1.
          5    1    5    5  503    0  0.41560417200E+02 -0.14656861068E+02  0.15377918558E+02  0.46911216498E+02  0.47000000000E+01 0. -1.
         -5    1    5    5    0  503 -0.22394620186E+02 -0.56224825486E+01 -0.10750723418E+03  0.11005919645E+03  0.47000000000E+01 0. -1.
<mgrwt>
<rscale>  0 0.27525554E+03</rscale>
<asrwt>0</asrwt>
<pdfrwt beam="1">  1        2 0.64099664E-01 0.27525554E+03</pdfrwt>
<pdfrwt beam="2">  1       -2 0.69940654E-02 0.27525554E+03</pdfrwt>
<totfact> 0.88483226E+03</totfact>
</mgrwt>
</event>
<event>
 9    1  0.2117506E-002  0.2720859E+03  0.7818608E-02  0.1100092E+00
          2   -1    0    0  501    0  0.00000000000E+00  0.00000000000E+00  0.12949553601E+04  0.12949553601E+04  0.00000000000E+00 0.  1.
         -2   -1    0    0    0  501 -0.00000000000E+00 -0.00000000000E+00 -0.14292143126E+02  0.14292143126E+02  0.00000000000E+00 0.  1.
         36    2    1    2    0    0  0.00000000000E+00  0.71054273576E-14  0.12806632170E+04  0.13092475032E+04  0.27208592281E+03 0.  0.
         25    2    3    3    0    0 -0.35819408050E+02  0.23725832974E+02  0.45538899520E+03  0.47301868083E+03  0.12050556139E+03 0.  0.
         25    2    3    3    0    0  0.35819408050E+02 -0.23725832974E+02  0.82527422176E+03  0.83622882238E+03  0.12788728291E+03 0.  0.
          5    1    4    4  502    0  0.14037992986E+02  0.93697040423E+01  0.38525522350E+03  0.38565338561E+03  0.47000000000E+01 0.  1.
         -5    1    4    4    0  502 -0.49857401037E+02  0.14356128931E+02  0.70133771694E+02  0.87365295215E+02  0.47000000000E+01 0.  1.
          5    1    5    5  503    0  0.57635339812E+02 -0.53944081244E+01  0.78229417095E+03  0.78444706127E+03  0.47000000000E+01 0. -1.
         -5    1    5    5    0  503 -0.21815931762E+02 -0.18331424849E+02  0.42980050809E+02  0.51781761105E+02  0.47000000000E+01 0. -1.
<mgrwt>
<rscale>  0 0.27208592E+03</rscale>
<asrwt>0</asrwt>
<pdfrwt beam="1">  1        2 0.19922381E+00 0.27208592E+03</pdfrwt>
<pdfrwt beam="2">  1       -2 0.21987923E-02 0.27208592E+03</pdfrwt>
<totfact> 0.11856286E+04</totfact>
</mgrwt>
</event>
<event>
 9    1  0.2117506E-002  0.2755815E+03  0.7818608E-02  0.1098127E+00
          1   -1    0    0  501    0  0.00000000000E+00  0.00000000000E+00  0.49393488299E+03  0.49393488299E+03  0.00000000000E+00 0.  1.
         -1   -1    0    0    0  501 -0.00000000000E+00 -0.00000000000E+00 -0.38438866930E+02  0.38438866930E+02  0.00000000000E+00 0.  1.
         36    2    1    2    0    0 -0.14210854715E-13  0.88817841970E-15  0.45549601606E+03  0.53237374992E+03  0.27558154684E+03 0.  0.
         25    2    3    3    0    0  0.37842044313E+02  0.33610993019E+01  0.14269037945E+03  0.19369788436E+03  0.12535951784E+03 0.  0.
         25    2    3    3    0    0 -0.37842044313E+02 -0.33610993019E+01  0.31280563662E+03  0.33867586556E+03  0.12413967258E+03 0.  0.
          5    1    4    4  502    0  0.59998706802E+02  0.47537436850E+02  0.60521592754E+02  0.97696498963E+02  0.47000000000E+01 0. -1.
         -5    1    4    4    0  502 -0.22156662488E+02 -0.44176337548E+02  0.82168786693E+02  0.96001385398E+02  0.47000000000E+01 0. -1.
          5    1    5    5  503    0 -0.82867940378E+02  0.51399047426E+01  0.18529367047E+03  0.20309935618E+03  0.47000000000E+01 0.  1.
         -5    1    5    5    0  503  0.45025896065E+02 -0.85010040445E+01  0.12751196614E+03  0.13557650938E+03  0.47000000000E+01 0.  1.
<mgrwt>
<rscale>  0 0.27558155E+03</rscale>
<asrwt>0</asrwt>
<pdfrwt beam="1">  1        1 0.75989977E-01 0.27558155E+03</pdfrwt>
<pdfrwt beam="2">  1       -1 0.59136722E-02 0.27558155E+03</pdfrwt>
<totfact> 0.62397062E+03</totfact>
</mgrwt>
</event>
<event>
 9    1  0.2117506E-002  0.2745631E+03  0.7818608E-02  0.1098696E+00
          2   -1    0    0  501    0  0.00000000000E+00  0.00000000000E+00  0.54986075199E+03  0.54986075199E+03  0.00000000000E+00 0.  1.
         -2   -1    0    0    0  501 -0.00000000000E+00 -0.00000000000E+00 -0.34274547484E+02  0.34274547484E+02  0.00000000000E+00 0.  1.
         36    2    1    2    0    0  0.00000000000E+00  0.35527136788E-14  0.51558620450E+03  0.58413529947E+03  0.27456313266E+03 0.  0.
         25    2    3    3    0    0  0.12794325893E+02  0.28882991634E+02  0.34884410083E+03  0.37271709284E+03  0.12738878535E+03 0.  0.
         25    2    3    3    0    0 -0.12794325893E+02 -0.28882991634E+02  0.16674210367E+03  0.21141820663E+03  0.12608254033E+03 0.  0.
          5    1    4    4  502    0  0.57363913191E+02  0.40652978073E+00  0.27957261917E+03  0.28543602294E+03  0.47000000000E+01 0.  1.
         -5    1    4    4    0  502 -0.44569587299E+02  0.28476461853E+02  0.69271481660E+02  0.87281069901E+02  0.47000000000E+01 0.  1.
          5    1    5    5  503    0  0.21710531655E+02  0.33278016532E+02  0.13170252722E+02  0.42122667601E+02  0.47000000000E+01 0.  1.
         -5    1    5    5    0  503 -0.34504857548E+02 -0.62161008166E+02  0.15357185095E+03  0.16929553903E+03  0.47000000000E+01 0.  1.
<mgrwt>
<rscale>  0 0.27456313E+03</rscale>
<asrwt>0</asrwt>
<pdfrwt beam="1">  1        2 0.84593955E-01 0.27456313E+03</pdfrwt>
<pdfrwt beam="2">  1       -2 0.52730077E-02 0.27456313E+03</pdfrwt>
<totfact> 0.10027226E+04</totfact>
</mgrwt>
</event>
<event>
 9    1  0.2117506E-002  0.2790353E+03  0.7818608E-02  0.1096217E+00
         -3   -1    0    0    0  501 -0.00000000000E+00  0.00000000000E+00  0.10372458214E+03  0.10372458214E+03  0.00000000000E+00 0. -1.
          3   -1    0    0  501    0  0.00000000000E+00 -0.00000000000E+00 -0.18766207139E+03  0.18766207139E+03  0.00000000000E+00 0. -1.
         36    2    1    2    0    0  0.22204460493E-15 -0.53290705182E-14 -0.83937489243E+02  0.29138665353E+03  0.27903526615E+03 0.  0.
         25    2    3    3    0    0 -0.11100792220E+01 -0.13007624459E+02  0.22598942432E+02  0.12873211501E+03  0.12605877465E+03 0.  0.
         25    2    3    3    0    0  0.11100792220E+01  0.13007624459E+02 -0.10653643168E+03  0.16265453851E+03  0.12221316237E+03 0.  0.
          5    1    4    4  502    0  0.20398363576E+02 -0.47245836429E+02  0.55910346158E+02  0.76133560957E+02  0.47000000000E+01 0. -1.
         -5    1    4    4    0  502 -0.21508442798E+02  0.34238211970E+02 -0.33311403726E+02  0.52598554055E+02  0.47000000000E+01 0. -1.
          5    1    5    5  503    0  0.30558956440E+01  0.35516864375E+01  0.27448838894E+02  0.28239719038E+02  0.47000000000E+01 0.  1.
         -5    1    5    5    0  503 -0.19458164219E+01  0.94559380215E+01 -0.13398527057E+03  0.13441481948E+03  0.47000000000E+01 0.  1.
<mgrwt>
<rscale>  0 0.27903527E+03</rscale>
<asrwt>0</asrwt>
<pdfrwt beam="1">  1        3 0.28871088E-01 0.27903527E+03</pdfrwt>
<pdfrwt beam="2">  1       -3 0.15957628E-01 0.27903527E+03</pdfrwt>
<totfact> 0.97951590E+02</totfact>
</mgrwt>
</event>
<event>
 9    1  0.2117506E-002  0.2747433E+03  0.7818608E-02  0.1098595E+00
         -4   -1    0    0    0  501 -0.00000000000E+00  0.00000000000E+00  0.93917179796E+03  0.93917179796E+03  0.00000000000E+00 0. -1.
          4   -1    0    0  501    0  0.00000000000E+00 -0.00000000000E+00 -0.20093205077E+02  0.20093205077E+02  0.00000000000E+00 0. -1.
         36    2    1    2    0    0  0.14210854715E-13  0.00000000000E+00  0.91907859289E+03  0.95926500304E+03  0.27474330958E+03 0.  0.
         25    2    3    3    0    0  0.50352147490E+02  0.34260243891E+02  0.60033286208E+03  0.61241813860E+03  0.10462948020E+03 0.  0.
         25    2    3    3    0    0 -0.50352147490E+02 -0.34260243891E+02  0.31874573081E+03  0.34684686444E+03  0.12245327025E+03 0.  0.
          5    1    4    4  502    0  0.52908961697E+02 -0.26916151411E+02  0.30837090760E+03  0.31406773806E+03  0.47000000000E+01 0.  1.
         -5    1    4    4    0  502 -0.25568142076E+01  0.61176395302E+02  0.29196195448E+03  0.29835040054E+03  0.47000000000E+01 0.  1.
          5    1    5    5  503    0  0.11932412656E+02 -0.14261785560E+02 -0.21659767540E+01  0.19301876968E+02  0.47000000000E+01 0.  1.
         -5    1    5    5    0  503 -0.62284560146E+02 -0.19998458330E+02  0.32091170756E+03  0.32754498747E+03  0.47000000000E+01 0.  1.
<mgrwt>
<rscale>  0 0.27474331E+03</rscale>
<asrwt>0</asrwt>
<pdfrwt beam="1">  1        4 0.30912631E-02 0.27474331E+03</pdfrwt>
<pdfrwt beam="2">  1       -4 0.14448793E+00 0.27474331E+03</pdfrwt>
<totfact> 0.33533875E+02</totfact>
</mgrwt>
</event>
<event>
 9    1  0.2117506E-002  0.2746866E+03  0.7818608E-02  0.1098627E+00
         -1   -1    0    0    0  501 -0.00000000000E+00  0.00000000000E+00  0.11879032675E+04  0.11879032675E+04  0.00000000000E+00 0. -1.
          1   -1    0    0  501    0  0.00000000000E+00 -0.00000000000E+00 -0.15879390302E+02  0.15879390302E+02  0.00000000000E+00 0. -1.
         36    2    1    2    0    0 -0.71054273576E-14  0.71054273576E-14  0.11720238772E+04  0.12037826578E+04  0.27468658231E+03 0.  0.
         25    2    3    3    0    0  0.44042126756E+02 -0.34662386559E+02  0.52237110037E+03  0.53994564721E+03  0.12461358457E+03 0.  0.
         25    2    3    3    0    0 -0.44042126756E+02  0.34662386559E+02  0.64965277678E+03  0.66383701055E+03  0.12445744747E+03 0.  0.
          5    1    4    4  502    0 -0.80105069243E+01  0.33943023658E+02  0.59659861401E+02  0.69265331434E+02  0.47000000000E+01 0.  1.
         -5    1    4    4    0  502  0.52052633680E+02 -0.68605410217E+02  0.46271123897E+03  0.47068031577E+03  0.47000000000E+01 0.  1.
          5    1    5    5  503    0 -0.30356919251E+02  0.80100790270E+02  0.48015967774E+03  0.48776334966E+03  0.47000000000E+01 0.  1.
         -5    1    5    5    0  503 -0.13685207505E+02 -0.45438403711E+02  0.16949309904E+03  0.17607366089E+03  0.47000000000E+01 0.  1.
<mgrwt>
<rscale>  0 0.27468658E+03</rscale>
<asrwt>0</asrwt>
<pdfrwt beam="1">  1        1 0.24429840E-02 0.27468658E+03</pdfrwt>
<pdfrwt beam="2">  1       -1 0.18275428E+00 0.27468658E+03</pdfrwt>
<totfact> 0.99685301E+02</totfact>
</mgrwt>
</event>
<event>
 8    1  0.2117506E-002  0.3115870E+03  0.7818608E-02  0.1079588E+00
         -2   -1    0    0    0  501 -0.00000000000E+00  0.00000000000E+00  0.38571853882E+02  0.38571853882E+02  0.00000000000E+00 0.  1.
          2   -1    0    0  501    0  0.00000000000E+00 -0.00000000000E+00 -0.62925713331E+03  0.62925713331E+03  0.00000000000E+00 0.  1.
         25    2    1    2    0    0 -0.14826767272E+02 -0.61529450279E+02 -0.44472623559E+03  0.46586951325E+03  0.12347984643E+03 0.  0.
         25    2    1    2    0    0  0.14826767272E+02  0.61529450279E+02 -0.14595904384E+03  0.20195947395E+03  0.12441012964E+03 0.  0.
          5    1    3    3  502    0  0.51649425803E+02 -0.87730796893E+01 -0.20009195552E+03  0.20689009347E+03  0.47000000000E+01 0. -1.
         -5    1    3    3    0  502 -0.66476193075E+02 -0.52756370589E+02 -0.24463428007E+03  0.25897941978E+03  0.47000000000E+01 0. -1.
          5    1    4    4  503    0  0.35728499528E+02 -0.14481811590E+02 -0.10713963353E+03  0.11396157079E+03  0.47000000000E+01 0. -1.
         -5    1    4    4    0  503 -0.20901732256E+02  0.76011261868E+02 -0.38819410317E+02  0.87997903154E+02  0.47000000000E+01 0. -1.
<mgrwt>
<rscale>  0 0.31158700E+03</rscale>
<asrwt>0</asrwt>
<pdfrwt beam="1">  1        2 0.96808786E-01 0.31158700E+03</pdfrwt>
<pdfrwt beam="2">  1       -2 0.59341316E-02 0.31158700E+03</pdfrwt>
<totfact> 0.71864733E+03</totfact>
</mgrwt>
</event>
<event>
 9    1  0.2117506E-002  0.2726348E+03  0.7818608E-02  0.1099781E+00
         -1   -1    0    0    0  501 -0.00000000000E+00  0.00000000000E+00  0.64296953442E+02  0.64296953442E+02  0.00000000000E+00 0.  1.
          1   -1    0    0  501    0  0.00000000000E+00 -0.00000000000E+00 -0.28900958305E+03  0.28900958305E+03  0.00000000000E+00 0.  1.
         36    2    1    2    0    0  0.00000000000E+00  0.00000000000E+00 -0.22471262961E+03  0.35330653649E+03  0.27263481586E+03 0.  0.
         25    2    3    3    0    0  0.19458685138E+02  0.20991773249E+02 -0.17087230714E+03  0.21441246327E+03  0.12631731507E+03 0.  0.
         25    2    3    3    0    0 -0.19458685138E+02 -0.20991773249E+02 -0.53840322462E+02  0.13889407322E+03  0.12479378302E+03 0.  0.
          5    1    4    4  502    0  0.39737446732E+02  0.67473321324E+02 -0.98634070510E+02  0.12602572606E+03  0.47000000000E+01 0. -1.
         -5    1    4    4    0  502 -0.20278761595E+02 -0.46481548075E+02 -0.72238236633E+02  0.88386737213E+02  0.47000000000E+01 0. -1.
          5    1    5    5  503    0  0.72429882533E+01 -0.27618475292E+02 -0.89240466768E+02  0.93814668178E+02  0.47000000000E+01 0. -1.
         -5    1    5    5    0  503 -0.26701673391E+02  0.66267020429E+01  0.35400144306E+02  0.45079405040E+02  0.47000000000E+01 0. -1.
<mgrwt>
<rscale>  0 0.27263482E+03</rscale>
<asrwt>0</asrwt>
<pdfrwt beam="1">  1        1 0.44463012E-01 0.27263482E+03</pdfrwt>
<pdfrwt beam="2">  1       -1 0.98918392E-02 0.27263482E+03</pdfrwt>
<totfact> 0.56549860E+03</totfact>
</mgrwt>
</event>
<event>
 9    1  0.2117506E-002  0.2745055E+03  0.7818608E-02  0.1098728E+00
          1   -1    0    0  501    0  0.00000000000E+00  0.00000000000E+00  0.13523464007E+04  0.13523464007E+04  0.00000000000E+00 0. -1.
         -1   -1    0    0    0  501 -0.00000000000E+00 -0.00000000000E+00 -0.13930094907E+02  0.13930094907E+02  0.00000000000E+00 0. -1.
         36    2    1    2    0    0 -0.14210854715E-13  0.35527136788E-14  0.13384163058E+04  0.13662764956E+04  0.27450547323E+03 0.  0.
         25    2    3    3    0    0  0.46757024280E+02 -0.56327231597E+01  0.80879755420E+03  0.82021321673E+03  0.12797769466E+03 0.  0.
         25    2    3    3    0    0 -0.46757024280E+02  0.56327231597E+01  0.52961875158E+03  0.54606327886E+03  0.12438301977E+03 0.  0.
          5    1    4    4  502    0 -0.22119230763E+02  0.33127419828E+02  0.11264315665E+03  0.11957113805E+03  0.47000000000E+01 0.  1.
         -5    1    4    4    0  502  0.68876255042E+02 -0.38760142988E+02  0.69615439754E+03  0.70064207868E+03  0.47000000000E+01 0.  1.
          5    1    5    5  503    0  0.36514332524E+02  0.14891613272E+02  0.27794803509E+03  0.28077082619E+03  0.47000000000E+01 0. -1.
         -5    1    5    5    0  503 -0.83271356804E+02 -0.92588901125E+01  0.25167071649E+03  0.26529245268E+03  0.47000000000E+01 0. -1.
<mgrwt>
<rscale>  0 0.27450547E+03</rscale>
<asrwt>0</asrwt>
<pdfrwt beam="1">  1        1 0.20805319E+00 0.27450547E+03</pdfrwt>
<pdfrwt beam="2">  1       -1 0.21430926E-02 0.27450547E+03</pdfrwt>
<totfact> 0.55689363E+03</totfact>
</mgrwt>
</event>
<event>
 9    1  0.2117506E-002  0.2770612E+03  0.7818608E-02  0.1097305E+00
         -1   -1    0    0    0  501 -0.00000000000E+00  0.00000000000E+00  0.17998541909E+03  0.17998541909E+03  0.00000000000E+00 0. -1.
          1   -1    0    0  501    0  0.00000000000E+00 -0.00000000000E+00 -0.10662380119E+03  0.10662380119E+03  0.00000000000E+00 0. -1.
         36    2    1    2    0    0  0.00000000000E+00  0.71054273576E-14  0.73361617903E+02  0.28660922028E+03  0.27706121736E+03 0.  0.
         25    2    3    3    0    0  0.42604559073E+02 -0.41042903119E+02  0.57404247265E+02  0.14685214918E+03  0.12153451265E+03 0.  0.
         25    2    3    3    0    0 -0.42604559073E+02  0.41042903119E+02  0.15957370638E+02  0.13975707110E+03  0.12560944588E+03 0.  0.
          5    1    4    4  502    0  0.27214186907E+02 -0.84253347992E+02  0.43029032630E+02  0.98553672007E+02  0.47000000000E+01 0. -1.
         -5    1    4    4    0  502  0.15390372166E+02  0.43210444874E+02  0.14375214635E+02  0.48298477175E+02  0.47000000000E+01 0. -1.
          5    1    5    5  503    0 -0.11987806963E+01 -0.27933692113E+01 -0.49973653620E+02  0.50286141658E+02  0.47000000000E+01 0.  1.
         -5    1    5    5    0  503 -0.41405778377E+02  0.43836272330E+02  0.65931024259E+02  0.89470929438E+02  0.47000000000E+01 0.  1.
<mgrwt>
<rscale>  0 0.27706122E+03</rscale>
<asrwt>0</asrwt>
<pdfrwt beam="1">  1        1 0.16403662E-01 0.27706122E+03</pdfrwt>
<pdfrwt beam="2">  1       -1 0.27690065E-01 0.27706122E+03</pdfrwt>
<totfact> 0.38587656E+03</totfact>
</mgrwt>
</event>
<event>
 9    1  0.2117506E-002  0.2756207E+03  0.7818608E-02  0.1098105E+00
         -1   -1    0    0    0  501 -0.00000000000E+00  0.00000000000E+00  0.15462596908E+03  0.15462596908E+03  0.00000000000E+00 0.  1.
          1   -1    0    0  501    0  0.00000000000E+00 -0.00000000000E+00 -0.12282340206E+03  0.12282340206E+03  0.00000000000E+00 0.  1.
         36    2    1    2    0    0  0.71054273576E-14 -0.35527136788E-14  0.31802567024E+02  0.27744937114E+03  0.27562066374E+03 0.  0.
         25    2    3    3    0    0  0.39430562624E+02  0.10324327228E+02  0.33794316468E+02  0.14465342625E+03  0.13461499507E+03 0.  0.
         25    2    3    3    0    0 -0.39430562624E+02 -0.10324327228E+02 -0.19917494446E+01  0.13279594490E+03  0.12637022954E+03 0.  0.
          5    1    4    4  502    0  0.39363736322E+02 -0.57446698793E+02  0.31773719814E+02  0.76689544335E+02  0.47000000000E+01 0. -1.
         -5    1    4    4    0  502  0.66826302155E-01  0.67771026021E+02  0.20205966539E+01  0.67963881912E+02  0.47000000000E+01 0. -1.
          5    1    5    5  503    0 -0.19336933506E+02 -0.17533532357E+02  0.60786653323E+02  0.66320803498E+02  0.47000000000E+01 0. -1.
         -5    1    5    5    0  503 -0.20093629118E+02  0.72092051284E+01 -0.62778402768E+02  0.66475141398E+02  0.47000000000E+01 0. -1.
<mgrwt>
<rscale>  0 0.27562066E+03</rscale>
<asrwt>0</asrwt>
<pdfrwt beam="1">  1        1 0.18895908E-01 0.27562066E+03</pdfrwt>
<pdfrwt beam="2">  1       -1 0.23788611E-01 0.27562066E+03</pdfrwt>
<totfact> 0.41364710E+03</totfact>
</mgrwt>
</event>
<event>
 9    1  0.2117506E-002  0.2765540E+03  0.7818608E-02  0.1097586E+00
         -1   -1    0    0    0  501 -0.00000000000E+00  0.00000000000E+00  0.79251337114E+03  0.79251337114E+03  0.00000000000E+00 0. -1.
          1   -1    0    0  501    0  0.00000000000E+00 -0.00000000000E+00 -0.24126439875E+02  0.24126439875E+02  0.00000000000E+00 0. -1.
         36    2    1    2    0    0  0.17763568394E-14 -0.71054273576E-14  0.76838693126E+03  0.81663981101E+03  0.27655398170E+03 0.  0.
         25    2    3    3    0    0 -0.15762265618E+02 -0.24400507845E+01  0.42907810288E+03  0.45886439062E+03  0.16184593831E+03 0.  0.
         25    2    3    3    0    0  0.15762265618E+02  0.24400507845E+01  0.33930882839E+03  0.35777542039E+03  0.11233150738E+03 0.  0.
          5    1    4    4  502    0 -0.73905921227E+02 -0.46737272282E+02  0.19919002114E+03  0.21758955015E+03  0.47000000000E+01 0.  1.
         -5    1    4    4    0  502  0.58143655609E+02  0.44297221497E+02  0.22988808174E+03  0.24127484047E+03  0.47000000000E+01 0.  1.
          5    1    5    5  503    0  0.21348870633E+01  0.34473671917E+02  0.28605751440E+02  0.45092913120E+02  0.47000000000E+01 0.  1.
         -5    1    5    5    0  503  0.13627378555E+02 -0.32033621133E+02  0.31070307695E+03  0.31268250727E+03  0.47000000000E+01 0.  1.
<mgrwt>
<rscale>  0 0.27655398E+03</rscale>
<asrwt>0</asrwt>
<pdfrwt beam="1">  1        1 0.37117606E-02 0.27655398E+03</pdfrwt>
<pdfrwt beam="2">  1       -1 0.12192511E+00 0.27655398E+03</pdfrwt>
<totfact> 0.16069281E+03</totfact>
</mgrwt>
</event>
<event>
 9    1  0.2117506E-002  0.2742420E+03  0.7818608E-02  0.1098876E+00
         -2   -1    0    0    0  501 -0.00000000000E+00  0.00000000000E+00  0.57394416383E+01  0.57394416383E+01  0.00000000000E+00 0. -1.
          2   -1    0    0  501    0  0.00000000000E+00 -0.00000000000E+00 -0.32759574401E+04  0.32759574401E+04  0.00000000000E+00 0. -1.
         36    2    1    2    0    0  0.00000000000E+00  0.35527136788E-14 -0.32702179985E+04  0.32816968817E+04  0.27424198466E+03 0.  0.
         25    2    3    3    0    0 -0.68802282656E+02  0.31329693691E+02 -0.21924800589E+04  0.21973962577E+04  0.12596110848E+03 0.  0.
         25    2    3    3    0    0  0.68802282656E+02 -0.31329693691E+02 -0.10777379395E+04  0.10843006240E+04  0.92051469981E+02 0.  0.
          5    1    4    4  502    0 -0.96272175270E+02  0.52935732909E+02 -0.15048016985E+04  0.15088143575E+04  0.47000000000E+01 0.  1.
         -5    1    4    4    0  502  0.27469892614E+02 -0.21606039218E+02 -0.68767836042E+03  0.68858190022E+03  0.47000000000E+01 0.  1.
          5    1    5    5  503    0  0.48002908885E+02  0.26431039399E+02 -0.39845821780E+03  0.40223615009E+03  0.47000000000E+01 0.  1.
         -5    1    5    5    0  503  0.20799373771E+02 -0.57760733090E+02 -0.67927972171E+03  0.68206447390E+03  0.47000000000E+01 0.  1.
<mgrwt>
<rscale>  0 0.27424198E+03</rscale>
<asrwt>0</asrwt>
<pdfrwt beam="1">  1        2 0.50399533E+00 0.27424198E+03</pdfrwt>
<pdfrwt beam="2">  1       -2 0.88298773E-03 0.27424198E+03</pdfrwt>
<totfact> 0.36129342E+03</totfact>
</mgrwt>
</event>
<event>
 9    1  0.2117506E-002  0.2730471E+03  0.7818608E-02  0.1099548E+00
          1   -1    0    0  501    0  0.00000000000E+00  0.00000000000E+00  0.59237589679E+03  0.59237589679E+03  0.00000000000E+00 0.  1.
         -1   -1    0    0    0  501 -0.00000000000E+00 -0.00000000000E+00 -0.31464266867E+02  0.31464266867E+02  0.00000000000E+00 0.  1.
         36    2    1    2    0    0 -0.17763568394E-14  0.00000000000E+00  0.56091162992E+03  0.62384016366E+03  0.27304705311E+03 0.  0.
         25    2    3    3    0    0 -0.60444243404E+01 -0.21893147797E+02  0.42194822764E+03  0.44024470434E+03  0.12352832834E+03 0.  0.
         25    2    3    3    0    0  0.60444243404E+01  0.21893147797E+02  0.13896340228E+03  0.18359545932E+03  0.11781604527E+03 0.  0.
          5    1    4    4  502    0 -0.46174322488E+01  0.51221953316E+02  0.19727751910E+03  0.20392527730E+03  0.47000000000E+01 0.  1.
         -5    1    4    4    0  502 -0.14269920916E+01 -0.73115101113E+02  0.22467070855E+03  0.23631942704E+03  0.47000000000E+01 0.  1.
          5    1    5    5  503    0 -0.27507920178E+02  0.61688955180E+02  0.77058009691E+02  0.10257796899E+03  0.47000000000E+01 0.  1.
         -5    1    5    5    0  503  0.33552344518E+02 -0.39795807383E+02  0.61905392593E+02  0.81017490334E+02  0.47000000000E+01 0.  1.
<mgrwt>
<rscale>  0 0.27304705E+03</rscale>
<asrwt>0</asrwt>
<pdfrwt beam="1">  1        1 0.91134745E-01 0.27304705E+03</pdfrwt>
<pdfrwt beam="2">  1       -1 0.48406569E-02 0.27304705E+03</pdfrwt>
<totfact> 0.65895543E+03</totfact>
</mgrwt>
</event>
<event>
 9    1  0.2117506E-002  0.2757818E+03  0.7818608E-02  0.1098015E+00
         -1   -1    0    0    0  501 -0.00000000000E+00  0.00000000000E+00  0.18535488516E+03  0.18535488516E+03  0.00000000000E+00 0. -1.
          1   -1    0    0  501    0  0.00000000000E+00 -0.00000000000E+00 -0.10258105472E+03  0.10258105472E+03  0.00000000000E+00 0. -1.
         36    2    1    2    0    0  0.00000000000E+00  0.00000000000E+00  0.82773830440E+02  0.28793593988E+03  0.27578179503E+03 0.  0.
         25    2    3    3    0    0  0.16379433848E+02  0.18434877003E+02  0.10073033796E+03  0.16130644591E+03  0.12355176228E+03 0.  0.
         25    2    3    3    0    0 -0.16379433848E+02 -0.18434877003E+02 -0.17956507521E+02  0.12662949397E+03  0.12290021171E+03 0.  0.
          5    1    4    4  502    0 -0.12548751428E+02  0.53528271991E+02  0.10155429201E+03  0.11557729574E+03  0.47000000000E+01 0.  1.
         -5    1    4    4    0  502  0.28928185276E+02 -0.35093394988E+02 -0.82395404683E+00  0.45729150172E+02  0.47000000000E+01 0.  1.
          5    1    5    5  503    0 -0.32943082208E+02 -0.39382825459E+02  0.38267324279E+02  0.64208501882E+02  0.47000000000E+01 0. -1.
         -5    1    5    5    0  503  0.16563648360E+02  0.20947948456E+02 -0.56223831800E+02  0.62420992092E+02  0.47000000000E+01 0. -1.
<mgrwt>
<rscale>  0 0.27578180E+03</rscale>
<asrwt>0</asrwt>
<pdfrwt beam="1">  1        1 0.15781701E-01 0.27578180E+03</pdfrwt>
<pdfrwt beam="2">  1       -1 0.28516136E-01 0.27578180E+03</pdfrwt>
<totfact> 0.38617348E+03</totfact>
</mgrwt>
</event>
<event>
 9    1  0.2117506E-002  0.2756930E+03  0.7818608E-02  0.1098065E+00
         -2   -1    0    0    0  501 -0.00000000000E+00  0.00000000000E+00  0.49592023887E+02  0.49592023887E+02  0.00000000000E+00 0. -1.
          2   -1    0    0  501    0  0.00000000000E+00 -0.00000000000E+00 -0.38315967925E+03  0.38315967925E+03  0.00000000000E+00 0. -1.
         36    2    1    2    0    0  0.00000000000E+00  0.00000000000E+00 -0.33356765536E+03  0.43275170314E+03  0.27569304645E+03 0.  0.
         25    2    3    3    0    0  0.33774622864E+02  0.98489543086E+01 -0.22123771695E+03  0.25807617184E+03  0.12813842522E+03 0.  0.
         25    2    3    3    0    0 -0.33774622864E+02 -0.98489543086E+01 -0.11232993841E+03  0.17467553130E+03  0.12905734818E+03 0.  0.
          5    1    4    4  502    0  0.72790442661E+02 -0.26251033913E+02 -0.15233959292E+03  0.17092983033E+03  0.47000000000E+01 0. -1.
         -5    1    4    4    0  502 -0.39015819797E+02  0.36099988222E+02 -0.68898124030E+02  0.87146341512E+02  0.47000000000E+01 0. -1.
          5    1    5    5  503    0 -0.19627420346E+02  0.47515181124E+02 -0.10226660928E+03  0.11455774719E+03  0.47000000000E+01 0. -1.
         -5    1    5    5    0  503 -0.14147202518E+02 -0.57364135432E+02 -0.10063329128E+02  0.60117784108E+02  0.47000000000E+01 0. -1.
<mgrwt>
<rscale>  0 0.27569305E+03</rscale>
<asrwt>0</asrwt>
<pdfrwt beam="1">  1        2 0.58947643E-01 0.27569305E+03</pdfrwt>
<pdfrwt beam="2">  1       -2 0.76295422E-02 0.27569305E+03</pdfrwt>
<totfact> 0.84682557E+03</totfact>
</mgrwt>
</event>
<event>
 9    1  0.2117506E-002  0.2756303E+03  0.7818608E-02  0.1098100E+00
          1   -1    0    0  501    0  0.00000000000E+00  0.00000000000E+00  0.16981850423E+03  0.16981850423E+03  0.00000000000E+00 0. -1.
         -1   -1    0    0    0  501 -0.00000000000E+00 -0.00000000000E+00 -0.11184306584E+03  0.11184306584E+03  0.00000000000E+00 0. -1.
         36    2    1    2    0    0 -0.71054273576E-14 -0.71054273576E-14  0.57975438381E+02  0.28166157007E+03  0.27563034775E+03 0.  0.
         25    2    3    3    0    0 -0.33273542344E+02 -0.29686844214E+02  0.59041372204E+02  0.14968001780E+03  0.13011451401E+03 0.  0.
         25    2    3    3    0    0  0.33273542344E+02  0.29686844214E+02 -0.10659338227E+01  0.13198155227E+03  0.12421576625E+03 0.  0.
          5    1    4    4  502    0 -0.48041723664E+01  0.42462384498E+02  0.57710504810E+02  0.71963369396E+02  0.47000000000E+01 0.  1.
         -5    1    4    4    0  502 -0.28469369978E+02 -0.72149228712E+02  0.13308673936E+01  0.77716648401E+02  0.47000000000E+01 0.  1.
          5    1    5    5  503    0  0.47868690588E+02 -0.38796217827E+02 -0.24919997324E-01  0.61795215650E+02  0.47000000000E+01 0.  1.
         -5    1    5    5    0  503 -0.14595148244E+02  0.68483062041E+02 -0.10410138253E+01  0.70186336623E+02  0.47000000000E+01 0.  1.
<mgrwt>
<rscale>  0 0.27563035E+03</rscale>
<asrwt>0</asrwt>
<pdfrwt beam="1">  1        1 0.26125924E-01 0.27563035E+03</pdfrwt>
<pdfrwt beam="2">  1       -1 0.17206625E-01 0.27563035E+03</pdfrwt>
<totfact> 0.46281173E+03</totfact>
</mgrwt>
</event>
<event>
 9    1  0.2117506E-002  0.2750744E+03  0.7818608E-02  0.1098410E+00
         -1   -1    0    0    0  501 -0.00000000000E+00  0.00000000000E+00  0.21621158373E+02  0.21621158373E+02  0.00000000000E+00 0. -1.
          1   -1    0    0  501    0  0.00000000000E+00 -0.00000000000E+00 -0.87490594591E+03  0.87490594591E+03  0.00000000000E+00 0. -1.
         36    2    1    2    0    0  0.00000000000E+00 -0.71054273576E-14 -0.85328478754E+03  0.89652710428E+03  0.27507439007E+03 0.  0.
         25    2    3    3    0    0 -0.25361488639E+02 -0.23244997193E+02 -0.34014539032E+03  0.36735904296E+03  0.13442561098E+03 0.  0.
         25    2    3    3    0    0  0.25361488639E+02  0.23244997193E+02 -0.51313939722E+03  0.52916806132E+03  0.12459237997E+03 0.  0.
          5    1    4    4  502    0  0.37946606519E+02  0.17620500270E+02 -0.40754767854E+02  0.58595802570E+02  0.47000000000E+01 0. -1.
         -5    1    4    4    0  502 -0.63308095158E+02 -0.40865497464E+02 -0.29939062247E+03  0.30876324039E+03  0.47000000000E+01 0. -1.
          5    1    5    5  503    0  0.15577195404E+02  0.52520107331E+02 -0.94240325086E+02  0.10910700969E+03  0.47000000000E+01 0.  1.
         -5    1    5    5    0  503  0.97842932349E+01 -0.29275110137E+02 -0.41889907213E+03  0.42006105163E+03  0.47000000000E+01 0.  1.
<mgrwt>
<rscale>  0 0.27507439E+03</rscale>
<asrwt>0</asrwt>
<pdfrwt beam="1">  1        1 0.13460092E+00 0.27507439E+03</pdfrwt>
<pdfrwt beam="2">  1       -1 0.33263320E-02 0.27507439E+03</pdfrwt>
<totfact> 0.64631817E+03</totfact>
</mgrwt>
</event>
<event>
 9    1  0.2117506E-002  0.2747183E+03  0.7818608E-02  0.1098609E+00
          1   -1    0    0  501    0  0.00000000000E+00  0.00000000000E+00  0.18122934266E+04  0.18122934266E+04  0.00000000000E+00 0. -1.
         -1   -1    0    0    0  501 -0.00000000000E+00 -0.00000000000E+00 -0.10410858013E+02  0.10410858013E+02  0.00000000000E+00 0. -1.
         36    2    1    2    0    0 -0.71054273576E-14  0.00000000000E+00  0.18018825686E+04  0.18227042846E+04  0.27471825234E+03 0.  0.
         25    2    3    3    0    0  0.46272581993E+02  0.21950201489E+02  0.10088553956E+04  0.10181763354E+04  0.12755734941E+03 0.  0.
         25    2    3    3    0    0 -0.46272581993E+02 -0.21950201489E+02  0.79302717297E+03  0.80452794927E+03  0.12549964504E+03 0.  0.
          5    1    4    4  502    0  0.42210190692E+02  0.27817520008E+02  0.13425197943E+03  0.14353117640E+03  0.47000000000E+01 0.  1.
         -5    1    4    4    0  502  0.40623913009E+01 -0.58673185187E+01  0.87460341621E+03  0.87464515896E+03  0.47000000000E+01 0.  1.
          5    1    5    5  503    0 -0.56580713234E+01 -0.31854095019E+02  0.71613010274E+03  0.71687593849E+03  0.47000000000E+01 0. -1.
         -5    1    5    5    0  503 -0.40614510670E+02  0.99038935299E+01  0.76897070235E+02  0.87652010786E+02  0.47000000000E+01 0. -1.
<mgrwt>
<rscale>  0 0.27471825E+03</rscale>
<asrwt>0</asrwt>
<pdfrwt beam="1">  1        1 0.27881412E+00 0.27471825E+03</pdfrwt>
<pdfrwt beam="2">  1       -1 0.16016719E-02 0.27471825E+03</pdfrwt>
<totfact> 0.42375132E+03</totfact>
</mgrwt>
</event>
<event>
 9    1  0.2117506E-002  0.2756310E+03  0.7818608E-02  0.1098099E+00
          2   -1    0    0  501    0  0.00000000000E+00  0.00000000000E+00  0.56039820045E+03  0.56039820045E+03  0.00000000000E+00 0. -1.
         -2   -1    0    0    0  501 -0.00000000000E+00 -0.00000000000E+00 -0.33892178359E+02  0.33892178359E+02  0.00000000000E+00 0. -1.
         36    2    1    2    0    0  0.71054273576E-14  0.14210854715E-13  0.52650602209E+03  0.59429037881E+03  0.27563102700E+03 0.  0.
         25    2    3    3    0    0  0.32836827230E+02 -0.56221016404E+02  0.21753747096E+03  0.25542255691E+03  0.11695756238E+03 0.  0.
         25    2    3    3    0    0 -0.32836827230E+02  0.56221016404E+02  0.30896855114E+03  0.33886782191E+03  0.12300721615E+03 0.  0.
          5    1    4    4  502    0  0.35562563417E+01 -0.69557960973E+01 -0.14079983657E+02  0.16773967875E+02  0.47000000000E+01 0. -1.
         -5    1    4    4    0  502  0.29280570888E+02 -0.49265220307E+02  0.23161745462E+03  0.23864858903E+03  0.47000000000E+01 0. -1.
          5    1    5    5  503    0 -0.53352853026E+02  0.75642257748E+02  0.14274689126E+03  0.17019707121E+03  0.47000000000E+01 0.  1.
         -5    1    5    5    0  503  0.20516025796E+02 -0.19421241344E+02  0.16622165988E+03  0.16867075070E+03  0.47000000000E+01 0.  1.
<mgrwt>
<rscale>  0 0.27563103E+03</rscale>
<asrwt>0</asrwt>
<pdfrwt beam="1">  1        2 0.86215101E-01 0.27563103E+03</pdfrwt>
<pdfrwt beam="2">  1       -2 0.52141817E-02 0.27563103E+03</pdfrwt>
<totfact> 0.99830202E+03</totfact>
</mgrwt>
</event>
<event>
 9    1  0.2117506E-002  0.2755741E+03  0.7818608E-02  0.1098131E+00
          2   -1    0    0  501    0  0.00000000000E+00  0.00000000000E+00  0.63759800564E+03  0.63759800564E+03  0.00000000000E+00 0.  1.
         -2   -1    0    0    0  501 -0.00000000000E+00 -0.00000000000E+00 -0.29776247324E+02  0.29776247324E+02  0.00000000000E+00 0.  1.
         36    2    1    2    0    0  0.00000000000E+00  0.71054273576E-14  0.60782175831E+03  0.66737425296E+03  0.27557413455E+03 0.  0.
         25    2    3    3    0    0 -0.53524214501E+02  0.19619494629E+02  0.27950333110E+03  0.31156500044E+03  0.12530311765E+03 0.  0.
         25    2    3    3    0    0  0.53524214501E+02 -0.19619494629E+02  0.32831842721E+03  0.35580925252E+03  0.12472958120E+03 0.  0.
          5    1    4    4  502    0  0.28879045198E+01  0.39173786210E+02  0.23137662784E+03  0.23473423148E+03  0.47000000000E+01 0.  1.
         -5    1    4    4    0  502 -0.56412119021E+02 -0.19554291582E+02  0.48126703264E+02  0.76830768959E+02  0.47000000000E+01 0.  1.
          5    1    5    5  503    0  0.69050627561E+02 -0.37014995874E+02  0.10430351564E+03  0.13053510050E+03  0.47000000000E+01 0.  1.
         -5    1    5    5    0  503 -0.15526413060E+02  0.17395501246E+02  0.22401491157E+03  0.22527415202E+03  0.47000000000E+01 0.  1.
<mgrwt>
<rscale>  0 0.27557413E+03</rscale>
<asrwt>0</asrwt>
<pdfrwt beam="1">  1        2 0.98091990E-01 0.27557413E+03</pdfrwt>
<pdfrwt beam="2">  1       -2 0.45809616E-02 0.27557413E+03</pdfrwt>
<totfact> 0.10460401E+04</totfact>
</mgrwt>
</event>
<event>
 9    1  0.2117506E-002  0.2795880E+03  0.7818608E-02  0.1095914E+00
          1   -1    0    0  501    0  0.00000000000E+00  0.00000000000E+00  0.16994967142E+03  0.16994967142E+03  0.00000000000E+00 0.  1.
         -1   -1    0    0    0  501 -0.00000000000E+00 -0.00000000000E+00 -0.11498914828E+03  0.11498914828E+03  0.00000000000E+00 0.  1.
         36    2    1    2    0    0  0.00000000000E+00  0.35527136788E-14  0.54960523138E+02  0.28493881969E+03  0.27958803956E+03 0.  0.
         25    2    3    3    0    0 -0.40451256825E+02  0.29312502125E+00 -0.16289985578E+02  0.13139754453E+03  0.12394983250E+03 0.  0.
         25    2    3    3    0    0  0.40451256825E+02 -0.29312502125E+00  0.71250508716E+02  0.15354127517E+03  0.12985337149E+03 0.  0.
          5    1    4    4  502    0  0.19486429874E+02  0.38606118368E+02 -0.37055418903E+02  0.57143218274E+02  0.47000000000E+01 0.  1.
         -5    1    4    4    0  502 -0.59937686698E+02 -0.38312993346E+02  0.20765433325E+02  0.74254326252E+02  0.47000000000E+01 0.  1.
          5    1    5    5  503    0 -0.39427441691E+01 -0.13519292581E+02  0.98487128546E+02  0.99599804180E+02  0.47000000000E+01 0.  1.
         -5    1    5    5    0  503  0.44394000994E+02  0.13226167560E+02 -0.27236619830E+02  0.53941470988E+02  0.47000000000E+01 0.  1.
<mgrwt>
<rscale>  0 0.27958804E+03</rscale>
<asrwt>0</asrwt>
<pdfrwt beam="1">  1        1 0.26146103E-01 0.27958804E+03</pdfrwt>
<pdfrwt beam="2">  1       -1 0.17690638E-01 0.27958804E+03</pdfrwt>
<totfact> 0.44240467E+03</totfact>
</mgrwt>
</event>
<event>
 9    1  0.2117506E-002  0.2741788E+03  0.7818608E-02  0.1098912E+00
         -2   -1    0    0    0  501 -0.00000000000E+00  0.00000000000E+00  0.20361040780E+02  0.20361040780E+02  0.00000000000E+00 0.  1.
          2   -1    0    0  501    0  0.00000000000E+00 -0.00000000000E+00 -0.92301258754E+03  0.92301258754E+03  0.00000000000E+00 0.  1.
         36    2    1    2    0    0  0.35527136788E-14  0.35527136788E-14 -0.90265154676E+03  0.94337362832E+03  0.27417875144E+03 0.  0.
         25    2    3    3    0    0 -0.25316538790E+02  0.75477706230E+01 -0.31490531586E+03  0.34192929947E+03  0.13058480733E+03 0.  0.
         25    2    3    3    0    0  0.25316538790E+02 -0.75477706230E+01 -0.58774623090E+03  0.60144432885E+03  0.12486694031E+03 0.  0.
          5    1    4    4  502    0  0.25856731464E+02  0.46670710217E+02 -0.67155189488E+02  0.85898982702E+02  0.47000000000E+01 0. -1.
         -5    1    4    4    0  502 -0.51173270254E+02 -0.39122939594E+02 -0.24775012637E+03  0.25603031677E+03  0.47000000000E+01 0. -1.
          5    1    5    5  503    0 -0.10947666084E+02  0.22962455227E+02 -0.50729321657E+03  0.50795238293E+03  0.47000000000E+01 0. -1.
         -5    1    5    5    0  503  0.36264204874E+02 -0.30510225850E+02 -0.80453014335E+02  0.93491945922E+02  0.47000000000E+01 0. -1.
<mgrwt>
<rscale>  0 0.27417875E+03</rscale>
<asrwt>0</asrwt>
<pdfrwt beam="1">  1        2 0.14200194E+00 0.27417875E+03</pdfrwt>
<pdfrwt beam="2">  1       -2 0.31324676E-02 0.27417875E+03</pdfrwt>
<totfact> 0.11620978E+04</totfact>
</mgrwt>
</event>
<event>
 9    1  0.2117506E-002  0.2751309E+03  0.7818608E-02  0.1098378E+00
          2   -1    0    0  501    0  0.00000000000E+00  0.00000000000E+00  0.17885573115E+03  0.17885573115E+03  0.00000000000E+00 0.  1.
         -2   -1    0    0    0  501 -0.00000000000E+00 -0.00000000000E+00 -0.10580738824E+03  0.10580738824E+03  0.00000000000E+00 0.  1.
         36    2    1    2    0    0 -0.35527136788E-14  0.00000000000E+00  0.73048342912E+02  0.28466311939E+03  0.27513093454E+03 0.  0.
         25    2    3    3    0    0 -0.75230497755E+01 -0.46337772531E+02  0.30824874859E+02  0.14347501454E+03  0.13202697242E+03 0.  0.
         25    2    3    3    0    0  0.75230497755E+01  0.46337772531E+02  0.42223468053E+02  0.14118810485E+03  0.12628330949E+03 0.  0.
          5    1    4    4  502    0 -0.31752045906E+02 -0.79944175733E+01  0.73763314112E+02  0.80840705343E+02  0.47000000000E+01 0. -1.
         -5    1    4    4    0  502  0.24228996131E+02 -0.38343354958E+02 -0.42938439252E+02  0.62634309195E+02  0.47000000000E+01 0. -1.
          5    1    5    5  503    0  0.51912490960E+02 -0.63554971563E+01 -0.11425209519E+02  0.53739412672E+02  0.47000000000E+01 0. -1.
         -5    1    5    5    0  503 -0.44389441184E+02  0.52693269687E+02  0.53648677571E+02  0.87448692181E+02  0.47000000000E+01 0. -1.
<mgrwt>
<rscale>  0 0.27513093E+03</rscale>
<asrwt>0</asrwt>
<pdfrwt beam="1">  1        2 0.27516266E-01 0.27513093E+03</pdfrwt>
<pdfrwt beam="2">  1       -2 0.16278060E-01 0.27513093E+03</pdfrwt>
<totfact> 0.57224411E+03</totfact>
</mgrwt>
</event>
<event>
 9    1  0.2117506E-002  0.2753018E+03  0.7818608E-02  0.1098283E+00
          3   -1    0    0  501    0  0.00000000000E+00  0.00000000000E+00  0.16100521207E+02  0.16100521207E+02  0.00000000000E+00 0.  1.
         -3   -1    0    0    0  501 -0.00000000000E+00 -0.00000000000E+00 -0.11768422800E+04  0.11768422800E+04  0.00000000000E+00 0.  1.
         36    2    1    2    0    0  0.00000000000E+00  0.14210854715E-13 -0.11607417587E+04  0.11929428012E+04  0.27530182772E+03 0.  0.
         25    2    3    3    0    0  0.81643666339E+01 -0.36730621942E+02 -0.38571923075E+03  0.40727024240E+03  0.12519556663E+03 0.  0.
         25    2    3    3    0    0 -0.81643666339E+01  0.36730621942E+02 -0.77502252800E+03  0.78567255876E+03  0.12331121286E+03 0.  0.
          5    1    4    4  502    0 -0.55472414690E+02 -0.35360733356E+02 -0.22048840468E+03  0.23014081962E+03  0.47000000000E+01 0.  1.
         -5    1    4    4    0  502  0.63636781324E+02 -0.13698885856E+01 -0.16523082607E+03  0.17712942278E+03  0.47000000000E+01 0.  1.
          5    1    5    5  503    0 -0.40347710845E+01 -0.45660524470E+02 -0.29969042396E+03  0.30321214205E+03  0.47000000000E+01 0. -1.
         -5    1    5    5    0  503 -0.41295955494E+01  0.82391146412E+02 -0.47533210404E+03  0.48246041671E+03  0.47000000000E+01 0. -1.
<mgrwt>
<rscale>  0 0.27530183E+03</rscale>
<asrwt>0</asrwt>
<pdfrwt beam="1">  1        3 0.24770030E-02 0.27530183E+03</pdfrwt>
<pdfrwt beam="2">  1       -3 0.18105267E+00 0.27530183E+03</pdfrwt>
<totfact> 0.36399480E+02</totfact>
</mgrwt>
</event>
<event>
 9    1  0.2117506E-002  0.2756942E+03  0.7818608E-02  0.1098064E+00
         -3   -1    0    0    0  501 -0.00000000000E+00  0.00000000000E+00  0.60894882712E+03  0.60894882712E+03  0.00000000000E+00 0.  1.
          3   -1    0    0  501    0  0.00000000000E+00 -0.00000000000E+00 -0.31204302369E+02  0.31204302369E+02  0.00000000000E+00 0.  1.
         36    2    1    2    0    0  0.71054273576E-14  0.00000000000E+00  0.57774452475E+03  0.64015312949E+03  0.27569420254E+03 0.  0.
         25    2    3    3    0    0  0.32842284625E+02 -0.48384054577E+02  0.31340243242E+03  0.34110620795E+03  0.12129603480E+03 0.  0.
         25    2    3    3    0    0 -0.32842284625E+02  0.48384054577E+02  0.26434209233E+03  0.29904692154E+03  0.12701451535E+03 0.  0.
          5    1    4    4  502    0  0.19527275774E+02  0.49615252090E+01 -0.21177689376E+01  0.20796782848E+02  0.47000000000E+01 0. -1.
         -5    1    4    4    0  502  0.13315008851E+02 -0.53345579785E+02  0.31552020136E+03  0.32030942510E+03  0.47000000000E+01 0. -1.
          5    1    5    5  503    0  0.36415787163E+02  0.38791648917E+02  0.48620161625E+02  0.72228191843E+02  0.47000000000E+01 0.  1.
         -5    1    5    5    0  503 -0.69258071789E+02  0.95924056591E+01  0.21572193071E+03  0.22681872970E+03  0.47000000000E+01 0.  1.
<mgrwt>
<rscale>  0 0.27569420E+03</rscale>
<asrwt>0</asrwt>
<pdfrwt beam="1">  1        3 0.48006624E-02 0.27569420E+03</pdfrwt>
<pdfrwt beam="2">  1       -3 0.93684426E-01 0.27569420E+03</pdfrwt>
<totfact> 0.64820491E+02</totfact>
</mgrwt>
</event>
<event>
 9    1  0.2117506E-002  0.2750369E+03  0.7818608E-02  0.1098431E+00
          2   -1    0    0  501    0  0.00000000000E+00  0.00000000000E+00  0.73732898187E+03  0.73732898187E+03  0.00000000000E+00 0. -1.
         -2   -1    0    0    0  501 -0.00000000000E+00 -0.00000000000E+00 -0.25648420330E+02  0.25648420330E+02  0.00000000000E+00 0. -1.
         36    2    1    2    0    0  0.00000000000E+00 -0.71054273576E-14  0.71168056154E+03  0.76297740220E+03  0.27503689678E+03 0.  0.
         25    2    3    3    0    0  0.13045037530E+02  0.36049311354E+01  0.22744886905E+03  0.26295510070E+03  0.13126015550E+03 0.  0.
         25    2    3    3    0    0 -0.13045037530E+02 -0.36049311354E+01  0.48423169250E+03  0.50002230150E+03  0.12393063159E+03 0.  0.
          5    1    4    4  502    0  0.20148619622E+02  0.64639931757E+02  0.14424215436E+03  0.15941197177E+03  0.47000000000E+01 0. -1.
         -5    1    4    4    0  502 -0.71035820928E+01 -0.61035000622E+02  0.83206714685E+02  0.10354312893E+03  0.47000000000E+01 0. -1.
          5    1    5    5  503    0 -0.93399319157E+01  0.55427163309E+02  0.32971626037E+03  0.33450606439E+03  0.47000000000E+01 0. -1.
         -5    1    5    5    0  503 -0.37051056138E+01 -0.59032094445E+02  0.15451543213E+03  0.16551623711E+03  0.47000000000E+01 0. -1.
<mgrwt>
<rscale>  0 0.27503690E+03</rscale>
<asrwt>0</asrwt>
<pdfrwt beam="1">  1        2 0.11343521E+00 0.27503690E+03</pdfrwt>
<pdfrwt beam="2">  1       -2 0.39459114E-02 0.27503690E+03</pdfrwt>
<totfact> 0.10993459E+04</totfact>
</mgrwt>
</event>
<event>
 9    1  0.2117506E-002  0.2751651E+03  0.7818608E-02  0.1098359E+00
          2   -1    0    0  501    0  0.00000000000E+00  0.00000000000E+00  0.13170096269E+04  0.13170096269E+04  0.00000000000E+00 0. -1.
         -2   -1    0    0    0  501 -0.00000000000E+00 -0.00000000000E+00 -0.14372682546E+02  0.14372682546E+02  0.00000000000E+00 0. -1.
         36    2    1    2    0    0 -0.71054273576E-14 -0.71054273576E-14  0.13026369444E+04  0.13313823095E+04  0.27516512335E+03 0.  0.
         25    2    3    3    0    0  0.14714104058E+02  0.33851838154E+02  0.87209190193E+03  0.88179037328E+03  0.12509006838E+03 0.  0.
         25    2    3    3    0    0 -0.14714104058E+02 -0.33851838154E+02  0.43054504244E+03  0.44959193617E+03  0.12410247257E+03 0.  0.
          5    1    4    4  502    0  0.68309628913E+02  0.23149311612E+02  0.59032765635E+03  0.59473601529E+03  0.47000000000E+01 0.  1.
         -5    1    4    4    0  502 -0.53595524855E+02  0.10702526542E+02  0.28176424557E+03  0.28705435799E+03  0.47000000000E+01 0.  1.
          5    1    5    5  503    0  0.36519383639E+02  0.17870827339E+02  0.27206986730E+03  0.27513112246E+03  0.47000000000E+01 0. -1.
         -5    1    5    5    0  503 -0.51233487697E+02 -0.51722665492E+02  0.15847517514E+03  0.17446081372E+03  0.47000000000E+01 0. -1.
<mgrwt>
<rscale>  0 0.27516512E+03</rscale>
<asrwt>0</asrwt>
<pdfrwt beam="1">  1        2 0.20261677E+00 0.27516512E+03</pdfrwt>
<pdfrwt beam="2">  1       -2 0.22111830E-02 0.27516512E+03</pdfrwt>
<totfact> 0.11436146E+04</totfact>
</mgrwt>
</event>
<event>
 9    1  0.2117506E-002  0.2789781E+03  0.7818608E-02  0.1096248E+00
          2   -1    0    0  501    0  0.00000000000E+00  0.00000000000E+00  0.64940630074E+03  0.64940630074E+03  0.00000000000E+00 0. -1.
         -2   -1    0    0    0  501 -0.00000000000E+00 -0.00000000000E+00 -0.29961517620E+02  0.29961517620E+02  0.00000000000E+00 0. -1.
         36    2    1    2    0    0  0.14210854715E-13 -0.71054273576E-14  0.61944478312E+03  0.67936781837E+03  0.27897812332E+03 0.  0.
         25    2    3    3    0    0  0.57316106180E+02 -0.25826017592E+02  0.35220562106E+03  0.37880947378E+03  0.12448172038E+03 0.  0.
         25    2    3    3    0    0 -0.57316106180E+02  0.25826017592E+02  0.26723916207E+03  0.30055834459E+03  0.12233735957E+03 0.  0.
          5    1    4    4  502    0  0.32221309133E+02  0.42580024839E+02  0.75244994437E+02  0.92385986304E+02  0.47000000000E+01 0. -1.
         -5    1    4    4    0  502  0.25094797047E+02 -0.68406042431E+02  0.27696062662E+03  0.28642348747E+03  0.47000000000E+01 0. -1.
          5    1    5    5  503    0  0.53252979628E+01  0.31214954330E+01  0.21659763085E+03  0.21673653642E+03  0.47000000000E+01 0. -1.
         -5    1    5    5    0  503 -0.62641404143E+02  0.22704522159E+02  0.50641531223E+02  0.83821808165E+02  0.47000000000E+01 0. -1.
<mgrwt>
<rscale>  0 0.27897812E+03</rscale>
<asrwt>0</asrwt>
<pdfrwt beam="1">  1        2 0.99908651E-01 0.27897812E+03</pdfrwt>
<pdfrwt beam="2">  1       -2 0.46094647E-02 0.27897812E+03</pdfrwt>
<totfact> 0.10144549E+04</totfact>
</mgrwt>
</event>
<event>
 9    1  0.2117506E-002  0.2762100E+03  0.7818608E-02  0.1097777E+00
         -1   -1    0    0    0  501 -0.00000000000E+00  0.00000000000E+00  0.69808883841E+02  0.69808883841E+02  0.00000000000E+00 0. -1.
          1   -1    0    0  501    0  0.00000000000E+00 -0.00000000000E+00 -0.27321722976E+03  0.27321722976E+03  0.00000000000E+00 0. -1.
         36    2    1    2    0    0 -0.71054273576E-14  0.71054273576E-14 -0.20340834592E+03  0.34302611360E+03  0.27620999153E+03 0.  0.
         25    2    3    3    0    0  0.17855132889E+02 -0.50155869831E+02 -0.95905845619E+02  0.16487564794E+03  0.12309196160E+03 0.  0.
         25    2    3    3    0    0 -0.17855132889E+02  0.50155869831E+02 -0.10750250030E+03  0.17815046566E+03  0.13170567108E+03 0.  0.
          5    1    4    4  502    0 -0.46999005262E+02  0.59266201773E+01 -0.26627761154E+02  0.54545017980E+02  0.47000000000E+01 0.  1.
         -5    1    4    4    0  502  0.64854138150E+02 -0.56082490009E+02 -0.69278084465E+02  0.11033062996E+03  0.47000000000E+01 0.  1.
          5    1    5    5  503    0  0.41204384628E+02 -0.23384332264E+02 -0.34921747545E+02  0.59044447322E+02  0.47000000000E+01 0.  1.
         -5    1    5    5    0  503 -0.59059517516E+02  0.73540202095E+02 -0.72580752752E+02  0.11910601833E+03  0.47000000000E+01 0.  1.
<mgrwt>
<rscale>  0 0.27620999E+03</rscale>
<asrwt>0</asrwt>
<pdfrwt beam="1">  1        1 0.42033420E-01 0.27620999E+03</pdfrwt>
<pdfrwt beam="2">  1       -1 0.10739828E-01 0.27620999E+03</pdfrwt>
<totfact> 0.53451317E+03</totfact>
</mgrwt>
</event>
<event>
 9    1  0.2117506E-002  0.2749730E+03  0.7818608E-02  0.1098467E+00
         -1   -1    0    0    0  501 -0.00000000000E+00  0.00000000000E+00  0.29214687150E+02  0.29214687150E+02  0.00000000000E+00 0.  1.
          1   -1    0    0  501    0  0.00000000000E+00 -0.00000000000E+00 -0.64702191686E+03  0.64702191686E+03  0.00000000000E+00 0.  1.
         36    2    1    2    0    0  0.35527136788E-14 -0.35527136788E-14 -0.61780722971E+03  0.67623660401E+03  0.27497303781E+03 0.  0.
         25    2    3    3    0    0  0.23995295666E+02  0.14082063232E+02 -0.41703178188E+03  0.43688943139E+03  0.12721159319E+03 0.  0.
         25    2    3    3    0    0 -0.23995295666E+02 -0.14082063232E+02 -0.20077544782E+03  0.23934717262E+03  0.12728790151E+03 0.  0.
          5    1    4    4  502    0 -0.37970438521E+02 -0.32815809947E+02 -0.20212394920E+03  0.20831421560E+03  0.47000000000E+01 0. -1.
         -5    1    4    4    0  502  0.61965734188E+02  0.46897873179E+02 -0.21490783269E+03  0.22857521579E+03  0.47000000000E+01 0. -1.
          5    1    5    5  503    0 -0.44367576062E+02 -0.25250607142E+02 -0.20827026953E+03  0.21448699293E+03  0.47000000000E+01 0. -1.
         -5    1    5    5    0  503  0.20372280396E+02  0.11168543910E+02  0.74948217055E+01  0.24860179685E+02  0.47000000000E+01 0. -1.
<mgrwt>
<rscale>  0 0.27497304E+03</rscale>
<asrwt>0</asrwt>
<pdfrwt beam="1">  1        1 0.99541830E-01 0.27497304E+03</pdfrwt>
<pdfrwt beam="2">  1       -1 0.44945674E-02 0.27497304E+03</pdfrwt>
<totfact> 0.65070212E+03</totfact>
</mgrwt>
</event>
<event>
 9    1  0.2117506E-002  0.2745873E+03  0.7818608E-02  0.1098683E+00
         -1   -1    0    0    0  501 -0.00000000000E+00  0.00000000000E+00  0.46213768027E+02  0.46213768027E+02  0.00000000000E+00 0.  1.
          1   -1    0    0  501    0  0.00000000000E+00 -0.00000000000E+00 -0.40787726385E+03  0.40787726385E+03  0.00000000000E+00 0.  1.
         36    2    1    2    0    0  0.71054273576E-14  0.71054273576E-14 -0.36166349582E+03  0.45409103187E+03  0.27458729217E+03 0.  0.
         25    2    3    3    0    0 -0.48016813776E+02 -0.43321403908E+02 -0.17328127611E+03  0.22388188354E+03  0.12615204590E+03 0.  0.
         25    2    3    3    0    0  0.48016813776E+02  0.43321403908E+02 -0.18838221971E+03  0.23020914834E+03  0.11543843742E+03 0.  0.
          5    1    4    4  502    0  0.74123503697E+00 -0.77854740064E+02 -0.12301670931E+03  0.14566094449E+03  0.47000000000E+01 0. -1.
         -5    1    4    4    0  502 -0.48758048813E+02  0.34533336156E+02 -0.50264566802E+02  0.78220939050E+02  0.47000000000E+01 0. -1.
          5    1    5    5  503    0 -0.14365207936E+02 -0.68153160678E+01 -0.12995189798E+03  0.13100531867E+03  0.47000000000E+01 0. -1.
         -5    1    5    5    0  503  0.62382021711E+02  0.50136719976E+02 -0.58430321734E+02  0.99203829667E+02  0.47000000000E+01 0. -1.
<mgrwt>
<rscale>  0 0.27458729E+03</rscale>
<asrwt>0</asrwt>
<pdfrwt beam="1">  1        1 0.62750347E-01 0.27458729E+03</pdfrwt>
<pdfrwt beam="2">  1       -1 0.71098106E-02 0.27458729E+03</pdfrwt>
<totfact> 0.60598973E+03</totfact>
</mgrwt>
</event>
<event>
 9    1  0.2117506E-002  0.2738969E+03  0.7818608E-02  0.1099070E+00
          1   -1    0    0  501    0  0.00000000000E+00  0.00000000000E+00  0.10183753268E+03  0.10183753268E+03  0.00000000000E+00 0.  1.
         -1   -1    0    0    0  501 -0.00000000000E+00 -0.00000000000E+00 -0.18416470963E+03  0.18416470963E+03  0.00000000000E+00 0.  1.
         36    2    1    2    0    0 -0.71054273576E-14  0.00000000000E+00 -0.82327176955E+02  0.28600224231E+03  0.27389691225E+03 0.  0.
         25    2    3    3    0    0 -0.44044162187E+02  0.88968639664E+01 -0.74901824042E+02  0.15115624123E+03  0.12336483943E+03 0.  0.
         25    2    3    3    0    0  0.44044162187E+02 -0.88968639664E+01 -0.74253529130E+01  0.13484600108E+03  0.12692228225E+03 0.  0.
          5    1    4    4  502    0  0.71052901030E+01  0.15633923111E+02 -0.94204400146E+02  0.95872121632E+02  0.47000000000E+01 0.  1.
         -5    1    4    4    0  502 -0.51149452290E+02 -0.67370591443E+01  0.19302576104E+02  0.55284119598E+02  0.47000000000E+01 0.  1.
          5    1    5    5  503    0  0.15001400602E+02  0.12101349589E+02  0.57341097519E+02  0.60675993165E+02  0.47000000000E+01 0.  1.
         -5    1    5    5    0  503  0.29042761585E+02 -0.20998213556E+02 -0.64766450432E+02  0.74170007918E+02  0.47000000000E+01 0.  1.
<mgrwt>
<rscale>  0 0.27389691E+03</rscale>
<asrwt>0</asrwt>
<pdfrwt beam="1">  1        1 0.15667313E-01 0.27389691E+03</pdfrwt>
<pdfrwt beam="2">  1       -1 0.28333032E-01 0.27389691E+03</pdfrwt>
<totfact> 0.39405263E+03</totfact>
</mgrwt>
</event>
<event>
 9    1  0.2117506E-002  0.2777061E+03  0.7818608E-02  0.1096948E+00
         -2   -1    0    0    0  501 -0.00000000000E+00  0.00000000000E+00  0.33234728996E+02  0.33234728996E+02  0.00000000000E+00 0. -1.
          2   -1    0    0  501    0  0.00000000000E+00 -0.00000000000E+00 -0.58012103527E+03  0.58012103527E+03  0.00000000000E+00 0. -1.
         36    2    1    2    0    0  0.00000000000E+00 -0.35527136788E-14 -0.54688630627E+03  0.61335576426E+03  0.27770607046E+03 0.  0.
         25    2    3    3    0    0 -0.61166155137E+02 -0.21653869643E+02 -0.31217537048E+03  0.34198901246E+03  0.12366419896E+03 0.  0.
         25    2    3    3    0    0  0.61166155137E+02  0.21653869643E+02 -0.23471093579E+03  0.27136675180E+03  0.11975183506E+03 0.  0.
          5    1    4    4  502    0  0.13148739315E+02 -0.14281892147E+02  0.99961745598E+00  0.19998775561E+02  0.47000000000E+01 0.  1.
         -5    1    4    4    0  502 -0.74314894452E+02 -0.73719774963E+01 -0.31317498793E+03  0.32199023690E+03  0.47000000000E+01 0.  1.
          5    1    5    5  503    0  0.67668210805E+02 -0.34888022340E+02 -0.16070199656E+03  0.17788586947E+03  0.47000000000E+01 0. -1.
         -5    1    5    5    0  503 -0.65020556678E+01  0.56541891983E+02 -0.74008939228E+02  0.93480882338E+02  0.47000000000E+01 0. -1.
<mgrwt>
<rscale>  0 0.27770607E+03</rscale>
<asrwt>0</asrwt>
<pdfrwt beam="1">  1        2 0.89249385E-01 0.27770607E+03</pdfrwt>
<pdfrwt beam="2">  1       -2 0.51130355E-02 0.27770607E+03</pdfrwt>
<totfact> 0.98876379E+03</totfact>
</mgrwt>
</event>
<event>
 9    1  0.2117506E-002  0.2818127E+03  0.7818608E-02  0.1094703E+00
         -1   -1    0    0    0  501 -0.00000000000E+00  0.00000000000E+00  0.28016774708E+02  0.28016774708E+02  0.00000000000E+00 0.  1.
          1   -1    0    0  501    0  0.00000000000E+00 -0.00000000000E+00 -0.70866835563E+03  0.70866835563E+03  0.00000000000E+00 0.  1.
         36    2    1    2    0    0  0.00000000000E+00 -0.35527136788E-14 -0.68065158093E+03  0.73668513034E+03  0.28181271556E+03 0.  0.
         25    2    3    3    0    0 -0.59142814498E+02  0.16341141316E+02 -0.30541056993E+03  0.33601747168E+03  0.12596515250E+03 0.  0.
         25    2    3    3    0    0  0.59142814498E+02 -0.16341141316E+02 -0.37524101100E+03  0.40066765866E+03  0.12634813397E+03 0.  0.
          5    1    4    4  502    0 -0.67217338184E+01 -0.25414549281E+02 -0.24253728406E+03  0.24400308436E+03  0.47000000000E+01 0. -1.
         -5    1    4    4    0  502 -0.52421080680E+02  0.41755690598E+02 -0.62873285870E+02  0.92014387315E+02  0.47000000000E+01 0. -1.
          5    1    5    5  503    0 -0.28999221181E+02  0.28799126273E+02 -0.11947357925E+03  0.12635810477E+03  0.47000000000E+01 0.  1.
         -5    1    5    5    0  503  0.88142035679E+02 -0.45140267590E+02 -0.25576743175E+03  0.27430955389E+03  0.47000000000E+01 0.  1.
<mgrwt>
<rscale>  0 0.28181272E+03</rscale>
<asrwt>0</asrwt>
<pdfrwt beam="1">  1        1 0.10902590E+00 0.28181272E+03</pdfrwt>
<pdfrwt beam="2">  1       -1 0.43102729E-02 0.28181272E+03</pdfrwt>
<totfact> 0.60776831E+03</totfact>
</mgrwt>
</event>
<event>
 9    1  0.2117506E-002  0.2746167E+03  0.7818608E-02  0.1098666E+00
         -1   -1    0    0    0  501 -0.00000000000E+00  0.00000000000E+00  0.17317006348E+02  0.17317006348E+02  0.00000000000E+00 0.  1.
          1   -1    0    0  501    0  0.00000000000E+00 -0.00000000000E+00 -0.10887324160E+04  0.10887324160E+04  0.00000000000E+00 0.  1.
         36    2    1    2    0    0  0.71054273576E-14  0.00000000000E+00 -0.10714154096E+04  0.11060494223E+04  0.27461672315E+03 0.  0.
         25    2    3    3    0    0  0.27128453496E+02  0.20830510529E+02 -0.42492761624E+03  0.44534150659E+03  0.12882435829E+03 0.  0.
         25    2    3    3    0    0 -0.27128453496E+02 -0.20830510529E+02 -0.64648779337E+03  0.66070791571E+03  0.13197961872E+03 0.  0.
          5    1    4    4  502    0  0.36126973615E+01 -0.33459757605E+02 -0.28083521049E+02  0.44083796521E+02  0.47000000000E+01 0. -1.
         -5    1    4    4    0  502  0.23515756134E+02  0.54290268134E+02 -0.39684409519E+03  0.40125771007E+03  0.47000000000E+01 0. -1.
          5    1    5    5  503    0 -0.67554024728E+02  0.21073787012E+02 -0.45545253832E+03  0.46094116265E+03  0.47000000000E+01 0. -1.
         -5    1    5    5    0  503  0.40425571232E+02 -0.41904297541E+02 -0.19103525504E+03  0.19976675307E+03  0.47000000000E+01 0. -1.
<mgrwt>
<rscale>  0 0.27461672E+03</rscale>
<asrwt>0</asrwt>
<pdfrwt beam="1">  1        1 0.16749734E+00 0.27461672E+03</pdfrwt>
<pdfrwt beam="2">  1       -1 0.26641541E-02 0.27461672E+03</pdfrwt>
<totfact> 0.61788536E+03</totfact>
</mgrwt>
</event>
<event>
 9    1  0.2117506E-002  0.2624684E+03  0.7818608E-02  0.1105669E+00
         -2   -1    0    0    0  501 -0.00000000000E+00  0.00000000000E+00  0.93223918030E+02  0.93223918030E+02  0.00000000000E+00 0. -1.
          2   -1    0    0  501    0  0.00000000000E+00 -0.00000000000E+00 -0.18474239694E+03  0.18474239694E+03  0.00000000000E+00 0. -1.
         36    2    1    2    0    0  0.00000000000E+00  0.00000000000E+00 -0.91518478912E+02  0.27796631497E+03  0.26246836052E+03 0.  0.
         25    2    3    3    0    0  0.34302856415E+02 -0.28233799074E+02 -0.42882208579E+02  0.13833248903E+03  0.12378675349E+03 0.  0.
         25    2    3    3    0    0 -0.34302856415E+02  0.28233799074E+02 -0.48636270333E+02  0.13963382594E+03  0.12311898792E+03 0.  0.
          5    1    4    4  502    0 -0.32245968348E+02 -0.17595353444E+02  0.23304572312E+02  0.43756051332E+02  0.47000000000E+01 0. -1.
         -5    1    4    4    0  502  0.66548824763E+02 -0.10638445629E+02 -0.66186780891E+02  0.94576437697E+02  0.47000000000E+01 0. -1.
          5    1    5    5  503    0  0.99724856006E+01  0.54107289980E+02 -0.65291997331E+02  0.85511310442E+02  0.47000000000E+01 0.  1.
         -5    1    5    5    0  503 -0.44275342015E+02 -0.25873490906E+02  0.16655726999E+02  0.54122515500E+02  0.47000000000E+01 0.  1.
<mgrwt>
<rscale>  0 0.26246836E+03</rscale>
<asrwt>0</asrwt>
<pdfrwt beam="1">  1        2 0.28421907E-01 0.26246836E+03</pdfrwt>
<pdfrwt beam="2">  1       -2 0.14342141E-01 0.26246836E+03</pdfrwt>
<totfact> 0.67964380E+03</totfact>
</mgrwt>
</event>
<event>
 9    1  0.2117506E-002  0.2747768E+03  0.7818608E-02  0.1098576E+00
          2   -1    0    0  501    0  0.00000000000E+00  0.00000000000E+00  0.24660152250E+02  0.24660152250E+02  0.00000000000E+00 0.  1.
         -2   -1    0    0    0  501 -0.00000000000E+00 -0.00000000000E+00 -0.76542796179E+03  0.76542796179E+03  0.00000000000E+00 0.  1.
         36    2    1    2    0    0 -0.71054273576E-14 -0.71054273576E-14 -0.74076780954E+03  0.79008811404E+03  0.27477678267E+03 0.  0.
         25    2    3    3    0    0  0.33863668420E+02  0.32535713165E+02 -0.29321847129E+03  0.32276664132E+03  0.12647494682E+03 0.  0.
         25    2    3    3    0    0 -0.33863668420E+02 -0.32535713165E+02 -0.44754933825E+03  0.46732147272E+03  0.12603026632E+03 0.  0.
          5    1    4    4  502    0  0.60059417171E+02 -0.25366678469E+02 -0.19520112047E+03  0.20585472887E+03  0.47000000000E+01 0. -1.
         -5    1    4    4    0  502 -0.26195748752E+02  0.57902391634E+02 -0.98017350827E+02  0.11691191245E+03  0.47000000000E+01 0. -1.
          5    1    5    5  503    0 -0.68873802517E+02 -0.12156852486E+02 -0.13490928729E+03  0.15203287648E+03  0.47000000000E+01 0. -1.
         -5    1    5    5    0  503  0.35010134097E+02 -0.20378860679E+02 -0.31264005096E+03  0.31528859624E+03  0.47000000000E+01 0. -1.
<mgrwt>
<rscale>  0 0.27477678E+03</rscale>
<asrwt>0</asrwt>
<pdfrwt beam="1">  1        2 0.37938695E-02 0.27477678E+03</pdfrwt>
<pdfrwt beam="2">  1       -2 0.11775815E+00 0.27477678E+03</pdfrwt>
<totfact> 0.13232526E+03</totfact>
</mgrwt>
</event>
<event>
 9    1  0.2117506E-002  0.2744725E+03  0.7818608E-02  0.1098747E+00
         -1   -1    0    0    0  501 -0.00000000000E+00  0.00000000000E+00  0.20683021789E+03  0.20683021789E+03  0.00000000000E+00 0.  1.
          1   -1    0    0  501    0  0.00000000000E+00 -0.00000000000E+00 -0.91059148512E+02  0.91059148512E+02  0.00000000000E+00 0.  1.
         36    2    1    2    0    0  0.00000000000E+00  0.35527136788E-14  0.11577106938E+03  0.29788936640E+03  0.27447246512E+03 0.  0.
         25    2    3    3    0    0  0.53994093756E+02 -0.17855215112E+01  0.44056221985E+02  0.14293887891E+03  0.12478790872E+03 0.  0.
         25    2    3    3    0    0 -0.53994093756E+02  0.17855215112E+01  0.71714847392E+02  0.15495048749E+03  0.12628572361E+03 0.  0.
          5    1    4    4  502    0  0.25835423952E+02 -0.27868100473E+02  0.80914682885E+02  0.89517462325E+02  0.47000000000E+01 0.  1.
         -5    1    4    4    0  502  0.28158669804E+02  0.26082578962E+02 -0.36858460900E+02  0.53421416589E+02  0.47000000000E+01 0.  1.
          5    1    5    5  503    0 -0.67145469039E+02  0.43487483911E+02  0.12367998196E+02  0.81084725126E+02  0.47000000000E+01 0. -1.
         -5    1    5    5    0  503  0.13151375283E+02 -0.41701962400E+02  0.59346849196E+02  0.73865762362E+02  0.47000000000E+01 0. -1.
<mgrwt>
<rscale>  0 0.27447247E+03</rscale>
<asrwt>0</asrwt>
<pdfrwt beam="1">  1        1 0.14009100E-01 0.27447247E+03</pdfrwt>
<pdfrwt beam="2">  1       -1 0.31820033E-01 0.27447247E+03</pdfrwt>
<totfact> 0.37463913E+03</totfact>
</mgrwt>
</event>
<event>
 9    1  0.2117506E-002  0.2743013E+03  0.7818608E-02  0.1098843E+00
          2   -1    0    0  501    0  0.00000000000E+00  0.00000000000E+00  0.71050349906E+03  0.71050349906E+03  0.00000000000E+00 0. -1.
         -2   -1    0    0    0  501 -0.00000000000E+00 -0.00000000000E+00 -0.26474605879E+02  0.26474605879E+02  0.00000000000E+00 0. -1.
         36    2    1    2    0    0  0.00000000000E+00  0.00000000000E+00  0.68402889318E+03  0.73697810494E+03  0.27430129503E+03 0.  0.
         25    2    3    3    0    0  0.26819637122E+02 -0.43414087100E+02  0.27251965529E+03  0.30485101647E+03  0.12674030072E+03 0.  0.
         25    2    3    3    0    0 -0.26819637122E+02  0.43414087100E+02  0.41150923788E+03  0.43212708847E+03  0.12161369918E+03 0.  0.
          5    1    4    4  502    0  0.15520137328E+02 -0.68189357368E+02  0.65296150978E+02  0.95793217158E+02  0.47000000000E+01 0.  1.
         -5    1    4    4    0  502  0.11299499794E+02  0.24775270267E+02  0.20722350432E+03  0.20905779931E+03  0.47000000000E+01 0.  1.
          5    1    5    5  503    0 -0.35478465305E+02  0.49187771671E+02  0.80388594109E+02  0.10080959501E+03  0.47000000000E+01 0.  1.
         -5    1    5    5    0  503  0.86588281821E+01 -0.57736845704E+01  0.33112064377E+03  0.33131749346E+03  0.47000000000E+01 0.  1.
<mgrwt>
<rscale>  0 0.27430130E+03</rscale>
<asrwt>0</asrwt>
<pdfrwt beam="1">  1        2 0.10930822E+00 0.27430130E+03</pdfrwt>
<pdfrwt beam="2">  1       -2 0.40730168E-02 0.27430130E+03</pdfrwt>
<totfact> 0.10968001E+04</totfact>
</mgrwt>
</event>
<event>
 9    1  0.2117506E-002  0.2748233E+03  0.7818608E-02  0.1098550E+00
         -1   -1    0    0    0  501 -0.00000000000E+00  0.00000000000E+00  0.27565509900E+02  0.27565509900E+02  0.00000000000E+00 0.  1.
          1   -1    0    0  501    0  0.00000000000E+00 -0.00000000000E+00 -0.68498486526E+03  0.68498486526E+03  0.00000000000E+00 0.  1.
         36    2    1    2    0    0  0.00000000000E+00  0.22204460493E-14 -0.65741935536E+03  0.71255037516E+03  0.27482326746E+03 0.  0.
         25    2    3    3    0    0  0.16018875856E+02 -0.45870582920E+00 -0.17683351663E+03  0.21482430372E+03  0.12092383582E+03 0.  0.
         25    2    3    3    0    0 -0.16018875856E+02  0.45870582920E+00 -0.48058583873E+03  0.49772607144E+03  0.12849777823E+03 0.  0.
          5    1    4    4  502    0 -0.42768297908E+02 -0.17072895756E+01 -0.20417505653E+02  0.47655080324E+02  0.47000000000E+01 0. -1.
         -5    1    4    4    0  502  0.58787173764E+02  0.12485837464E+01 -0.15641601098E+03  0.16716922340E+03  0.47000000000E+01 0. -1.
          5    1    5    5  503    0 -0.11877959234E+01 -0.33140797908E+02 -0.44536735210E+03  0.44662500116E+03  0.47000000000E+01 0.  1.
         -5    1    5    5    0  503 -0.14831079933E+02  0.33599503737E+02 -0.35218486631E+02  0.51101070282E+02  0.47000000000E+01 0.  1.
<mgrwt>
<rscale>  0 0.27482327E+03</rscale>
<asrwt>0</asrwt>
<pdfrwt beam="1">  1        1 0.10538229E+00 0.27482327E+03</pdfrwt>
<pdfrwt beam="2">  1       -1 0.42408476E-02 0.27482327E+03</pdfrwt>
<totfact> 0.65386149E+03</totfact>
</mgrwt>
</event>
<event>
 9    1  0.2117506E-002  0.2743348E+03  0.7818608E-02  0.1098824E+00
         -2   -1    0    0    0  501 -0.00000000000E+00  0.00000000000E+00  0.29198201482E+02  0.29198201482E+02  0.00000000000E+00 0.  1.
          2   -1    0    0  501    0  0.00000000000E+00 -0.00000000000E+00 -0.64438537393E+03  0.64438537393E+03  0.00000000000E+00 0.  1.
         36    2    1    2    0    0  0.00000000000E+00  0.00000000000E+00 -0.61518717244E+03  0.67358357541E+03  0.27433478802E+03 0.  0.
         25    2    3    3    0    0  0.19208059871E+02  0.77105270412E+01 -0.47778598638E+03  0.49213579379E+03  0.11614555073E+03 0.  0.
         25    2    3    3    0    0 -0.19208059871E+02 -0.77105270412E+01 -0.13740118606E+03  0.18144778162E+03  0.11668680188E+03 0.  0.
          5    1    4    4  502    0  0.46403757328E+02 -0.94360509460E+01 -0.43885580487E+03  0.44142819939E+03  0.47000000000E+01 0. -1.
         -5    1    4    4    0  502 -0.27195697457E+02  0.17146577987E+02 -0.38930181515E+02  0.50707594398E+02  0.47000000000E+01 0. -1.
          5    1    5    5  503    0  0.37961217161E+02  0.47216300470E+01 -0.11022250566E+03  0.11676659862E+03  0.47000000000E+01 0. -1.
         -5    1    5    5    0  503 -0.57169277032E+02 -0.12432157088E+02 -0.27178680402E+02  0.64681183002E+02  0.47000000000E+01 0. -1.
<mgrwt>
<rscale>  0 0.27433479E+03</rscale>
<asrwt>0</asrwt>
<pdfrwt beam="1">  1        2 0.99136210E-01 0.27433479E+03</pdfrwt>
<pdfrwt beam="2">  1       -2 0.44920310E-02 0.27433479E+03</pdfrwt>
<totfact> 0.10639439E+04</totfact>
</mgrwt>
</event>
<event>
 9    1  0.2117506E-002  0.2748175E+03  0.7818608E-02  0.1098554E+00
          1   -1    0    0  501    0  0.00000000000E+00  0.00000000000E+00  0.22501311491E+03  0.22501311491E+03  0.00000000000E+00 0. -1.
         -1   -1    0    0    0  501 -0.00000000000E+00 -0.00000000000E+00 -0.83911392266E+02  0.83911392266E+02  0.00000000000E+00 0. -1.
         36    2    1    2    0    0 -0.35527136788E-14  0.00000000000E+00  0.14110172264E+03  0.30892450717E+03  0.27481749398E+03 0.  0.
         25    2    3    3    0    0  0.11059166997E+02 -0.63473230738E+02  0.48458139716E+02  0.14645533726E+03  0.12226944962E+03 0.  0.
         25    2    3    3    0    0 -0.11059166997E+02  0.63473230738E+02  0.92643582923E+02  0.16246916992E+03  0.11688559159E+03 0.  0.
          5    1    4    4  502    0  0.24977676531E+01  0.18465577663E+02 -0.27999751011E+02  0.33960159869E+02  0.47000000000E+01 0. -1.
         -5    1    4    4    0  502  0.85613993438E+01 -0.81938808401E+02  0.76457890728E+02  0.11249517739E+03  0.47000000000E+01 0. -1.
          5    1    5    5  503    0  0.28589653400E+02  0.83701379418E+02  0.64957327283E+02  0.10984003626E+03  0.47000000000E+01 0.  1.
         -5    1    5    5    0  503 -0.39648820397E+02 -0.20228148680E+02  0.27686255640E+02  0.52629133655E+02  0.47000000000E+01 0.  1.
<mgrwt>
<rscale>  0 0.27481749E+03</rscale>
<asrwt>0</asrwt>
<pdfrwt beam="1">  1        1 0.34617402E-01 0.27481749E+03</pdfrwt>
<pdfrwt beam="2">  1       -1 0.12909445E-01 0.27481749E+03</pdfrwt>
<totfact> 0.51171942E+03</totfact>
</mgrwt>
</event>
<event>
 9    1  0.2117506E-002  0.2748354E+03  0.7818608E-02  0.1098544E+00
          2   -1    0    0  501    0  0.00000000000E+00  0.00000000000E+00  0.57502401269E+02  0.57502401269E+02  0.00000000000E+00 0.  1.
         -2   -1    0    0    0  501 -0.00000000000E+00 -0.00000000000E+00 -0.32839714610E+03  0.32839714610E+03  0.00000000000E+00 0.  1.
         36    2    1    2    0    0  0.00000000000E+00  0.35527136788E-14 -0.27089474483E+03  0.38589954737E+03  0.27483540144E+03 0.  0.
         25    2    3    3    0    0 -0.43837444021E+02 -0.15023305846E+02 -0.10046424537E+03  0.17134932163E+03  0.13084381609E+03 0.  0.
         25    2    3    3    0    0  0.43837444021E+02  0.15023305846E+02 -0.17043049946E+03  0.21455022574E+03  0.12181060300E+03 0.  0.
          5    1    4    4  502    0 -0.32946260413E+02 -0.15433974267E+01 -0.13141221962E+03  0.13556953794E+03  0.47000000000E+01 0. -1.
         -5    1    4    4    0  502 -0.10891183608E+02 -0.13479908419E+02  0.30947974245E+02  0.35779783695E+02  0.47000000000E+01 0. -1.
          5    1    5    5  503    0 -0.26750167216E+02  0.35434001470E+02 -0.24088933995E+02  0.50729741250E+02  0.47000000000E+01 0. -1.
         -5    1    5    5    0  503  0.70587611238E+02 -0.20410695624E+02 -0.14634156546E+03  0.16382048449E+03  0.47000000000E+01 0. -1.
<mgrwt>
<rscale>  0 0.27483540E+03</rscale>
<asrwt>0</asrwt>
<pdfrwt beam="1">  1        2 0.88465232E-02 0.27483540E+03</pdfrwt>
<pdfrwt beam="2">  1       -2 0.50522638E-01 0.27483540E+03</pdfrwt>
<totfact> 0.28034617E+03</totfact>
</mgrwt>
</event>
<event>
 9    1  0.2117506E-002  0.2758359E+03  0.7818608E-02  0.1097985E+00
          4   -1    0    0  501    0  0.00000000000E+00  0.00000000000E+00  0.12056619396E+03  0.12056619396E+03  0.00000000000E+00 0. -1.
         -4   -1    0    0    0  501 -0.00000000000E+00 -0.00000000000E+00 -0.15776699619E+03  0.15776699619E+03  0.00000000000E+00 0. -1.
         36    2    1    2    0    0  0.71054273576E-14  0.00000000000E+00 -0.37200802236E+02  0.27833319015E+03  0.27583593865E+03 0.  0.
         25    2    3    3    0    0 -0.66871493738E+01 -0.28126095809E+02 -0.63766480223E+02  0.14467158979E+03  0.12660138095E+03 0.  0.
         25    2    3    3    0    0  0.66871493738E+01  0.28126095809E+02  0.26565677986E+02  0.13366160037E+03  0.12776499103E+03 0.  0.
          5    1    4    4  502    0  0.39547460621E+02 -0.18032500884E+02 -0.82652457855E+02  0.93502361035E+02  0.47000000000E+01 0. -1.
         -5    1    4    4    0  502 -0.46234609995E+02 -0.10093594925E+02  0.18885977632E+02  0.51169228751E+02  0.47000000000E+01 0. -1.
          5    1    5    5  503    0 -0.43501665355E+02 -0.17716832646E+02  0.42686957333E+02  0.63643910738E+02  0.47000000000E+01 0. -1.
         -5    1    5    5    0  503  0.50188814729E+02  0.45842928455E+02 -0.16121279346E+02  0.70017689629E+02  0.47000000000E+01 0. -1.
<mgrwt>
<rscale>  0 0.27583594E+03</rscale>
<asrwt>0</asrwt>
<pdfrwt beam="1">  1        4 0.18548645E-01 0.27583594E+03</pdfrwt>
<pdfrwt beam="2">  1       -4 0.24271846E-01 0.27583594E+03</pdfrwt>
<totfact> 0.76748392E+02</totfact>
</mgrwt>
</event>
<event>
 9    1  0.2117506E-002  0.2748831E+03  0.7818608E-02  0.1098517E+00
          1   -1    0    0  501    0  0.00000000000E+00  0.00000000000E+00  0.19167745653E+04  0.19167745653E+04  0.00000000000E+00 0. -1.
         -1   -1    0    0    0  501 -0.00000000000E+00 -0.00000000000E+00 -0.98551906789E+01  0.98551906789E+01  0.00000000000E+00 0. -1.
         36    2    1    2    0    0 -0.35527136788E-14  0.71054273576E-14  0.19069193746E+04  0.19266297559E+04  0.27488309391E+03 0.  0.
         25    2    3    3    0    0  0.95457870234E+01  0.52686437466E+02  0.97419824949E+03  0.98358862420E+03  0.12456873447E+03 0.  0.
         25    2    3    3    0    0 -0.95457870234E+01 -0.52686437466E+02  0.93272112510E+03  0.94304113175E+03  0.12841688446E+03 0.  0.
          5    1    4    4  502    0  0.59335821720E+02  0.13091989893E+02  0.67048666686E+03  0.67325077080E+03  0.47000000000E+01 0.  1.
         -5    1    4    4    0  502 -0.49790034697E+02  0.39594447572E+02  0.30371158263E+03  0.31033785340E+03  0.47000000000E+01 0.  1.
          5    1    5    5  503    0  0.30541982079E+02 -0.18060842192E+02  0.69423293693E+02  0.78106916449E+02  0.47000000000E+01 0. -1.
         -5    1    5    5    0  503 -0.40087769102E+02 -0.34625595273E+02  0.86329783141E+03  0.86493421530E+03  0.47000000000E+01 0. -1.
<mgrwt>
<rscale>  0 0.27488309E+03</rscale>
<asrwt>0</asrwt>
<pdfrwt beam="1">  1        1 0.29488810E+00 0.27488309E+03</pdfrwt>
<pdfrwt beam="2">  1       -1 0.15161847E-02 0.27488309E+03</pdfrwt>
<totfact> 0.39260884E+03</totfact>
</mgrwt>
</event>
<event>
 9    1  0.2117506E-002  0.2747655E+03  0.7818608E-02  0.1098583E+00
          1   -1    0    0  501    0  0.00000000000E+00  0.00000000000E+00  0.45242206947E+03  0.45242206947E+03  0.00000000000E+00 0.  1.
         -1   -1    0    0    0  501 -0.00000000000E+00 -0.00000000000E+00 -0.41717716484E+02  0.41717716484E+02  0.00000000000E+00 0.  1.
         36    2    1    2    0    0 -0.14210854715E-13 -0.35527136788E-14  0.41070435298E+03  0.49413978595E+03  0.27476546817E+03 0.  0.
         25    2    3    3    0    0 -0.51710980160E+02 -0.20245619749E+02  0.13919506722E+03  0.19491174863E+03  0.12462508748E+03 0.  0.
         25    2    3    3    0    0  0.51710980160E+02  0.20245619749E+02  0.27150928576E+03  0.29922803732E+03  0.11285484250E+03 0.  0.
          5    1    4    4  502    0 -0.47814387299E+02 -0.23099949126E+02 -0.22011366033E+01  0.53355021177E+02  0.47000000000E+01 0. -1.
         -5    1    4    4    0  502 -0.38965928606E+01  0.28543293767E+01  0.14139620383E+03  0.14155672746E+03  0.47000000000E+01 0. -1.
          5    1    5    5  503    0 -0.15145871532E+02  0.49827097424E+02  0.10427470234E+03  0.11665093489E+03  0.47000000000E+01 0.  1.
         -5    1    5    5    0  503  0.66856851692E+02 -0.29581477675E+02  0.16723458342E+03  0.18257710243E+03  0.47000000000E+01 0.  1.
<mgrwt>
<rscale>  0 0.27476547E+03</rscale>
<asrwt>0</asrwt>
<pdfrwt beam="1">  1        1 0.69603392E-01 0.27476547E+03</pdfrwt>
<pdfrwt beam="2">  1       -1 0.64181106E-02 0.27476547E+03</pdfrwt>
<totfact> 0.61882775E+03</totfact>
</mgrwt>
</event>
<event>
 9    1  0.2117506E-002  0.2761415E+03  0.7818608E-02  0.1097815E+00
          2   -1    0    0  501    0  0.00000000000E+00  0.00000000000E+00  0.94662296473E+03  0.94662296473E+03  0.00000000000E+00 0. -1.
         -2   -1    0    0    0  501 -0.00000000000E+00 -0.00000000000E+00 -0.20138469143E+02  0.20138469143E+02  0.00000000000E+00 0. -1.
         36    2    1    2    0    0  0.71054273576E-14  0.00000000000E+00  0.92648449559E+03  0.96676143388E+03  0.27614153882E+03 0.  0.
         25    2    3    3    0    0 -0.45957108768E+02  0.35125057247E+02  0.37640545540E+03  0.39938127796E+03  0.12032669212E+03 0.  0.
         25    2    3    3    0    0  0.45957108768E+02 -0.35125057247E+02  0.55007904019E+03  0.56738015592E+03  0.12644154926E+03 0.  0.
          5    1    4    4  502    0 -0.67472781245E+02  0.57804789170E+02  0.33862885124E+03  0.35012220546E+03  0.47000000000E+01 0.  1.
         -5    1    4    4    0  502  0.21515672477E+02 -0.22679731923E+02  0.37776604158E+02  0.49259072504E+02  0.47000000000E+01 0.  1.
          5    1    5    5  503    0  0.67850019463E+02  0.95989392841E+01  0.45296321960E+03  0.45814138985E+03  0.47000000000E+01 0.  1.
         -5    1    5    5    0  503 -0.21892910694E+02 -0.44723996531E+02  0.97115820589E+02  0.10923876607E+03  0.47000000000E+01 0.  1.
<mgrwt>
<rscale>  0 0.27614154E+03</rscale>
<asrwt>0</asrwt>
<pdfrwt beam="1">  1        2 0.14563427E+00 0.27614154E+03</pdfrwt>
<pdfrwt beam="2">  1       -2 0.30982268E-02 0.27614154E+03</pdfrwt>
<totfact> 0.11415774E+04</totfact>
</mgrwt>
</event>
<event>
 9    1  0.2117506E-002  0.2749532E+03  0.7818608E-02  0.1098478E+00
         -1   -1    0    0    0  501 -0.00000000000E+00  0.00000000000E+00  0.19257074365E+03  0.19257074365E+03  0.00000000000E+00 0. -1.
          1   -1    0    0  501    0  0.00000000000E+00 -0.00000000000E+00 -0.98144821455E+02  0.98144821455E+02  0.00000000000E+00 0. -1.
         36    2    1    2    0    0  0.35527136788E-14 -0.71054273576E-14  0.94425922195E+02  0.29071556510E+03  0.27495324150E+03 0.  0.
         25    2    3    3    0    0  0.37472894571E+01  0.49131977985E+02  0.73912634325E+02  0.15396397795E+03  0.12575307374E+03 0.  0.
         25    2    3    3    0    0 -0.37472894571E+01 -0.49131977985E+02  0.20513287869E+02  0.13675158716E+03  0.12590555258E+03 0.  0.
          5    1    4    4  502    0 -0.35422004014E+01 -0.30384399419E+02 -0.14977960904E+02  0.34382964163E+02  0.47000000000E+01 0.  1.
         -5    1    4    4    0  502  0.72894898585E+01  0.79516377405E+02  0.88890595229E+02  0.11958101379E+03  0.47000000000E+01 0.  1.
          5    1    5    5  503    0  0.24718120140E+02 -0.70776880228E+02  0.49940345124E+02  0.90202440705E+02  0.47000000000E+01 0. -1.
         -5    1    5    5    0  503 -0.28465409598E+02  0.21644902243E+02 -0.29427057254E+02  0.46549146451E+02  0.47000000000E+01 0. -1.
<mgrwt>
<rscale>  0 0.27495324E+03</rscale>
<asrwt>0</asrwt>
<pdfrwt beam="1">  1        1 0.15099203E-01 0.27495324E+03</pdfrwt>
<pdfrwt beam="2">  1       -1 0.29626268E-01 0.27495324E+03</pdfrwt>
<totfact> 0.38352208E+03</totfact>
</mgrwt>
</event>
<event>
 9    1  0.2117506E-002  0.2753915E+03  0.7818608E-02  0.1098233E+00
         -4   -1    0    0    0  501 -0.00000000000E+00  0.00000000000E+00  0.34807639872E+02  0.34807639872E+02  0.00000000000E+00 0.  1.
          4   -1    0    0  501    0  0.00000000000E+00 -0.00000000000E+00 -0.54471135991E+03  0.54471135991E+03  0.00000000000E+00 0.  1.
         36    2    1    2    0    0  0.00000000000E+00  0.17763568394E-14 -0.50990372004E+03  0.57951899978E+03  0.27539148026E+03 0.  0.
         25    2    3    3    0    0 -0.34025531530E+02  0.20854762999E+01 -0.14688810239E+03  0.19517385315E+03  0.12391381005E+03 0.  0.
         25    2    3    3    0    0  0.34025531530E+02 -0.20854762999E+01 -0.36301561765E+03  0.38434514664E+03  0.12156795251E+03 0.  0.
          5    1    4    4  502    0  0.37020194074E+02  0.30926051141E+02 -0.78854971230E+02  0.92558694330E+02  0.47000000000E+01 0. -1.
         -5    1    4    4    0  502 -0.71045725604E+02 -0.28840574841E+02 -0.68033131157E+02  0.10261515882E+03  0.47000000000E+01 0. -1.
          5    1    5    5  503    0 -0.28635527558E+02  0.81789798083E+01 -0.26968620450E+03  0.27136622496E+03  0.47000000000E+01 0. -1.
         -5    1    5    5    0  503  0.62661059088E+02 -0.10264456108E+02 -0.93329413152E+02  0.11297892168E+03  0.47000000000E+01 0. -1.
<mgrwt>
<rscale>  0 0.27539148E+03</rscale>
<asrwt>0</asrwt>
<pdfrwt beam="1">  1        4 0.83801739E-01 0.27539148E+03</pdfrwt>
<pdfrwt beam="2">  1       -4 0.53550221E-02 0.27539148E+03</pdfrwt>
<totfact> 0.51244555E+02</totfact>
</mgrwt>
</event>
<event>
 9    1  0.2117506E-002  0.2721964E+03  0.7818608E-02  0.1100029E+00
          1   -1    0    0  501    0  0.00000000000E+00  0.00000000000E+00  0.11396143111E+03  0.11396143111E+03  0.00000000000E+00 0. -1.
         -1   -1    0    0    0  501 -0.00000000000E+00 -0.00000000000E+00 -0.16253500349E+03  0.16253500349E+03  0.00000000000E+00 0. -1.
         36    2    1    2    0    0  0.00000000000E+00  0.35527136788E-14 -0.48573572382E+02  0.27649643461E+03  0.27219641147E+03 0.  0.
         25    2    3    3    0    0  0.45745569504E+02 -0.11236816282E+02 -0.21343994731E+02  0.13285288570E+03  0.12237401668E+03 0.  0.
         25    2    3    3    0    0 -0.45745569504E+02  0.11236816282E+02 -0.27229577651E+02  0.14364354890E+03  0.13294019736E+03 0.  0.
          5    1    4    4  502    0  0.65575272336E+02 -0.49882029326E+02 -0.30917899928E+02  0.88126838860E+02  0.47000000000E+01 0. -1.
         -5    1    4    4    0  502 -0.19829702832E+02  0.38645213043E+02  0.95739051968E+01  0.44726046844E+02  0.47000000000E+01 0. -1.
          5    1    5    5  503    0 -0.17763195791E+01  0.31237087482E+02 -0.71352347156E+02  0.78052279853E+02  0.47000000000E+01 0. -1.
         -5    1    5    5    0  503 -0.43969249924E+02 -0.20000271200E+02  0.44122769505E+02  0.65591269051E+02  0.47000000000E+01 0. -1.
<mgrwt>
<rscale>  0 0.27219641E+03</rscale>
<asrwt>0</asrwt>
<pdfrwt beam="1">  1        1 0.17532528E-01 0.27219641E+03</pdfrwt>
<pdfrwt beam="2">  1       -1 0.25005385E-01 0.27219641E+03</pdfrwt>
<totfact> 0.41946039E+03</totfact>
</mgrwt>
</event>
<event>
 9    1  0.2117506E-002  0.2746918E+03  0.7818608E-02  0.1098624E+00
          2   -1    0    0  501    0  0.00000000000E+00  0.00000000000E+00  0.13039592571E+04  0.13039592571E+04  0.00000000000E+00 0.  1.
         -2   -1    0    0    0  501 -0.00000000000E+00 -0.00000000000E+00 -0.14466630423E+02  0.14466630423E+02  0.00000000000E+00 0.  1.
         36    2    1    2    0    0  0.00000000000E+00 -0.35527136788E-14  0.12894926267E+04  0.13184258876E+04  0.27469180301E+03 0.  0.
         25    2    3    3    0    0 -0.48030024933E+02  0.10274592089E+02  0.76345146065E+03  0.77432418043E+03  0.11961334828E+03 0.  0.
         25    2    3    3    0    0  0.48030024933E+02 -0.10274592089E+02  0.52604116606E+03  0.54410170713E+03  0.13005732880E+03 0.  0.
          5    1    4    4  502    0 -0.49421329487E+02 -0.27005707483E+02  0.68499835741E+03  0.68732569842E+03  0.47000000000E+01 0. -1.
         -5    1    4    4    0  502  0.13913045536E+01  0.37280299572E+02  0.78453103239E+02  0.86998482012E+02  0.47000000000E+01 0. -1.
          5    1    5    5  503    0  0.53836531610E+02 -0.32678567367E+02  0.51348632591E+03  0.51735534963E+03  0.47000000000E+01 0. -1.
         -5    1    5    5    0  503 -0.58065066764E+01  0.22403975277E+02  0.12554840150E+02  0.26746357494E+02  0.47000000000E+01 0. -1.
<mgrwt>
<rscale>  0 0.27469180E+03</rscale>
<asrwt>0</asrwt>
<pdfrwt beam="1">  1        2 0.20060902E+00 0.27469180E+03</pdfrwt>
<pdfrwt beam="2">  1       -2 0.22256365E-02 0.27469180E+03</pdfrwt>
<totfact> 0.11515892E+04</totfact>
</mgrwt>
</event>
<event>
 9    1  0.2117506E-002  0.2751435E+03  0.7818608E-02  0.1098371E+00
          2   -1    0    0  501    0  0.00000000000E+00  0.00000000000E+00  0.81471327751E+03  0.81471327751E+03  0.00000000000E+00 0.  1.
         -2   -1    0    0    0  501 -0.00000000000E+00 -0.00000000000E+00 -0.23230249385E+02  0.23230249385E+02  0.00000000000E+00 0.  1.
         36    2    1    2    0    0  0.00000000000E+00  0.35527136788E-14  0.79148302813E+03  0.83794352690E+03  0.27514354518E+03 0.  0.
         25    2    3    3    0    0  0.44744240581E+02 -0.23014851971E+02  0.38159833822E+03  0.40567659653E+03  0.12815802261E+03 0.  0.
         25    2    3    3    0    0 -0.44744240581E+02  0.23014851971E+02  0.40988468990E+03  0.43226693037E+03  0.12774000782E+03 0.  0.
          5    1    4    4  502    0  0.81573249521E+01 -0.66338384635E+02  0.29160657459E+03  0.29920529335E+03  0.47000000000E+01 0. -1.
         -5    1    4    4    0  502  0.36586915629E+02  0.43323532664E+02  0.89991763631E+02  0.10647130317E+03  0.47000000000E+01 0. -1.
          5    1    5    5  503    0 -0.85817029190E+02  0.16824349147E+01  0.31607494738E+03  0.32755588142E+03  0.47000000000E+01 0.  1.
         -5    1    5    5    0  503  0.41072788609E+02  0.21332417056E+02  0.93809742520E+02  0.10471104895E+03  0.47000000000E+01 0.  1.
<mgrwt>
<rscale>  0 0.27514355E+03</rscale>
<asrwt>0</asrwt>
<pdfrwt beam="1">  1        2 0.12534048E+00 0.27514355E+03</pdfrwt>
<pdfrwt beam="2">  1       -2 0.35738851E-02 0.27514355E+03</pdfrwt>
<totfact> 0.11249957E+04</totfact>
</mgrwt>
</event>
<event>
 9    1  0.2117506E-002  0.2747376E+03  0.7818608E-02  0.1098598E+00
          2   -1    0    0  501    0  0.00000000000E+00  0.00000000000E+00  0.11406409840E+03  0.11406409840E+03  0.00000000000E+00 0.  1.
         -2   -1    0    0    0  501 -0.00000000000E+00 -0.00000000000E+00 -0.16543495260E+03  0.16543495260E+03  0.00000000000E+00 0.  1.
         36    2    1    2    0    0  0.35527136788E-14  0.00000000000E+00 -0.51370854193E+02  0.27949905100E+03  0.27473761091E+03 0.  0.
         25    2    3    3    0    0 -0.15300300168E+02 -0.30588755106E+02  0.25002507727E+02  0.12455510463E+03  0.11712846610E+03 0.  0.
         25    2    3    3    0    0  0.15300300168E+02  0.30588755106E+02 -0.76373361920E+02  0.15494394637E+03  0.13040308655E+03 0.  0.
          5    1    4    4  502    0  0.47950373201E+02 -0.24844756488E+02  0.27573745949E+02  0.60818596504E+02  0.47000000000E+01 0. -1.
         -5    1    4    4    0  502 -0.63250673369E+02 -0.57439986173E+01 -0.25712382217E+01  0.63736508123E+02  0.47000000000E+01 0. -1.
          5    1    5    5  503    0  0.44072716173E+02  0.41750374335E+02 -0.99112860159E+02  0.11632259934E+03  0.47000000000E+01 0. -1.
         -5    1    5    5    0  503 -0.28772416005E+02 -0.11161619229E+02  0.22739498240E+02  0.38621347035E+02  0.47000000000E+01 0. -1.
<mgrwt>
<rscale>  0 0.27473761E+03</rscale>
<asrwt>0</asrwt>
<pdfrwt beam="1">  1        2 0.17548323E-01 0.27473761E+03</pdfrwt>
<pdfrwt beam="2">  1       -2 0.25451531E-01 0.27473761E+03</pdfrwt>
<totfact> 0.44259988E+03</totfact>
</mgrwt>
</event>
<event>
 9    1  0.2117506E-002  0.2750838E+03  0.7818608E-02  0.1098405E+00
         -3   -1    0    0    0  501 -0.00000000000E+00  0.00000000000E+00  0.13477638451E+04  0.13477638451E+04  0.00000000000E+00 0. -1.
          3   -1    0    0  501    0  0.00000000000E+00 -0.00000000000E+00 -0.14036418480E+02  0.14036418480E+02  0.00000000000E+00 0. -1.
         36    2    1    2    0    0 -0.71054273576E-14  0.14210854715E-13  0.13337274266E+04  0.13618002636E+04  0.27508382244E+03 0.  0.
         25    2    3    3    0    0  0.27531079213E+02 -0.52568208234E+02  0.64920867502E+03  0.66374537985E+03  0.12475836132E+03 0.  0.
         25    2    3    3    0    0 -0.27531079213E+02  0.52568208234E+02  0.68451875163E+03  0.69805488375E+03  0.12326119649E+03 0.  0.
          5    1    4    4  502    0  0.66593244682E+02 -0.41898382531E+02  0.24223581391E+03  0.25473596966E+03  0.47000000000E+01 0. -1.
         -5    1    4    4    0  502 -0.39062165469E+02 -0.10669825703E+02  0.40697286110E+03  0.40900941019E+03  0.47000000000E+01 0. -1.
          5    1    5    5  503    0  0.26959514786E+01  0.71739655324E+02  0.61968750779E+03  0.62384977648E+03  0.47000000000E+01 0.  1.
         -5    1    5    5    0  503 -0.30227030691E+02 -0.19171447090E+02  0.64831243833E+02  0.74205107270E+02  0.47000000000E+01 0.  1.
<mgrwt>
<rscale>  0 0.27508382E+03</rscale>
<asrwt>0</asrwt>
<pdfrwt beam="1">  1        3 0.21594501E-02 0.27508382E+03</pdfrwt>
<pdfrwt beam="2">  1       -3 0.20734818E+00 0.27508382E+03</pdfrwt>
<totfact> 0.30873105E+02</totfact>
</mgrwt>
</event>
<event>
 9    1  0.2117506E-002  0.2741994E+03  0.7818608E-02  0.1098900E+00
          2   -1    0    0  501    0  0.00000000000E+00  0.00000000000E+00  0.20101734995E+04  0.20101734995E+04  0.00000000000E+00 0.  1.
         -2   -1    0    0    0  501 -0.00000000000E+00 -0.00000000000E+00 -0.93506029810E+01  0.93506029810E+01  0.00000000000E+00 0.  1.
         36    2    1    2    0    0  0.00000000000E+00  0.00000000000E+00  0.20008228965E+04  0.20195241025E+04  0.27419944797E+03 0.  0.
         25    2    3    3    0    0  0.22644102518E+01  0.90403053712E+01  0.14192074761E+04  0.14249478593E+04  0.12743502928E+03 0.  0.
         25    2    3    3    0    0 -0.22644102518E+01 -0.90403053712E+01  0.58161542041E+03  0.59457624322E+03  0.12311603092E+03 0.  0.
          5    1    4    4  502    0  0.58376334082E+02 -0.22637670064E+02  0.75440912626E+03  0.75701749007E+03  0.47000000000E+01 0.  1.
         -5    1    4    4    0  502 -0.56111923831E+02  0.31677975435E+02  0.66479834987E+03  0.66793036921E+03  0.47000000000E+01 0.  1.
          5    1    5    5  503    0 -0.60499329239E+02 -0.27905337061E+01  0.37006415576E+03  0.37501670002E+03  0.47000000000E+01 0. -1.
         -5    1    5    5    0  503  0.58234918987E+02 -0.62497716650E+01  0.21155126465E+03  0.21955954320E+03  0.47000000000E+01 0. -1.
<mgrwt>
<rscale>  0 0.27419945E+03</rscale>
<asrwt>0</asrwt>
<pdfrwt beam="1">  1        2 0.30925712E+00 0.27419945E+03</pdfrwt>
<pdfrwt beam="2">  1       -2 0.14385559E-02 0.27419945E+03</pdfrwt>
<totfact> 0.92041498E+03</totfact>
</mgrwt>
</event>
<event>
 9    1  0.2117506E-002  0.2753199E+03  0.7818608E-02  0.1098273E+00
         -2   -1    0    0    0  501 -0.00000000000E+00  0.00000000000E+00  0.26654184875E+03  0.26654184875E+03  0.00000000000E+00 0.  1.
          2   -1    0    0  501    0  0.00000000000E+00 -0.00000000000E+00 -0.71096773891E+02  0.71096773891E+02  0.00000000000E+00 0.  1.
         36    2    1    2    0    0  0.00000000000E+00  0.14210854715E-13  0.19544507486E+03  0.33763862264E+03  0.27531992702E+03 0.  0.
         25    2    3    3    0    0  0.11443576787E+02  0.39324932577E+02  0.44720509407E+02  0.14425265850E+03  0.13088735520E+03 0.  0.
         25    2    3    3    0    0 -0.11443576787E+02 -0.39324932577E+02  0.15072456545E+03  0.19338596414E+03  0.11402995539E+03 0.  0.
          5    1    4    4  502    0  0.53390003147E+02  0.58145585776E+02 -0.12203878646E+01  0.79088437384E+02  0.47000000000E+01 0.  1.
         -5    1    4    4    0  502 -0.41946426360E+02 -0.18820653199E+02  0.45940897272E+02  0.65164221114E+02  0.47000000000E+01 0.  1.
          5    1    5    5  503    0  0.25135665501E+02  0.26854774789E+02  0.86321678849E+02  0.93949469655E+02  0.47000000000E+01 0.  1.
         -5    1    5    5    0  503 -0.36579242288E+02 -0.66179707366E+02  0.64402886603E+02  0.99436494489E+02  0.47000000000E+01 0.  1.
<mgrwt>
<rscale>  0 0.27531993E+03</rscale>
<asrwt>0</asrwt>
<pdfrwt beam="1">  1        2 0.10937965E-01 0.27531993E+03</pdfrwt>
<pdfrwt beam="2">  1       -2 0.41006438E-01 0.27531993E+03</pdfrwt>
<totfact> 0.32397847E+03</totfact>
</mgrwt>
</event>
<event>
 9    1  0.2117506E-002  0.2749356E+03  0.7818608E-02  0.1098488E+00
         -2   -1    0    0    0  501 -0.00000000000E+00  0.00000000000E+00  0.64938401857E+02  0.64938401857E+02  0.00000000000E+00 0.  1.
          2   -1    0    0  501    0  0.00000000000E+00 -0.00000000000E+00 -0.29100496616E+03  0.29100496616E+03  0.00000000000E+00 0.  1.
         36    2    1    2    0    0 -0.35527136788E-14  0.00000000000E+00 -0.22606656430E+03  0.35594336802E+03  0.27493561017E+03 0.  0.
         25    2    3    3    0    0 -0.19873310484E+02  0.25684644072E+02 -0.17088465159E+03  0.21459682542E+03  0.12568048346E+03 0.  0.
         25    2    3    3    0    0  0.19873310484E+02 -0.25684644072E+02 -0.55181912715E+02  0.14134654260E+03  0.12601250812E+03 0.  0.
          5    1    4    4  502    0 -0.28759194026E+01  0.25580941736E+02  0.13449030562E+02  0.29421453322E+02  0.47000000000E+01 0.  1.
         -5    1    4    4    0  502 -0.16997391081E+02  0.10370233646E+00 -0.18433368215E+03  0.18517537210E+03  0.47000000000E+01 0.  1.
          5    1    5    5  503    0 -0.33077602165E+02 -0.12319358323E+02 -0.75029255409E+02  0.83050427583E+02  0.47000000000E+01 0.  1.
         -5    1    5    5    0  503  0.52950912648E+02 -0.13365285749E+02  0.19847342694E+02  0.58296115012E+02  0.47000000000E+01 0.  1.
<mgrwt>
<rscale>  0 0.27493561E+03</rscale>
<asrwt>0</asrwt>
<pdfrwt beam="1">  1        2 0.44769995E-01 0.27493561E+03</pdfrwt>
<pdfrwt beam="2">  1       -2 0.99905233E-02 0.27493561E+03</pdfrwt>
<totfact> 0.74546440E+03</totfact>
</mgrwt>
</event>
<event>
 9    1  0.2117506E-002  0.2757249E+03  0.7818608E-02  0.1098047E+00
         -1   -1    0    0    0  501 -0.00000000000E+00  0.00000000000E+00  0.59412068853E+02  0.59412068853E+02  0.00000000000E+00 0. -1.
          1   -1    0    0  501    0  0.00000000000E+00 -0.00000000000E+00 -0.31990234528E+03  0.31990234528E+03  0.00000000000E+00 0. -1.
         36    2    1    2    0    0  0.14210854715E-13  0.00000000000E+00 -0.26049027643E+03  0.37931441414E+03  0.27572493659E+03 0.  0.
         25    2    3    3    0    0 -0.35080497047E+02  0.29744136606E+02 -0.99127285461E+02  0.16887559256E+03  0.12875322173E+03 0.  0.
         25    2    3    3    0    0  0.35080497047E+02 -0.29744136606E+02 -0.16136299097E+03  0.21043882157E+03  0.12700837703E+03 0.  0.
          5    1    4    4  502    0  0.42206557929E+02 -0.96045744567E+01 -0.58669405904E+02  0.73060458333E+02  0.47000000000E+01 0. -1.
         -5    1    4    4    0  502 -0.77287054975E+02  0.39348711063E+02 -0.40457879557E+02  0.95815134229E+02  0.47000000000E+01 0. -1.
          5    1    5    5  503    0  0.82903580435E+02 -0.25364791528E+02 -0.10434204981E+03  0.13574140730E+03  0.47000000000E+01 0. -1.
         -5    1    5    5    0  503 -0.47823083388E+02 -0.43793450788E+01 -0.57020941165E+02  0.74697414275E+02  0.47000000000E+01 0. -1.
<mgrwt>
<rscale>  0 0.27572494E+03</rscale>
<asrwt>0</asrwt>
<pdfrwt beam="1">  1        1 0.49215744E-01 0.27572494E+03</pdfrwt>
<pdfrwt beam="2">  1       -1 0.91403185E-02 0.27572494E+03</pdfrwt>
<totfact> 0.56231398E+03</totfact>
</mgrwt>
</event>
<event>
 9    1  0.2117506E-002  0.2754295E+03  0.7818608E-02  0.1098212E+00
          1   -1    0    0  501    0  0.00000000000E+00  0.00000000000E+00  0.13790463337E+03  0.13790463337E+03  0.00000000000E+00 0.  1.
         -1   -1    0    0    0  501 -0.00000000000E+00 -0.00000000000E+00 -0.13752512403E+03  0.13752512403E+03  0.00000000000E+00 0.  1.
         36    2    1    2    0    0 -0.71054273576E-14 -0.71054273576E-14  0.37950934758E+00  0.27542975740E+03  0.27542949594E+03 0.  0.
         25    2    3    3    0    0 -0.25051973040E+02 -0.37221961845E+02  0.31685477711E+02  0.13848001451E+03  0.12712068724E+03 0.  0.
         25    2    3    3    0    0  0.25051973040E+02  0.37221961845E+02 -0.31305968363E+02  0.13694974288E+03  0.12554717290E+03 0.  0.
          5    1    4    4  502    0 -0.76845477209E+02 -0.28306378797E+02  0.20237134892E+02  0.84487336783E+02  0.47000000000E+01 0.  1.
         -5    1    4    4    0  502  0.51793504170E+02 -0.89155830487E+01  0.11448342819E+02  0.53992677731E+02  0.47000000000E+01 0.  1.
          5    1    5    5  503    0 -0.39336212691E+02  0.46847808142E+02 -0.36637108466E+02  0.71459236445E+02  0.47000000000E+01 0. -1.
         -5    1    5    5    0  503  0.64388185731E+02 -0.96258462966E+01  0.53311401025E+01  0.65490506438E+02  0.47000000000E+01 0. -1.
<mgrwt>
<rscale>  0 0.27542950E+03</rscale>
<asrwt>0</asrwt>
<pdfrwt beam="1">  1        1 0.21216097E-01 0.27542950E+03</pdfrwt>
<pdfrwt beam="2">  1       -1 0.21157711E-01 0.27542950E+03</pdfrwt>
<totfact> 0.43202114E+03</totfact>
</mgrwt>
</event>
<event>
 9    1  0.2117506E-002  0.2713912E+03  0.7818608E-02  0.1100486E+00
          1   -1    0    0  501    0  0.00000000000E+00  0.00000000000E+00  0.15686918271E+03  0.15686918271E+03  0.00000000000E+00 0.  1.
         -1   -1    0    0    0  501 -0.00000000000E+00 -0.00000000000E+00 -0.11737990677E+03  0.11737990677E+03  0.00000000000E+00 0.  1.
         36    2    1    2    0    0  0.00000000000E+00  0.71054273576E-14  0.39489275936E+02  0.27424908947E+03  0.27139115712E+03 0.  0.
         25    2    3    3    0    0 -0.25142703894E+02 -0.50067522948E+02  0.13300765434E+02  0.13062727690E+03  0.11725042727E+03 0.  0.
         25    2    3    3    0    0  0.25142703894E+02  0.50067522948E+02  0.26188510502E+02  0.14362181258E+03  0.12962435941E+03 0.  0.
          5    1    4    4  502    0 -0.48243764274E+01 -0.86470477904E+02  0.17445467787E+02  0.88469500412E+02  0.47000000000E+01 0. -1.
         -5    1    4    4    0  502 -0.20318327467E+02  0.36402954956E+02 -0.41447023537E+01  0.42157776485E+02  0.47000000000E+01 0. -1.
          5    1    5    5  503    0  0.16525905245E+02  0.47446349304E+02 -0.47461502488E+02  0.69274424031E+02  0.47000000000E+01 0. -1.
         -5    1    5    5    0  503  0.86167986496E+01  0.26211736442E+01  0.73650012990E+02  0.74347388546E+02  0.47000000000E+01 0. -1.
<mgrwt>
<rscale>  0 0.27139116E+03</rscale>
<asrwt>0</asrwt>
<pdfrwt beam="1">  1        1 0.24133720E-01 0.27139116E+03</pdfrwt>
<pdfrwt beam="2">  1       -1 0.18058447E-01 0.27139116E+03</pdfrwt>
<totfact> 0.47347648E+03</totfact>
</mgrwt>
</event>
<event>
 9    1  0.2117506E-002  0.2723782E+03  0.7818608E-02  0.1099926E+00
          2   -1    0    0  501    0  0.00000000000E+00  0.00000000000E+00  0.62012892391E+03  0.62012892391E+03  0.00000000000E+00 0. -1.
         -2   -1    0    0    0  501 -0.00000000000E+00 -0.00000000000E+00 -0.29909050709E+02  0.29909050709E+02  0.00000000000E+00 0. -1.
         36    2    1    2    0    0  0.26645352591E-14 -0.14210854715E-13  0.59021987320E+03  0.65003797462E+03  0.27237817410E+03 0.  0.
         25    2    3    3    0    0 -0.47291559499E+01 -0.54805274934E+02  0.33850042992E+03  0.36503367354E+03  0.12506421825E+03 0.  0.
         25    2    3    3    0    0  0.47291559499E+01  0.54805274934E+02  0.25171944328E+03  0.28500430108E+03  0.12181457397E+03 0.  0.
          5    1    4    4  502    0  0.15959131174E+01  0.24259137402E+02  0.94138201574E+01  0.26490803992E+02  0.47000000000E+01 0.  1.
         -5    1    4    4    0  502 -0.63250690674E+01 -0.79064412336E+02  0.32908660976E+03  0.33854286954E+03  0.47000000000E+01 0.  1.
          5    1    5    5  503    0 -0.34148260464E+02  0.72062198262E+02  0.21226203509E+03  0.22679577962E+03  0.47000000000E+01 0.  1.
         -5    1    5    5    0  503  0.38877416414E+02 -0.17256923328E+02  0.39457408188E+02  0.58208521461E+02  0.47000000000E+01 0.  1.
<mgrwt>
<rscale>  0 0.27237817E+03</rscale>
<asrwt>0</asrwt>
<pdfrwt beam="1">  1        2 0.95404441E-01 0.27237817E+03</pdfrwt>
<pdfrwt beam="2">  1       -2 0.46013929E-02 0.27237817E+03</pdfrwt>
<totfact> 0.10730403E+04</totfact>
</mgrwt>
</event>
<event>
 9    1  0.2117506E-002  0.2763980E+03  0.7818608E-02  0.1097673E+00
          2   -1    0    0  501    0  0.00000000000E+00  0.00000000000E+00  0.18995012864E+04  0.18995012864E+04  0.00000000000E+00 0.  1.
         -2   -1    0    0    0  501 -0.00000000000E+00 -0.00000000000E+00 -0.10054722587E+02  0.10054722587E+02  0.00000000000E+00 0.  1.
         36    2    1    2    0    0  0.71054273576E-14  0.00000000000E+00  0.18894465638E+04  0.19095560089E+04  0.27639796300E+03 0.  0.
         25    2    3    3    0    0 -0.16164365675E+02 -0.14131606249E+02  0.59155177403E+03  0.60538414526E+03  0.12686793515E+03 0.  0.
         25    2    3    3    0    0  0.16164365675E+02  0.14131606249E+02  0.12978947897E+04  0.13041718637E+04  0.12598561727E+03 0.  0.
          5    1    4    4  502    0 -0.66627673494E+02 -0.29925250021E+02  0.39855568018E+03  0.40522029524E+03  0.47000000000E+01 0.  1.
         -5    1    4    4    0  502  0.50463307819E+02  0.15793643773E+02  0.19299609384E+03  0.20016385003E+03  0.47000000000E+01 0.  1.
          5    1    5    5  503    0  0.66979470282E+02  0.11600639645E+02  0.96233948629E+03  0.96474877618E+03  0.47000000000E+01 0.  1.
         -5    1    5    5    0  503 -0.50815104607E+02  0.25309666032E+01  0.33555530345E+03  0.33942308749E+03  0.47000000000E+01 0.  1.
<mgrwt>
<rscale>  0 0.27639796E+03</rscale>
<asrwt>0</asrwt>
<pdfrwt beam="1">  1        2 0.29223068E+00 0.27639796E+03</pdfrwt>
<pdfrwt beam="2">  1       -2 0.15468819E-02 0.27639796E+03</pdfrwt>
<totfact> 0.94636738E+03</totfact>
</mgrwt>
</event>
<event>
 9    1  0.2117506E-002  0.2750278E+03  0.7818608E-02  0.1098436E+00
          2   -1    0    0  501    0  0.00000000000E+00  0.00000000000E+00  0.12386909056E+04  0.12386909056E+04  0.00000000000E+00 0. -1.
         -2   -1    0    0    0  501 -0.00000000000E+00 -0.00000000000E+00 -0.15266175277E+02  0.15266175277E+02  0.00000000000E+00 0. -1.
         36    2    1    2    0    0  0.00000000000E+00 -0.71054273576E-14  0.12234247304E+04  0.12539570809E+04  0.27502779844E+03 0.  0.
         25    2    3    3    0    0  0.58415583909E+02 -0.16187559436E+02  0.56025862885E+03  0.57678191722E+03  0.12293588291E+03 0.  0.
         25    2    3    3    0    0 -0.58415583909E+02  0.16187559436E+02  0.66316610150E+03  0.67717516369E+03  0.12289225610E+03 0.  0.
          5    1    4    4  502    0  0.18988247786E+02  0.48097114905E+02  0.33957206367E+03  0.34351879489E+03  0.47000000000E+01 0.  1.
         -5    1    4    4    0  502  0.39427336123E+02 -0.64284674340E+02  0.22068656518E+03  0.23326312233E+03  0.47000000000E+01 0.  1.
          5    1    5    5  503    0 -0.71966245453E+02  0.58089582765E+02  0.43429540158E+03  0.44405869651E+03  0.47000000000E+01 0. -1.
         -5    1    5    5    0  503  0.13550661544E+02 -0.41902023329E+02  0.22887069992E+03  0.23311646718E+03  0.47000000000E+01 0. -1.
<mgrwt>
<rscale>  0 0.27502780E+03</rscale>
<asrwt>0</asrwt>
<pdfrwt beam="1">  1        2 0.19056775E+00 0.27502780E+03</pdfrwt>
<pdfrwt beam="2">  1       -2 0.23486433E-02 0.27502780E+03</pdfrwt>
<totfact> 0.11566830E+04</totfact>
</mgrwt>
</event>
<event>
 9    1  0.2117506E-002  0.2766653E+03  0.7818608E-02  0.1097524E+00
         -2   -1    0    0    0  501 -0.00000000000E+00  0.00000000000E+00  0.17914664866E+02  0.17914664866E+02  0.00000000000E+00 0.  1.
          2   -1    0    0  501    0  0.00000000000E+00 -0.00000000000E+00 -0.10681707110E+04  0.10681707110E+04  0.00000000000E+00 0.  1.
         36    2    1    2    0    0  0.00000000000E+00 -0.35527136788E-14 -0.10502560462E+04  0.10860853759E+04  0.27666528736E+03 0.  0.
         25    2    3    3    0    0 -0.36412216655E+02 -0.14984592860E+02 -0.55391674463E+03  0.57252198582E+03  0.13931000224E+03 0.  0.
         25    2    3    3    0    0  0.36412216655E+02  0.14984592860E+02 -0.49633930153E+03  0.51356339007E+03  0.12587400777E+03 0.  0.
          5    1    4    4  502    0 -0.42917468156E+02  0.33295557946E+02 -0.48466004303E+03  0.48771708045E+03  0.47000000000E+01 0.  1.
         -5    1    4    4    0  502  0.65052515001E+01 -0.48280150806E+02 -0.69256701594E+02  0.84804905369E+02  0.47000000000E+01 0.  1.
          5    1    5    5  503    0  0.76937596283E+02  0.22098611624E+02 -0.41047735196E+03  0.41823616394E+03  0.47000000000E+01 0.  1.
         -5    1    5    5    0  503 -0.40525379628E+02 -0.71140187635E+01 -0.85861949571E+02  0.95327226127E+02  0.47000000000E+01 0.  1.
<mgrwt>
<rscale>  0 0.27666529E+03</rscale>
<asrwt>0</asrwt>
<pdfrwt beam="1">  1        2 0.16433402E+00 0.27666529E+03</pdfrwt>
<pdfrwt beam="2">  1       -2 0.27561013E-02 0.27666529E+03</pdfrwt>
<totfact> 0.11450700E+04</totfact>
</mgrwt>
</event>
<event>
 9    1  0.2117506E-002  0.2760919E+03  0.7818608E-02  0.1097843E+00
          1   -1    0    0  501    0  0.00000000000E+00  0.00000000000E+00  0.47405417802E+02  0.47405417802E+02  0.00000000000E+00 0. -1.
         -1   -1    0    0    0  501 -0.00000000000E+00 -0.00000000000E+00 -0.40199371975E+03  0.40199371975E+03  0.00000000000E+00 0. -1.
         36    2    1    2    0    0  0.35527136788E-14  0.71054273576E-14 -0.35458830195E+03  0.44939913755E+03  0.27609187050E+03 0.  0.
         25    2    3    3    0    0  0.10563327353E+02 -0.30600810598E+02 -0.97799476969E+02  0.16222794161E+03  0.12532028507E+03 0.  0.
         25    2    3    3    0    0 -0.10563327353E+02  0.30600810598E+02 -0.25678882498E+03  0.28717119594E+03  0.12441383223E+03 0.  0.
          5    1    4    4  502    0 -0.70782815191E+00 -0.24163867191E+02 -0.12729847282E+03  0.12965872389E+03  0.47000000000E+01 0. -1.
         -5    1    4    4    0  502  0.11271155505E+02 -0.64369434068E+01  0.29498995849E+02  0.32569217721E+02  0.47000000000E+01 0. -1.
          5    1    5    5  503    0  0.50454735923E+02 -0.13812743570E+02 -0.94022139351E+02  0.10769737671E+03  0.47000000000E+01 0. -1.
         -5    1    5    5    0  503 -0.61018063277E+02  0.44413554168E+02 -0.16276668563E+03  0.17947381923E+03  0.47000000000E+01 0. -1.
<mgrwt>
<rscale>  0 0.27609187E+03</rscale>
<asrwt>0</asrwt>
<pdfrwt beam="1">  1        1 0.72931411E-02 0.27609187E+03</pdfrwt>
<pdfrwt beam="2">  1       -1 0.61845189E-01 0.27609187E+03</pdfrwt>
<totfact> 0.26973906E+03</totfact>
</mgrwt>
</event>
<event>
 9    1  0.2117506E-002  0.2756196E+03  0.7818608E-02  0.1098106E+00
          2   -1    0    0  501    0  0.00000000000E+00  0.00000000000E+00  0.39575044723E+02  0.39575044723E+02  0.00000000000E+00 0. -1.
         -2   -1    0    0    0  501 -0.00000000000E+00 -0.00000000000E+00 -0.47988676560E+03  0.47988676560E+03  0.00000000000E+00 0. -1.
         36    2    1    2    0    0 -0.35527136788E-14  0.71054273576E-14 -0.44031172087E+03  0.51946181032E+03  0.27561959444E+03 0.  0.
         25    2    3    3    0    0 -0.17724122950E+02  0.40901035431E+02 -0.28120393997E+03  0.31192058477E+03  0.12740390935E+03 0.  0.
         25    2    3    3    0    0  0.17724122950E+02 -0.40901035431E+02 -0.15910778090E+03  0.20754122555E+03  0.12558278195E+03 0.  0.
          5    1    4    4  502    0  0.41304593451E+02  0.33672736521E+02 -0.50285533668E+02  0.73421029148E+02  0.47000000000E+01 0.  1.
         -5    1    4    4    0  502 -0.59028716401E+02  0.72282989104E+01 -0.23091840630E+03  0.23849955562E+03  0.47000000000E+01 0.  1.
          5    1    5    5  503    0  0.39052644785E+02 -0.58071291187E+02 -0.31400427269E+02  0.76846995761E+02  0.47000000000E+01 0. -1.
         -5    1    5    5    0  503 -0.21328521835E+02  0.17170255756E+02 -0.12770735364E+03  0.13069422978E+03  0.47000000000E+01 0. -1.
<mgrwt>
<rscale>  0 0.27561959E+03</rscale>
<asrwt>0</asrwt>
<pdfrwt beam="1">  1        2 0.60884684E-02 0.27561959E+03</pdfrwt>
<pdfrwt beam="2">  1       -2 0.73828734E-01 0.27561959E+03</pdfrwt>
<totfact> 0.20553982E+03</totfact>
</mgrwt>
</event>
<event>
 9    1  0.2117506E-002  0.2829234E+03  0.7818608E-02  0.1094103E+00
          2   -1    0    0  501    0  0.00000000000E+00  0.00000000000E+00  0.13897862712E+04  0.13897862712E+04  0.00000000000E+00 0. -1.
         -2   -1    0    0    0  501 -0.00000000000E+00 -0.00000000000E+00 -0.14398908849E+02  0.14398908849E+02  0.00000000000E+00 0. -1.
         36    2    1    2    0    0 -0.35527136788E-14  0.00000000000E+00  0.13753873623E+04  0.14041851800E+04  0.28292335243E+03 0.  0.
         25    2    3    3    0    0 -0.14086349304E+02 -0.22012814903E+02  0.96794531793E+03  0.97701242928E+03  0.13020045781E+03 0.  0.
         25    2    3    3    0    0  0.14086349304E+02  0.22012814903E+02  0.40744204440E+03  0.42717275075E+03  0.12563657977E+03 0.  0.
          5    1    4    4  502    0 -0.75200893911E+01 -0.88030431389E+01  0.95910013104E+03  0.95918152436E+03  0.47000000000E+01 0.  1.
         -5    1    4    4    0  502 -0.65662599128E+01 -0.13209771764E+02  0.88451868931E+01  0.17830904926E+02  0.47000000000E+01 0.  1.
          5    1    5    5  503    0  0.23689248793E+02 -0.49997171589E+02  0.17745307543E+03  0.18593703680E+03  0.47000000000E+01 0.  1.
         -5    1    5    5    0  503 -0.96028994895E+01  0.72009986492E+02  0.22998896897E+03  0.24123571394E+03  0.47000000000E+01 0.  1.
<mgrwt>
<rscale>  0 0.28292335E+03</rscale>
<asrwt>0</asrwt>
<pdfrwt beam="1">  1        2 0.21381317E+00 0.28292335E+03</pdfrwt>
<pdfrwt beam="2">  1       -2 0.22152178E-02 0.28292335E+03</pdfrwt>
<totfact> 0.10411218E+04</totfact>
</mgrwt>
</event>
<event>
 9    1  0.2117506E-002  0.2753938E+03  0.7818608E-02  0.1098232E+00
         -1   -1    0    0    0  501 -0.00000000000E+00  0.00000000000E+00  0.44209722701E+02  0.44209722701E+02  0.00000000000E+00 0.  1.
          1   -1    0    0  501    0  0.00000000000E+00 -0.00000000000E+00 -0.42887466079E+03  0.42887466079E+03  0.00000000000E+00 0.  1.
         36    2    1    2    0    0  0.71054273576E-14 -0.14210854715E-13 -0.38466493809E+03  0.47308438349E+03  0.27539375321E+03 0.  0.
         25    2    3    3    0    0 -0.54652122881E+01  0.54201927482E+02 -0.22503939857E+03  0.26308089276E+03  0.12490439439E+03 0.  0.
         25    2    3    3    0    0  0.54652122881E+01 -0.54201927482E+02 -0.15962553952E+03  0.21000349074E+03  0.12511369136E+03 0.  0.
          5    1    4    4  502    0 -0.50897583984E+02  0.22631147769E+01 -0.16058523940E+03  0.16853900100E+03  0.47000000000E+01 0. -1.
         -5    1    4    4    0  502  0.45432371696E+02  0.51938812705E+02 -0.64454159167E+02  0.94541891757E+02  0.47000000000E+01 0. -1.
          5    1    5    5  503    0  0.61284612704E+02 -0.86656054038E+01 -0.92702476735E+02  0.11156493922E+03  0.47000000000E+01 0.  1.
         -5    1    5    5    0  503 -0.55819400416E+02 -0.45536322078E+02 -0.66923062786E+02  0.98438551513E+02  0.47000000000E+01 0.  1.
<mgrwt>
<rscale>  0 0.27539375E+03</rscale>
<asrwt>0</asrwt>
<pdfrwt beam="1">  1        1 0.65980718E-01 0.27539375E+03</pdfrwt>
<pdfrwt beam="2">  1       -1 0.68014957E-02 0.27539375E+03</pdfrwt>
<totfact> 0.60758253E+03</totfact>
</mgrwt>
</event>
<event>
 9    1  0.2117506E-002  0.2754759E+03  0.7818608E-02  0.1098186E+00
          2   -1    0    0  501    0  0.00000000000E+00  0.00000000000E+00  0.28372171946E+03  0.28372171946E+03  0.00000000000E+00 0.  1.
         -2   -1    0    0    0  501 -0.00000000000E+00 -0.00000000000E+00 -0.66867427211E+02  0.66867427211E+02  0.00000000000E+00 0.  1.
         36    2    1    2    0    0  0.00000000000E+00  0.00000000000E+00  0.21685429225E+03  0.35058914667E+03  0.27547588950E+03 0.  0.
         25    2    3    3    0    0 -0.39676115065E+02  0.24052075129E+02  0.59100646375E+02  0.14538973750E+03  0.12446924497E+03 0.  0.
         25    2    3    3    0    0  0.39676115065E+02 -0.24052075129E+02  0.15775364587E+03  0.20519940917E+03  0.12275132713E+03 0.  0.
          5    1    4    4  502    0 -0.30970625277E+02 -0.15130626317E+02  0.88712496631E+02  0.95289624521E+02  0.47000000000E+01 0.  1.
         -5    1    4    4    0  502 -0.87054897881E+01  0.39182701446E+02 -0.29611850256E+02  0.50100112981E+02  0.47000000000E+01 0.  1.
          5    1    5    5  503    0 -0.76460389609E+01  0.44546685444E+02  0.74786811937E+02  0.87510149900E+02  0.47000000000E+01 0. -1.
         -5    1    5    5    0  503  0.47322154026E+02 -0.68598760573E+02  0.82966833936E+02  0.11768925927E+03  0.47000000000E+01 0. -1.
<mgrwt>
<rscale>  0 0.27547589E+03</rscale>
<asrwt>0</asrwt>
<pdfrwt beam="1">  1        2 0.43649495E-01 0.27547589E+03</pdfrwt>
<pdfrwt beam="2">  1       -2 0.10287297E-01 0.27547589E+03</pdfrwt>
<totfact> 0.73125516E+03</totfact>
</mgrwt>
</event>
<event>
 9    1  0.2117506E-002  0.2694984E+03  0.7818608E-02  0.1101567E+00
          2   -1    0    0  501    0  0.00000000000E+00  0.00000000000E+00  0.97272841382E+02  0.97272841382E+02  0.00000000000E+00 0. -1.
         -2   -1    0    0    0  501 -0.00000000000E+00 -0.00000000000E+00 -0.18666410687E+03  0.18666410687E+03  0.00000000000E+00 0. -1.
         36    2    1    2    0    0 -0.71054273576E-14 -0.71054273576E-14 -0.89391265485E+02  0.28393694825E+03  0.26949840860E+03 0.  0.
         25    2    3    3    0    0 -0.23219929582E+02 -0.51811491085E+02 -0.58177126114E+02  0.14834533368E+03  0.12408933993E+03 0.  0.
         25    2    3    3    0    0  0.23219929582E+02  0.51811491085E+02 -0.31214139371E+02  0.13559161457E+03  0.11910989760E+03 0.  0.
          5    1    4    4  502    0 -0.50249889284E+02  0.23161217262E+02 -0.33183662269E+02  0.64689557115E+02  0.47000000000E+01 0. -1.
         -5    1    4    4    0  502  0.27029959703E+02 -0.74972708347E+02 -0.24993463846E+02  0.83655776569E+02  0.47000000000E+01 0. -1.
          5    1    5    5  503    0  0.38289116046E+02  0.70542962526E+02 -0.58117343921E+02  0.99207266034E+02  0.47000000000E+01 0.  1.
         -5    1    5    5    0  503 -0.15069186465E+02 -0.18731471441E+02  0.26903204550E+02  0.36384348532E+02  0.47000000000E+01 0.  1.
<mgrwt>
<rscale>  0 0.26949841E+03</rscale>
<asrwt>0</asrwt>
<pdfrwt beam="1">  1        2 0.14965053E-01 0.26949841E+03</pdfrwt>
<pdfrwt beam="2">  1       -2 0.28717554E-01 0.26949841E+03</pdfrwt>
<totfact> 0.42984959E+03</totfact>
</mgrwt>
</event>
<event>
 9    1  0.2117506E-002  0.2755844E+03  0.7818608E-02  0.1098125E+00
         -2   -1    0    0    0  501 -0.00000000000E+00  0.00000000000E+00  0.55500943922E+01  0.55500943922E+01  0.00000000000E+00 0. -1.
          2   -1    0    0  501    0  0.00000000000E+00 -0.00000000000E+00 -0.34209681049E+04  0.34209681049E+04  0.00000000000E+00 0. -1.
         36    2    1    2    0    0  0.71054273576E-14  0.71054273576E-14 -0.34154180105E+04  0.34265181993E+04  0.27558444002E+03 0.  0.
         25    2    3    3    0    0 -0.28323348148E+02  0.51345470342E+02 -0.15272574234E+04  0.15334031503E+04  0.12398150895E+03 0.  0.
         25    2    3    3    0    0  0.28323348148E+02 -0.51345470342E+02 -0.18881605871E+04  0.18931150490E+04  0.12367544923E+03 0.  0.
          5    1    4    4  502    0  0.45568927578E+02  0.13082758823E+02 -0.79320540999E+03  0.79463488357E+03  0.47000000000E+01 0. -1.
         -5    1    4    4    0  502 -0.73892275726E+02  0.38262711520E+02 -0.73405201343E+03  0.73876826672E+03  0.47000000000E+01 0. -1.
          5    1    5    5  503    0 -0.26452810300E+01 -0.87883244113E+02 -0.13093506588E+04  0.13123077763E+04  0.47000000000E+01 0. -1.
         -5    1    5    5    0  503  0.30968629178E+02  0.36537773771E+02 -0.57880992830E+03  0.58080727268E+03  0.47000000000E+01 0. -1.
<mgrwt>
<rscale>  0 0.27558444E+03</rscale>
<asrwt>0</asrwt>
<pdfrwt beam="1">  1        2 0.52630136E+00 0.27558444E+03</pdfrwt>
<pdfrwt beam="2">  1       -2 0.85386299E-03 0.27558444E+03</pdfrwt>
<totfact> 0.30643456E+03</totfact>
</mgrwt>
</event>
<event>
 9    1  0.2117506E-002  0.2748627E+03  0.7818608E-02  0.1098528E+00
         -4   -1    0    0    0  501 -0.00000000000E+00  0.00000000000E+00  0.17884302536E+03  0.17884302536E+03  0.00000000000E+00 0. -1.
          4   -1    0    0  501    0  0.00000000000E+00 -0.00000000000E+00 -0.10560871315E+03  0.10560871315E+03  0.00000000000E+00 0. -1.
         36    2    1    2    0    0  0.00000000000E+00  0.71054273576E-14  0.73234312213E+02  0.28445173851E+03  0.27486274221E+03 0.  0.
         25    2    3    3    0    0  0.22166928434E+02  0.97303858066E+01  0.90437884525E+02  0.15616338267E+03  0.12498775142E+03 0.  0.
         25    2    3    3    0    0 -0.22166928434E+02 -0.97303858066E+01 -0.17203572312E+02  0.12828835584E+03  0.12480339026E+03 0.  0.
          5    1    4    4  502    0  0.53459313979E+02 -0.39952639850E+02  0.59961887393E+02  0.89842248535E+02  0.47000000000E+01 0. -1.
         -5    1    4    4    0  502 -0.31292385544E+02  0.49683025657E+02  0.30475997132E+02  0.66321134133E+02  0.47000000000E+01 0. -1.
          5    1    5    5  503    0 -0.37856604748E+02  0.50238972456E+02  0.23367885585E+01  0.63123905592E+02  0.47000000000E+01 0. -1.
         -5    1    5    5    0  503  0.15689676314E+02 -0.59969358263E+02 -0.19540360870E+02  0.65164450249E+02  0.47000000000E+01 0. -1.
<mgrwt>
<rscale>  0 0.27486274E+03</rscale>
<asrwt>0</asrwt>
<pdfrwt beam="1">  1        4 0.16247494E-01 0.27486274E+03</pdfrwt>
<pdfrwt beam="2">  1       -4 0.27514311E-01 0.27486274E+03</pdfrwt>
<totfact> 0.76878995E+02</totfact>
</mgrwt>
</event>
<event>
 9    1  0.2117506E-002  0.2742659E+03  0.7818608E-02  0.1098863E+00
          1   -1    0    0  501    0  0.00000000000E+00  0.00000000000E+00  0.23938215726E+03  0.23938215726E+03  0.00000000000E+00 0. -1.
         -1   -1    0    0    0  501 -0.00000000000E+00 -0.00000000000E+00 -0.78558261044E+02  0.78558261044E+02  0.00000000000E+00 0. -1.
         36    2    1    2    0    0  0.00000000000E+00  0.00000000000E+00  0.16082389622E+03  0.31794041831E+03  0.27426590017E+03 0.  0.
         25    2    3    3    0    0  0.13574216638E+02  0.32457020116E+02  0.39414358912E+02  0.13638094460E+03  0.12573206771E+03 0.  0.
         25    2    3    3    0    0 -0.13574216638E+02 -0.32457020116E+02  0.12140953731E+03  0.18155947370E+03  0.13032977108E+03 0.  0.
          5    1    4    4  502    0  0.25851934439E+01  0.70895957484E+02  0.58273187599E+02  0.91928093670E+02  0.47000000000E+01 0.  1.
         -5    1    4    4    0  502  0.10989023194E+02 -0.38438937368E+02 -0.18858828687E+02  0.44452850935E+02  0.47000000000E+01 0.  1.
          5    1    5    5  503    0  0.54102783657E+02 -0.87101513082E+01  0.22810184981E+02  0.59543030441E+02  0.47000000000E+01 0. -1.
         -5    1    5    5    0  503 -0.67677000295E+02 -0.23746868808E+02  0.98599352328E+02  0.12201644326E+03  0.47000000000E+01 0. -1.
<mgrwt>
<rscale>  0 0.27426590E+03</rscale>
<asrwt>0</asrwt>
<pdfrwt beam="1">  1        1 0.36828024E-01 0.27426590E+03</pdfrwt>
<pdfrwt beam="2">  1       -1 0.12085886E-01 0.27426590E+03</pdfrwt>
<totfact> 0.52488642E+03</totfact>
</mgrwt>
</event>
<event>
 9    1  0.2117506E-002  0.2745302E+03  0.7818608E-02  0.1098714E+00
         -1   -1    0    0    0  501 -0.00000000000E+00  0.00000000000E+00  0.59619468538E+02  0.59619468538E+02  0.00000000000E+00 0. -1.
          1   -1    0    0  501    0  0.00000000000E+00 -0.00000000000E+00 -0.31603278323E+03  0.31603278323E+03  0.00000000000E+00 0. -1.
         36    2    1    2    0    0 -0.10658141036E-13  0.00000000000E+00 -0.25641331469E+03  0.37565225177E+03  0.27453019198E+03 0.  0.
         25    2    3    3    0    0 -0.23850008364E+02 -0.57828435807E+01 -0.19198901243E+03  0.23089094653E+03  0.12589115981E+03 0.  0.
         25    2    3    3    0    0  0.23850008364E+02  0.57828435807E+01 -0.64424302257E+02  0.14476130523E+03  0.12729132175E+03 0.  0.
          5    1    4    4  502    0 -0.69515990552E+02 -0.58353339432E+01 -0.16093452214E+03  0.17546661928E+03  0.47000000000E+01 0.  1.
         -5    1    4    4    0  502  0.45665982188E+02  0.52490362500E-01 -0.31054490290E+02  0.55424327254E+02  0.47000000000E+01 0.  1.
          5    1    5    5  503    0  0.28554038379E+02  0.16884126304E+02 -0.10076313492E+03  0.10618712817E+03  0.47000000000E+01 0.  1.
         -5    1    5    5    0  503 -0.47040300151E+01 -0.11101282724E+02  0.36338832667E+02  0.38574177063E+02  0.47000000000E+01 0.  1.
<mgrwt>
<rscale>  0 0.27453019E+03</rscale>
<asrwt>0</asrwt>
<pdfrwt beam="1">  1        1 0.48620429E-01 0.27453019E+03</pdfrwt>
<pdfrwt beam="2">  1       -1 0.91722258E-02 0.27453019E+03</pdfrwt>
<totfact> 0.56787539E+03</totfact>
</mgrwt>
</event>
<event>
 9    1  0.2117506E-002  0.2750579E+03  0.7818608E-02  0.1098419E+00
          2   -1    0    0  501    0  0.00000000000E+00  0.00000000000E+00  0.19459890892E+02  0.19459890892E+02  0.00000000000E+00 0.  1.
         -2   -1    0    0    0  501 -0.00000000000E+00 -0.00000000000E+00 -0.97195847507E+03  0.97195847507E+03  0.00000000000E+00 0.  1.
         36    2    1    2    0    0 -0.35527136788E-14 -0.71054273576E-14 -0.95249858418E+03  0.99141836597E+03  0.27505785483E+03 0.  0.
         25    2    3    3    0    0  0.29752039638E+02  0.44183923234E+02 -0.35344936929E+03  0.37740360716E+03  0.12111821958E+03 0.  0.
         25    2    3    3    0    0 -0.29752039638E+02 -0.44183923234E+02 -0.59904921489E+03  0.61401475880E+03  0.12376089539E+03 0.  0.
          5    1    4    4  502    0  0.32725724974E+02 -0.16960022513E+02 -0.27638798627E+03  0.27887456749E+03  0.47000000000E+01 0.  1.
         -5    1    4    4    0  502 -0.29736853354E+01  0.61143945747E+02 -0.77061383017E+02  0.98529039670E+02  0.47000000000E+01 0.  1.
          5    1    5    5  503    0  0.33321414050E+02  0.19437658915E+02 -0.10664385810E+03  0.11350392807E+03  0.47000000000E+01 0. -1.
         -5    1    5    5    0  503 -0.63073453689E+02 -0.63621582149E+02 -0.49240535680E+03  0.50051083073E+03  0.47000000000E+01 0. -1.
<mgrwt>
<rscale>  0 0.27505785E+03</rscale>
<asrwt>0</asrwt>
<pdfrwt beam="1">  1        2 0.29938295E-02 0.27505785E+03</pdfrwt>
<pdfrwt beam="2">  1       -2 0.14953207E+00 0.27505785E+03</pdfrwt>
<totfact> 0.10045744E+03</totfact>
</mgrwt>
</event>
<event>
 9    1  0.2117506E-002  0.2726225E+03  0.7818608E-02  0.1099788E+00
         -2   -1    0    0    0  501 -0.00000000000E+00  0.00000000000E+00  0.11848825335E+02  0.11848825335E+02  0.00000000000E+00 0. -1.
          2   -1    0    0  501    0  0.00000000000E+00 -0.00000000000E+00 -0.15681521523E+04  0.15681521523E+04  0.00000000000E+00 0. -1.
         36    2    1    2    0    0 -0.71054273576E-14 -0.35527136788E-14 -0.15563033270E+04  0.15800009776E+04  0.27262252990E+03 0.  0.
         25    2    3    3    0    0  0.43622590271E+02  0.25361160122E+02 -0.87829054922E+03  0.88889879922E+03  0.12728184307E+03 0.  0.
         25    2    3    3    0    0 -0.43622590271E+02 -0.25361160122E+02 -0.67801277774E+03  0.69110217841E+03  0.12399506202E+03 0.  0.
          5    1    4    4  502    0 -0.45273495441E+02  0.84212028445E+01 -0.29142645203E+03  0.29507977394E+03  0.47000000000E+01 0.  1.
         -5    1    4    4    0  502  0.88896085713E+02  0.16939957277E+02 -0.58686409719E+03  0.59381902527E+03  0.47000000000E+01 0.  1.
          5    1    5    5  503    0  0.21644574344E+02 -0.34738004009E+02 -0.49145703327E+03  0.49318082087E+03  0.47000000000E+01 0. -1.
         -5    1    5    5    0  503 -0.65267164616E+02  0.93768438868E+01 -0.18655574446E+03  0.19792135754E+03  0.47000000000E+01 0. -1.
<mgrwt>
<rscale>  0 0.27262253E+03</rscale>
<asrwt>0</asrwt>
<pdfrwt beam="1">  1        2 0.24125409E+00 0.27262253E+03</pdfrwt>
<pdfrwt beam="2">  1       -2 0.18228969E-02 0.27262253E+03</pdfrwt>
<totfact> 0.11115963E+04</totfact>
</mgrwt>
</event>
<event>
 9    1  0.2117506E-002  0.2751536E+03  0.7818608E-02  0.1098366E+00
         -2   -1    0    0    0  501 -0.00000000000E+00  0.00000000000E+00  0.38309019462E+03  0.38309019462E+03  0.00000000000E+00 0.  1.
          2   -1    0    0  501    0  0.00000000000E+00 -0.00000000000E+00 -0.49407089267E+02  0.49407089267E+02  0.00000000000E+00 0.  1.
         36    2    1    2    0    0 -0.71054273576E-14 -0.14210854715E-13  0.33368310536E+03  0.43249728389E+03  0.27515356762E+03 0.  0.
         25    2    3    3    0    0 -0.21140158649E+02  0.36398025630E+02  0.24147668602E+03  0.27405702211E+03  0.12257462584E+03 0.  0.
         25    2    3    3    0    0  0.21140158649E+02 -0.36398025630E+02  0.92206419333E+02  0.15844026178E+03  0.12177672277E+03 0.  0.
          5    1    4    4  502    0 -0.47111349067E+02  0.33283157883E+02  0.38871130542E+02  0.69715870497E+02  0.47000000000E+01 0.  1.
         -5    1    4    4    0  502  0.25971190418E+02  0.31148677473E+01  0.20260555548E+03  0.20434115162E+03  0.47000000000E+01 0.  1.
          5    1    5    5  503    0  0.45396610252E+02 -0.70610767194E+02  0.75671519216E+02  0.11311499232E+03  0.47000000000E+01 0. -1.
         -5    1    5    5    0  503 -0.24256451603E+02  0.34212741564E+02  0.16534900117E+02  0.45325269460E+02  0.47000000000E+01 0. -1.
<mgrwt>
<rscale>  0 0.27515357E+03</rscale>
<asrwt>0</asrwt>
<pdfrwt beam="1">  1        2 0.76010909E-02 0.27515357E+03</pdfrwt>
<pdfrwt beam="2">  1       -2 0.58936951E-01 0.27515357E+03</pdfrwt>
<totfact> 0.24853323E+03</totfact>
</mgrwt>
</event>
<event>
 9    1  0.2117506E-002  0.2750493E+03  0.7818608E-02  0.1098424E+00
          2   -1    0    0  501    0  0.00000000000E+00  0.00000000000E+00  0.21696113089E+03  0.21696113089E+03  0.00000000000E+00 0. -1.
         -2   -1    0    0    0  501 -0.00000000000E+00 -0.00000000000E+00 -0.87172427949E+02  0.87172427949E+02  0.00000000000E+00 0. -1.
         36    2    1    2    0    0  0.71054273576E-14  0.71054273576E-14  0.12978870294E+03  0.30413355884E+03  0.27504929413E+03 0.  0.
         25    2    3    3    0    0  0.37760651248E+02  0.45611892691E+02  0.62545971402E+02  0.15179656142E+03  0.12499554385E+03 0.  0.
         25    2    3    3    0    0 -0.37760651248E+02 -0.45611892691E+02  0.67242731539E+02  0.15233699742E+03  0.12320172199E+03 0.  0.
          5    1    4    4  502    0 -0.78571704047E+01 -0.36161516943E+02 -0.29669953145E+01  0.37420362045E+02  0.47000000000E+01 0. -1.
         -5    1    4    4    0  502  0.45617821653E+02  0.81773409634E+02  0.65512966717E+02  0.11437619938E+03  0.47000000000E+01 0. -1.
          5    1    5    5  503    0 -0.68270250591E+02 -0.69235343807E+02  0.53685416842E+02  0.11116912309E+03  0.47000000000E+01 0. -1.
         -5    1    5    5    0  503  0.30509599343E+02  0.23623451116E+02  0.13557314697E+02  0.41167874325E+02  0.47000000000E+01 0. -1.
<mgrwt>
<rscale>  0 0.27504929E+03</rscale>
<asrwt>0</asrwt>
<pdfrwt beam="1">  1        2 0.33378635E-01 0.27504929E+03</pdfrwt>
<pdfrwt beam="2">  1       -2 0.13411143E-01 0.27504929E+03</pdfrwt>
<totfact> 0.63733221E+03</totfact>
</mgrwt>
</event>
<event>
 9    1  0.2117506E-002  0.2722944E+03  0.7818608E-02  0.1099974E+00
         -2   -1    0    0    0  501 -0.00000000000E+00  0.00000000000E+00  0.18659297609E+02  0.18659297609E+02  0.00000000000E+00 0.  1.
          2   -1    0    0  501    0  0.00000000000E+00 -0.00000000000E+00 -0.99339523280E+03  0.99339523280E+03  0.00000000000E+00 0.  1.
         36    2    1    2    0    0  0.00000000000E+00  0.00000000000E+00 -0.97473593519E+03  0.10120545304E+04  0.27229437962E+03 0.  0.
         25    2    3    3    0    0 -0.75957809813E+00  0.38386146863E+02 -0.34777113296E+03  0.37185578821E+03  0.12592812662E+03 0.  0.
         25    2    3    3    0    0  0.75957809813E+00 -0.38386146863E+02 -0.62696480224E+03  0.64019874221E+03  0.12367494917E+03 0.  0.
          5    1    4    4  502    0 -0.42645262721E+02 -0.12088156662E+02 -0.50321503135E+02  0.67224144782E+02  0.47000000000E+01 0.  1.
         -5    1    4    4    0  502  0.41885684622E+02  0.50474303525E+02 -0.29744962982E+03  0.30463164342E+03  0.47000000000E+01 0.  1.
          5    1    5    5  503    0 -0.31042861033E+02  0.22750567168E+02 -0.42466988085E+03  0.42643621473E+03  0.47000000000E+01 0.  1.
         -5    1    5    5    0  503  0.31802439131E+02 -0.61136714031E+02 -0.20229492138E+03  0.21376252748E+03  0.47000000000E+01 0.  1.
<mgrwt>
<rscale>  0 0.27229438E+03</rscale>
<asrwt>0</asrwt>
<pdfrwt beam="1">  1        2 0.15283004E+00 0.27229438E+03</pdfrwt>
<pdfrwt beam="2">  1       -2 0.28706611E-02 0.27229438E+03</pdfrwt>
<totfact> 0.11954466E+04</totfact>
</mgrwt>
</event>
<event>
 9    1  0.2117506E-002  0.2750375E+03  0.7818608E-02  0.1098431E+00
          2   -1    0    0  501    0  0.00000000000E+00  0.00000000000E+00  0.64430252935E+03  0.64430252935E+03  0.00000000000E+00 0. -1.
         -2   -1    0    0    0  501 -0.00000000000E+00 -0.00000000000E+00 -0.29351753573E+02  0.29351753573E+02  0.00000000000E+00 0. -1.
         36    2    1    2    0    0 -0.35527136788E-14  0.00000000000E+00  0.61495077577E+03  0.67365428292E+03  0.27503751793E+03 0.  0.
         25    2    3    3    0    0  0.30394124133E+02  0.40988697568E+02  0.28787922964E+03  0.31974720812E+03  0.12946022608E+03 0.  0.
         25    2    3    3    0    0 -0.30394124133E+02 -0.40988697568E+02  0.32707154614E+03  0.35390707480E+03  0.12518204819E+03 0.  0.
          5    1    4    4  502    0  0.51301106961E+02 -0.33515868485E+02  0.11949404889E+03  0.13437274551E+03  0.47000000000E+01 0. -1.
         -5    1    4    4    0  502 -0.20906982828E+02  0.74504566054E+02  0.16838518075E+03  0.18537446261E+03  0.47000000000E+01 0. -1.
          5    1    5    5  503    0 -0.35053493343E+02 -0.34866674837E+02  0.32845271834E+02  0.59542709811E+02  0.47000000000E+01 0. -1.
         -5    1    5    5    0  503  0.46593692096E+01 -0.61220227314E+01  0.29422627430E+03  0.29436436499E+03  0.47000000000E+01 0. -1.
<mgrwt>
<rscale>  0 0.27503752E+03</rscale>
<asrwt>0</asrwt>
<pdfrwt beam="1">  1        2 0.99123455E-01 0.27503752E+03</pdfrwt>
<pdfrwt beam="2">  1       -2 0.45156549E-02 0.27503752E+03</pdfrwt>
<totfact> 0.10558000E+04</totfact>
</mgrwt>
</event>
<event>
 9    1  0.2117506E-002  0.2744656E+03  0.7818608E-02  0.1098751E+00
          1   -1    0    0  501    0  0.00000000000E+00  0.00000000000E+00  0.21544794785E+04  0.21544794785E+04  0.00000000000E+00 0. -1.
         -1   -1    0    0    0  501 -0.00000000000E+00 -0.00000000000E+00 -0.87412475038E+01  0.87412475038E+01  0.00000000000E+00 0. -1.
         36    2    1    2    0    0  0.00000000000E+00 -0.71054273576E-14  0.21457382310E+04  0.21632207260E+04  0.27446557790E+03 0.  0.
         25    2    3    3    0    0  0.27732806604E+02 -0.36403973040E+02  0.83314162550E+03  0.84358405577E+03  0.12415608397E+03 0.  0.
         25    2    3    3    0    0 -0.27732806604E+02  0.36403973040E+02  0.13125966055E+04  0.13196366703E+04  0.12820583006E+03 0.  0.
          5    1    4    4  502    0  0.24563690206E+02  0.23345460329E+02  0.64915153702E+03  0.65005245435E+03  0.47000000000E+01 0.  1.
         -5    1    4    4    0  502  0.31691163976E+01 -0.59749433370E+02  0.18399008848E+03  0.19353160141E+03  0.47000000000E+01 0.  1.
          5    1    5    5  503    0 -0.23600379357E+02  0.21369109246E+02  0.12959475312E+04  0.12963470640E+04  0.47000000000E+01 0.  1.
         -5    1    5    5    0  503 -0.41324272467E+01  0.15034863794E+02  0.16649074356E+02  0.23289606291E+02  0.47000000000E+01 0.  1.
<mgrwt>
<rscale>  0 0.27446558E+03</rscale>
<asrwt>0</asrwt>
<pdfrwt beam="1">  1        1 0.33145796E+00 0.27446558E+03</pdfrwt>
<pdfrwt beam="2">  1       -1 0.13448090E-02 0.27446558E+03</pdfrwt>
<totfact> 0.32751592E+03</totfact>
</mgrwt>
</event>
<event>
 9    1  0.2117506E-002  0.2731552E+03  0.7818608E-02  0.1099487E+00
         -3   -1    0    0    0  501 -0.00000000000E+00  0.00000000000E+00  0.18801613288E+03  0.18801613288E+03  0.00000000000E+00 0.  1.
          3   -1    0    0  501    0  0.00000000000E+00 -0.00000000000E+00 -0.99211952387E+02  0.99211952387E+02  0.00000000000E+00 0.  1.
         36    2    1    2    0    0  0.00000000000E+00  0.17763568394E-14  0.88804180491E+02  0.28722808526E+03  0.27315524980E+03 0.  0.
         25    2    3    3    0    0 -0.48422679576E+02 -0.95624019557E+01  0.51729775923E+01  0.12919387115E+03  0.11928160469E+03 0.  0.
         25    2    3    3    0    0  0.48422679576E+02  0.95624019557E+01  0.83631202899E+02  0.15803421411E+03  0.12467734078E+03 0.  0.
          5    1    4    4  502    0 -0.33515220018E+02  0.53590306488E+02  0.90263128818E+01  0.64021521745E+02  0.47000000000E+01 0. -1.
         -5    1    4    4    0  502 -0.14907459559E+02 -0.63152708444E+02 -0.38533352895E+01  0.65172349406E+02  0.47000000000E+01 0. -1.
          5    1    5    5  503    0 -0.26692645827E+02  0.66208639966E+01 -0.16746484305E+02  0.32540250735E+02  0.47000000000E+01 0.  1.
         -5    1    5    5    0  503  0.75115325403E+02  0.29415379591E+01  0.10037768720E+03  0.12549396338E+03  0.47000000000E+01 0.  1.
<mgrwt>
<rscale>  0 0.27315525E+03</rscale>
<asrwt>0</asrwt>
<pdfrwt beam="1">  1        3 0.15263377E-01 0.27315525E+03</pdfrwt>
<pdfrwt beam="2">  1       -3 0.28925559E-01 0.27315525E+03</pdfrwt>
<totfact> 0.10518168E+03</totfact>
</mgrwt>
</event>
<event>
 9    1  0.2117506E-002  0.2752513E+03  0.7818608E-02  0.1098311E+00
         -2   -1    0    0    0  501 -0.00000000000E+00  0.00000000000E+00  0.24373867649E+02  0.24373867649E+02  0.00000000000E+00 0. -1.
          2   -1    0    0  501    0  0.00000000000E+00 -0.00000000000E+00 -0.77709546119E+03  0.77709546119E+03  0.00000000000E+00 0. -1.
         36    2    1    2    0    0  0.14210854715E-13  0.00000000000E+00 -0.75272159354E+03  0.80146932884E+03  0.27525131732E+03 0.  0.
         25    2    3    3    0    0 -0.73139799418E+02 -0.22269753053E+02 -0.26988135697E+03  0.29618947074E+03  0.95115106985E+02 0.  0.
         25    2    3    3    0    0  0.73139799418E+02  0.22269753053E+02 -0.48284023657E+03  0.50527985810E+03  0.12777976675E+03 0.  0.
          5    1    4    4  502    0 -0.67112360528E+02 -0.52391651447E+02 -0.23210813973E+03  0.24727562072E+03  0.47000000000E+01 0. -1.
         -5    1    4    4    0  502 -0.60274388903E+01  0.30121898394E+02 -0.37773217242E+02  0.48913850014E+02  0.47000000000E+01 0. -1.
          5    1    5    5  503    0  0.24891470723E+01  0.24533223818E+02 -0.97742871279E+01  0.26938849510E+02  0.47000000000E+01 0.  1.
         -5    1    5    5    0  503  0.70650652346E+02 -0.22634707646E+01 -0.47306594944E+03  0.47834100859E+03  0.47000000000E+01 0.  1.
<mgrwt>
<rscale>  0 0.27525132E+03</rscale>
<asrwt>0</asrwt>
<pdfrwt beam="1">  1        2 0.11955314E+00 0.27525132E+03</pdfrwt>
<pdfrwt beam="2">  1       -2 0.37498259E-02 0.27525132E+03</pdfrwt>
<totfact> 0.11116155E+04</totfact>
</mgrwt>
</event>
<event>
 9    1  0.2117506E-002  0.2748569E+03  0.7818608E-02  0.1098532E+00
          1   -1    0    0  501    0  0.00000000000E+00  0.00000000000E+00  0.79035461356E+02  0.79035461356E+02  0.00000000000E+00 0. -1.
         -1   -1    0    0    0  501 -0.00000000000E+00 -0.00000000000E+00 -0.23896327855E+03  0.23896327855E+03  0.00000000000E+00 0. -1.
         36    2    1    2    0    0 -0.71054273576E-14  0.35527136788E-14 -0.15992781719E+03  0.31799873990E+03  0.27485685705E+03 0.  0.
         25    2    3    3    0    0  0.24660104538E+02 -0.11355092685E+02 -0.13801677118E+03  0.18911208535E+03  0.12640289876E+03 0.  0.
         25    2    3    3    0    0 -0.24660104538E+02  0.11355092685E+02 -0.21911046014E+02  0.12888665455E+03  0.12407504543E+03 0.  0.
          5    1    4    4  502    0  0.11674545134E+02 -0.64266860015E+02 -0.39617521385E+02  0.76538632735E+02  0.47000000000E+01 0. -1.
         -5    1    4    4    0  502  0.12985559404E+02  0.52911767330E+02 -0.98399249791E+02  0.11257345262E+03  0.47000000000E+01 0. -1.
          5    1    5    5  503    0  0.73856393340E+01  0.35716694697E+02 -0.61869192101E+02  0.71973028836E+02  0.47000000000E+01 0.  1.
         -5    1    5    5    0  503 -0.32045743872E+02 -0.24361602013E+02  0.39958146088E+02  0.56913625712E+02  0.47000000000E+01 0.  1.
<mgrwt>
<rscale>  0 0.27485686E+03</rscale>
<asrwt>0</asrwt>
<pdfrwt beam="1">  1        1 0.12159302E-01 0.27485686E+03</pdfrwt>
<pdfrwt beam="2">  1       -1 0.36763581E-01 0.27485686E+03</pdfrwt>
<totfact> 0.35187209E+03</totfact>
</mgrwt>
</event>
<event>
 9    1  0.2117506E-002  0.2758909E+03  0.7818608E-02  0.1097955E+00
         -2   -1    0    0    0  501 -0.00000000000E+00  0.00000000000E+00  0.69243597919E+02  0.69243597919E+02  0.00000000000E+00 0.  1.
          2   -1    0    0  501    0  0.00000000000E+00 -0.00000000000E+00 -0.27481166116E+03  0.27481166116E+03  0.00000000000E+00 0.  1.
         36    2    1    2    0    0 -0.71054273576E-14  0.17763568394E-14 -0.20556806324E+03  0.34405525908E+03  0.27589090720E+03 0.  0.
         25    2    3    3    0    0 -0.26392590831E+02  0.15206724596E+02 -0.15817525787E+03  0.20463489288E+03  0.12620702777E+03 0.  0.
         25    2    3    3    0    0  0.26392590831E+02 -0.15206724596E+02 -0.47392805371E+02  0.13942036620E+03  0.12753096560E+03 0.  0.
          5    1    4    4  502    0  0.37007115380E+02 -0.12094224839E+02 -0.11862835975E+03  0.12494228508E+03  0.47000000000E+01 0. -1.
         -5    1    4    4    0  502 -0.63399706211E+02  0.27300949436E+02 -0.39546898118E+02  0.79692607804E+02  0.47000000000E+01 0. -1.
          5    1    5    5  503    0 -0.47743884009E+02  0.15519940492E+02 -0.22929086107E+02  0.55391154554E+02  0.47000000000E+01 0. -1.
         -5    1    5    5    0  503  0.74136474840E+02 -0.30726665088E+02 -0.24463719264E+02  0.84029211643E+02  0.47000000000E+01 0. -1.
<mgrwt>
<rscale>  0 0.27589091E+03</rscale>
<asrwt>0</asrwt>
<pdfrwt beam="1">  1        2 0.42278718E-01 0.27589091E+03</pdfrwt>
<pdfrwt beam="2">  1       -2 0.10652861E-01 0.27589091E+03</pdfrwt>
<totfact> 0.71582423E+03</totfact>
</mgrwt>
</event>
<event>
 9    1  0.2117506E-002  0.2744789E+03  0.7818608E-02  0.1098743E+00
         -2   -1    0    0    0  501 -0.00000000000E+00  0.00000000000E+00  0.16418258197E+02  0.16418258197E+02  0.00000000000E+00 0.  1.
          2   -1    0    0  501    0  0.00000000000E+00 -0.00000000000E+00 -0.11471781746E+04  0.11471781746E+04  0.00000000000E+00 0.  1.
         36    2    1    2    0    0  0.17763568394E-14  0.00000000000E+00 -0.11307599164E+04  0.11635964328E+04  0.27447890606E+03 0.  0.
         25    2    3    3    0    0 -0.68003454710E+01 -0.50254519485E+00 -0.33780354746E+03  0.36105594160E+03  0.12729359386E+03 0.  0.
         25    2    3    3    0    0  0.68003454710E+01  0.50254519485E+00 -0.79295636894E+03  0.80254049119E+03  0.12347040013E+03 0.  0.
          5    1    4    4  502    0 -0.96310063545E+01  0.43703460230E+02 -0.40833416465E+02  0.60763530342E+02  0.47000000000E+01 0. -1.
         -5    1    4    4    0  502  0.28306608835E+01 -0.44206005425E+02 -0.29697013099E+03  0.30029241126E+03  0.47000000000E+01 0. -1.
          5    1    5    5  503    0 -0.19056548378E+02  0.39162627404E+02 -0.66276208037E+03  0.66420819672E+03  0.47000000000E+01 0. -1.
         -5    1    5    5    0  503  0.25856893849E+02 -0.38660082209E+02 -0.13019428857E+03  0.13833229447E+03  0.47000000000E+01 0. -1.
<mgrwt>
<rscale>  0 0.27447891E+03</rscale>
<asrwt>0</asrwt>
<pdfrwt beam="1">  1        2 0.17648897E+00 0.27447891E+03</pdfrwt>
<pdfrwt beam="2">  1       -2 0.25258856E-02 0.27447891E+03</pdfrwt>
<totfact> 0.11710891E+04</totfact>
</mgrwt>
</event>
<event>
 9    1  0.2117506E-002  0.2756384E+03  0.7818608E-02  0.1098095E+00
         -2   -1    0    0    0  501 -0.00000000000E+00  0.00000000000E+00  0.16092538427E+02  0.16092538427E+02  0.00000000000E+00 0. -1.
          2   -1    0    0  501    0  0.00000000000E+00 -0.00000000000E+00 -0.11803063578E+04  0.11803063578E+04  0.00000000000E+00 0. -1.
         36    2    1    2    0    0  0.71054273576E-14 -0.71054273576E-14 -0.11642138193E+04  0.11963988962E+04  0.27563835305E+03 0.  0.
         25    2    3    3    0    0  0.37436178935E+02 -0.28740043835E+02 -0.46575251264E+03  0.48465280832E+03  0.12544115738E+03 0.  0.
         25    2    3    3    0    0 -0.37436178935E+02  0.28740043835E+02 -0.69846130669E+03  0.71174608787E+03  0.12847894395E+03 0.  0.
          5    1    4    4  502    0 -0.44261459717E+02  0.43356858157E+01 -0.18630788652E+03  0.19160008760E+03  0.47000000000E+01 0.  1.
         -5    1    4    4    0  502  0.81697638651E+02 -0.33075729651E+02 -0.27944462612E+03  0.29305272072E+03  0.47000000000E+01 0.  1.
          5    1    5    5  503    0  0.15342326396E+02  0.68466020872E+02 -0.38421448631E+03  0.39059677992E+03  0.47000000000E+01 0.  1.
         -5    1    5    5    0  503 -0.52778505331E+02 -0.39725977038E+02 -0.31424682038E+03  0.32114930795E+03  0.47000000000E+01 0.  1.
<mgrwt>
<rscale>  0 0.27563835E+03</rscale>
<asrwt>0</asrwt>
<pdfrwt beam="1">  1        2 0.18158561E+00 0.27563835E+03</pdfrwt>
<pdfrwt beam="2">  1       -2 0.24757749E-02 0.27563835E+03</pdfrwt>
<totfact> 0.11547426E+04</totfact>
</mgrwt>
</event>
<event>
 9    1  0.2117506E-002  0.2749405E+03  0.7818608E-02  0.1098485E+00
          4   -1    0    0  501    0  0.00000000000E+00  0.00000000000E+00  0.56518668256E+02  0.56518668256E+02  0.00000000000E+00 0.  1.
         -4   -1    0    0    0  501 -0.00000000000E+00 -0.00000000000E+00 -0.33436868715E+03  0.33436868715E+03  0.00000000000E+00 0.  1.
         36    2    1    2    0    0  0.00000000000E+00 -0.35527136788E-14 -0.27785001889E+03  0.39088735540E+03  0.27494052378E+03 0.  0.
         25    2    3    3    0    0 -0.64619575020E+02 -0.20357706341E+02 -0.18251716138E+03  0.23054249139E+03  0.12347955481E+03 0.  0.
         25    2    3    3    0    0  0.64619575020E+02  0.20357706341E+02 -0.95332857513E+02  0.16034486401E+03  0.10969045542E+03 0.  0.
          5    1    4    4  502    0  0.48176038467E+01  0.25998006457E+02 -0.12784464983E+03  0.13063479681E+03  0.47000000000E+01 0.  1.
         -5    1    4    4    0  502 -0.69437178866E+02 -0.46355712797E+02 -0.54672511547E+02  0.99907694582E+02  0.47000000000E+01 0.  1.
          5    1    5    5  503    0  0.29338712700E+02 -0.19592232043E+02  0.14296943083E+02  0.38355028365E+02  0.47000000000E+01 0.  1.
         -5    1    5    5    0  503  0.35280862320E+02  0.39949938384E+02 -0.10962980060E+03  0.12198983565E+03  0.47000000000E+01 0.  1.
<mgrwt>
<rscale>  0 0.27494052E+03</rscale>
<asrwt>0</asrwt>
<pdfrwt beam="1">  1        4 0.86951795E-02 0.27494052E+03</pdfrwt>
<pdfrwt beam="2">  1       -4 0.51441338E-01 0.27494052E+03</pdfrwt>
<totfact> 0.65871390E+02</totfact>
</mgrwt>
</event>
<event>
 9    1  0.2117506E-002  0.2731058E+03  0.7818608E-02  0.1099515E+00
         -2   -1    0    0    0  501 -0.00000000000E+00  0.00000000000E+00  0.11462268311E+02  0.11462268311E+02  0.00000000000E+00 0.  1.
          2   -1    0    0  501    0  0.00000000000E+00 -0.00000000000E+00 -0.16267894061E+04  0.16267894061E+04  0.00000000000E+00 0.  1.
         36    2    1    2    0    0 -0.35527136788E-14  0.00000000000E+00 -0.16153271378E+04  0.16382516744E+04  0.27310581582E+03 0.  0.
         25    2    3    3    0    0 -0.17496761841E+02 -0.35806232567E+02 -0.10269524094E+04  0.10354179533E+04  0.12597961650E+03 0.  0.
         25    2    3    3    0    0  0.17496761841E+02  0.35806232567E+02 -0.58837472834E+03  0.60283372111E+03  0.12504179860E+03 0.  0.
          5    1    4    4  502    0 -0.63078488667E+02  0.38154767308E+01 -0.34429039779E+03  0.35007345173E+03  0.47000000000E+01 0.  1.
         -5    1    4    4    0  502  0.45581726826E+02 -0.39621709298E+02 -0.68266201163E+03  0.68534450154E+03  0.47000000000E+01 0.  1.
          5    1    5    5  503    0 -0.22816126494E+02  0.37638068854E+02 -0.52923936615E+03  0.53108718355E+03  0.47000000000E+01 0. -1.
         -5    1    5    5    0  503  0.40312888336E+02 -0.18318362868E+01 -0.59135362192E+02  0.71746537559E+02  0.47000000000E+01 0. -1.
<mgrwt>
<rscale>  0 0.27310582E+03</rscale>
<asrwt>0</asrwt>
<pdfrwt beam="1">  1        2 0.25027526E+00 0.27310582E+03</pdfrwt>
<pdfrwt beam="2">  1       -2 0.17634261E-02 0.27310582E+03</pdfrwt>
<totfact> 0.10864893E+04</totfact>
</mgrwt>
</event>
<event>
 9    1  0.2117506E-002  0.2746837E+03  0.7818608E-02  0.1098629E+00
          2   -1    0    0  501    0  0.00000000000E+00  0.00000000000E+00  0.41190193428E+03  0.41190193428E+03  0.00000000000E+00 0.  1.
         -2   -1    0    0    0  501 -0.00000000000E+00 -0.00000000000E+00 -0.45794364989E+02  0.45794364989E+02  0.00000000000E+00 0.  1.
         36    2    1    2    0    0 -0.53290705182E-14  0.14210854715E-13  0.36610756929E+03  0.45769629927E+03  0.27468372735E+03 0.  0.
         25    2    3    3    0    0 -0.14445343351E+02  0.49386729639E+02  0.15539269747E+03  0.20531295167E+03  0.12393062854E+03 0.  0.
         25    2    3    3    0    0  0.14445343351E+02 -0.49386729639E+02  0.21071487183E+03  0.25238334760E+03  0.12903053873E+03 0.  0.
          5    1    4    4  502    0 -0.21427147391E+02 -0.38073406058E+02  0.34515089359E+02  0.55875650221E+02  0.47000000000E+01 0.  1.
         -5    1    4    4    0  502  0.69818040407E+01  0.87460135697E+02  0.12087760811E+03  0.14943730145E+03  0.47000000000E+01 0.  1.
          5    1    5    5  503    0 -0.69490488589E+01  0.39901702458E+02  0.33621643455E+02  0.52848273839E+02  0.47000000000E+01 0. -1.
         -5    1    5    5    0  503  0.21394392209E+02 -0.89288432098E+02  0.17709322837E+03  0.19953507376E+03  0.47000000000E+01 0. -1.
<mgrwt>
<rscale>  0 0.27468373E+03</rscale>
<asrwt>0</asrwt>
<pdfrwt beam="1">  1        2 0.63369526E-01 0.27468373E+03</pdfrwt>
<pdfrwt beam="2">  1       -2 0.70452872E-02 0.27468373E+03</pdfrwt>
<totfact> 0.88581627E+03</totfact>
</mgrwt>
</event>
<event>
 9    1  0.2117506E-002  0.2751757E+03  0.7818608E-02  0.1098353E+00
         -1   -1    0    0    0  501 -0.00000000000E+00  0.00000000000E+00  0.14300443581E+04  0.14300443581E+04  0.00000000000E+00 0.  1.
          1   -1    0    0  501    0  0.00000000000E+00 -0.00000000000E+00 -0.13237641154E+02  0.13237641154E+02  0.00000000000E+00 0.  1.
         36    2    1    2    0    0 -0.35527136788E-14  0.00000000000E+00  0.14168067169E+04  0.14432819993E+04  0.27517568241E+03 0.  0.
         25    2    3    3    0    0 -0.13305230309E+01 -0.59987205068E+02  0.54891105483E+03  0.56451560192E+03  0.11736389408E+03 0.  0.
         25    2    3    3    0    0  0.13305230309E+01  0.59987205068E+02  0.86789566211E+03  0.87876639733E+03  0.12404541790E+03 0.  0.
          5    1    4    4  502    0 -0.12190427720E+02 -0.25565258226E+02  0.51154926664E+03  0.51235430236E+03  0.47000000000E+01 0.  1.
         -5    1    4    4    0  502  0.10859904689E+02 -0.34421946843E+02  0.37361788198E+02  0.52161299558E+02  0.47000000000E+01 0.  1.
          5    1    5    5  503    0  0.40560943622E+02  0.30896807614E+02  0.74019945800E+03  0.74196841610E+03  0.47000000000E+01 0. -1.
         -5    1    5    5    0  503 -0.39230420591E+02  0.29090397454E+02  0.12769620411E+03  0.13679798123E+03  0.47000000000E+01 0. -1.
<mgrwt>
<rscale>  0 0.27517568E+03</rscale>
<asrwt>0</asrwt>
<pdfrwt beam="1">  1        1 0.20365613E-02 0.27517568E+03</pdfrwt>
<pdfrwt beam="2">  1       -1 0.22000670E+00 0.27517568E+03</pdfrwt>
<totfact> 0.72697185E+02</totfact>
</mgrwt>
</event>
<event>
 9    1  0.2117506E-002  0.2747927E+03  0.7818608E-02  0.1098568E+00
         -1   -1    0    0    0  501 -0.00000000000E+00  0.00000000000E+00  0.15522873464E+02  0.15522873464E+02  0.00000000000E+00 0. -1.
          1   -1    0    0  501    0  0.00000000000E+00 -0.00000000000E+00 -0.12161252180E+04  0.12161252180E+04  0.00000000000E+00 0. -1.
         36    2    1    2    0    0  0.00000000000E+00 -0.14210854715E-13 -0.12006023446E+04  0.12316480915E+04  0.27479270642E+03 0.  0.
         25    2    3    3    0    0  0.27042738842E+01 -0.58324892694E+02 -0.76653225409E+03  0.77809706866E+03  0.12022581039E+03 0.  0.
         25    2    3    3    0    0 -0.27042738842E+01  0.58324892694E+02 -0.43407009049E+03  0.45355102285E+03  0.11782436364E+03 0.  0.
          5    1    4    4  502    0  0.26820678180E+02 -0.65283943836E+02 -0.73059220320E+03  0.73400844646E+03  0.47000000000E+01 0.  1.
         -5    1    4    4    0  502 -0.24116404296E+02  0.69590511411E+01 -0.35940050892E+02  0.44088622195E+02  0.47000000000E+01 0.  1.
          5    1    5    5  503    0 -0.19280350335E+02 -0.11481243294E+02 -0.12938841475E+02  0.26325927815E+02  0.47000000000E+01 0.  1.
         -5    1    5    5    0  503  0.16576076451E+02  0.69806135989E+02 -0.42113124901E+03  0.42722509503E+03  0.47000000000E+01 0.  1.
<mgrwt>
<rscale>  0 0.27479271E+03</rscale>
<asrwt>0</asrwt>
<pdfrwt beam="1">  1        1 0.18709624E+00 0.27479271E+03</pdfrwt>
<pdfrwt beam="2">  1       -1 0.23881337E-02 0.27479271E+03</pdfrwt>
<totfact> 0.58930020E+03</totfact>
</mgrwt>
</event>
<event>
 9    1  0.2117506E-002  0.2740771E+03  0.7818608E-02  0.1098969E+00
         -2   -1    0    0    0  501 -0.00000000000E+00  0.00000000000E+00  0.11344174881E+03  0.11344174881E+03  0.00000000000E+00 0. -1.
          2   -1    0    0  501    0  0.00000000000E+00 -0.00000000000E+00 -0.16554371039E+03  0.16554371039E+03  0.00000000000E+00 0. -1.
         36    2    1    2    0    0  0.35527136788E-14  0.35527136788E-14 -0.52101961572E+02  0.27898545920E+03  0.27407712792E+03 0.  0.
         25    2    3    3    0    0  0.31635924382E+02 -0.22168723983E+01 -0.74575898015E+02  0.14911251712E+03  0.12516881385E+03 0.  0.
         25    2    3    3    0    0 -0.31635924382E+02  0.22168723983E+01  0.22473936443E+02  0.12987294208E+03  0.12391996220E+03 0.  0.
          5    1    4    4  502    0  0.59779913569E+02 -0.29343408880E+02 -0.22873913544E+01  0.66798172656E+02  0.47000000000E+01 0. -1.
         -5    1    4    4    0  502 -0.28143989186E+02  0.27126536481E+02 -0.72288506661E+02  0.82314344461E+02  0.47000000000E+01 0. -1.
          5    1    5    5  503    0  0.52699827183E+01  0.42351623013E+02  0.52204070947E+02  0.67592808146E+02  0.47000000000E+01 0. -1.
         -5    1    5    5    0  503 -0.36905907100E+02 -0.40134750614E+02 -0.29730134504E+02  0.62280133938E+02  0.47000000000E+01 0. -1.
<mgrwt>
<rscale>  0 0.27407713E+03</rscale>
<asrwt>0</asrwt>
<pdfrwt beam="1">  1        2 0.25468263E-01 0.27407713E+03</pdfrwt>
<pdfrwt beam="2">  1       -2 0.17452577E-01 0.27407713E+03</pdfrwt>
<totfact> 0.55487162E+03</totfact>
</mgrwt>
</event>
<event>
 9    1  0.2117506E-002  0.2748115E+03  0.7818608E-02  0.1098557E+00
          2   -1    0    0  501    0  0.00000000000E+00  0.00000000000E+00  0.82262034789E+03  0.82262034789E+03  0.00000000000E+00 0. -1.
         -2   -1    0    0    0  501 -0.00000000000E+00 -0.00000000000E+00 -0.22951465178E+02  0.22951465178E+02  0.00000000000E+00 0. -1.
         36    2    1    2    0    0  0.00000000000E+00  0.71054273576E-14  0.79966888271E+03  0.84557181306E+03  0.27481151555E+03 0.  0.
         25    2    3    3    0    0 -0.13918146736E+02 -0.24726226151E+02  0.53404242662E+03  0.54891337380E+03  0.12369105640E+03 0.  0.
         25    2    3    3    0    0  0.13918146736E+02  0.24726226151E+02  0.26562645609E+03  0.29665843927E+03  0.12901052030E+03 0.  0.
          5    1    4    4  502    0 -0.13642495951E+02  0.49834575343E+02  0.23805723258E+03  0.24364510785E+03  0.47000000000E+01 0.  1.
         -5    1    4    4    0  502 -0.27565078525E+00 -0.74560801494E+02  0.29598519404E+03  0.30526826595E+03  0.47000000000E+01 0.  1.
          5    1    5    5  503    0  0.30466872423E+02 -0.12627224102E+02  0.60667927357E+01  0.33861085007E+02  0.47000000000E+01 0. -1.
         -5    1    5    5    0  503 -0.16548725686E+02  0.37353450253E+02  0.25955966335E+03  0.26279735426E+03  0.47000000000E+01 0. -1.
<mgrwt>
<rscale>  0 0.27481152E+03</rscale>
<asrwt>0</asrwt>
<pdfrwt beam="1">  1        2 0.12655695E+00 0.27481152E+03</pdfrwt>
<pdfrwt beam="2">  1       -2 0.35309953E-02 0.27481152E+03</pdfrwt>
<totfact> 0.11313424E+04</totfact>
</mgrwt>
</event>
<event>
 9    1  0.2117506E-002  0.2739025E+03  0.7818608E-02  0.1099067E+00
         -1   -1    0    0    0  501 -0.00000000000E+00  0.00000000000E+00  0.17530896439E+02  0.17530896439E+02  0.00000000000E+00 0.  1.
          1   -1    0    0  501    0  0.00000000000E+00 -0.00000000000E+00 -0.10698621876E+04  0.10698621876E+04  0.00000000000E+00 0.  1.
         36    2    1    2    0    0  0.00000000000E+00  0.00000000000E+00 -0.10523312911E+04  0.10873930840E+04  0.27390248786E+03 0.  0.
         25    2    3    3    0    0  0.44236963056E+02  0.17962582233E+02 -0.40832160699E+03  0.42940843850E+03  0.12403833704E+03 0.  0.
         25    2    3    3    0    0 -0.44236963056E+02 -0.17962582233E+02 -0.64400968412E+03  0.65798464549E+03  0.12615766803E+03 0.  0.
          5    1    4    4  502    0  0.85546802106E+02  0.28760807397E+01 -0.22369622229E+03  0.23955921410E+03  0.47000000000E+01 0. -1.
         -5    1    4    4    0  502 -0.41309839050E+02  0.15086501493E+02 -0.18462538470E+03  0.18984922440E+03  0.47000000000E+01 0. -1.
          5    1    5    5  503    0  0.18525544917E+02 -0.13116742239E+02 -0.50249587006E+03  0.50303025174E+03  0.47000000000E+01 0. -1.
         -5    1    5    5    0  503 -0.62762507974E+02 -0.48458399931E+01 -0.14151381406E+03  0.15495439375E+03  0.47000000000E+01 0. -1.
<mgrwt>
<rscale>  0 0.27390249E+03</rscale>
<asrwt>0</asrwt>
<pdfrwt beam="1">  1        1 0.16459417E+00 0.27390249E+03</pdfrwt>
<pdfrwt beam="2">  1       -1 0.26970613E-02 0.27390249E+03</pdfrwt>
<totfact> 0.62623876E+03</totfact>
</mgrwt>
</event>
<event>
 9    1  0.2117506E-002  0.2749457E+03  0.7818608E-02  0.1098482E+00
          2   -1    0    0  501    0  0.00000000000E+00  0.00000000000E+00  0.47001960592E+03  0.47001960592E+03  0.00000000000E+00 0. -1.
         -2   -1    0    0    0  501 -0.00000000000E+00 -0.00000000000E+00 -0.40208498832E+02  0.40208498832E+02  0.00000000000E+00 0. -1.
         36    2    1    2    0    0 -0.71054273576E-14 -0.14210854715E-13  0.42981110709E+03  0.51022810475E+03  0.27494568755E+03 0.  0.
         25    2    3    3    0    0  0.35921499454E+02  0.35350125586E+02  0.16153194742E+03  0.20922501623E+03  0.12305507660E+03 0.  0.
         25    2    3    3    0    0 -0.35921499454E+02 -0.35350125586E+02  0.26827915967E+03  0.30100308853E+03  0.12684307740E+03 0.  0.
          5    1    4    4  502    0  0.60191782328E+02  0.30339147497E+01  0.22731244128E+02  0.64583703503E+02  0.47000000000E+01 0.  1.
         -5    1    4    4    0  502 -0.24270282875E+02  0.32316210837E+02  0.13880070329E+03  0.14464131273E+03  0.47000000000E+01 0.  1.
          5    1    5    5  503    0 -0.43119654475E+02  0.14857657320E+02  0.23663491247E+03  0.24103573673E+03  0.47000000000E+01 0. -1.
         -5    1    5    5    0  503  0.71981550216E+01 -0.50207782906E+02  0.31644247208E+02  0.59967351796E+02  0.47000000000E+01 0. -1.
<mgrwt>
<rscale>  0 0.27494569E+03</rscale>
<asrwt>0</asrwt>
<pdfrwt beam="1">  1        2 0.72310705E-01 0.27494569E+03</pdfrwt>
<pdfrwt beam="2">  1       -2 0.61859232E-02 0.27494569E+03</pdfrwt>
<totfact> 0.93665275E+03</totfact>
</mgrwt>
</event>
<event>
 9    1  0.2117506E-002  0.2751632E+03  0.7818608E-02  0.1098360E+00
          1   -1    0    0  501    0  0.00000000000E+00  0.00000000000E+00  0.19239181202E+03  0.19239181202E+03  0.00000000000E+00 0.  1.
         -1   -1    0    0    0  501 -0.00000000000E+00 -0.00000000000E+00 -0.98386201350E+02  0.98386201350E+02  0.00000000000E+00 0.  1.
         36    2    1    2    0    0  0.00000000000E+00 -0.71054273576E-14  0.94005610674E+02  0.29077801337E+03  0.27516322106E+03 0.  0.
         25    2    3    3    0    0  0.41224899386E+02 -0.15178424665E+02  0.88732848236E+02  0.15654473103E+03  0.12125534031E+03 0.  0.
         25    2    3    3    0    0 -0.41224899386E+02  0.15178424665E+02  0.52727624373E+01  0.13423328234E+03  0.12673158707E+03 0.  0.
          5    1    4    4  502    0 -0.20717225124E+02  0.34959661565E+02  0.58062492151E+02  0.71026222963E+02  0.47000000000E+01 0.  1.
         -5    1    4    4    0  502  0.61942124510E+02 -0.50138086230E+02  0.30670356085E+02  0.85518508067E+02  0.47000000000E+01 0.  1.
          5    1    5    5  503    0 -0.72261142824E+01  0.68853381826E+02 -0.55408384284E+01  0.69611750495E+02  0.47000000000E+01 0.  1.
         -5    1    5    5    0  503 -0.33998785104E+02 -0.53674957161E+02  0.10813600866E+02  0.64621531849E+02  0.47000000000E+01 0.  1.
<mgrwt>
<rscale>  0 0.27516322E+03</rscale>
<asrwt>0</asrwt>
<pdfrwt beam="1">  1        1 0.29598740E-01 0.27516322E+03</pdfrwt>
<pdfrwt beam="2">  1       -1 0.15136339E-01 0.27516322E+03</pdfrwt>
<totfact> 0.48484831E+03</totfact>
</mgrwt>
</event>
<event>
 9    1  0.2117506E-002  0.2749705E+03  0.7818608E-02  0.1098468E+00
          1   -1    0    0  501    0  0.00000000000E+00  0.00000000000E+00  0.10113208559E+04  0.10113208559E+04  0.00000000000E+00 0.  1.
         -1   -1    0    0    0  501 -0.00000000000E+00 -0.00000000000E+00 -0.18690597289E+02  0.18690597289E+02  0.00000000000E+00 0.  1.
         36    2    1    2    0    0  0.00000000000E+00  0.00000000000E+00  0.99263025860E+03  0.10300114532E+04  0.27497047731E+03 0.  0.
         25    2    3    3    0    0 -0.40046058866E+02 -0.30594058628E+02  0.39415779548E+03  0.41635280452E+03  0.12429644744E+03 0.  0.
         25    2    3    3    0    0  0.40046058866E+02  0.30594058628E+02  0.59847246313E+03  0.61365864866E+03  0.12596810985E+03 0.  0.
          5    1    4    4  502    0 -0.65871314993E+02 -0.28187802200E+02  0.11248081571E+03  0.13344514316E+03  0.47000000000E+01 0.  1.
         -5    1    4    4    0  502  0.25825256127E+02 -0.24062564280E+01  0.28167697977E+03  0.28290766136E+03  0.47000000000E+01 0.  1.
          5    1    5    5  503    0 -0.34364337335E+01 -0.36037190977E+02  0.67510793899E+02  0.76748195440E+02  0.47000000000E+01 0. -1.
         -5    1    5    5    0  503  0.43482492600E+02  0.66631249606E+02  0.53096166923E+03  0.53691045322E+03  0.47000000000E+01 0. -1.
<mgrwt>
<rscale>  0 0.27497048E+03</rscale>
<asrwt>0</asrwt>
<pdfrwt beam="1">  1        1 0.15558778E+00 0.27497048E+03</pdfrwt>
<pdfrwt beam="2">  1       -1 0.28754773E-02 0.27497048E+03</pdfrwt>
<totfact> 0.62939206E+03</totfact>
</mgrwt>
</event>
<event>
 8    1  0.2117506E-002  0.2579269E+03  0.7818608E-02  0.1108395E+00
         -2   -1    0    0    0  501 -0.00000000000E+00  0.00000000000E+00  0.43836369724E+02  0.43836369724E+02  0.00000000000E+00 0.  1.
          2   -1    0    0  501    0  0.00000000000E+00 -0.00000000000E+00 -0.37940122809E+03  0.37940122809E+03  0.00000000000E+00 0.  1.
         25    2    1    2    0    0 -0.27554700143E+02 -0.17120964282E+02 -0.14669569628E+03  0.19416112689E+03  0.12298994661E+03 0.  0.
         25    2    1    2    0    0  0.27554700143E+02  0.17120964282E+02 -0.18886916208E+03  0.22907647093E+03  0.12550729154E+03 0.  0.
          5    1    3    3  502    0 -0.64599269720E+01 -0.29102775311E+02  0.12786148441E+02  0.32776177008E+02  0.47000000000E+01 0.  1.
         -5    1    3    3    0  502 -0.21094773171E+02  0.11981811029E+02 -0.15948184472E+03  0.16138494988E+03  0.47000000000E+01 0.  1.
          5    1    4    4  503    0 -0.43035123017E+02  0.36088359680E+02 -0.84461066260E+02  0.10153892471E+03  0.47000000000E+01 0.  1.
         -5    1    4    4    0  503  0.70589823161E+02 -0.18967395398E+02 -0.10440809582E+03  0.12753754622E+03  0.47000000000E+01 0.  1.
<mgrwt>
<rscale>  0 0.25792691E+03</rscale>
<asrwt>0</asrwt>
<pdfrwt beam="1">  1        2 0.58369421E-01 0.25792691E+03</pdfrwt>
<pdfrwt beam="2">  1       -2 0.67440568E-02 0.25792691E+03</pdfrwt>
<totfact> 0.10334388E+04</totfact>
</mgrwt>
</event>
<event>
 9    1  0.2117506E-002  0.2762993E+03  0.7818608E-02  0.1097728E+00
         -1   -1    0    0    0  501 -0.00000000000E+00  0.00000000000E+00  0.32336071833E+02  0.32336071833E+02  0.00000000000E+00 0.  1.
          1   -1    0    0  501    0  0.00000000000E+00 -0.00000000000E+00 -0.59021763451E+03  0.59021763451E+03  0.00000000000E+00 0.  1.
         36    2    1    2    0    0  0.71054273576E-14  0.71054273576E-14 -0.55788156268E+03  0.62255370634E+03  0.27629925680E+03 0.  0.
         25    2    3    3    0    0  0.69381507037E+01  0.50181229479E+02 -0.32623788451E+03  0.35274304716E+03  0.12421838149E+03 0.  0.
         25    2    3    3    0    0 -0.69381507037E+01 -0.50181229479E+02 -0.23164367816E+03  0.26981065919E+03  0.12873501641E+03 0.  0.
          5    1    4    4  502    0  0.53503965206E+02  0.59854321761E+02 -0.15069335550E+03  0.17080922551E+03  0.47000000000E+01 0.  1.
         -5    1    4    4    0  502 -0.46565814502E+02 -0.96730922811E+01 -0.17554452901E+03  0.18193382165E+03  0.47000000000E+01 0.  1.
          5    1    5    5  503    0  0.50218893965E+02 -0.47210823717E+02 -0.70356281295E+02  0.98604743825E+02  0.47000000000E+01 0.  1.
         -5    1    5    5    0  503 -0.57157044668E+02 -0.29704057620E+01 -0.16128739687E+03  0.17120591536E+03  0.47000000000E+01 0.  1.
<mgrwt>
<rscale>  0 0.27629926E+03</rscale>
<asrwt>0</asrwt>
<pdfrwt beam="1">  1        1 0.90802717E-01 0.27629926E+03</pdfrwt>
<pdfrwt beam="2">  1       -1 0.49747801E-02 0.27629926E+03</pdfrwt>
<totfact> 0.63595795E+03</totfact>
</mgrwt>
</event>
<event>
 9    1  0.2117506E-002  0.2749494E+03  0.7818608E-02  0.1098480E+00
         -2   -1    0    0    0  501 -0.00000000000E+00  0.00000000000E+00  0.71974586754E+01  0.71974586754E+01  0.00000000000E+00 0.  1.
          2   -1    0    0  501    0  0.00000000000E+00 -0.00000000000E+00 -0.26258287392E+04  0.26258287392E+04  0.00000000000E+00 0.  1.
         36    2    1    2    0    0  0.71054273576E-14  0.00000000000E+00 -0.26186312805E+04  0.26330261979E+04  0.27494940508E+03 0.  0.
         25    2    3    3    0    0 -0.22874872311E+02  0.45177566424E+02 -0.10596481967E+04  0.10683059515E+04  0.12593265245E+03 0.  0.
         25    2    3    3    0    0  0.22874872311E+02 -0.45177566424E+02 -0.15589830839E+04  0.15647202464E+04  0.12392304656E+03 0.  0.
          5    1    4    4  502    0  0.27353943840E+02 -0.13401376261E+02 -0.68861719811E+03  0.68930658684E+03  0.47000000000E+01 0. -1.
         -5    1    4    4    0  502 -0.50228816151E+02  0.58578942685E+02 -0.37103099855E+03  0.37899936462E+03  0.47000000000E+01 0. -1.
          5    1    5    5  503    0 -0.39631187602E+02  0.14606106865E+02 -0.72673477976E+03  0.72797630422E+03  0.47000000000E+01 0.  1.
         -5    1    5    5    0  503  0.62506059913E+02 -0.59783673289E+02 -0.83224830413E+03  0.83674394222E+03  0.47000000000E+01 0.  1.
<mgrwt>
<rscale>  0 0.27494941E+03</rscale>
<asrwt>0</asrwt>
<pdfrwt beam="1">  1        2 0.40397447E+00 0.27494941E+03</pdfrwt>
<pdfrwt beam="2">  1       -2 0.11072991E-02 0.27494941E+03</pdfrwt>
<totfact> 0.62811610E+03</totfact>
</mgrwt>
</event>
<event>
 9    1  0.2117506E-002  0.2752516E+03  0.7818608E-02  0.1098311E+00
          1   -1    0    0  501    0  0.00000000000E+00  0.00000000000E+00  0.57093519370E+02  0.57093519370E+02  0.00000000000E+00 0.  1.
         -1   -1    0    0    0  501 -0.00000000000E+00 -0.00000000000E+00 -0.33175161642E+03  0.33175161642E+03  0.00000000000E+00 0.  1.
         36    2    1    2    0    0  0.00000000000E+00  0.00000000000E+00 -0.27465809705E+03  0.38884513579E+03  0.27525164732E+03 0.  0.
         25    2    3    3    0    0  0.17999838030E+02 -0.76878295383E+01 -0.19044475471E+03  0.23058712263E+03  0.12852283702E+03 0.  0.
         25    2    3    3    0    0 -0.17999838030E+02  0.76878295383E+01 -0.84213342340E+02  0.15825801315E+03  0.13255419573E+03 0.  0.
          5    1    4    4  502    0  0.34578576143E+02 -0.35911834040E+02 -0.19105978129E+03  0.19751270283E+03  0.47000000000E+01 0. -1.
         -5    1    4    4    0  502 -0.16578738113E+02  0.28224004501E+02  0.61502658607E+00  0.33074419802E+02  0.47000000000E+01 0. -1.
          5    1    5    5  503    0  0.79411844820E+01 -0.26059622698E+01  0.34711692182E+02  0.36011734539E+02  0.47000000000E+01 0. -1.
         -5    1    5    5    0  503 -0.25941022512E+02  0.10293791808E+02 -0.11892503452E+03  0.12224627861E+03  0.47000000000E+01 0. -1.
<mgrwt>
<rscale>  0 0.27525165E+03</rscale>
<asrwt>0</asrwt>
<pdfrwt beam="1">  1        1 0.87836185E-02 0.27525165E+03</pdfrwt>
<pdfrwt beam="2">  1       -1 0.51038710E-01 0.27525165E+03</pdfrwt>
<totfact> 0.30146505E+03</totfact>
</mgrwt>
</event>
<event>
 9    1  0.2117506E-002  0.2751743E+03  0.7818608E-02  0.1098354E+00
         -2   -1    0    0    0  501 -0.00000000000E+00  0.00000000000E+00  0.69095991716E+01  0.69095991716E+01  0.00000000000E+00 0. -1.
          2   -1    0    0  501    0  0.00000000000E+00 -0.00000000000E+00 -0.27396990962E+04  0.27396990962E+04  0.00000000000E+00 0. -1.
         36    2    1    2    0    0  0.00000000000E+00  0.00000000000E+00 -0.27327894971E+04  0.27466086954E+04  0.27517429099E+03 0.  0.
         25    2    3    3    0    0 -0.11423178088E+02  0.45981026724E+02 -0.14751266669E+04  0.14812991181E+04  0.12650553407E+03 0.  0.
         25    2    3    3    0    0  0.11423178088E+02 -0.45981026724E+02 -0.12576628302E+04  0.12653095773E+04  0.13056717874E+03 0.  0.
          5    1    4    4  502    0 -0.59163163613E+02  0.46812625190E+02 -0.58251099043E+03  0.58739496575E+03  0.47000000000E+01 0.  1.
         -5    1    4    4    0  502  0.47739985525E+02 -0.83159846638E+00 -0.89261567648E+03  0.89390415239E+03  0.47000000000E+01 0.  1.
          5    1    5    5  503    0 -0.57634761750E+02 -0.31141009502E+02 -0.72380395400E+03  0.72677767031E+03  0.47000000000E+01 0.  1.
         -5    1    5    5    0  503  0.69057939839E+02 -0.14840017222E+02 -0.53385887616E+03  0.53853190696E+03  0.47000000000E+01 0.  1.
<mgrwt>
<rscale>  0 0.27517429E+03</rscale>
<asrwt>0</asrwt>
<pdfrwt beam="1">  1        2 0.42149261E+00 0.27517429E+03</pdfrwt>
<pdfrwt beam="2">  1       -2 0.10630141E-02 0.27517429E+03</pdfrwt>
<totfact> 0.57522634E+03</totfact>
</mgrwt>
</event>
<event>
 9    1  0.2117506E-002  0.2759520E+03  0.7818608E-02  0.1097921E+00
          2   -1    0    0  501    0  0.00000000000E+00  0.00000000000E+00  0.61651763154E+03  0.61651763154E+03  0.00000000000E+00 0. -1.
         -2   -1    0    0    0  501 -0.00000000000E+00 -0.00000000000E+00 -0.30878875187E+02  0.30878875187E+02  0.00000000000E+00 0. -1.
         36    2    1    2    0    0  0.00000000000E+00 -0.71054273576E-14  0.58563875635E+03  0.64739650672E+03  0.27595195955E+03 0.  0.
         25    2    3    3    0    0 -0.16331755279E+02 -0.42011688982E+02  0.21999841225E+03  0.25874506222E+03  0.12852236222E+03 0.  0.
         25    2    3    3    0    0  0.16331755279E+02  0.42011688982E+02  0.36564034410E+03  0.38865144450E+03  0.12379570202E+03 0.  0.
          5    1    4    4  502    0 -0.12910960593E+02 -0.78771716757E+02  0.77091246116E+02  0.11107126763E+03  0.47000000000E+01 0.  1.
         -5    1    4    4    0  502 -0.34207946870E+01  0.36760027776E+02  0.14290716613E+03  0.14767379459E+03  0.47000000000E+01 0.  1.
          5    1    5    5  503    0  0.53393558376E+02  0.41046567428E+02  0.10163476842E+03  0.12201397021E+03  0.47000000000E+01 0. -1.
         -5    1    5    5    0  503 -0.37061803096E+02  0.96512155313E+00  0.26400557568E+03  0.26663747430E+03  0.47000000000E+01 0. -1.
<mgrwt>
<rscale>  0 0.27595196E+03</rscale>
<asrwt>0</asrwt>
<pdfrwt beam="1">  1        2 0.94848857E-01 0.27595196E+03</pdfrwt>
<pdfrwt beam="2">  1       -2 0.47505966E-02 0.27595196E+03</pdfrwt>
<totfact> 0.10299275E+04</totfact>
</mgrwt>
</event>
<event>
 9    1  0.2117506E-002  0.2753436E+03  0.7818608E-02  0.1098260E+00
         -2   -1    0    0    0  501 -0.00000000000E+00  0.00000000000E+00  0.55820839464E+02  0.55820839464E+02  0.00000000000E+00 0. -1.
          2   -1    0    0  501    0  0.00000000000E+00 -0.00000000000E+00 -0.33954212851E+03  0.33954212851E+03  0.00000000000E+00 0. -1.
         36    2    1    2    0    0 -0.71054273576E-14  0.71054273576E-14 -0.28372128904E+03  0.39536296797E+03  0.27534361548E+03 0.  0.
         25    2    3    3    0    0 -0.47351206930E+02  0.36381009884E+02 -0.14381109834E+03  0.20000800572E+03  0.12552233135E+03 0.  0.
         25    2    3    3    0    0  0.47351206930E+02 -0.36381009884E+02 -0.13991019071E+03  0.19535496226E+03  0.12256828765E+03 0.  0.
          5    1    4    4  502    0 -0.97814865228E+01 -0.46245480201E+02 -0.58465232492E+02  0.75329909916E+02  0.47000000000E+01 0. -1.
         -5    1    4    4    0  502 -0.37569720407E+02  0.82626490086E+02 -0.85345865845E+02  0.12467809580E+03  0.47000000000E+01 0. -1.
          5    1    5    5  503    0  0.19001762893E+02 -0.60831407242E+02 -0.14386358238E+03  0.15741774816E+03  0.47000000000E+01 0.  1.
         -5    1    5    5    0  503  0.28349444037E+02  0.24450397358E+02  0.39533916686E+01  0.37937214102E+02  0.47000000000E+01 0.  1.
<mgrwt>
<rscale>  0 0.27534362E+03</rscale>
<asrwt>0</asrwt>
<pdfrwt beam="1">  1        2 0.52237250E-01 0.27534362E+03</pdfrwt>
<pdfrwt beam="2">  1       -2 0.85878215E-02 0.27534362E+03</pdfrwt>
<totfact> 0.80195752E+03</totfact>
</mgrwt>
</event>
<event>
 9    1  0.2117506E-002  0.2782093E+03  0.7818608E-02  0.1096671E+00
          2   -1    0    0  501    0  0.00000000000E+00  0.00000000000E+00  0.79168151255E+02  0.79168151255E+02  0.00000000000E+00 0. -1.
         -2   -1    0    0    0  501 -0.00000000000E+00 -0.00000000000E+00 -0.24441781645E+03  0.24441781645E+03  0.00000000000E+00 0. -1.
         36    2    1    2    0    0  0.71054273576E-14  0.00000000000E+00 -0.16524966520E+03  0.32358596771E+03  0.27820932164E+03 0.  0.
         25    2    3    3    0    0  0.13905745675E+02 -0.34681874583E+02 -0.22195510129E+02  0.13074971492E+03  0.12331522654E+03 0.  0.
         25    2    3    3    0    0 -0.13905745675E+02  0.34681874583E+02 -0.14305415507E+03  0.19283625278E+03  0.12379469665E+03 0.  0.
          5    1    4    4  502    0 -0.53920609112E+02 -0.24194843561E+02 -0.17411382323E+02  0.61790523353E+02  0.47000000000E+01 0. -1.
         -5    1    4    4    0  502  0.67826354787E+02 -0.10487031022E+02 -0.47841278057E+01  0.68959191571E+02  0.47000000000E+01 0. -1.
          5    1    5    5  503    0 -0.61837186259E+02  0.41574752985E+02 -0.11367598589E+03  0.13600227005E+03  0.47000000000E+01 0.  1.
         -5    1    5    5    0  503  0.47931440584E+02 -0.68928784020E+01 -0.29378169177E+02  0.56833982733E+02  0.47000000000E+01 0.  1.
<mgrwt>
<rscale>  0 0.27820932E+03</rscale>
<asrwt>0</asrwt>
<pdfrwt beam="1">  1        2 0.12179716E-01 0.27820932E+03</pdfrwt>
<pdfrwt beam="2">  1       -2 0.37602741E-01 0.27820932E+03</pdfrwt>
<totfact> 0.33510742E+03</totfact>
</mgrwt>
</event>
<event>
 9    1  0.2117506E-002  0.2762773E+03  0.7818608E-02  0.1097740E+00
         -4   -1    0    0    0  501 -0.00000000000E+00  0.00000000000E+00  0.19655984932E+02  0.19655984932E+02  0.00000000000E+00 0.  1.
          4   -1    0    0  501    0  0.00000000000E+00 -0.00000000000E+00 -0.97081283681E+03  0.97081283681E+03  0.00000000000E+00 0.  1.
         36    2    1    2    0    0  0.00000000000E+00 -0.35527136788E-14 -0.95115685188E+03  0.99046882174E+03  0.27627727009E+03 0.  0.
         25    2    3    3    0    0 -0.14052097935E+02 -0.27604070947E+02 -0.64239040298E+03  0.65516826438E+03  0.12498231320E+03 0.  0.
         25    2    3    3    0    0  0.14052097935E+02  0.27604070947E+02 -0.30876644889E+03  0.33530055736E+03  0.12700510863E+03 0.  0.
          5    1    4    4  502    0 -0.29531146965E+02 -0.37429133445E+02 -0.85900288415E+02  0.98356383734E+02  0.47000000000E+01 0. -1.
         -5    1    4    4    0  502  0.15479049030E+02  0.98250624977E+01 -0.55649011457E+03  0.55681188064E+03  0.47000000000E+01 0. -1.
          5    1    5    5  503    0 -0.78825013936E+01 -0.20388457098E+02 -0.26674857253E+03  0.26768398151E+03  0.47000000000E+01 0. -1.
         -5    1    5    5    0  503  0.21934599329E+02  0.47992528045E+02 -0.42017876361E+02  0.67616575851E+02  0.47000000000E+01 0. -1.
<mgrwt>
<rscale>  0 0.27627727E+03</rscale>
<asrwt>0</asrwt>
<pdfrwt beam="1">  1        4 0.14935585E+00 0.27627727E+03</pdfrwt>
<pdfrwt beam="2">  1       -4 0.30239970E-02 0.27627727E+03</pdfrwt>
<totfact> 0.31900683E+02</totfact>
</mgrwt>
</event>
<event>
 9    1  0.2117506E-002  0.2754084E+03  0.7818608E-02  0.1098224E+00
          1   -1    0    0  501    0  0.00000000000E+00  0.00000000000E+00  0.24042306549E+03  0.24042306549E+03  0.00000000000E+00 0.  1.
         -1   -1    0    0    0  501 -0.00000000000E+00 -0.00000000000E+00 -0.78871169720E+02  0.78871169720E+02  0.00000000000E+00 0.  1.
         36    2    1    2    0    0  0.35527136788E-14 -0.35527136788E-14  0.16155189577E+03  0.31929423521E+03  0.27540841239E+03 0.  0.
         25    2    3    3    0    0  0.81901000868E+01  0.27629009980E+02  0.36688452758E+02  0.13992955088E+03  0.13192345020E+03 0.  0.
         25    2    3    3    0    0 -0.81901000868E+01 -0.27629009980E+02  0.12486344302E+03  0.17936468434E+03  0.12550048069E+03 0.  0.
          5    1    4    4  502    0  0.43989110716E+02 -0.72715887171E+01  0.67486266052E+02  0.81021009434E+02  0.47000000000E+01 0.  1.
         -5    1    4    4    0  502 -0.35799010629E+02  0.34900598697E+02 -0.30797813295E+02  0.58908541445E+02  0.47000000000E+01 0.  1.
          5    1    5    5  503    0  0.54037769984E+01 -0.76907070201E+02  0.79773412272E+02  0.11103956753E+03  0.47000000000E+01 0.  1.
         -5    1    5    5    0  503 -0.13593877085E+02  0.49278060221E+02  0.45090030745E+02  0.68325116801E+02  0.47000000000E+01 0.  1.
<mgrwt>
<rscale>  0 0.27540841E+03</rscale>
<asrwt>0</asrwt>
<pdfrwt beam="1">  1        1 0.36988163E-01 0.27540841E+03</pdfrwt>
<pdfrwt beam="2">  1       -1 0.12134026E-01 0.27540841E+03</pdfrwt>
<totfact> 0.51887068E+03</totfact>
</mgrwt>
</event>
<event>
 9    1  0.2117506E-002  0.2752171E+03  0.7818608E-02  0.1098330E+00
          2   -1    0    0  501    0  0.00000000000E+00  0.00000000000E+00  0.69440082994E+02  0.69440082994E+02  0.00000000000E+00 0. -1.
         -2   -1    0    0    0  501 -0.00000000000E+00 -0.00000000000E+00 -0.27269721351E+03  0.27269721351E+03  0.00000000000E+00 0. -1.
         36    2    1    2    0    0  0.00000000000E+00  0.71054273576E-14 -0.20325713051E+03  0.34213729650E+03  0.27521712983E+03 0.  0.
         25    2    3    3    0    0  0.64894778106E+02 -0.96804208092E+01 -0.92192404392E+02  0.16271917942E+03  0.11693181411E+03 0.  0.
         25    2    3    3    0    0 -0.64894778106E+02  0.96804208092E+01 -0.11106472612E+03  0.17941811708E+03  0.12470142170E+03 0.  0.
          5    1    4    4  502    0 -0.15446478234E+02  0.36898242022E+02 -0.19823069457E+02  0.44890066126E+02  0.47000000000E+01 0. -1.
         -5    1    4    4    0  502  0.80341256339E+02 -0.46578662831E+02 -0.72369334936E+02  0.11782911330E+03  0.47000000000E+01 0. -1.
          5    1    5    5  503    0  0.12874833002E+02  0.26430141048E+02 -0.93075518403E+02  0.97721317053E+02  0.47000000000E+01 0.  1.
         -5    1    5    5    0  503 -0.77769611108E+02 -0.16749720238E+02 -0.17989207718E+02  0.81696800024E+02  0.47000000000E+01 0.  1.
<mgrwt>
<rscale>  0 0.27521713E+03</rscale>
<asrwt>0</asrwt>
<pdfrwt beam="1">  1        2 0.10683090E-01 0.27521713E+03</pdfrwt>
<pdfrwt beam="2">  1       -2 0.41953417E-01 0.27521713E+03</pdfrwt>
<totfact> 0.31919450E+03</totfact>
</mgrwt>
</event>
<event>
 9    1  0.2117506E-002  0.2754666E+03  0.7818608E-02  0.1098191E+00
          2   -1    0    0  501    0  0.00000000000E+00  0.00000000000E+00  0.45078091115E+03  0.45078091115E+03  0.00000000000E+00 0. -1.
         -2   -1    0    0    0  501 -0.00000000000E+00 -0.00000000000E+00 -0.42083553991E+02  0.42083553991E+02  0.00000000000E+00 0. -1.
         36    2    1    2    0    0  0.00000000000E+00  0.71054273576E-14  0.40869735716E+03  0.49286446514E+03  0.27546660641E+03 0.  0.
         25    2    3    3    0    0 -0.33584087495E+02  0.22080616666E+02  0.20614777567E+03  0.24373513101E+03  0.12367078924E+03 0.  0.
         25    2    3    3    0    0  0.33584087495E+02 -0.22080616666E+02  0.20254958149E+03  0.24912933413E+03  0.13936874684E+03 0.  0.
          5    1    4    4  502    0 -0.72112959368E+02  0.30343547023E+01  0.17802614315E+03  0.19215848632E+03  0.47000000000E+01 0. -1.
         -5    1    4    4    0  502  0.38528871873E+02  0.19046261964E+02  0.28121632513E+02  0.51576644693E+02  0.47000000000E+01 0. -1.
          5    1    5    5  503    0  0.21355734455E+02 -0.69677404216E+02  0.18116462211E+03  0.19532976823E+03  0.47000000000E+01 0.  1.
         -5    1    5    5    0  503  0.12228353041E+02  0.47596787550E+02  0.21384959377E+02  0.53799565897E+02  0.47000000000E+01 0.  1.
<mgrwt>
<rscale>  0 0.27546661E+03</rscale>
<asrwt>0</asrwt>
<pdfrwt beam="1">  1        2 0.69350906E-01 0.27546661E+03</pdfrwt>
<pdfrwt beam="2">  1       -2 0.64743932E-02 0.27546661E+03</pdfrwt>
<totfact> 0.91451503E+03</totfact>
</mgrwt>
</event>
<event>
 9    1  0.2117506E-002  0.2753284E+03  0.7818608E-02  0.1098268E+00
         -1   -1    0    0    0  501 -0.00000000000E+00  0.00000000000E+00  0.18489049518E+03  0.18489049518E+03  0.00000000000E+00 0.  1.
          1   -1    0    0  501    0  0.00000000000E+00 -0.00000000000E+00 -0.10250085379E+03  0.10250085379E+03  0.00000000000E+00 0.  1.
         36    2    1    2    0    0  0.00000000000E+00 -0.14210854715E-13  0.82389641392E+02  0.28739134897E+03  0.27532841200E+03 0.  0.
         25    2    3    3    0    0 -0.42286413549E+02 -0.37893516335E+02  0.76424578599E+02  0.15500771339E+03  0.12232177094E+03 0.  0.
         25    2    3    3    0    0  0.42286413549E+02  0.37893516335E+02  0.59650627935E+01  0.13238363558E+03  0.11943946435E+03 0.  0.
          5    1    4    4  502    0 -0.22716634833E+02 -0.79572212566E+02  0.69584303665E+02  0.10822129101E+03  0.47000000000E+01 0.  1.
         -5    1    4    4    0  502 -0.19569778715E+02  0.41678696231E+02  0.68402749334E+01  0.46786422386E+02  0.47000000000E+01 0.  1.
          5    1    5    5  503    0 -0.17718566737E+02 -0.17171269857E+02  0.37322540715E+02  0.44987355570E+02  0.47000000000E+01 0. -1.
         -5    1    5    5    0  503  0.60004980286E+02  0.55064786192E+02 -0.31357477922E+02  0.87396280007E+02  0.47000000000E+01 0. -1.
<mgrwt>
<rscale>  0 0.27532841E+03</rscale>
<asrwt>0</asrwt>
<pdfrwt beam="1">  1        1 0.15769362E-01 0.27532841E+03</pdfrwt>
<pdfrwt beam="2">  1       -1 0.28444692E-01 0.27532841E+03</pdfrwt>
<totfact> 0.38819235E+03</totfact>
</mgrwt>
</event>
<event>
 9    1  0.2117506E-002  0.2751402E+03  0.7818608E-02  0.1098373E+00
         -1   -1    0    0    0  501 -0.00000000000E+00  0.00000000000E+00  0.14860997798E+04  0.14860997798E+04  0.00000000000E+00 0. -1.
          1   -1    0    0  501    0  0.00000000000E+00 -0.00000000000E+00 -0.12735034511E+02  0.12735034511E+02  0.00000000000E+00 0. -1.
         36    2    1    2    0    0 -0.35527136788E-14  0.14210854715E-13  0.14733647453E+04  0.14988348143E+04  0.27514019686E+03 0.  0.
         25    2    3    3    0    0  0.12195979932E+02 -0.50114328482E+02  0.86182031110E+03  0.87206684755E+03  0.12290707922E+03 0.  0.
         25    2    3    3    0    0 -0.12195979932E+02  0.50114328482E+02  0.61154443416E+03  0.62676796674E+03  0.12724504441E+03 0.  0.
          5    1    4    4  502    0  0.34887863937E+02 -0.73783516118E+02  0.77229675122E+03  0.77661157102E+03  0.47000000000E+01 0.  1.
         -5    1    4    4    0  502 -0.22691884005E+02  0.23669187635E+02  0.89523559883E+02  0.95455276528E+02  0.47000000000E+01 0.  1.
          5    1    5    5  503    0  0.29191105262E+02  0.87771375657E+01  0.49801025931E+03  0.49896439467E+03  0.47000000000E+01 0. -1.
         -5    1    5    5    0  503 -0.41387085194E+02  0.41337190917E+02  0.11353417485E+03  0.12780357207E+03  0.47000000000E+01 0. -1.
<mgrwt>
<rscale>  0 0.27514020E+03</rscale>
<asrwt>0</asrwt>
<pdfrwt beam="1">  1        1 0.19592373E-02 0.27514020E+03</pdfrwt>
<pdfrwt beam="2">  1       -1 0.22863060E+00 0.27514020E+03</pdfrwt>
<totfact> 0.67568404E+02</totfact>
</mgrwt>
</event>
<event>
 9    1  0.2117506E-002  0.2755271E+03  0.7818608E-02  0.1098157E+00
         -1   -1    0    0    0  501 -0.00000000000E+00  0.00000000000E+00  0.15842053276E+03  0.15842053276E+03  0.00000000000E+00 0. -1.
          1   -1    0    0  501    0  0.00000000000E+00 -0.00000000000E+00 -0.11980009630E+03  0.11980009630E+03  0.00000000000E+00 0. -1.
         36    2    1    2    0    0 -0.71054273576E-14  0.35527136788E-14  0.38620436459E+02  0.27822062907E+03  0.27552709545E+03 0.  0.
         25    2    3    3    0    0  0.48959783486E+02 -0.16959522815E+02 -0.54855549371E+01  0.13686469106E+03  0.12655894489E+03 0.  0.
         25    2    3    3    0    0 -0.48959783486E+02  0.16959522815E+02  0.44105991397E+02  0.14135593801E+03  0.12390107715E+03 0.  0.
          5    1    4    4  502    0  0.57612323113E+02 -0.57621005657E+02 -0.31628160561E+02  0.87531654891E+02  0.47000000000E+01 0.  1.
         -5    1    4    4    0  502 -0.86525396270E+01  0.40661482842E+02  0.26142605624E+02  0.49333036170E+02  0.47000000000E+01 0.  1.
          5    1    5    5  503    0  0.33530423924E+02 -0.16362027256E+02  0.35731191173E+02  0.51873049719E+02  0.47000000000E+01 0. -1.
         -5    1    5    5    0  503 -0.82490207410E+02  0.33321550071E+02  0.83748002236E+01  0.89482888289E+02  0.47000000000E+01 0. -1.
<mgrwt>
<rscale>  0 0.27552710E+03</rscale>
<asrwt>0</asrwt>
<pdfrwt beam="1">  1        1 0.18430784E-01 0.27552710E+03</pdfrwt>
<pdfrwt beam="2">  1       -1 0.24372390E-01 0.27552710E+03</pdfrwt>
<totfact> 0.41038762E+03</totfact>
</mgrwt>
</event>
<event>
 9    1  0.2117506E-002  0.2754577E+03  0.7818608E-02  0.1098196E+00
         -2   -1    0    0    0  501 -0.00000000000E+00  0.00000000000E+00  0.32019012943E+02  0.32019012943E+02  0.00000000000E+00 0.  1.
          2   -1    0    0  501    0  0.00000000000E+00 -0.00000000000E+00 -0.59243663658E+03  0.59243663658E+03  0.00000000000E+00 0.  1.
         36    2    1    2    0    0 -0.71054273576E-14  0.17763568394E-14 -0.56041762364E+03  0.62445564953E+03  0.27545770154E+03 0.  0.
         25    2    3    3    0    0 -0.39743497387E+02  0.50479461074E+00 -0.21476312272E+03  0.25145621980E+03  0.12460831109E+03 0.  0.
         25    2    3    3    0    0  0.39743497387E+02 -0.50479461074E+00 -0.34565450092E+03  0.37299942973E+03  0.13443117260E+03 0.  0.
          5    1    4    4  502    0 -0.77627090003E+02 -0.23634877405E+02 -0.10515414617E+03  0.13290619620E+03  0.47000000000E+01 0. -1.
         -5    1    4    4    0  502  0.37883592616E+02  0.24139672015E+02 -0.10960897655E+03  0.11855002360E+03  0.47000000000E+01 0. -1.
          5    1    5    5  503    0 -0.43809998072E+02  0.14075948646E+02 -0.65048544612E+02  0.79817613453E+02  0.47000000000E+01 0.  1.
         -5    1    5    5    0  503  0.83553495459E+02 -0.14580743256E+02 -0.28060595631E+03  0.29318181627E+03  0.47000000000E+01 0.  1.
<mgrwt>
<rscale>  0 0.27545770E+03</rscale>
<asrwt>0</asrwt>
<pdfrwt beam="1">  1        2 0.91144090E-01 0.27545770E+03</pdfrwt>
<pdfrwt beam="2">  1       -2 0.49260024E-02 0.27545770E+03</pdfrwt>
<totfact> 0.10209926E+04</totfact>
</mgrwt>
</event>
<event>
 9    1  0.2117506E-002  0.2752747E+03  0.7818608E-02  0.1098298E+00
         -4   -1    0    0    0  501 -0.00000000000E+00  0.00000000000E+00  0.16693343530E+03  0.16693343530E+03  0.00000000000E+00 0.  1.
          4   -1    0    0  501    0  0.00000000000E+00 -0.00000000000E+00 -0.11348261019E+03  0.11348261019E+03  0.00000000000E+00 0.  1.
         36    2    1    2    0    0  0.00000000000E+00  0.35527136788E-14  0.53450825112E+02  0.28041604548E+03  0.27527471344E+03 0.  0.
         25    2    3    3    0    0 -0.38954260592E+02  0.16894132966E+02  0.82085426832E+02  0.15138048837E+03  0.11989657549E+03 0.  0.
         25    2    3    3    0    0  0.38954260592E+02 -0.16894132966E+02 -0.28634601720E+02  0.12903555711E+03  0.11843727638E+03 0.  0.
          5    1    4    4  502    0 -0.70612245805E+02  0.31596093121E+02  0.20064266672E+02  0.80056649663E+02  0.47000000000E+01 0.  1.
         -5    1    4    4    0  502  0.31657985212E+02 -0.14701960155E+02  0.62021160159E+02  0.71323838705E+02  0.47000000000E+01 0.  1.
          5    1    5    5  503    0  0.72529160783E+02  0.15845359450E+02 -0.33638527920E+02  0.81640646376E+02  0.47000000000E+01 0. -1.
         -5    1    5    5    0  503 -0.33574900191E+02 -0.32739492417E+02  0.50039261998E+01  0.47394910739E+02  0.47000000000E+01 0. -1.
<mgrwt>
<rscale>  0 0.27527471E+03</rscale>
<asrwt>0</asrwt>
<pdfrwt beam="1">  1        4 0.17458863E-01 0.27527471E+03</pdfrwt>
<pdfrwt beam="2">  1       -4 0.25682067E-01 0.27527471E+03</pdfrwt>
<totfact> 0.76990465E+02</totfact>
</mgrwt>
</event>
<event>
 9    1  0.2117506E-002  0.2734787E+03  0.7818608E-02  0.1099305E+00
         -1   -1    0    0    0  501 -0.00000000000E+00  0.00000000000E+00  0.39718614803E+03  0.39718614803E+03  0.00000000000E+00 0.  1.
          1   -1    0    0  501    0  0.00000000000E+00 -0.00000000000E+00 -0.47075267740E+02  0.47075267740E+02  0.00000000000E+00 0.  1.
         36    2    1    2    0    0  0.00000000000E+00  0.71054273576E-14  0.35011088029E+03  0.44426141577E+03  0.27347865921E+03 0.  0.
         25    2    3    3    0    0 -0.36125194289E+02 -0.21486784290E+01  0.10388651739E+03  0.16645719546E+03  0.12492374851E+03 0.  0.
         25    2    3    3    0    0  0.36125194289E+02  0.21486784290E+01  0.24622436289E+03  0.27780422031E+03  0.12344675556E+03 0.  0.
          5    1    4    4  502    0 -0.19782417559E+02  0.58307908806E+02  0.75500051073E+02  0.97537192833E+02  0.47000000000E+01 0. -1.
         -5    1    4    4    0  502 -0.16342776731E+02 -0.60456587235E+02  0.28386466319E+02  0.68920002622E+02  0.47000000000E+01 0. -1.
          5    1    5    5  503    0  0.26610126770E+02  0.11880790622E+02 -0.16000516235E+01  0.29561836846E+02  0.47000000000E+01 0. -1.
         -5    1    5    5    0  503  0.95150675190E+01 -0.97321121931E+01  0.24782441452E+03  0.24824238347E+03  0.47000000000E+01 0. -1.
<mgrwt>
<rscale>  0 0.27347866E+03</rscale>
<asrwt>0</asrwt>
<pdfrwt beam="1">  1        1 0.72423491E-02 0.27347866E+03</pdfrwt>
<pdfrwt beam="2">  1       -1 0.61105559E-01 0.27347866E+03</pdfrwt>
<totfact> 0.27867529E+03</totfact>
</mgrwt>
</event>
<event>
 9    1  0.2117506E-002  0.2751012E+03  0.7818608E-02  0.1098395E+00
         -2   -1    0    0    0  501 -0.00000000000E+00  0.00000000000E+00  0.14846352002E+02  0.14846352002E+02  0.00000000000E+00 0.  1.
          2   -1    0    0  501    0  0.00000000000E+00 -0.00000000000E+00 -0.12743986430E+04  0.12743986430E+04  0.00000000000E+00 0.  1.
         36    2    1    2    0    0 -0.35527136788E-14 -0.17763568394E-14 -0.12595522909E+04  0.12892449950E+04  0.27510122388E+03 0.  0.
         25    2    3    3    0    0 -0.28480804152E+02  0.60510297152E+01 -0.82890114915E+03  0.83864682222E+03  0.12411126537E+03 0.  0.
         25    2    3    3    0    0  0.28480804152E+02 -0.60510297152E+01 -0.43065114180E+03  0.45059817274E+03  0.12934657387E+03 0.  0.
          5    1    4    4  502    0  0.24330817314E+02 -0.65863954835E+01 -0.67307194738E+03  0.67356017224E+03  0.47000000000E+01 0.  1.
         -5    1    4    4    0  502 -0.52811621467E+02  0.12637425199E+02 -0.15582920177E+03  0.16508664998E+03  0.47000000000E+01 0.  1.
          5    1    5    5  503    0  0.58490568378E+02  0.39773671754E+02 -0.16956748221E+03  0.18378877163E+03  0.47000000000E+01 0.  1.
         -5    1    5    5    0  503 -0.30009764226E+02 -0.45824701469E+02 -0.26108365959E+03  0.26680940111E+03  0.47000000000E+01 0.  1.
<mgrwt>
<rscale>  0 0.27510122E+03</rscale>
<asrwt>0</asrwt>
<pdfrwt beam="1">  1        2 0.19606134E+00 0.27510122E+03</pdfrwt>
<pdfrwt beam="2">  1       -2 0.22840540E-02 0.27510122E+03</pdfrwt>
<totfact> 0.11511185E+04</totfact>
</mgrwt>
</event>
<event>
 9    1  0.2117506E-002  0.2752308E+03  0.7818608E-02  0.1098323E+00
         -1   -1    0    0    0  501 -0.00000000000E+00  0.00000000000E+00  0.26626869924E+02  0.26626869924E+02  0.00000000000E+00 0. -1.
          1   -1    0    0  501    0  0.00000000000E+00 -0.00000000000E+00 -0.71123649161E+03  0.71123649161E+03  0.00000000000E+00 0. -1.
         36    2    1    2    0    0  0.00000000000E+00  0.00000000000E+00 -0.68460962168E+03  0.73786336153E+03  0.27523082347E+03 0.  0.
         25    2    3    3    0    0  0.12689730109E+02 -0.32378524768E+02 -0.28910625766E+03  0.31946130713E+03  0.13139140162E+03 0.  0.
         25    2    3    3    0    0 -0.12689730109E+02  0.32378524768E+02 -0.39550336402E+03  0.41840205440E+03  0.13201503723E+03 0.  0.
          5    1    4    4  502    0  0.34448711988E+02  0.44466057738E+00 -0.27526975953E+03  0.27745709938E+03  0.47000000000E+01 0. -1.
         -5    1    4    4    0  502 -0.21758981880E+02 -0.32823185346E+02 -0.13836498125E+02  0.42004207754E+02  0.47000000000E+01 0. -1.
          5    1    5    5  503    0 -0.16236437206E+02 -0.31837275522E+02 -0.30584707367E+03  0.30796388827E+03  0.47000000000E+01 0.  1.
         -5    1    5    5    0  503  0.35467070974E+01  0.64215800290E+02 -0.89656290354E+02  0.11043816613E+03  0.47000000000E+01 0.  1.
<mgrwt>
<rscale>  0 0.27523082E+03</rscale>
<asrwt>0</asrwt>
<pdfrwt beam="1">  1        1 0.10942099E+00 0.27523082E+03</pdfrwt>
<pdfrwt beam="2">  1       -1 0.40964419E-02 0.27523082E+03</pdfrwt>
<totfact> 0.65176485E+03</totfact>
</mgrwt>
</event>
<event>
 9    1  0.2117506E-002  0.2751077E+03  0.7818608E-02  0.1098391E+00
         -1   -1    0    0    0  501 -0.00000000000E+00  0.00000000000E+00  0.23198294418E+02  0.23198294418E+02  0.00000000000E+00 0.  1.
          1   -1    0    0  501    0  0.00000000000E+00 -0.00000000000E+00 -0.81562324717E+03  0.81562324717E+03  0.00000000000E+00 0.  1.
         36    2    1    2    0    0  0.00000000000E+00  0.35527136788E-14 -0.79242495275E+03  0.83882154159E+03  0.27510774778E+03 0.  0.
         25    2    3    3    0    0  0.32435788829E+02  0.23294279653E+02 -0.25645532473E+03  0.28664454730E+03  0.12165960320E+03 0.  0.
         25    2    3    3    0    0 -0.32435788829E+02 -0.23294279653E+02 -0.53596962802E+03  0.55217699429E+03  0.12665420245E+03 0.  0.
          5    1    4    4  502    0 -0.15369888435E+02  0.40564108914E+02 -0.21906845796E+03  0.22337134927E+03  0.47000000000E+01 0. -1.
         -5    1    4    4    0  502  0.47805677264E+02 -0.17269829261E+02 -0.37386866764E+02  0.63273198021E+02  0.47000000000E+01 0. -1.
          5    1    5    5  503    0  0.61987220967E+01  0.49402773333E+02 -0.18382005481E+03  0.19050186540E+03  0.47000000000E+01 0. -1.
         -5    1    5    5    0  503 -0.38634510925E+02 -0.72697052985E+02 -0.35214957321E+03  0.36167512889E+03  0.47000000000E+01 0. -1.
<mgrwt>
<rscale>  0 0.27510775E+03</rscale>
<asrwt>0</asrwt>
<pdfrwt beam="1">  1        1 0.12548050E+00 0.27510775E+03</pdfrwt>
<pdfrwt beam="2">  1       -1 0.35689683E-02 0.27510775E+03</pdfrwt>
<totfact> 0.65053184E+03</totfact>
</mgrwt>
</event>
<event>
 9    1  0.2117506E-002  0.2751820E+03  0.7818608E-02  0.1098350E+00
          1   -1    0    0  501    0  0.00000000000E+00  0.00000000000E+00  0.29417550707E+04  0.29417550707E+04  0.00000000000E+00 0.  1.
         -1   -1    0    0    0  501 -0.00000000000E+00 -0.00000000000E+00 -0.64353690420E+01  0.64353690420E+01  0.00000000000E+00 0.  1.
         36    2    1    2    0    0  0.00000000000E+00  0.71054273576E-14  0.29353197016E+04  0.29481904397E+04  0.27518197260E+03 0.  0.
         25    2    3    3    0    0 -0.17981967138E+02  0.52257959791E+02  0.92995021171E+03  0.93847766390E+03  0.11348428911E+03 0.  0.
         25    2    3    3    0    0  0.17981967138E+02 -0.52257959791E+02  0.20053694899E+04  0.20097127758E+04  0.11993500184E+03 0.  0.
          5    1    4    4  502    0 -0.26030898210E+02 -0.61669434072E+01  0.53190307761E+02  0.59723845257E+02  0.47000000000E+01 0.  1.
         -5    1    4    4    0  502  0.80489310719E+01  0.58424903199E+02  0.87675990395E+03  0.87875381865E+03  0.47000000000E+01 0.  1.
          5    1    5    5  503    0 -0.18234311708E+02  0.27763666804E+02  0.98107730173E+03  0.98165068802E+03  0.47000000000E+01 0.  1.
         -5    1    5    5    0  503  0.36216278846E+02 -0.80021626595E+02  0.10242921882E+04  0.10280620878E+04  0.47000000000E+01 0.  1.
<mgrwt>
<rscale>  0 0.27518197E+03</rscale>
<asrwt>0</asrwt>
<pdfrwt beam="1">  1        1 0.45257663E+00 0.27518197E+03</pdfrwt>
<pdfrwt beam="2">  1       -1 0.99005913E-03 0.27518197E+03</pdfrwt>
<totfact> 0.15167302E+03</totfact>
</mgrwt>
</event>
<event>
 9    1  0.2117506E-002  0.2761180E+03  0.7818608E-02  0.1097828E+00
         -2   -1    0    0    0  501 -0.00000000000E+00  0.00000000000E+00  0.25461791681E+02  0.25461791681E+02  0.00000000000E+00 0.  1.
          2   -1    0    0  501    0  0.00000000000E+00 -0.00000000000E+00 -0.74858414452E+03  0.74858414452E+03  0.00000000000E+00 0.  1.
         36    2    1    2    0    0 -0.71054273576E-14 -0.71054273576E-14 -0.72312235284E+03  0.77404593621E+03  0.27611804391E+03 0.  0.
         25    2    3    3    0    0 -0.16942354074E+02 -0.18205406130E+02 -0.18802511887E+03  0.22368035438E+03  0.11857898396E+03 0.  0.
         25    2    3    3    0    0  0.16942354074E+02  0.18205406130E+02 -0.53509723398E+03  0.55036558182E+03  0.12631208839E+03 0.  0.
          5    1    4    4  502    0  0.47416468110E+02 -0.22568416380E+02 -0.11252832813E+03  0.12426733077E+03  0.47000000000E+01 0.  1.
         -5    1    4    4    0  502 -0.64358822184E+02  0.43630102496E+01 -0.75496790737E+02  0.99413023608E+02  0.47000000000E+01 0.  1.
          5    1    5    5  503    0 -0.32592961793E+02 -0.40019622332E+02 -0.19715360882E+03  0.20385167844E+03  0.47000000000E+01 0. -1.
         -5    1    5    5    0  503  0.49535315867E+02  0.58225028462E+02 -0.33794362515E+03  0.34651390339E+03  0.47000000000E+01 0. -1.
<mgrwt>
<rscale>  0 0.27611804E+03</rscale>
<asrwt>0</asrwt>
<pdfrwt beam="1">  1        2 0.11516678E+00 0.27611804E+03</pdfrwt>
<pdfrwt beam="2">  1       -2 0.39171991E-02 0.27611804E+03</pdfrwt>
<totfact> 0.10909802E+04</totfact>
</mgrwt>
</event>
<event>
 9    1  0.2117506E-002  0.2754500E+03  0.7818608E-02  0.1098200E+00
          3   -1    0    0  501    0  0.00000000000E+00  0.00000000000E+00  0.18293646752E+03  0.18293646752E+03  0.00000000000E+00 0.  1.
         -3   -1    0    0    0  501 -0.00000000000E+00 -0.00000000000E+00 -0.10368721891E+03  0.10368721891E+03  0.00000000000E+00 0.  1.
         36    2    1    2    0    0  0.71054273576E-14  0.00000000000E+00  0.79249248615E+02  0.28662368643E+03  0.27544998496E+03 0.  0.
         25    2    3    3    0    0 -0.13397503119E+02 -0.39435123085E+02  0.40364930189E+02  0.14949275716E+03  0.13778292649E+03 0.  0.
         25    2    3    3    0    0  0.13397503119E+02  0.39435123085E+02  0.38884318425E+02  0.13713092927E+03  0.12473283256E+03 0.  0.
          5    1    4    4  502    0 -0.66576728667E+02 -0.12151663048E+02  0.55509121088E+02  0.87655440440E+02  0.47000000000E+01 0. -1.
         -5    1    4    4    0  502  0.53179225548E+02 -0.27283460037E+02 -0.15144190898E+02  0.61837316722E+02  0.47000000000E+01 0. -1.
          5    1    5    5  503    0 -0.17119442984E+02 -0.70212047841E+01  0.70482052786E+02  0.73021794073E+02  0.47000000000E+01 0.  1.
         -5    1    5    5    0  503  0.30516946103E+02  0.46456327869E+02 -0.31597734361E+02  0.64109135194E+02  0.47000000000E+01 0.  1.
<mgrwt>
<rscale>  0 0.27544998E+03</rscale>
<asrwt>0</asrwt>
<pdfrwt beam="1">  1        3 0.28144072E-01 0.27544998E+03</pdfrwt>
<pdfrwt beam="2">  1       -3 0.15951880E-01 0.27544998E+03</pdfrwt>
<totfact> 0.10262149E+03</totfact>
</mgrwt>
</event>
<event>
 9    1  0.2117506E-002  0.2748610E+03  0.7818608E-02  0.1098529E+00
         -2   -1    0    0    0  501 -0.00000000000E+00  0.00000000000E+00  0.54766824519E+02  0.54766824519E+02  0.00000000000E+00 0. -1.
          2   -1    0    0  501    0  0.00000000000E+00 -0.00000000000E+00 -0.34486464317E+03  0.34486464317E+03  0.00000000000E+00 0. -1.
         36    2    1    2    0    0  0.00000000000E+00  0.00000000000E+00 -0.29009781865E+03  0.39963146769E+03  0.27486099320E+03 0.  0.
         25    2    3    3    0    0  0.33502018391E+02  0.13863491565E+01 -0.23539347996E+03  0.26872781356E+03  0.12522076574E+03 0.  0.
         25    2    3    3    0    0 -0.33502018391E+02 -0.13863491565E+01 -0.54704338692E+02  0.13090365413E+03  0.11410037157E+03 0.  0.
          5    1    4    4  502    0  0.56951602376E+02  0.25535285907E+02 -0.49627046780E+02  0.79877841806E+02  0.47000000000E+01 0. -1.
         -5    1    4    4    0  502 -0.23449583984E+02 -0.24148936750E+02 -0.18576643318E+03  0.18884997175E+03  0.47000000000E+01 0. -1.
          5    1    5    5  503    0 -0.21230231745E+01  0.34381700879E+02 -0.72083927562E+02  0.80029939370E+02  0.47000000000E+01 0.  1.
         -5    1    5    5    0  503 -0.31378995217E+02 -0.35768050035E+02  0.17379588870E+02  0.50873714760E+02  0.47000000000E+01 0.  1.
<mgrwt>
<rscale>  0 0.27486099E+03</rscale>
<asrwt>0</asrwt>
<pdfrwt beam="1">  1        2 0.53056098E-01 0.27486099E+03</pdfrwt>
<pdfrwt beam="2">  1       -2 0.84256654E-02 0.27486099E+03</pdfrwt>
<totfact> 0.81250831E+03</totfact>
</mgrwt>
</event>
<event>
 9    1  0.2117506E-002  0.2752538E+03  0.7818608E-02  0.1098310E+00
         -4   -1    0    0    0  501 -0.00000000000E+00  0.00000000000E+00  0.34196485262E+02  0.34196485262E+02  0.00000000000E+00 0. -1.
          4   -1    0    0  501    0  0.00000000000E+00 -0.00000000000E+00 -0.55389229161E+03  0.55389229161E+03  0.00000000000E+00 0. -1.
         36    2    1    2    0    0  0.00000000000E+00  0.00000000000E+00 -0.51969580635E+03  0.58808877688E+03  0.27525384347E+03 0.  0.
         25    2    3    3    0    0 -0.33442439204E+02  0.77012578840E+01 -0.27976955726E+03  0.30878222078E+03  0.12608627438E+03 0.  0.
         25    2    3    3    0    0  0.33442439204E+02 -0.77012578840E+01 -0.23992624909E+03  0.27930655609E+03  0.13881585343E+03 0.  0.
          5    1    4    4  502    0 -0.29027242686E+02 -0.43625090999E+02 -0.47692651863E+02  0.71009917789E+02  0.47000000000E+01 0. -1.
         -5    1    4    4    0  502 -0.44151965180E+01  0.51326348883E+02 -0.23207690540E+03  0.23777230299E+03  0.47000000000E+01 0. -1.
          5    1    5    5  503    0 -0.37098933361E+02  0.20650221680E+02 -0.21185806626E+02  0.47683235150E+02  0.47000000000E+01 0.  1.
         -5    1    5    5    0  503  0.70541372565E+02 -0.28351479564E+02 -0.21874044246E+03  0.23162332094E+03  0.47000000000E+01 0.  1.
<mgrwt>
<rscale>  0 0.27525384E+03</rscale>
<asrwt>0</asrwt>
<pdfrwt beam="1">  1        4 0.85214195E-01 0.27525384E+03</pdfrwt>
<pdfrwt beam="2">  1       -4 0.52609980E-02 0.27525384E+03</pdfrwt>
<totfact> 0.50785855E+02</totfact>
</mgrwt>
</event>
<event>
 9    1  0.2117506E-002  0.2746974E+03  0.7818608E-02  0.1098621E+00
          1   -1    0    0  501    0  0.00000000000E+00  0.00000000000E+00  0.12480995172E+03  0.12480995172E+03  0.00000000000E+00 0.  1.
         -1   -1    0    0    0  501 -0.00000000000E+00 -0.00000000000E+00 -0.15114711451E+03  0.15114711451E+03  0.00000000000E+00 0.  1.
         36    2    1    2    0    0  0.35527136788E-14  0.71054273576E-14 -0.26337162789E+02  0.27595706622E+03  0.27469739033E+03 0.  0.
         25    2    3    3    0    0 -0.22212542417E+02  0.12031774724E+02  0.11787453207E+01  0.13585499389E+03  0.13348044531E+03 0.  0.
         25    2    3    3    0    0  0.22212542417E+02 -0.12031774724E+02 -0.27515908110E+02  0.14010207233E+03  0.13503075512E+03 0.  0.
          5    1    4    4  502    0 -0.15444064421E+02 -0.57806426607E+02 -0.18546094844E+02  0.62818386774E+02  0.47000000000E+01 0.  1.
         -5    1    4    4    0  502 -0.67684779956E+01  0.69838201331E+02  0.19724840164E+02  0.73036607116E+02  0.47000000000E+01 0.  1.
          5    1    5    5  503    0  0.54831372793E+02 -0.56823227692E+02 -0.25478210820E+01  0.79145056952E+02  0.47000000000E+01 0. -1.
         -5    1    5    5    0  503 -0.32618830376E+02  0.44791452968E+02 -0.24968087028E+02  0.60957015379E+02  0.47000000000E+01 0. -1.
<mgrwt>
<rscale>  0 0.27469739E+03</rscale>
<asrwt>0</asrwt>
<pdfrwt beam="1">  1        1 0.19201531E-01 0.27469739E+03</pdfrwt>
<pdfrwt beam="2">  1       -1 0.23253402E-01 0.27469739E+03</pdfrwt>
<totfact> 0.42063887E+03</totfact>
</mgrwt>
</event>
<event>
 9    1  0.2117506E-002  0.2753205E+03  0.7818608E-02  0.1098273E+00
          2   -1    0    0  501    0  0.00000000000E+00  0.00000000000E+00  0.10132263247E+03  0.10132263247E+03  0.00000000000E+00 0. -1.
         -2   -1    0    0    0  501 -0.00000000000E+00 -0.00000000000E+00 -0.18702976181E+03  0.18702976181E+03  0.00000000000E+00 0. -1.
         36    2    1    2    0    0  0.00000000000E+00  0.00000000000E+00 -0.85707129342E+02  0.28835239427E+03  0.27532052459E+03 0.  0.
         25    2    3    3    0    0  0.38188052492E+02  0.15996970242E+02 -0.27512648643E+01  0.13066587153E+03  0.12390226033E+03 0.  0.
         25    2    3    3    0    0 -0.38188052492E+02 -0.15996970242E+02 -0.82955864477E+02  0.15768652274E+03  0.12755051389E+03 0.  0.
          5    1    4    4  502    0 -0.38175109313E+02 -0.21084843993E+02 -0.11071852516E+02  0.45239203523E+02  0.47000000000E+01 0.  1.
         -5    1    4    4    0  502  0.76363161805E+02  0.37081814234E+02  0.83205876519E+01  0.85426668006E+02  0.47000000000E+01 0.  1.
          5    1    5    5  503    0  0.13586208012E+02 -0.61396491442E+02 -0.26025816978E+02  0.68216914024E+02  0.47000000000E+01 0.  1.
         -5    1    5    5    0  503 -0.51774260505E+02  0.45399521200E+02 -0.56930047499E+02  0.89469608719E+02  0.47000000000E+01 0.  1.
<mgrwt>
<rscale>  0 0.27532052E+03</rscale>
<asrwt>0</asrwt>
<pdfrwt beam="1">  1        2 0.15588097E-01 0.27532052E+03</pdfrwt>
<pdfrwt beam="2">  1       -2 0.28773809E-01 0.27532052E+03</pdfrwt>
<totfact> 0.40845346E+03</totfact>
</mgrwt>
</event>
<event>
 9    1  0.2117506E-002  0.2738915E+03  0.7818608E-02  0.1099073E+00
          1   -1    0    0  501    0  0.00000000000E+00  0.00000000000E+00  0.66861423045E+03  0.66861423045E+03  0.00000000000E+00 0. -1.
         -1   -1    0    0    0  501 -0.00000000000E+00 -0.00000000000E+00 -0.28049271868E+02  0.28049271868E+02  0.00000000000E+00 0. -1.
         36    2    1    2    0    0  0.00000000000E+00 -0.71054273576E-14  0.64056495858E+03  0.69666350232E+03  0.27389152834E+03 0.  0.
         25    2    3    3    0    0 -0.44378907637E+02  0.33350039151E+02  0.29651950135E+03  0.32700749498E+03  0.12620766433E+03 0.  0.
         25    2    3    3    0    0  0.44378907637E+02 -0.33350039151E+02  0.34404545723E+03  0.36965600734E+03  0.12327438731E+03 0.  0.
          5    1    4    4  502    0 -0.77086361799E+02  0.57753071713E+02  0.19675745011E+03  0.21911939358E+03  0.47000000000E+01 0.  1.
         -5    1    4    4    0  502  0.32707454162E+02 -0.24403032562E+02  0.99762051240E+02  0.10788810140E+03  0.47000000000E+01 0.  1.
          5    1    5    5  503    0  0.54333847927E+02 -0.57397223629E+02  0.33067416061E+03  0.34002073290E+03  0.47000000000E+01 0. -1.
         -5    1    5    5    0  503 -0.99549402899E+01  0.24047184478E+02  0.13371296621E+02  0.29635274434E+02  0.47000000000E+01 0. -1.
<mgrwt>
<rscale>  0 0.27389153E+03</rscale>
<asrwt>0</asrwt>
<pdfrwt beam="1">  1        1 0.10286372E+00 0.27389153E+03</pdfrwt>
<pdfrwt beam="2">  1       -1 0.43152731E-02 0.27389153E+03</pdfrwt>
<totfact> 0.65968683E+03</totfact>
</mgrwt>
</event>
<event>
 9    1  0.2117506E-002  0.2753746E+03  0.7818608E-02  0.1098242E+00
          1   -1    0    0  501    0  0.00000000000E+00  0.00000000000E+00  0.19640036415E+03  0.19640036415E+03  0.00000000000E+00 0.  1.
         -1   -1    0    0    0  501 -0.00000000000E+00 -0.00000000000E+00 -0.96526271630E+02  0.96526271630E+02  0.00000000000E+00 0.  1.
         36    2    1    2    0    0  0.00000000000E+00 -0.17763568394E-14  0.99874092523E+02  0.29292663578E+03  0.27537461683E+03 0.  0.
         25    2    3    3    0    0 -0.34577564175E+02 -0.15266837519E+02 -0.12041039849E+01  0.13466973845E+03  0.12925093546E+03 0.  0.
         25    2    3    3    0    0  0.34577564175E+02  0.15266837519E+02  0.10107819651E+03  0.15825689733E+03  0.11575733010E+03 0.  0.
          5    1    4    4  502    0 -0.43629151922E+02 -0.53737169323E+02 -0.39165364735E+02  0.79669329476E+02  0.47000000000E+01 0. -1.
         -5    1    4    4    0  502  0.90515877476E+01  0.38470331804E+02  0.37961260750E+02  0.55000408977E+02  0.47000000000E+01 0. -1.
          5    1    5    5  503    0 -0.39366691375E+02  0.89824438633E+01  0.12341424200E+02  0.42483190073E+02  0.47000000000E+01 0. -1.
         -5    1    5    5    0  503  0.73944255549E+02  0.62843936556E+01  0.88736772308E+02  0.11577370726E+03  0.47000000000E+01 0. -1.
<mgrwt>
<rscale>  0 0.27537462E+03</rscale>
<asrwt>0</asrwt>
<pdfrwt beam="1">  1        1 0.30215441E-01 0.27537462E+03</pdfrwt>
<pdfrwt beam="2">  1       -1 0.14850196E-01 0.27537462E+03</pdfrwt>
<totfact> 0.48692962E+03</totfact>
</mgrwt>
</event>
<event>
 9    1  0.2117506E-002  0.2752002E+03  0.7818608E-02  0.1098340E+00
         -4   -1    0    0    0  501 -0.00000000000E+00  0.00000000000E+00  0.22272118307E+03  0.22272118307E+03  0.00000000000E+00 0.  1.
          4   -1    0    0  501    0  0.00000000000E+00 -0.00000000000E+00 -0.85011177316E+02  0.85011177316E+02  0.00000000000E+00 0.  1.
         36    2    1    2    0    0  0.71054273576E-14  0.35527136788E-14  0.13771000575E+03  0.30773236038E+03  0.27520021792E+03 0.  0.
         25    2    3    3    0    0 -0.28009793358E+02  0.26523015137E+02  0.11244160422E+03  0.17705536085E+03  0.13121534815E+03 0.  0.
         25    2    3    3    0    0  0.28009793358E+02 -0.26523015137E+02  0.25268401535E+02  0.13067699953E+03  0.12227005862E+03 0.  0.
          5    1    4    4  502    0 -0.45827819208E+02 -0.27889734287E+02  0.10644820418E+03  0.11929516531E+03  0.47000000000E+01 0.  1.
         -5    1    4    4    0  502  0.17818025850E+02  0.54412749425E+02  0.59934000352E+01  0.57760195543E+02  0.47000000000E+01 0.  1.
          5    1    5    5  503    0  0.28794779282E+02 -0.56624147734E+02 -0.27783784798E+02  0.69494331554E+02  0.47000000000E+01 0.  1.
         -5    1    5    5    0  503 -0.78498592377E+00  0.30101132596E+02  0.53052186333E+02  0.61182667981E+02  0.47000000000E+01 0.  1.
<mgrwt>
<rscale>  0 0.27520022E+03</rscale>
<asrwt>0</asrwt>
<pdfrwt beam="1">  1        4 0.13078643E-01 0.27520022E+03</pdfrwt>
<pdfrwt beam="2">  1       -4 0.34264797E-01 0.27520022E+03</pdfrwt>
<totfact> 0.73974894E+02</totfact>
</mgrwt>
</event>
<event>
 9    1  0.2117506E-002  0.2745001E+03  0.7818608E-02  0.1098731E+00
          1   -1    0    0  501    0  0.00000000000E+00  0.00000000000E+00  0.62942148879E+03  0.62942148879E+03  0.00000000000E+00 0.  1.
         -1   -1    0    0    0  501 -0.00000000000E+00 -0.00000000000E+00 -0.29928403579E+02  0.29928403579E+02  0.00000000000E+00 0.  1.
         36    2    1    2    0    0 -0.35527136788E-14  0.00000000000E+00  0.59949308521E+03  0.65934989237E+03  0.27450012996E+03 0.  0.
         25    2    3    3    0    0  0.27769442156E+01 -0.44231467864E+02  0.38550250886E+03  0.40719583253E+03  0.12341850559E+03 0.  0.
         25    2    3    3    0    0 -0.27769442156E+01  0.44231467864E+02  0.21399057635E+03  0.25215405984E+03  0.12579971764E+03 0.  0.
          5    1    4    4  502    0 -0.45266537589E+02 -0.17122329684E+02  0.30877061143E+03  0.31257577334E+03  0.47000000000E+01 0.  1.
         -5    1    4    4    0  502  0.48043481805E+02 -0.27109138180E+02  0.76731897436E+02  0.94620059189E+02  0.47000000000E+01 0.  1.
          5    1    5    5  503    0 -0.21439081102E+02  0.92212505765E+01  0.21072974478E+03  0.21207022656E+03  0.47000000000E+01 0.  1.
         -5    1    5    5    0  503  0.18662136887E+02  0.35010217287E+02  0.32608315740E+01  0.40083833278E+02  0.47000000000E+01 0.  1.
<mgrwt>
<rscale>  0 0.27450013E+03</rscale>
<asrwt>0</asrwt>
<pdfrwt beam="1">  1        1 0.96834065E-01 0.27450013E+03</pdfrwt>
<pdfrwt beam="2">  1       -1 0.46043703E-02 0.27450013E+03</pdfrwt>
<totfact> 0.65260234E+03</totfact>
</mgrwt>
</event>
<event>
 9    1  0.2117506E-002  0.2776114E+03  0.7818608E-02  0.1097001E+00
          2   -1    0    0  501    0  0.00000000000E+00  0.00000000000E+00  0.45250171602E+03  0.45250171602E+03  0.00000000000E+00 0. -1.
         -2   -1    0    0    0  501 -0.00000000000E+00 -0.00000000000E+00 -0.42578901425E+02  0.42578901425E+02  0.00000000000E+00 0. -1.
         36    2    1    2    0    0  0.00000000000E+00  0.00000000000E+00  0.40992281460E+03  0.49508061745E+03  0.27761142600E+03 0.  0.
         25    2    3    3    0    0 -0.46890709045E+02  0.43976256717E+02  0.21554456339E+03  0.25662335732E+03  0.12354529115E+03 0.  0.
         25    2    3    3    0    0  0.46890709045E+02 -0.43976256717E+02  0.19437825121E+03  0.23845726013E+03  0.12225510466E+03 0.  0.
          5    1    4    4  502    0 -0.13976664365E+02  0.82426370617E+02  0.10024588308E+03  0.13061692384E+03  0.47000000000E+01 0.  1.
         -5    1    4    4    0  502 -0.32914044681E+02 -0.38450113900E+02  0.11529868031E+03  0.12600643348E+03  0.47000000000E+01 0.  1.
          5    1    5    5  503    0  0.57983809133E+02 -0.59687441775E+02  0.60171349974E+02  0.10279783162E+03  0.47000000000E+01 0. -1.
         -5    1    5    5    0  503 -0.11093100087E+02  0.15711185058E+02  0.13420690123E+03  0.13565942851E+03  0.47000000000E+01 0. -1.
<mgrwt>
<rscale>  0 0.27761143E+03</rscale>
<asrwt>0</asrwt>
<pdfrwt beam="1">  1        2 0.69615645E-01 0.27761143E+03</pdfrwt>
<pdfrwt beam="2">  1       -2 0.65506005E-02 0.27761143E+03</pdfrwt>
<totfact> 0.89466412E+03</totfact>
</mgrwt>
</event>
<event>
 9    1  0.2117506E-002  0.2750668E+03  0.7818608E-02  0.1098414E+00
          1   -1    0    0  501    0  0.00000000000E+00  0.00000000000E+00  0.14255815468E+02  0.14255815468E+02  0.00000000000E+00 0.  1.
         -1   -1    0    0    0  501 -0.00000000000E+00 -0.00000000000E+00 -0.13268570730E+04  0.13268570730E+04  0.00000000000E+00 0.  1.
         36    2    1    2    0    0  0.00000000000E+00  0.71054273576E-14 -0.13126012576E+04  0.13411128885E+04  0.27506675252E+03 0.  0.
         25    2    3    3    0    0  0.28881153173E+02  0.30815550603E+02 -0.45934703807E+03  0.47789711930E+03  0.12490891116E+03 0.  0.
         25    2    3    3    0    0 -0.28881153173E+02 -0.30815550603E+02 -0.85325421951E+03  0.86321576921E+03  0.12375371485E+03 0.  0.
          5    1    4    4  502    0  0.77779083145E+02  0.21168459451E+02 -0.25343853670E+03  0.26599035947E+03  0.47000000000E+01 0. -1.
         -5    1    4    4    0  502 -0.48897929971E+02  0.96470911520E+01 -0.20590850137E+03  0.21190675983E+03  0.47000000000E+01 0. -1.
          5    1    5    5  503    0 -0.40605057941E+02  0.38601604587E+02 -0.27620803509E+03  0.28187199800E+03  0.47000000000E+01 0. -1.
         -5    1    5    5    0  503  0.11723904767E+02 -0.69417155190E+02 -0.57704618442E+03  0.58134377121E+03  0.47000000000E+01 0. -1.
<mgrwt>
<rscale>  0 0.27506675E+03</rscale>
<asrwt>0</asrwt>
<pdfrwt beam="1">  1        1 0.21932021E-02 0.27506675E+03</pdfrwt>
<pdfrwt beam="2">  1       -1 0.20413189E+00 0.27506675E+03</pdfrwt>
<totfact> 0.83183824E+02</totfact>
</mgrwt>
</event>
<event>
 9    1  0.2117506E-002  0.2763850E+03  0.7818608E-02  0.1097680E+00
         -1   -1    0    0    0  501 -0.00000000000E+00  0.00000000000E+00  0.19566073198E+03  0.19566073198E+03  0.00000000000E+00 0.  1.
          1   -1    0    0  501    0  0.00000000000E+00 -0.00000000000E+00 -0.97603501988E+02  0.97603501988E+02  0.00000000000E+00 0.  1.
         36    2    1    2    0    0  0.00000000000E+00 -0.71054273576E-14  0.98057229991E+02  0.29326423397E+03  0.27638504042E+03 0.  0.
         25    2    3    3    0    0 -0.28049845857E+02  0.11766664493E+02  0.86421985122E+02  0.15542758709E+03  0.12555368203E+03 0.  0.
         25    2    3    3    0    0  0.28049845857E+02 -0.11766664493E+02  0.11635244869E+02  0.13783664688E+03  0.13393399140E+03 0.  0.
          5    1    4    4  502    0  0.95171408383E+00  0.65308137801E+02  0.29066592407E+02  0.71645065544E+02  0.47000000000E+01 0. -1.
         -5    1    4    4    0  502 -0.29001559941E+02 -0.53541473308E+02  0.57355392715E+02  0.83782521545E+02  0.47000000000E+01 0. -1.
          5    1    5    5  503    0  0.17071341817E+02  0.52715050189E+02 -0.26900533873E+02  0.61774071831E+02  0.47000000000E+01 0. -1.
         -5    1    5    5    0  503  0.10978504040E+02 -0.64481714682E+02  0.38535778742E+02  0.76062575045E+02  0.47000000000E+01 0. -1.
<mgrwt>
<rscale>  0 0.27638504E+03</rscale>
<asrwt>0</asrwt>
<pdfrwt beam="1">  1        1 0.15015923E-01 0.27638504E+03</pdfrwt>
<pdfrwt beam="2">  1       -1 0.30101651E-01 0.27638504E+03</pdfrwt>
<totfact> 0.37605624E+03</totfact>
</mgrwt>
</event>
<event>
 9    1  0.2117506E-002  0.2750701E+03  0.7818608E-02  0.1098412E+00
         -1   -1    0    0    0  501 -0.00000000000E+00  0.00000000000E+00  0.20441572272E+02  0.20441572272E+02  0.00000000000E+00 0.  1.
          1   -1    0    0  501    0  0.00000000000E+00 -0.00000000000E+00 -0.92536398197E+03  0.92536398197E+03  0.00000000000E+00 0.  1.
         36    2    1    2    0    0  0.35527136788E-14  0.00000000000E+00 -0.90492240970E+03  0.94580555424E+03  0.27507013444E+03 0.  0.
         25    2    3    3    0    0  0.98562845248E+01 -0.89462931226E+01 -0.65196545423E+03  0.66263910237E+03  0.11770490212E+03 0.  0.
         25    2    3    3    0    0 -0.98562845248E+01  0.89462931226E+01 -0.25295695547E+03  0.28316645187E+03  0.12656553890E+03 0.  0.
          5    1    4    4  502    0 -0.64838712560E+01 -0.61508066984E+02 -0.39112726201E+03  0.39601503504E+03  0.47000000000E+01 0.  1.
         -5    1    4    4    0  502  0.16340155781E+02  0.52561773862E+02 -0.26083819222E+03  0.26662406734E+03  0.47000000000E+01 0.  1.
          5    1    5    5  503    0 -0.67323419312E+02 -0.56844036433E+01 -0.13866513285E+03  0.15432065416E+03  0.47000000000E+01 0.  1.
         -5    1    5    5    0  503  0.57467134787E+02  0.14630696766E+02 -0.11429182263E+03  0.12884579771E+03  0.47000000000E+01 0.  1.
<mgrwt>
<rscale>  0 0.27507013E+03</rscale>
<asrwt>0</asrwt>
<pdfrwt beam="1">  1        1 0.14236366E+00 0.27507013E+03</pdfrwt>
<pdfrwt beam="2">  1       -1 0.31448580E-02 0.27507013E+03</pdfrwt>
<totfact> 0.64094109E+03</totfact>
</mgrwt>
</event>
<event>
 9    1  0.2117506E-002  0.2744430E+03  0.7818608E-02  0.1098763E+00
          1   -1    0    0  501    0  0.00000000000E+00  0.00000000000E+00  0.89174138850E+03  0.89174138850E+03  0.00000000000E+00 0. -1.
         -1   -1    0    0    0  501 -0.00000000000E+00 -0.00000000000E+00 -0.21115695104E+02  0.21115695104E+02  0.00000000000E+00 0. -1.
         36    2    1    2    0    0  0.14210854715E-13 -0.71054273576E-14  0.87062569339E+03  0.91285708360E+03  0.27444299424E+03 0.  0.
         25    2    3    3    0    0  0.69395570747E+02  0.28690605680E+02  0.43676289560E+03  0.46044033386E+03  0.12491828521E+03 0.  0.
         25    2    3    3    0    0 -0.69395570747E+02 -0.28690605680E+02  0.43386279780E+03  0.45241674975E+03  0.10394754468E+03 0.  0.
          5    1    4    4  502    0  0.39530639843E+02 -0.44514644786E+02  0.25958262336E+03  0.26636338606E+03  0.47000000000E+01 0. -1.
         -5    1    4    4    0  502  0.29864930904E+02  0.73205250466E+02  0.17718027224E+03  0.19407694779E+03  0.47000000000E+01 0. -1.
          5    1    5    5  503    0 -0.68876827552E+02 -0.48453435171E+02  0.41857338212E+03  0.42698655597E+03  0.47000000000E+01 0. -1.
         -5    1    5    5    0  503 -0.51874319459E+00  0.19762829491E+02  0.15289415674E+02  0.25430193780E+02  0.47000000000E+01 0. -1.
<mgrwt>
<rscale>  0 0.27444299E+03</rscale>
<asrwt>0</asrwt>
<pdfrwt beam="1">  1        1 0.13719095E+00 0.27444299E+03</pdfrwt>
<pdfrwt beam="2">  1       -1 0.32485692E-02 0.27444299E+03</pdfrwt>
<totfact> 0.64903650E+03</totfact>
</mgrwt>
</event>
<event>
 9    1  0.2117506E-002  0.2752967E+03  0.7818608E-02  0.1098286E+00
          4   -1    0    0  501    0  0.00000000000E+00  0.00000000000E+00  0.24090434630E+03  0.24090434630E+03  0.00000000000E+00 0. -1.
         -4   -1    0    0    0  501 -0.00000000000E+00 -0.00000000000E+00 -0.78649740955E+02  0.78649740955E+02  0.00000000000E+00 0. -1.
         36    2    1    2    0    0  0.00000000000E+00  0.00000000000E+00  0.16225460535E+03  0.31955408726E+03  0.27529667220E+03 0.  0.
         25    2    3    3    0    0 -0.12797790898E+02 -0.50138367826E+02  0.10984881170E+03  0.17337692537E+03  0.12375442392E+03 0.  0.
         25    2    3    3    0    0  0.12797790898E+02  0.50138367826E+02  0.52405793648E+02  0.14617716189E+03  0.12626858702E+03 0.  0.
          5    1    4    4  502    0 -0.31519031849E+02 -0.86792301097E+02  0.70851564594E+02  0.11648341987E+03  0.47000000000E+01 0. -1.
         -5    1    4    4    0  502  0.18721240952E+02  0.36653933271E+02  0.38997247107E+02  0.56893505507E+02  0.47000000000E+01 0. -1.
          5    1    5    5  503    0  0.21687554462E+02  0.91338916106E+02  0.38013950574E+02  0.10139180466E+03  0.47000000000E+01 0. -1.
         -5    1    5    5    0  503 -0.88897635640E+01 -0.41200548280E+02  0.14391843074E+02  0.44785357226E+02  0.47000000000E+01 0. -1.
<mgrwt>
<rscale>  0 0.27529667E+03</rscale>
<asrwt>0</asrwt>
<pdfrwt beam="1">  1        4 0.37062207E-01 0.27529667E+03</pdfrwt>
<pdfrwt beam="2">  1       -4 0.12099960E-01 0.27529667E+03</pdfrwt>
<totfact> 0.72621768E+02</totfact>
</mgrwt>
</event>
<event>
 9    1  0.2117506E-002  0.2743576E+03  0.7818608E-02  0.1098811E+00
         -3   -1    0    0    0  501 -0.00000000000E+00  0.00000000000E+00  0.12676844319E+04  0.12676844319E+04  0.00000000000E+00 0. -1.
          3   -1    0    0  501    0  0.00000000000E+00 -0.00000000000E+00 -0.14844401549E+02  0.14844401549E+02  0.00000000000E+00 0. -1.
         36    2    1    2    0    0  0.00000000000E+00  0.00000000000E+00  0.12528400304E+04  0.12825288335E+04  0.27435755317E+03 0.  0.
         25    2    3    3    0    0  0.32518093213E+02  0.34757021714E+02  0.79711056992E+03  0.80801543219E+03  0.12344310847E+03 0.  0.
         25    2    3    3    0    0 -0.32518093213E+02 -0.34757021714E+02  0.45572946048E+03  0.47451340131E+03  0.12332132796E+03 0.  0.
          5    1    4    4  502    0  0.31041819307E+01 -0.40197880912E+02  0.44201606970E+03  0.44387588519E+03  0.47000000000E+01 0.  1.
         -5    1    4    4    0  502  0.29413911282E+02  0.74954902625E+02  0.35509450021E+03  0.36413954700E+03  0.47000000000E+01 0.  1.
          5    1    5    5  503    0 -0.42777403975E+02  0.48393332801E+01  0.41267389607E+03  0.41493994739E+03  0.47000000000E+01 0. -1.
         -5    1    5    5    0  503  0.10259310762E+02 -0.39596354994E+02  0.43055564407E+02  0.59573453925E+02  0.47000000000E+01 0. -1.
<mgrwt>
<rscale>  0 0.27435755E+03</rscale>
<asrwt>0</asrwt>
<pdfrwt beam="1">  1        3 0.22837551E-02 0.27435755E+03</pdfrwt>
<pdfrwt beam="2">  1       -3 0.19502829E+00 0.27435755E+03</pdfrwt>
<totfact> 0.33656395E+02</totfact>
</mgrwt>
</event>
<event>
 9    1  0.2117506E-002  0.2748255E+03  0.7818608E-02  0.1098549E+00
         -2   -1    0    0    0  501 -0.00000000000E+00  0.00000000000E+00  0.37010374061E+02  0.37010374061E+02  0.00000000000E+00 0. -1.
          2   -1    0    0  501    0  0.00000000000E+00 -0.00000000000E+00 -0.51018847605E+03  0.51018847605E+03  0.00000000000E+00 0. -1.
         36    2    1    2    0    0  0.00000000000E+00  0.71054273576E-14 -0.47317810199E+03  0.54719885011E+03  0.27482551803E+03 0.  0.
         25    2    3    3    0    0 -0.45579083463E+02  0.43055802737E+01 -0.24657274704E+03  0.28130351146E+03  0.12742666560E+03 0.  0.
         25    2    3    3    0    0  0.45579083463E+02 -0.43055802737E+01 -0.22660535494E+03  0.26589533865E+03  0.13135582725E+03 0.  0.
          5    1    4    4  502    0  0.19110910712E+02 -0.48010170530E+02 -0.87556884603E+02  0.10177672339E+03  0.47000000000E+01 0.  1.
         -5    1    4    4    0  502 -0.64689994175E+02  0.52315750804E+02 -0.15901586244E+03  0.17952678807E+03  0.47000000000E+01 0.  1.
          5    1    5    5  503    0  0.32328746152E+02 -0.64780423584E+02 -0.15487557177E+03  0.17102685122E+03  0.47000000000E+01 0.  1.
         -5    1    5    5    0  503  0.13250337311E+02  0.60474843310E+02 -0.71729783177E+02  0.94868487428E+02  0.47000000000E+01 0.  1.
<mgrwt>
<rscale>  0 0.27482552E+03</rscale>
<asrwt>0</asrwt>
<pdfrwt beam="1">  1        2 0.78490529E-01 0.27482552E+03</pdfrwt>
<pdfrwt beam="2">  1       -2 0.56939041E-02 0.27482552E+03</pdfrwt>
<totfact> 0.97061544E+03</totfact>
</mgrwt>
</event>
<event>
 9    1  0.2117506E-002  0.2755694E+03  0.7818608E-02  0.1098134E+00
         -1   -1    0    0    0  501 -0.00000000000E+00  0.00000000000E+00  0.17229371188E+02  0.17229371188E+02  0.00000000000E+00 0. -1.
          1   -1    0    0  501    0  0.00000000000E+00 -0.00000000000E+00 -0.11018752632E+04  0.11018752632E+04  0.00000000000E+00 0. -1.
         36    2    1    2    0    0 -0.71054273576E-14  0.00000000000E+00 -0.10846458920E+04  0.11191046344E+04  0.27556935906E+03 0.  0.
         25    2    3    3    0    0  0.34044270252E+02 -0.28601294979E+02 -0.65470094851E+03  0.66867707893E+03  0.12852492950E+03 0.  0.
         25    2    3    3    0    0 -0.34044270252E+02  0.28601294979E+02 -0.42994494351E+03  0.45042755546E+03  0.12670943870E+03 0.  0.
          5    1    4    4  502    0  0.84770277700E+01 -0.37765669755E+02 -0.63134758321E+03  0.63255036688E+03  0.47000000000E+01 0. -1.
         -5    1    4    4    0  502  0.25567242482E+02  0.91643747759E+01 -0.23353365296E+02  0.36126712053E+02  0.47000000000E+01 0. -1.
          5    1    5    5  503    0 -0.37546513072E+02  0.31680847070E+02 -0.43756130880E+03  0.44033556031E+03  0.47000000000E+01 0.  1.
         -5    1    5    5    0  503  0.35022428198E+01 -0.30795520908E+01  0.76163652909E+01  0.10091995149E+02  0.47000000000E+01 0.  1.
<mgrwt>
<rscale>  0 0.27556936E+03</rscale>
<asrwt>0</asrwt>
<pdfrwt beam="1">  1        1 0.16951926E+00 0.27556936E+03</pdfrwt>
<pdfrwt beam="2">  1       -1 0.26506726E-02 0.27556936E+03</pdfrwt>
<totfact> 0.60910042E+03</totfact>
</mgrwt>
</event>
<event>
 9    1  0.2117506E-002  0.2751308E+03  0.7818608E-02  0.1098378E+00
          1   -1    0    0  501    0  0.00000000000E+00  0.00000000000E+00  0.51374175359E+03  0.51374175359E+03  0.00000000000E+00 0.  1.
         -1   -1    0    0    0  501 -0.00000000000E+00 -0.00000000000E+00 -0.36836101021E+02  0.36836101021E+02  0.00000000000E+00 0.  1.
         36    2    1    2    0    0  0.00000000000E+00 -0.44408920985E-15  0.47690565257E+03  0.55057785461E+03  0.27513082804E+03 0.  0.
         25    2    3    3    0    0 -0.36910038145E+02  0.38274807914E+01  0.14762823009E+03  0.19642401191E+03  0.12414224749E+03 0.  0.
         25    2    3    3    0    0  0.36910038145E+02 -0.38274807914E+01  0.32927742248E+03  0.35415384270E+03  0.12499729123E+03 0.  0.
          5    1    4    4  502    0 -0.58086229013E+02 -0.79368208576E+01  0.15879638804E+03  0.16933808190E+03  0.47000000000E+01 0. -1.
         -5    1    4    4    0  502  0.21176190868E+02  0.11764301649E+02 -0.11168157951E+02  0.27085930019E+02  0.47000000000E+01 0. -1.
          5    1    5    5  503    0  0.45647283547E+02 -0.72225007102E+01  0.31351057011E+02  0.56042999451E+02  0.47000000000E+01 0.  1.
         -5    1    5    5    0  503 -0.87372454023E+01  0.33950199188E+01  0.29792636547E+03  0.29811084325E+03  0.47000000000E+01 0.  1.
<mgrwt>
<rscale>  0 0.27513083E+03</rscale>
<asrwt>0</asrwt>
<pdfrwt beam="1">  1        1 0.79037188E-01 0.27513083E+03</pdfrwt>
<pdfrwt beam="2">  1       -1 0.56670928E-02 0.27513083E+03</pdfrwt>
<totfact> 0.63136408E+03</totfact>
</mgrwt>
</event>
<event>
 9    1  0.2117506E-002  0.2760818E+03  0.7818608E-02  0.1097848E+00
         -2   -1    0    0    0  501 -0.00000000000E+00  0.00000000000E+00  0.53546709984E+02  0.53546709984E+02  0.00000000000E+00 0.  1.
          2   -1    0    0  501    0  0.00000000000E+00 -0.00000000000E+00 -0.35586304723E+03  0.35586304723E+03  0.00000000000E+00 0.  1.
         36    2    1    2    0    0  0.00000000000E+00 -0.14210854715E-13 -0.30231633724E+03  0.40940975721E+03  0.27608183847E+03 0.  0.
         25    2    3    3    0    0 -0.72525963025E+01 -0.57498515303E+02 -0.17894540329E+03  0.22305620379E+03  0.11989133945E+03 0.  0.
         25    2    3    3    0    0  0.72525963025E+01  0.57498515303E+02 -0.12337093396E+03  0.18635355343E+03  0.12707706368E+03 0.  0.
          5    1    4    4  502    0 -0.54681998129E+02 -0.98051748383E+01 -0.40008021645E+02  0.68622111370E+02  0.47000000000E+01 0. -1.
         -5    1    4    4    0  502  0.47429401827E+02 -0.47693340464E+02 -0.13893738164E+03  0.15443409242E+03  0.47000000000E+01 0. -1.
          5    1    5    5  503    0  0.37686217721E+02  0.81891029539E+02 -0.11498295023E+03  0.14618331152E+03  0.47000000000E+01 0.  1.
         -5    1    5    5    0  503 -0.30433621419E+02 -0.24392514236E+02 -0.83879837275E+01  0.40170241901E+02  0.47000000000E+01 0.  1.
<mgrwt>
<rscale>  0 0.27608184E+03</rscale>
<asrwt>0</asrwt>
<pdfrwt beam="1">  1        2 0.54748159E-01 0.27608184E+03</pdfrwt>
<pdfrwt beam="2">  1       -2 0.82379557E-02 0.27608184E+03</pdfrwt>
<totfact> 0.81379355E+03</totfact>
</mgrwt>
</event>
<event>
 9    1  0.2117506E-002  0.2744819E+03  0.7818608E-02  0.1098742E+00
          2   -1    0    0  501    0  0.00000000000E+00  0.00000000000E+00  0.17209582234E+03  0.17209582234E+03  0.00000000000E+00 0.  1.
         -2   -1    0    0    0  501 -0.00000000000E+00 -0.00000000000E+00 -0.10944529975E+03  0.10944529975E+03  0.00000000000E+00 0.  1.
         36    2    1    2    0    0  0.14210854715E-13  0.35527136788E-14  0.62650522597E+02  0.28154112209E+03  0.27448190368E+03 0.  0.
         25    2    3    3    0    0  0.54776012598E+02  0.20893194454E+02  0.25110478088E+02  0.13942267738E+03  0.12398068288E+03 0.  0.
         25    2    3    3    0    0 -0.54776012598E+02 -0.20893194454E+02  0.37540044509E+02  0.14211844471E+03  0.12390100990E+03 0.  0.
          5    1    4    4  502    0 -0.39245584932E+02  0.44864878005E+01  0.17814395222E+02  0.43586548230E+02  0.47000000000E+01 0. -1.
         -5    1    4    4    0  502  0.94021597530E+02  0.16406706653E+02  0.72960828653E+01  0.95836129150E+02  0.47000000000E+01 0. -1.
          5    1    5    5  503    0  0.20062458731E+02 -0.36294340722E+02 -0.20070676725E+02  0.46310943448E+02  0.47000000000E+01 0.  1.
         -5    1    5    5    0  503 -0.74838471330E+02  0.15401146269E+02  0.57610721235E+02  0.95807501264E+02  0.47000000000E+01 0.  1.
<mgrwt>
<rscale>  0 0.27448190E+03</rscale>
<asrwt>0</asrwt>
<pdfrwt beam="1">  1        2 0.26476281E-01 0.27448190E+03</pdfrwt>
<pdfrwt beam="2">  1       -2 0.16837738E-01 0.27448190E+03</pdfrwt>
<totfact> 0.56438102E+03</totfact>
</mgrwt>
</event>
<event>
 9    1  0.2117506E-002  0.2740686E+03  0.7818608E-02  0.1098973E+00
          3   -1    0    0  501    0  0.00000000000E+00  0.00000000000E+00  0.39091172590E+03  0.39091172590E+03  0.00000000000E+00 0.  1.
         -3   -1    0    0    0  501 -0.00000000000E+00 -0.00000000000E+00 -0.48037438407E+02  0.48037438407E+02  0.00000000000E+00 0.  1.
         36    2    1    2    0    0  0.00000000000E+00  0.00000000000E+00  0.34287428749E+03  0.43894916431E+03  0.27406858963E+03 0.  0.
         25    2    3    3    0    0 -0.18957973865E+02  0.49986969043E+02  0.13229312462E+03  0.18981687012E+03  0.12518335159E+03 0.  0.
         25    2    3    3    0    0  0.18957973865E+02 -0.49986969043E+02  0.21058116288E+03  0.24913229418E+03  0.12191953084E+03 0.  0.
          5    1    4    4  502    0 -0.62021770905E+02  0.10910595175E+02  0.25452353064E+02  0.68085633064E+02  0.47000000000E+01 0.  1.
         -5    1    4    4    0  502  0.43063797040E+02  0.39076373868E+02  0.10684077155E+03  0.12173123706E+03  0.47000000000E+01 0.  1.
          5    1    5    5  503    0 -0.16577142041E+02 -0.16301290500E+02  0.19655715305E+03  0.19798317637E+03  0.47000000000E+01 0. -1.
         -5    1    5    5    0  503  0.35535115906E+02 -0.33685678543E+02  0.14024009823E+02  0.51149117811E+02  0.47000000000E+01 0. -1.
<mgrwt>
<rscale>  0 0.27406859E+03</rscale>
<asrwt>0</asrwt>
<pdfrwt beam="1">  1        3 0.60140263E-01 0.27406859E+03</pdfrwt>
<pdfrwt beam="2">  1       -3 0.73903754E-02 0.27406859E+03</pdfrwt>
<totfact> 0.84577628E+02</totfact>
</mgrwt>
</event>
<event>
 9    1  0.2117506E-002  0.2779124E+03  0.7818608E-02  0.1096835E+00
         -2   -1    0    0    0  501 -0.00000000000E+00  0.00000000000E+00  0.53787864307E+02  0.53787864307E+02  0.00000000000E+00 0.  1.
          2   -1    0    0  501    0  0.00000000000E+00 -0.00000000000E+00 -0.35898097557E+03  0.35898097557E+03  0.00000000000E+00 0.  1.
         36    2    1    2    0    0  0.71054273576E-14  0.35527136788E-14 -0.30519311126E+03  0.41276883988E+03  0.27791236031E+03 0.  0.
         25    2    3    3    0    0  0.55519221075E+02  0.35566661631E+01 -0.12870396302E+03  0.18914916580E+03  0.12695535846E+03 0.  0.
         25    2    3    3    0    0 -0.55519221075E+02 -0.35566661631E+01 -0.17648914824E+03  0.22361967408E+03  0.12554802032E+03 0.  0.
          5    1    4    4  502    0  0.53067217725E+02 -0.35004617969E+02 -0.10377605692E+02  0.64585118844E+02  0.47000000000E+01 0.  1.
         -5    1    4    4    0  502  0.24520033499E+01  0.38561284132E+02 -0.11832635733E+03  0.12456404695E+03  0.47000000000E+01 0.  1.
          5    1    5    5  503    0 -0.44915386968E+01  0.13920358003E+02 -0.16813668435E+03  0.16883715501E+03  0.47000000000E+01 0. -1.
         -5    1    5    5    0  503 -0.51027682378E+02 -0.17477024166E+02 -0.83524638876E+01  0.54782519069E+02  0.47000000000E+01 0. -1.
<mgrwt>
<rscale>  0 0.27791236E+03</rscale>
<asrwt>0</asrwt>
<pdfrwt beam="1">  1        2 0.55227842E-01 0.27791236E+03</pdfrwt>
<pdfrwt beam="2">  1       -2 0.82750561E-02 0.27791236E+03</pdfrwt>
<totfact> 0.80070606E+03</totfact>
</mgrwt>
</event>
<event>
 9    1  0.2117506E-002  0.2760712E+03  0.7818608E-02  0.1097854E+00
          1   -1    0    0  501    0  0.00000000000E+00  0.00000000000E+00  0.53483857617E+03  0.53483857617E+03  0.00000000000E+00 0.  1.
         -1   -1    0    0    0  501 -0.00000000000E+00 -0.00000000000E+00 -0.35625370774E+02  0.35625370774E+02  0.00000000000E+00 0.  1.
         36    2    1    2    0    0  0.71054273576E-14  0.00000000000E+00  0.49921320539E+03  0.57046394694E+03  0.27607116894E+03 0.  0.
         25    2    3    3    0    0  0.47925159120E+02 -0.23841934925E+02  0.18964260057E+03  0.23194136571E+03  0.12234060012E+03 0.  0.
         25    2    3    3    0    0 -0.47925159120E+02  0.23841934925E+02  0.30957060482E+03  0.33852258123E+03  0.12608853991E+03 0.  0.
          5    1    4    4  502    0  0.42333782839E+02  0.16468397989E+01  0.22530043073E+01  0.42685211482E+02  0.47000000000E+01 0. -1.
         -5    1    4    4    0  502  0.55913762801E+01 -0.25488774724E+02  0.18738959626E+03  0.18925615423E+03  0.47000000000E+01 0. -1.
          5    1    5    5  503    0  0.13673165149E+02 -0.11030141156E+02  0.23461832249E+03  0.23532204892E+03  0.47000000000E+01 0. -1.
         -5    1    5    5    0  503 -0.61598324269E+02  0.34872076081E+02  0.74952282334E+02  0.10320053231E+03  0.47000000000E+01 0. -1.
<mgrwt>
<rscale>  0 0.27607117E+03</rscale>
<asrwt>0</asrwt>
<pdfrwt beam="1">  1        1 0.82282852E-01 0.27607117E+03</pdfrwt>
<pdfrwt beam="2">  1       -1 0.54808266E-02 0.27607117E+03</pdfrwt>
<totfact> 0.62906749E+03</totfact>
</mgrwt>
</event>
<event>
 9    1  0.2117506E-002  0.2751307E+03  0.7818608E-02  0.1098379E+00
          1   -1    0    0  501    0  0.00000000000E+00  0.00000000000E+00  0.78346192165E+02  0.78346192165E+02  0.00000000000E+00 0.  1.
         -1   -1    0    0    0  501 -0.00000000000E+00 -0.00000000000E+00 -0.24154617162E+03  0.24154617162E+03  0.00000000000E+00 0.  1.
         36    2    1    2    0    0  0.71054273576E-14  0.00000000000E+00 -0.16319997945E+03  0.31989236378E+03  0.27513068006E+03 0.  0.
         25    2    3    3    0    0 -0.23449408547E+02  0.52827481153E+02 -0.58540725388E+02  0.14660112420E+03  0.12134354355E+03 0.  0.
         25    2    3    3    0    0  0.23449408547E+02 -0.52827481153E+02 -0.10465925406E+03  0.17329123958E+03  0.12544192572E+03 0.  0.
          5    1    4    4  502    0  0.19222151095E+02  0.32192118401E+02 -0.84349313062E+02  0.92426836979E+02  0.47000000000E+01 0.  1.
         -5    1    4    4    0  502 -0.42671559642E+02  0.20635362752E+02  0.25808587674E+02  0.54174287221E+02  0.47000000000E+01 0.  1.
          5    1    5    5  503    0  0.75095835426E+02 -0.26928730899E+02 -0.55660359648E+02  0.97389458785E+02  0.47000000000E+01 0.  1.
         -5    1    5    5    0  503 -0.51646426880E+02 -0.25898750253E+02 -0.48998894415E+02  0.75901780796E+02  0.47000000000E+01 0.  1.
<mgrwt>
<rscale>  0 0.27513068E+03</rscale>
<asrwt>0</asrwt>
<pdfrwt beam="1">  1        1 0.12053261E-01 0.27513068E+03</pdfrwt>
<pdfrwt beam="2">  1       -1 0.37160949E-01 0.27513068E+03</pdfrwt>
<totfact> 0.34936043E+03</totfact>
</mgrwt>
</event>
<event>
 9    1  0.2117506E-002  0.2745329E+03  0.7818608E-02  0.1098713E+00
         -1   -1    0    0    0  501 -0.00000000000E+00  0.00000000000E+00  0.69455916543E+02  0.69455916543E+02  0.00000000000E+00 0.  1.
          1   -1    0    0  501    0  0.00000000000E+00 -0.00000000000E+00 -0.27128120094E+03  0.27128120094E+03  0.00000000000E+00 0.  1.
         36    2    1    2    0    0  0.71054273576E-14  0.00000000000E+00 -0.20182528440E+03  0.34073711749E+03  0.27453294485E+03 0.  0.
         25    2    3    3    0    0  0.10086838680E+02  0.52000891345E+02 -0.10032490653E+03  0.16850376234E+03  0.12458970277E+03 0.  0.
         25    2    3    3    0    0 -0.10086838680E+02 -0.52000891345E+02 -0.10150037787E+03  0.17223335515E+03  0.12867076164E+03 0.  0.
          5    1    4    4  502    0 -0.56345734103E+02  0.26989358366E+02 -0.59901662453E+02  0.86680830529E+02  0.47000000000E+01 0. -1.
         -5    1    4    4    0  502  0.66432572783E+02  0.25011532979E+02 -0.40423244078E+02  0.81822931812E+02  0.47000000000E+01 0. -1.
          5    1    5    5  503    0  0.37663804577E+02 -0.28823342395E+02 -0.10848411048E+03  0.11849151644E+03  0.47000000000E+01 0. -1.
         -5    1    5    5    0  503 -0.47750643256E+02 -0.23177548950E+02  0.69837326051E+01  0.53741838709E+02  0.47000000000E+01 0. -1.
<mgrwt>
<rscale>  0 0.27453294E+03</rscale>
<asrwt>0</asrwt>
<pdfrwt beam="1">  1        1 0.41735569E-01 0.27453294E+03</pdfrwt>
<pdfrwt beam="2">  1       -1 0.10685526E-01 0.27453294E+03</pdfrwt>
<totfact> 0.54345438E+03</totfact>
</mgrwt>
</event>
<event>
 9    1  0.2117506E-002  0.2750178E+03  0.7818608E-02  0.1098442E+00
         -4   -1    0    0    0  501 -0.00000000000E+00  0.00000000000E+00  0.49957727446E+02  0.49957727446E+02  0.00000000000E+00 0.  1.
          4   -1    0    0  501    0  0.00000000000E+00 -0.00000000000E+00 -0.37849406583E+03  0.37849406583E+03  0.00000000000E+00 0.  1.
         36    2    1    2    0    0  0.71054273576E-14  0.71054273576E-14 -0.32853633839E+03  0.42845179328E+03  0.27501784219E+03 0.  0.
         25    2    3    3    0    0 -0.19848531583E+02 -0.39248996692E+02 -0.19000473812E+03  0.23098322903E+03  0.12376188282E+03 0.  0.
         25    2    3    3    0    0  0.19848531583E+02  0.39248996692E+02 -0.13853160027E+03  0.19746856425E+03  0.13367266604E+03 0.  0.
          5    1    4    4  502    0  0.33750372223E+02 -0.20671925895E+02 -0.16332828545E+03  0.16812089392E+03  0.47000000000E+01 0. -1.
         -5    1    4    4    0  502 -0.53598903806E+02 -0.18577070797E+02 -0.26676452675E+02  0.62862335113E+02  0.47000000000E+01 0. -1.
          5    1    5    5  503    0 -0.33147206865E+02  0.30433890219E+02 -0.13616782298E+03  0.14348771728E+03  0.47000000000E+01 0. -1.
         -5    1    5    5    0  503  0.52995738448E+02  0.88151064734E+01 -0.23637772887E+01  0.53980846963E+02  0.47000000000E+01 0. -1.
<mgrwt>
<rscale>  0 0.27501784E+03</rscale>
<asrwt>0</asrwt>
<pdfrwt beam="1">  1        4 0.58229858E-01 0.27501784E+03</pdfrwt>
<pdfrwt beam="2">  1       -4 0.76858039E-02 0.27501784E+03</pdfrwt>
<totfact> 0.62515606E+02</totfact>
</mgrwt>
</event>
<event>
 9    1  0.2117506E-002  0.2745539E+03  0.7818608E-02  0.1098701E+00
          2   -1    0    0  501    0  0.00000000000E+00  0.00000000000E+00  0.21498492870E+03  0.21498492870E+03  0.00000000000E+00 0.  1.
         -2   -1    0    0    0  501 -0.00000000000E+00 -0.00000000000E+00 -0.87657135313E+02  0.87657135313E+02  0.00000000000E+00 0.  1.
         36    2    1    2    0    0 -0.35527136788E-14  0.53290705182E-14  0.12732779339E+03  0.30264206401E+03  0.27455391445E+03 0.  0.
         25    2    3    3    0    0  0.25908706447E+02 -0.15027856767E+02  0.92337469542E+01  0.12813438249E+03  0.12424194277E+03 0.  0.
         25    2    3    3    0    0 -0.25908706447E+02  0.15027856767E+02  0.11809404643E+03  0.17450768153E+03  0.12493850312E+03 0.  0.
          5    1    4    4  502    0  0.47710131046E+02  0.28993301997E+02 -0.31385988515E+02  0.64218676724E+02  0.47000000000E+01 0.  1.
         -5    1    4    4    0  502 -0.21801424599E+02 -0.44021158764E+02  0.40619735469E+02  0.63915705762E+02  0.47000000000E+01 0.  1.
          5    1    5    5  503    0  0.18081728503E+02  0.28840995156E+02 -0.12004747574E+02  0.36399943290E+02  0.47000000000E+01 0. -1.
         -5    1    5    5    0  503 -0.43990434950E+02 -0.13813138389E+02  0.13009879401E+03  0.13810773824E+03  0.47000000000E+01 0. -1.
<mgrwt>
<rscale>  0 0.27455391E+03</rscale>
<asrwt>0</asrwt>
<pdfrwt beam="1">  1        2 0.33074604E-01 0.27455391E+03</pdfrwt>
<pdfrwt beam="2">  1       -2 0.13485713E-01 0.27455391E+03</pdfrwt>
<totfact> 0.63787039E+03</totfact>
</mgrwt>
</event>
<event>
 9    1  0.2117506E-002  0.2768511E+03  0.7818608E-02  0.1097421E+00
          1   -1    0    0  501    0  0.00000000000E+00  0.00000000000E+00  0.34826553431E+03  0.34826553431E+03  0.00000000000E+00 0. -1.
         -1   -1    0    0    0  501 -0.00000000000E+00 -0.00000000000E+00 -0.55020185869E+02  0.55020185869E+02  0.00000000000E+00 0. -1.
         36    2    1    2    0    0 -0.71054273576E-14 -0.35527136788E-14  0.29324534845E+03  0.40328572018E+03  0.27685111110E+03 0.  0.
         25    2    3    3    0    0  0.45950008178E+02 -0.23217086733E+02  0.18097973622E+03  0.22584471885E+03  0.12490690831E+03 0.  0.
         25    2    3    3    0    0 -0.45950008178E+02  0.23217086733E+02  0.11226561223E+03  0.17744100133E+03  0.12740213851E+03 0.  0.
          5    1    4    4  502    0  0.50992564212E+02  0.45316120695E+01  0.98513690877E+01  0.52344212534E+02  0.47000000000E+01 0. -1.
         -5    1    4    4    0  502 -0.50425560346E+01 -0.27748698803E+02  0.17112836713E+03  0.17350050632E+03  0.47000000000E+01 0. -1.
          5    1    5    5  503    0 -0.38494174974E+02  0.58270431653E+02  0.12142440531E+03  0.14015427541E+03  0.47000000000E+01 0. -1.
         -5    1    5    5    0  503 -0.74558332037E+01 -0.35053344920E+02 -0.91587930812E+01  0.37286725916E+02  0.47000000000E+01 0. -1.
<mgrwt>
<rscale>  0 0.27685111E+03</rscale>
<asrwt>0</asrwt>
<pdfrwt beam="1">  1        1 0.53579312E-01 0.27685111E+03</pdfrwt>
<pdfrwt beam="2">  1       -1 0.84646442E-02 0.27685111E+03</pdfrwt>
<totfact> 0.56830483E+03</totfact>
</mgrwt>
</event>
<event>
 9    1  0.2117506E-002  0.2790447E+03  0.7818608E-02  0.1096212E+00
          2   -1    0    0  501    0  0.00000000000E+00  0.00000000000E+00  0.13781318929E+04  0.13781318929E+04  0.00000000000E+00 0.  1.
         -2   -1    0    0    0  501 -0.00000000000E+00 -0.00000000000E+00 -0.14125275527E+02  0.14125275527E+02  0.00000000000E+00 0.  1.
         36    2    1    2    0    0  0.71054273576E-14  0.00000000000E+00  0.13640066173E+04  0.13922571684E+04  0.27904474694E+03 0.  0.
         25    2    3    3    0    0  0.56827875201E+02 -0.21141695900E+02  0.76809804877E+03  0.78058808417E+03  0.12516695217E+03 0.  0.
         25    2    3    3    0    0 -0.56827875201E+02  0.21141695900E+02  0.59590856857E+03  0.61166908422E+03  0.12391798818E+03 0.  0.
          5    1    4    4  502    0 -0.20622475076E+01  0.11182873710E+02  0.59085237778E+03  0.59098048348E+03  0.47000000000E+01 0.  1.
         -5    1    4    4    0  502  0.58890122708E+02 -0.32324569610E+02  0.17724567099E+03  0.18960760068E+03  0.47000000000E+01 0.  1.
          5    1    5    5  503    0  0.27925797483E+01 -0.19798787577E+01 -0.48051372558E+01  0.75430607576E+01  0.47000000000E+01 0.  1.
         -5    1    5    5    0  503 -0.59620454949E+02  0.23121574657E+02  0.60071370582E+03  0.60412602346E+03  0.47000000000E+01 0.  1.
<mgrwt>
<rscale>  0 0.27904475E+03</rscale>
<asrwt>0</asrwt>
<pdfrwt beam="1">  1        2 0.21202019E+00 0.27904475E+03</pdfrwt>
<pdfrwt beam="2">  1       -2 0.21731204E-02 0.27904475E+03</pdfrwt>
<totfact> 0.10864752E+04</totfact>
</mgrwt>
</event>
<event>
 9    1  0.2117506E-002  0.2758427E+03  0.7818608E-02  0.1097981E+00
         -2   -1    0    0    0  501 -0.00000000000E+00  0.00000000000E+00  0.79523682956E+02  0.79523682956E+02  0.00000000000E+00 0.  1.
          2   -1    0    0  501    0  0.00000000000E+00 -0.00000000000E+00 -0.23920300993E+03  0.23920300993E+03  0.00000000000E+00 0.  1.
         36    2    1    2    0    0  0.00000000000E+00  0.00000000000E+00 -0.15967932697E+03  0.31872669288E+03  0.27584274015E+03 0.  0.
         25    2    3    3    0    0  0.11138763183E+02  0.34453671362E+02 -0.12886538348E+03  0.18477538872E+03  0.12737554593E+03 0.  0.
         25    2    3    3    0    0 -0.11138763183E+02 -0.34453671362E+02 -0.30813943488E+02  0.13395130416E+03  0.12522909110E+03 0.  0.
          5    1    4    4  502    0 -0.43925696233E+02  0.55658199318E+02 -0.53521352711E+02  0.88960255940E+02  0.47000000000E+01 0.  1.
         -5    1    4    4    0  502  0.55064459416E+02 -0.21204527956E+02 -0.75344030773E+02  0.95815132781E+02  0.47000000000E+01 0.  1.
          5    1    5    5  503    0  0.12977135534E+02 -0.51673329326E+02 -0.67780501276E+02  0.86341330564E+02  0.47000000000E+01 0.  1.
         -5    1    5    5    0  503 -0.24115898718E+02  0.17219657964E+02  0.36966557788E+02  0.47609973599E+02  0.47000000000E+01 0.  1.
<mgrwt>
<rscale>  0 0.27584274E+03</rscale>
<asrwt>0</asrwt>
<pdfrwt beam="1">  1        2 0.36800463E-01 0.27584274E+03</pdfrwt>
<pdfrwt beam="2">  1       -2 0.12234413E-01 0.27584274E+03</pdfrwt>
<totfact> 0.66558393E+03</totfact>
</mgrwt>
</event>
<event>
 9    1  0.2117506E-002  0.2758042E+03  0.7818608E-02  0.1098003E+00
         -1   -1    0    0    0  501 -0.00000000000E+00  0.00000000000E+00  0.12299151881E+03  0.12299151881E+03  0.00000000000E+00 0.  1.
          1   -1    0    0  501    0  0.00000000000E+00 -0.00000000000E+00 -0.15462030724E+03  0.15462030724E+03  0.00000000000E+00 0.  1.
         36    2    1    2    0    0  0.00000000000E+00 -0.35527136788E-14 -0.31628788438E+02  0.27761182605E+03  0.27580418000E+03 0.  0.
         25    2    3    3    0    0 -0.56847433044E+02  0.38502458023E+01 -0.16668547903E+02  0.13721996844E+03  0.12371347628E+03 0.  0.
         25    2    3    3    0    0  0.56847433044E+02 -0.38502458023E+01 -0.14960240535E+02  0.14039185761E+03  0.12743472780E+03 0.  0.
          5    1    4    4  502    0  0.94075663704E+01  0.20400523625E+02  0.41478178609E+02  0.47404777922E+02  0.47000000000E+01 0.  1.
         -5    1    4    4    0  502 -0.66254999414E+02 -0.16550277822E+02 -0.58146726511E+02  0.89815190516E+02  0.47000000000E+01 0.  1.
          5    1    5    5  503    0  0.76383489324E+01  0.44354841943E+02 -0.46144330807E+02  0.64630377098E+02  0.47000000000E+01 0.  1.
         -5    1    5    5    0  503  0.49209084111E+02 -0.48205087745E+02  0.31184090272E+02  0.75761480514E+02  0.47000000000E+01 0.  1.
<mgrwt>
<rscale>  0 0.27580418E+03</rscale>
<asrwt>0</asrwt>
<pdfrwt beam="1">  1        1 0.23787740E-01 0.27580418E+03</pdfrwt>
<pdfrwt beam="2">  1       -1 0.18921772E-01 0.27580418E+03</pdfrwt>
<totfact> 0.44749797E+03</totfact>
</mgrwt>
</event>
<event>
 9    1  0.2117506E-002  0.2737672E+03  0.7818608E-02  0.1099143E+00
          1   -1    0    0  501    0  0.00000000000E+00  0.00000000000E+00  0.52522863334E+03  0.52522863334E+03  0.00000000000E+00 0. -1.
         -1   -1    0    0    0  501 -0.00000000000E+00 -0.00000000000E+00 -0.35674229216E+02  0.35674229216E+02  0.00000000000E+00 0. -1.
         36    2    1    2    0    0  0.14210854715E-13 -0.35527136788E-14  0.48955440412E+03  0.56090286256E+03  0.27376724900E+03 0.  0.
         25    2    3    3    0    0 -0.49480422408E+02 -0.40599268884E+01  0.30333539103E+03  0.33124428573E+03  0.12347316374E+03 0.  0.
         25    2    3    3    0    0  0.49480422408E+02  0.40599268884E+01  0.18621901309E+03  0.22965857683E+03  0.12490294579E+03 0.  0.
          5    1    4    4  502    0 -0.84344214526E+01 -0.31605411278E+02  0.26864890849E+03  0.27067391363E+03  0.47000000000E+01 0.  1.
         -5    1    4    4    0  502 -0.41046000956E+02  0.27545484389E+02  0.34686482545E+02  0.60570372098E+02  0.47000000000E+01 0.  1.
          5    1    5    5  503    0  0.21071864589E+02 -0.44981149387E+02  0.19607158896E+02  0.53608375814E+02  0.47000000000E+01 0.  1.
         -5    1    5    5    0  503  0.28408557819E+02  0.49041076276E+02  0.16661185419E+03  0.17605020102E+03  0.47000000000E+01 0.  1.
<mgrwt>
<rscale>  0 0.27376725E+03</rscale>
<asrwt>0</asrwt>
<pdfrwt beam="1">  1        1 0.80804400E-01 0.27376725E+03</pdfrwt>
<pdfrwt beam="2">  1       -1 0.54883433E-02 0.27376725E+03</pdfrwt>
<totfact> 0.64311153E+03</totfact>
</mgrwt>
</event>
<event>
 9    1  0.2117506E-002  0.2752314E+03  0.7818608E-02  0.1098322E+00
         -2   -1    0    0    0  501 -0.00000000000E+00  0.00000000000E+00  0.13533931710E+02  0.13533931710E+02  0.00000000000E+00 0.  1.
          2   -1    0    0  501    0  0.00000000000E+00 -0.00000000000E+00 -0.13993039156E+04  0.13993039156E+04  0.00000000000E+00 0.  1.
         36    2    1    2    0    0  0.71054273576E-14  0.17763568394E-14 -0.13857699839E+04  0.14128378473E+04  0.27523141997E+03 0.  0.
         25    2    3    3    0    0  0.81088369732E+01 -0.76527969950E+01 -0.39907425084E+03  0.41816988764E+03  0.12442459044E+03 0.  0.
         25    2    3    3    0    0 -0.81088369732E+01  0.76527969950E+01 -0.98669573302E+03  0.99466795964E+03  0.12518610879E+03 0.  0.
          5    1    4    4  502    0  0.49012639624E+02  0.16743904478E+02 -0.79288129749E+02  0.94822437740E+02  0.47000000000E+01 0.  1.
         -5    1    4    4    0  502 -0.40903802650E+02 -0.24396701473E+02 -0.31978612109E+03  0.32334744990E+03  0.47000000000E+01 0.  1.
          5    1    5    5  503    0 -0.42416236330E+02  0.20679678656E+02 -0.88800560520E+03  0.88927095482E+03  0.47000000000E+01 0.  1.
         -5    1    5    5    0  503  0.34307399357E+02 -0.13026881661E+02 -0.98690127821E+02  0.10539700482E+03  0.47000000000E+01 0.  1.
<mgrwt>
<rscale>  0 0.27523142E+03</rscale>
<asrwt>0</asrwt>
<pdfrwt beam="1">  1        2 0.21527758E+00 0.27523142E+03</pdfrwt>
<pdfrwt beam="2">  1       -2 0.20821428E-02 0.27523142E+03</pdfrwt>
<totfact> 0.11265093E+04</totfact>
</mgrwt>
</event>
<event>
 9    1  0.2117506E-002  0.2750824E+03  0.7818608E-02  0.1098406E+00
          2   -1    0    0  501    0  0.00000000000E+00  0.00000000000E+00  0.46784587514E+03  0.46784587514E+03  0.00000000000E+00 0. -1.
         -2   -1    0    0    0  501 -0.00000000000E+00 -0.00000000000E+00 -0.40435505193E+02  0.40435505193E+02  0.00000000000E+00 0. -1.
         36    2    1    2    0    0  0.00000000000E+00  0.71054273576E-14  0.42741036995E+03  0.50828138033E+03  0.27508241902E+03 0.  0.
         25    2    3    3    0    0 -0.29104929273E+02  0.24709342891E+02  0.14367998779E+03  0.19430070592E+03  0.12510466376E+03 0.  0.
         25    2    3    3    0    0  0.29104929273E+02 -0.24709342891E+02  0.28373038216E+03  0.31398067442E+03  0.12893132131E+03 0.  0.
          5    1    4    4  502    0  0.16968521837E+02 -0.38077656324E+02  0.90875839796E+02  0.10009169248E+03  0.47000000000E+01 0. -1.
         -5    1    4    4    0  502 -0.46073451110E+02  0.62786999215E+02  0.52804147995E+02  0.94209013438E+02  0.47000000000E+01 0. -1.
          5    1    5    5  503    0 -0.29618839137E+02 -0.58974563836E+02  0.13230999542E+03  0.14793005002E+03  0.47000000000E+01 0.  1.
         -5    1    5    5    0  503  0.58723768410E+02  0.34265220945E+02  0.15142038674E+03  0.16605062439E+03  0.47000000000E+01 0.  1.
<mgrwt>
<rscale>  0 0.27508242E+03</rscale>
<asrwt>0</asrwt>
<pdfrwt beam="1">  1        2 0.71976285E-01 0.27508242E+03</pdfrwt>
<pdfrwt beam="2">  1       -2 0.62208473E-02 0.27508242E+03</pdfrwt>
<totfact> 0.93337785E+03</totfact>
</mgrwt>
</event>
<event>
 9    1  0.2117506E-002  0.2759272E+03  0.7818608E-02  0.1097934E+00
         -4   -1    0    0    0  501 -0.00000000000E+00  0.00000000000E+00  0.48421264342E+03  0.48421264342E+03  0.00000000000E+00 0.  1.
          4   -1    0    0  501    0  0.00000000000E+00 -0.00000000000E+00 -0.39309077473E+02  0.39309077473E+02  0.00000000000E+00 0.  1.
         36    2    1    2    0    0  0.00000000000E+00  0.00000000000E+00  0.44490356595E+03  0.52352172090E+03  0.27592718107E+03 0.  0.
         25    2    3    3    0    0  0.14857913253E+01  0.18981874216E+02  0.12368364335E+03  0.17825045578E+03  0.12693723736E+03 0.  0.
         25    2    3    3    0    0 -0.14857913253E+01 -0.18981874216E+02  0.32121992260E+03  0.34527126512E+03  0.12516983949E+03 0.  0.
          5    1    4    4  502    0  0.27299180502E+02 -0.43129070475E+02  0.20967200896E+02  0.55381183533E+02  0.47000000000E+01 0.  1.
         -5    1    4    4    0  502 -0.25813389177E+02  0.62110944691E+02  0.10271644245E+03  0.12286927224E+03  0.47000000000E+01 0.  1.
          5    1    5    5  503    0 -0.74764207137E+01 -0.66558063567E+02  0.11206916757E+03  0.13064249313E+03  0.47000000000E+01 0. -1.
         -5    1    5    5    0  503  0.59906293884E+01  0.47576189352E+02  0.20915075503E+03  0.21462877199E+03  0.47000000000E+01 0. -1.
<mgrwt>
<rscale>  0 0.27592718E+03</rscale>
<asrwt>0</asrwt>
<pdfrwt beam="1">  1        4 0.60475507E-02 0.27592718E+03</pdfrwt>
<pdfrwt beam="2">  1       -4 0.74494249E-01 0.27592718E+03</pdfrwt>
<totfact> 0.54640420E+02</totfact>
</mgrwt>
</event>
<event>
 9    1  0.2117506E-002  0.2750371E+03  0.7818608E-02  0.1098431E+00
         -2   -1    0    0    0  501 -0.00000000000E+00  0.00000000000E+00  0.12806172810E+02  0.12806172810E+02  0.00000000000E+00 0.  1.
          2   -1    0    0  501    0  0.00000000000E+00 -0.00000000000E+00 -0.14767367134E+04  0.14767367134E+04  0.00000000000E+00 0.  1.
         36    2    1    2    0    0 -0.14210854715E-13  0.00000000000E+00 -0.14639305406E+04  0.14895428862E+04  0.27503705602E+03 0.  0.
         25    2    3    3    0    0  0.32250680944E+02  0.13246133407E+02 -0.96616667972E+03  0.97519973045E+03  0.12775325749E+03 0.  0.
         25    2    3    3    0    0 -0.32250680944E+02 -0.13246133407E+02 -0.49776386089E+03  0.51434315578E+03  0.12475758180E+03 0.  0.
          5    1    4    4  502    0  0.46396776185E+02 -0.48857577688E+02 -0.43610603517E+03  0.44130520918E+03  0.47000000000E+01 0.  1.
         -5    1    4    4    0  502 -0.14146095242E+02  0.62103711095E+02 -0.53006064455E+03  0.53389452127E+03  0.47000000000E+01 0.  1.
          5    1    5    5  503    0 -0.51280371205E+02 -0.41925711646E+02 -0.14058329903E+03  0.15547731582E+03  0.47000000000E+01 0.  1.
         -5    1    5    5    0  503  0.19029690262E+02  0.28679578239E+02 -0.35718056186E+03  0.35886583996E+03  0.47000000000E+01 0.  1.
<mgrwt>
<rscale>  0 0.27503706E+03</rscale>
<asrwt>0</asrwt>
<pdfrwt beam="1">  1        2 0.22719037E+00 0.27503706E+03</pdfrwt>
<pdfrwt beam="2">  1       -2 0.19701795E-02 0.27503706E+03</pdfrwt>
<totfact> 0.11098227E+04</totfact>
</mgrwt>
</event>
<event>
 9    1  0.2117506E-002  0.2745716E+03  0.7818608E-02  0.1098691E+00
         -2   -1    0    0    0  501 -0.00000000000E+00  0.00000000000E+00  0.10020724642E+02  0.10020724642E+02  0.00000000000E+00 0. -1.
          2   -1    0    0  501    0  0.00000000000E+00 -0.00000000000E+00 -0.18808412645E+04  0.18808412645E+04  0.00000000000E+00 0. -1.
         36    2    1    2    0    0  0.00000000000E+00 -0.71054273576E-14 -0.18708205399E+04  0.18908619892E+04  0.27457161111E+03 0.  0.
         25    2    3    3    0    0  0.35222369552E+02  0.52284293245E+02 -0.82432760853E+03  0.83510533819E+03  0.11794344850E+03 0.  0.
         25    2    3    3    0    0 -0.35222369552E+02 -0.52284293245E+02 -0.10464929314E+04  0.10557566510E+04  0.12450055454E+03 0.  0.
          5    1    4    4  502    0  0.62381067510E+01  0.55944890167E+01 -0.69984650819E+00  0.96328639734E+01  0.47000000000E+01 0.  1.
         -5    1    4    4    0  502  0.28984262801E+02  0.46689804228E+02 -0.82362776202E+03  0.82547247421E+03  0.47000000000E+01 0.  1.
          5    1    5    5  503    0  0.34250790726E+02 -0.42851426713E+02 -0.70284166493E+03  0.70499493430E+03  0.47000000000E+01 0. -1.
         -5    1    5    5    0  503 -0.69473160278E+02 -0.94328665319E+01 -0.34365126644E+03  0.35076171669E+03  0.47000000000E+01 0. -1.
<mgrwt>
<rscale>  0 0.27457161E+03</rscale>
<asrwt>0</asrwt>
<pdfrwt beam="1">  1        2 0.28935997E+00 0.27457161E+03</pdfrwt>
<pdfrwt beam="2">  1       -2 0.15416511E-02 0.27457161E+03</pdfrwt>
<totfact> 0.97268806E+03</totfact>
</mgrwt>
</event>
<event>
 9    1  0.2117506E-002  0.2752405E+03  0.7818608E-02  0.1098317E+00
         -2   -1    0    0    0  501 -0.00000000000E+00  0.00000000000E+00  0.23739056610E+02  0.23739056610E+02  0.00000000000E+00 0. -1.
          2   -1    0    0  501    0  0.00000000000E+00 -0.00000000000E+00 -0.79781312399E+03  0.79781312399E+03  0.00000000000E+00 0. -1.
         36    2    1    2    0    0 -0.44408920985E-14 -0.71054273576E-14 -0.77407406738E+03  0.82155218060E+03  0.27524048332E+03 0.  0.
         25    2    3    3    0    0  0.28595634484E+01  0.54796689135E+02 -0.31386351351E+03  0.34280331388E+03  0.12646324623E+03 0.  0.
         25    2    3    3    0    0 -0.28595634484E+01 -0.54796689135E+02 -0.46021055387E+03  0.47874886672E+03  0.11998278733E+03 0.  0.
          5    1    4    4  502    0 -0.34447360896E+02  0.83227622638E+02 -0.21984743107E+03  0.23763089191E+03  0.47000000000E+01 0.  1.
         -5    1    4    4    0  502  0.37306924344E+02 -0.28430933503E+02 -0.94016082447E+02  0.10517242197E+03  0.47000000000E+01 0.  1.
          5    1    5    5  503    0  0.48680602324E+01  0.34081303564E+01  0.54782663153E+01  0.93495863424E+01  0.47000000000E+01 0. -1.
         -5    1    5    5    0  503 -0.77276236808E+01 -0.58204819492E+02 -0.46568882018E+03  0.46939928038E+03  0.47000000000E+01 0. -1.
<mgrwt>
<rscale>  0 0.27524048E+03</rscale>
<asrwt>0</asrwt>
<pdfrwt beam="1">  1        2 0.12274047E+00 0.27524048E+03</pdfrwt>
<pdfrwt beam="2">  1       -2 0.36521629E-02 0.27524048E+03</pdfrwt>
<totfact> 0.11186224E+04</totfact>
</mgrwt>
</event>
<event>
 9    1  0.2117506E-002  0.2751218E+03  0.7818608E-02  0.1098384E+00
         -2   -1    0    0    0  501 -0.00000000000E+00  0.00000000000E+00  0.19656573146E+02  0.19656573146E+02  0.00000000000E+00 0.  1.
          2   -1    0    0  501    0  0.00000000000E+00 -0.00000000000E+00 -0.96268043221E+03  0.96268043221E+03  0.00000000000E+00 0.  1.
         36    2    1    2    0    0  0.14210854715E-13  0.00000000000E+00 -0.94302385906E+03  0.98233700535E+03  0.27512177909E+03 0.  0.
         25    2    3    3    0    0 -0.34378612986E+02 -0.40518548036E+02 -0.37347810932E+03  0.39697968820E+03  0.12362577781E+03 0.  0.
         25    2    3    3    0    0  0.34378612986E+02  0.40518548036E+02 -0.56954574974E+03  0.58535731715E+03  0.12424647250E+03 0.  0.
          5    1    4    4  502    0 -0.48886277908E+02  0.13608732928E+02 -0.61023089248E+02  0.79504548303E+02  0.47000000000E+01 0. -1.
         -5    1    4    4    0  502  0.14507664922E+02 -0.54127280964E+02 -0.31245502007E+03  0.31747513990E+03  0.47000000000E+01 0. -1.
          5    1    5    5  503    0  0.38494605519E+02  0.70519975739E+02 -0.21633899061E+03  0.23082363503E+03  0.47000000000E+01 0. -1.
         -5    1    5    5    0  503 -0.41159925326E+01 -0.30001427703E+02 -0.35320675914E+03  0.35453368212E+03  0.47000000000E+01 0. -1.
<mgrwt>
<rscale>  0 0.27512178E+03</rscale>
<asrwt>0</asrwt>
<pdfrwt beam="1">  1        2 0.14810466E+00 0.27512178E+03</pdfrwt>
<pdfrwt beam="2">  1       -2 0.30240885E-02 0.27512178E+03</pdfrwt>
<totfact> 0.11562683E+04</totfact>
</mgrwt>
</event>
<event>
 9    1  0.2117506E-002  0.2766038E+03  0.7818608E-02  0.1097558E+00
          2   -1    0    0  501    0  0.00000000000E+00  0.00000000000E+00  0.44663740740E+03  0.44663740740E+03  0.00000000000E+00 0.  1.
         -2   -1    0    0    0  501 -0.00000000000E+00 -0.00000000000E+00 -0.42825380104E+02  0.42825380104E+02  0.00000000000E+00 0.  1.
         36    2    1    2    0    0 -0.35527136788E-14  0.00000000000E+00  0.40381202730E+03  0.48946278751E+03  0.27660380866E+03 0.  0.
         25    2    3    3    0    0 -0.25636859842E+02  0.20960256925E+02  0.29599527913E+03  0.32221980812E+03  0.12294640507E+03 0.  0.
         25    2    3    3    0    0  0.25636859842E+02 -0.20960256925E+02  0.10781674816E+03  0.16724297939E+03  0.12348757839E+03 0.  0.
          5    1    4    4  502    0 -0.20193538029E+02  0.70545051651E+02  0.13655904260E+03  0.15509624563E+03  0.47000000000E+01 0. -1.
         -5    1    4    4    0  502 -0.54433218127E+01 -0.49584794726E+02  0.15943623653E+03  0.16712356249E+03  0.47000000000E+01 0. -1.
          5    1    5    5  503    0 -0.15801093480E+02 -0.45721997020E+02  0.10833630009E+03  0.11873929208E+03  0.47000000000E+01 0.  1.
         -5    1    5    5    0  503  0.41437953322E+02  0.24761740095E+02 -0.51955193002E+00  0.48503687306E+02  0.47000000000E+01 0.  1.
<mgrwt>
<rscale>  0 0.27660381E+03</rscale>
<asrwt>0</asrwt>
<pdfrwt beam="1">  1        2 0.68713444E-01 0.27660381E+03</pdfrwt>
<pdfrwt beam="2">  1       -2 0.65885204E-02 0.27660381E+03</pdfrwt>
<totfact> 0.89943772E+03</totfact>
</mgrwt>
</event>
<event>
 9    1  0.2117506E-002  0.2743860E+03  0.7818608E-02  0.1098795E+00
         -2   -1    0    0    0  501 -0.00000000000E+00  0.00000000000E+00  0.65801414791E+02  0.65801414791E+02  0.00000000000E+00 0.  1.
          2   -1    0    0  501    0  0.00000000000E+00 -0.00000000000E+00 -0.28604118794E+03  0.28604118794E+03  0.00000000000E+00 0.  1.
         36    2    1    2    0    0  0.71054273576E-14 -0.17763568394E-14 -0.22023977314E+03  0.35184260273E+03  0.27438596797E+03 0.  0.
         25    2    3    3    0    0 -0.57734876864E+02 -0.14544243627E+02 -0.12071816404E+03  0.18160166692E+03  0.12190750292E+03 0.  0.
         25    2    3    3    0    0  0.57734876864E+02  0.14544243627E+02 -0.99521609103E+02  0.17024093581E+03  0.12462974973E+03 0.  0.
          5    1    4    4  502    0 -0.94906198264E+02 -0.46764069753E+01 -0.98478534748E+02  0.13692759787E+03  0.47000000000E+01 0. -1.
         -5    1    4    4    0  502  0.37171321400E+02 -0.98678366512E+01 -0.22239629294E+02  0.44674069055E+02  0.47000000000E+01 0. -1.
          5    1    5    5  503    0  0.40909595764E+02  0.14886349000E+01 -0.12794391577E+03  0.13441557440E+03  0.47000000000E+01 0.  1.
         -5    1    5    5    0  503  0.16825281100E+02  0.13055608727E+02  0.28422306668E+02  0.35825361403E+02  0.47000000000E+01 0.  1.
<mgrwt>
<rscale>  0 0.27438597E+03</rscale>
<asrwt>0</asrwt>
<pdfrwt beam="1">  1        2 0.44006338E-01 0.27438597E+03</pdfrwt>
<pdfrwt beam="2">  1       -2 0.10123294E-01 0.27438597E+03</pdfrwt>
<totfact> 0.74355262E+03</totfact>
</mgrwt>
</event>
<event>
 9    1  0.2117506E-002  0.2707418E+03  0.7818608E-02  0.1100856E+00
          2   -1    0    0  501    0  0.00000000000E+00  0.00000000000E+00  0.49054364926E+03  0.49054364926E+03  0.00000000000E+00 0.  1.
         -2   -1    0    0    0  501 -0.00000000000E+00 -0.00000000000E+00 -0.37357079207E+02  0.37357079207E+02  0.00000000000E+00 0.  1.
         36    2    1    2    0    0 -0.17763568394E-14  0.00000000000E+00  0.45318657005E+03  0.52790072847E+03  0.27074178074E+03 0.  0.
         25    2    3    3    0    0 -0.15104601687E+02 -0.10565052926E+02  0.13447480758E+03  0.18387540272E+03  0.12404402653E+03 0.  0.
         25    2    3    3    0    0  0.15104601687E+02  0.10565052926E+02  0.31871176248E+03  0.34402532575E+03  0.12820478882E+03 0.  0.
          5    1    4    4  502    0 -0.27344558710E+02  0.40490430321E+01  0.15379492990E+03  0.15633006782E+03  0.47000000000E+01 0.  1.
         -5    1    4    4    0  502  0.12239957023E+02 -0.14614095958E+02 -0.19320122323E+02  0.27545334907E+02  0.47000000000E+01 0.  1.
          5    1    5    5  503    0  0.24333437753E+02 -0.33720554449E+02  0.29358357548E+02  0.51119420411E+02  0.47000000000E+01 0. -1.
         -5    1    5    5    0  503 -0.92288360653E+01  0.44285607375E+02  0.28935340493E+03  0.29290590534E+03  0.47000000000E+01 0. -1.
<mgrwt>
<rscale>  0 0.27074178E+03</rscale>
<asrwt>0</asrwt>
<pdfrwt beam="1">  1        2 0.75468249E-01 0.27074178E+03</pdfrwt>
<pdfrwt beam="2">  1       -2 0.57472433E-02 0.27074178E+03</pdfrwt>
<totfact> 0.99924932E+03</totfact>
</mgrwt>
</event>
<event>
 9    1  0.2117506E-002  0.2754522E+03  0.7818608E-02  0.1098199E+00
          2   -1    0    0  501    0  0.00000000000E+00  0.00000000000E+00  0.16590882191E+03  0.16590882191E+03  0.00000000000E+00 0. -1.
         -2   -1    0    0    0  501 -0.00000000000E+00 -0.00000000000E+00 -0.11433076650E+03  0.11433076650E+03  0.00000000000E+00 0. -1.
         36    2    1    2    0    0 -0.35527136788E-14  0.71054273576E-14  0.51578055413E+02  0.28023958841E+03  0.27545223018E+03 0.  0.
         25    2    3    3    0    0 -0.12382340477E+02 -0.39976742740E+02 -0.16502669044E+02  0.12970987670E+03  0.12165875107E+03 0.  0.
         25    2    3    3    0    0  0.12382340477E+02  0.39976742740E+02  0.68080724457E+02  0.15052971171E+03  0.12756467673E+03 0.  0.
          5    1    4    4  502    0  0.29802268613E+02 -0.54299182944E+02  0.26572468229E+02  0.67563026506E+02  0.47000000000E+01 0. -1.
         -5    1    4    4    0  502 -0.42184609090E+02  0.14322440204E+02 -0.43075137273E+02  0.62146850190E+02  0.47000000000E+01 0. -1.
          5    1    5    5  503    0  0.42704400110E+02  0.59981416165E+02  0.82934782862E+02  0.11100317240E+03  0.47000000000E+01 0. -1.
         -5    1    5    5    0  503 -0.30322059633E+02 -0.20004673426E+02 -0.14854058405E+02  0.39526539316E+02  0.47000000000E+01 0. -1.
<mgrwt>
<rscale>  0 0.27545223E+03</rscale>
<asrwt>0</asrwt>
<pdfrwt beam="1">  1        2 0.25524434E-01 0.27545223E+03</pdfrwt>
<pdfrwt beam="2">  1       -2 0.17589349E-01 0.27545223E+03</pdfrwt>
<totfact> 0.54638940E+03</totfact>
</mgrwt>
</event>
<event>
 9    1  0.2117506E-002  0.2768373E+03  0.7818608E-02  0.1097429E+00
         -1   -1    0    0    0  501 -0.00000000000E+00  0.00000000000E+00  0.29532492243E+02  0.29532492243E+02  0.00000000000E+00 0. -1.
          1   -1    0    0  501    0  0.00000000000E+00 -0.00000000000E+00 -0.64876738017E+03  0.64876738017E+03  0.00000000000E+00 0. -1.
         36    2    1    2    0    0  0.53290705182E-14  0.00000000000E+00 -0.61923488792E+03  0.67829987241E+03  0.27683726355E+03 0.  0.
         25    2    3    3    0    0  0.13615899266E+02  0.32227114481E+01 -0.31208386189E+03  0.34638794266E+03  0.14964120884E+03 0.  0.
         25    2    3    3    0    0 -0.13615899266E+02 -0.32227114481E+01 -0.30715102603E+03  0.33191192975E+03  0.12501199038E+03 0.  0.
          5    1    4    4  502    0  0.77608555578E+02  0.23978106080E+02 -0.19459054751E+03  0.21091611757E+03  0.47000000000E+01 0. -1.
         -5    1    4    4    0  502 -0.63992656313E+02 -0.20755394632E+02 -0.11749331438E+03  0.13547182509E+03  0.47000000000E+01 0. -1.
          5    1    5    5  503    0 -0.16585057532E+02  0.34907521685E+02 -0.28462935758E+03  0.28727958577E+03  0.47000000000E+01 0. -1.
         -5    1    5    5    0  503  0.29691582666E+01 -0.38130233133E+02 -0.22521668452E+02  0.44632343983E+02  0.47000000000E+01 0. -1.
<mgrwt>
<rscale>  0 0.27683726E+03</rscale>
<asrwt>0</asrwt>
<pdfrwt beam="1">  1        1 0.99810352E-01 0.27683726E+03</pdfrwt>
<pdfrwt beam="2">  1       -1 0.45434610E-02 0.27683726E+03</pdfrwt>
<totfact> 0.63794716E+03</totfact>
</mgrwt>
</event>
<event>
 9    1  0.2117506E-002  0.2754006E+03  0.7818608E-02  0.1098228E+00
         -2   -1    0    0    0  501 -0.00000000000E+00  0.00000000000E+00  0.18710671964E+02  0.18710671964E+02  0.00000000000E+00 0.  1.
          2   -1    0    0  501    0  0.00000000000E+00 -0.00000000000E+00 -0.10133985520E+04  0.10133985520E+04  0.00000000000E+00 0.  1.
         36    2    1    2    0    0  0.71054273576E-14 -0.35527136788E-14 -0.99468788006E+03  0.10321092240E+04  0.27540056554E+03 0.  0.
         25    2    3    3    0    0  0.51929759811E+02  0.66351911974E+01 -0.42891366297E+03  0.44935437997E+03  0.12333573203E+03 0.  0.
         25    2    3    3    0    0 -0.51929759811E+02 -0.66351911974E+01 -0.56577421708E+03  0.58275484401E+03  0.12946821151E+03 0.  0.
          5    1    4    4  502    0  0.44039959448E+02 -0.43918590999E+02 -0.34771197547E+03  0.35326203950E+03  0.47000000000E+01 0. -1.
         -5    1    4    4    0  502  0.78898003631E+01  0.50553782197E+02 -0.81201687502E+02  0.96092340472E+02  0.47000000000E+01 0. -1.
          5    1    5    5  503    0 -0.59619816653E+02 -0.23238260510E+02 -0.11582075136E+03  0.13240496869E+03  0.47000000000E+01 0.  1.
         -5    1    5    5    0  503  0.76900568423E+01  0.16603069312E+02 -0.44995346573E+03  0.45034987532E+03  0.47000000000E+01 0.  1.
<mgrwt>
<rscale>  0 0.27540057E+03</rscale>
<asrwt>0</asrwt>
<pdfrwt beam="1">  1        2 0.15590752E+00 0.27540057E+03</pdfrwt>
<pdfrwt beam="2">  1       -2 0.28785640E-02 0.27540057E+03</pdfrwt>
<totfact> 0.11579254E+04</totfact>
</mgrwt>
</event>
<event>
 9    1  0.2117506E-002  0.2748078E+03  0.7818608E-02  0.1098559E+00
          2   -1    0    0  501    0  0.00000000000E+00  0.00000000000E+00  0.14520249019E+04  0.14520249019E+04  0.00000000000E+00 0.  1.
         -2   -1    0    0    0  501 -0.00000000000E+00 -0.00000000000E+00 -0.13002419630E+02  0.13002419630E+02  0.00000000000E+00 0.  1.
         36    2    1    2    0    0 -0.35527136788E-14  0.00000000000E+00  0.14390224823E+04  0.14650273216E+04  0.27480783896E+03 0.  0.
         25    2    3    3    0    0 -0.10422211051E+02 -0.41379903225E+02  0.91681485752E+03  0.92631408826E+03  0.12524930444E+03 0.  0.
         25    2    3    3    0    0  0.10422211051E+02  0.41379903225E+02  0.52220762478E+03  0.53871323331E+03  0.12526063022E+03 0.  0.
          5    1    4    4  502    0 -0.20423814307E+02 -0.65520267759E+02  0.86820847025E+03  0.87092943198E+03  0.47000000000E+01 0.  1.
         -5    1    4    4    0  502  0.10001603257E+02  0.24140364533E+02  0.48606387273E+02  0.55384656280E+02  0.47000000000E+01 0.  1.
          5    1    5    5  503    0 -0.18777282120E+02  0.79706366997E+02  0.28253533340E+03  0.29420060483E+03  0.47000000000E+01 0.  1.
         -5    1    5    5    0  503  0.29199493170E+02 -0.38326463772E+02  0.23967229138E+03  0.24451262847E+03  0.47000000000E+01 0.  1.
<mgrwt>
<rscale>  0 0.27480784E+03</rscale>
<asrwt>0</asrwt>
<pdfrwt beam="1">  1        2 0.22338832E+00 0.27480784E+03</pdfrwt>
<pdfrwt beam="2">  1       -2 0.20003734E-02 0.27480784E+03</pdfrwt>
<totfact> 0.11189744E+04</totfact>
</mgrwt>
</event>
<event>
 9    1  0.2117506E-002  0.2744627E+03  0.7818608E-02  0.1098752E+00
          2   -1    0    0  501    0  0.00000000000E+00  0.00000000000E+00  0.34120629736E+03  0.34120629736E+03  0.00000000000E+00 0. -1.
         -2   -1    0    0    0  501 -0.00000000000E+00 -0.00000000000E+00 -0.55193714475E+02  0.55193714475E+02  0.00000000000E+00 0. -1.
         36    2    1    2    0    0  0.71054273576E-14  0.00000000000E+00  0.28601258288E+03  0.39640001183E+03  0.27446269658E+03 0.  0.
         25    2    3    3    0    0 -0.24869280695E+02 -0.34677357325E+02  0.10464227302E+03  0.17028275041E+03  0.12737821458E+03 0.  0.
         25    2    3    3    0    0  0.24869280695E+02  0.34677357325E+02  0.18137030986E+03  0.22611726142E+03  0.12811255356E+03 0.  0.
          5    1    4    4  502    0  0.27467985651E+02 -0.57050709616E+02  0.92008263782E+02  0.11178946421E+03  0.47000000000E+01 0.  1.
         -5    1    4    4    0  502 -0.52337266347E+02  0.22373352291E+02  0.12634009238E+02  0.58493286203E+02  0.47000000000E+01 0.  1.
          5    1    5    5  503    0 -0.27176123003E+02  0.62848229263E+02  0.60658742888E+02  0.91597023269E+02  0.47000000000E+01 0. -1.
         -5    1    5    5    0  503  0.52045403698E+02 -0.28170871938E+02  0.12071156697E+03  0.13452023815E+03  0.47000000000E+01 0. -1.
<mgrwt>
<rscale>  0 0.27446270E+03</rscale>
<asrwt>0</asrwt>
<pdfrwt beam="1">  1        2 0.52493275E-01 0.27446270E+03</pdfrwt>
<pdfrwt beam="2">  1       -2 0.84913409E-02 0.27446270E+03</pdfrwt>
<totfact> 0.81191327E+03</totfact>
</mgrwt>
</event>
<event>
 9    1  0.2117506E-002  0.2747590E+03  0.7818608E-02  0.1098586E+00
          2   -1    0    0  501    0  0.00000000000E+00  0.00000000000E+00  0.13932469915E+04  0.13932469915E+04  0.00000000000E+00 0.  1.
         -2   -1    0    0    0  501 -0.00000000000E+00 -0.00000000000E+00 -0.13546149317E+02  0.13546149317E+02  0.00000000000E+00 0.  1.
         36    2    1    2    0    0 -0.35527136788E-14  0.00000000000E+00  0.13797008422E+04  0.14067931408E+04  0.27475903466E+03 0.  0.
         25    2    3    3    0    0  0.20725650536E+02  0.52068901593E+02  0.58373563893E+03  0.59929761635E+03  0.12357027837E+03 0.  0.
         25    2    3    3    0    0 -0.20725650536E+02 -0.52068901593E+02  0.79596520325E+03  0.80749552447E+03  0.12388581093E+03 0.  0.
          5    1    4    4  502    0  0.78887364726E+01 -0.39925225166E+02  0.13751380014E+03  0.14348655337E+03  0.47000000000E+01 0. -1.
         -5    1    4    4    0  502  0.12836914063E+02  0.91994126760E+02  0.44622183879E+03  0.45581106298E+03  0.47000000000E+01 0. -1.
          5    1    5    5  503    0  0.12280529837E+02 -0.86637488317E+02  0.48728893789E+03  0.49510550874E+03  0.47000000000E+01 0.  1.
         -5    1    5    5    0  503 -0.33006180372E+02  0.34568586724E+02  0.30867626536E+03  0.31239001573E+03  0.47000000000E+01 0.  1.
<mgrwt>
<rscale>  0 0.27475903E+03</rscale>
<asrwt>0</asrwt>
<pdfrwt beam="1">  1        2 0.21434558E+00 0.27475903E+03</pdfrwt>
<pdfrwt beam="2">  1       -2 0.20840241E-02 0.27475903E+03</pdfrwt>
<totfact> 0.11335264E+04</totfact>
</mgrwt>
</event>
<event>
 9    1  0.2117506E-002  0.2864247E+03  0.7818608E-02  0.1092231E+00
          2   -1    0    0  501    0  0.00000000000E+00  0.00000000000E+00  0.25122537357E+02  0.25122537357E+02  0.00000000000E+00 0. -1.
         -2   -1    0    0    0  501 -0.00000000000E+00 -0.00000000000E+00 -0.81638973373E+03  0.81638973373E+03  0.00000000000E+00 0. -1.
         36    2    1    2    0    0  0.14210854715E-13  0.00000000000E+00 -0.79126719637E+03  0.84151227109E+03  0.28642473066E+03 0.  0.
         25    2    3    3    0    0 -0.41488002406E+02 -0.54602312610E+02 -0.35212223414E+03  0.37999930279E+03  0.12532651540E+03 0.  0.
         25    2    3    3    0    0  0.41488002406E+02  0.54602312610E+02 -0.43914496224E+03  0.46151296830E+03  0.12427089427E+03 0.  0.
          5    1    4    4  502    0  0.44404178443E+02 -0.26084230215E+02 -0.14392632932E+03  0.15293461479E+03  0.47000000000E+01 0.  1.
         -5    1    4    4    0  502 -0.85892180849E+02 -0.28518082395E+02 -0.20819590482E+03  0.22706468800E+03  0.47000000000E+01 0.  1.
          5    1    5    5  503    0  0.67753595758E+02 -0.10307775128E+02 -0.26499095696E+03  0.27375006344E+03  0.47000000000E+01 0.  1.
         -5    1    5    5    0  503 -0.26265593352E+02  0.64910087738E+02 -0.17415400528E+03  0.18776290485E+03  0.47000000000E+01 0.  1.
<mgrwt>
<rscale>  0 0.28642473E+03</rscale>
<asrwt>0</asrwt>
<pdfrwt beam="1">  1        2 0.38650060E-02 0.28642473E+03</pdfrwt>
<pdfrwt beam="2">  1       -2 0.12559841E+00 0.28642473E+03</pdfrwt>
<totfact> 0.11038255E+03</totfact>
</mgrwt>
</event>
<event>
 9    1  0.2117506E-002  0.2741480E+03  0.7818608E-02  0.1098929E+00
         -2   -1    0    0    0  501 -0.00000000000E+00  0.00000000000E+00  0.75352595991E+01  0.75352595991E+01  0.00000000000E+00 0. -1.
          2   -1    0    0  501    0  0.00000000000E+00 -0.00000000000E+00 -0.24935152610E+04  0.24935152610E+04  0.00000000000E+00 0. -1.
         36    2    1    2    0    0  0.00000000000E+00 -0.10658141036E-13 -0.24859800014E+04  0.25010505206E+04  0.27414802429E+03 0.  0.
         25    2    3    3    0    0 -0.38302072095E+02 -0.26551006782E+02 -0.16199529529E+04  0.16254362314E+04  0.12499347198E+03 0.  0.
         25    2    3    3    0    0  0.38302072095E+02  0.26551006782E+02 -0.86602704849E+03  0.87561428919E+03  0.12052190686E+03 0.  0.
          5    1    4    4  502    0 -0.19301380640E+02  0.37948195330E+02 -0.23685865956E+03  0.24070048490E+03  0.47000000000E+01 0.  1.
         -5    1    4    4    0  502 -0.19000691455E+02 -0.64499202112E+02 -0.13830942933E+04  0.13847357465E+04  0.47000000000E+01 0.  1.
          5    1    5    5  503    0 -0.25683101963E+02  0.52714027557E+02 -0.45522984802E+03  0.45901491801E+03  0.47000000000E+01 0.  1.
         -5    1    5    5    0  503  0.63985174057E+02 -0.26163020775E+02 -0.41079720046E+03  0.41659937117E+03  0.47000000000E+01 0.  1.
<mgrwt>
<rscale>  0 0.27414802E+03</rscale>
<asrwt>0</asrwt>
<pdfrwt beam="1">  1        2 0.38361825E+00 0.27414802E+03</pdfrwt>
<pdfrwt beam="2">  1       -2 0.11592691E-02 0.27414802E+03</pdfrwt>
<totfact> 0.69523068E+03</totfact>
</mgrwt>
</event>
<event>
 9    1  0.2117506E-002  0.2756324E+03  0.7818608E-02  0.1098099E+00
         -2   -1    0    0    0  501 -0.00000000000E+00  0.00000000000E+00  0.43524709451E+02  0.43524709451E+02  0.00000000000E+00 0.  1.
          2   -1    0    0  501    0  0.00000000000E+00 -0.00000000000E+00 -0.43637975537E+03  0.43637975537E+03  0.00000000000E+00 0.  1.
         36    2    1    2    0    0 -0.71054273576E-14  0.35527136788E-14 -0.39285504592E+03  0.47990446482E+03  0.27563237881E+03 0.  0.
         25    2    3    3    0    0 -0.49062629026E+02  0.11980098952E+02 -0.19763155978E+03  0.24104897694E+03  0.12843563184E+03 0.  0.
         25    2    3    3    0    0  0.49062629026E+02 -0.11980098952E+02 -0.19522348614E+03  0.23885548788E+03  0.12801980398E+03 0.  0.
          5    1    4    4  502    0  0.59821672409E+01  0.40347215717E+02 -0.84282181738E+01  0.41914305465E+02  0.47000000000E+01 0.  1.
         -5    1    4    4    0  502 -0.55044796267E+02 -0.28367116765E+02 -0.18920334160E+03  0.19913467147E+03  0.47000000000E+01 0.  1.
          5    1    5    5  503    0  0.59886280002E+02 -0.41445758576E+02 -0.19379650270E+03  0.20708281410E+03  0.47000000000E+01 0. -1.
         -5    1    5    5    0  503 -0.10823650976E+02  0.29465659624E+02 -0.14269834427E+01  0.31772673783E+02  0.47000000000E+01 0. -1.
<mgrwt>
<rscale>  0 0.27563238E+03</rscale>
<asrwt>0</asrwt>
<pdfrwt beam="1">  1        2 0.67135349E-01 0.27563238E+03</pdfrwt>
<pdfrwt beam="2">  1       -2 0.66961090E-02 0.27563238E+03</pdfrwt>
<totfact> 0.89978373E+03</totfact>
</mgrwt>
</event>
<event>
 9    1  0.2117506E-002  0.2744805E+03  0.7818608E-02  0.1098742E+00
          1   -1    0    0  501    0  0.00000000000E+00  0.00000000000E+00  0.13336569415E+04  0.13336569415E+04  0.00000000000E+00 0.  1.
         -1   -1    0    0    0  501 -0.00000000000E+00 -0.00000000000E+00 -0.14122733127E+02  0.14122733127E+02  0.00000000000E+00 0.  1.
         36    2    1    2    0    0 -0.44408920985E-14  0.14210854715E-13  0.13195342084E+04  0.13477796746E+04  0.27448046246E+03 0.  0.
         25    2    3    3    0    0  0.78282115135E+01  0.66302321933E+02  0.85639305421E+03  0.86794586084E+03  0.12435302676E+03 0.  0.
         25    2    3    3    0    0 -0.78282115135E+01 -0.66302321933E+02  0.46314115416E+03  0.47983381378E+03  0.10622373268E+03 0.  0.
          5    1    4    4  502    0  0.54469417365E+02  0.23081172641E+02  0.62866816135E+03  0.63146290870E+03  0.47000000000E+01 0. -1.
         -5    1    4    4    0  502 -0.46641205852E+02  0.43221149292E+02  0.22772489286E+03  0.23648295215E+03  0.47000000000E+01 0. -1.
          5    1    5    5  503    0 -0.11205114657E+02 -0.17277559075E+00  0.19616926690E+00  0.12153720758E+02  0.47000000000E+01 0.  1.
         -5    1    5    5    0  503  0.33769031434E+01 -0.66129546342E+02  0.46294498489E+03  0.46768009302E+03  0.47000000000E+01 0.  1.
<mgrwt>
<rscale>  0 0.27448046E+03</rscale>
<asrwt>0</asrwt>
<pdfrwt beam="1">  1        1 0.20517789E+00 0.27448046E+03</pdfrwt>
<pdfrwt beam="2">  1       -1 0.21727292E-02 0.27448046E+03</pdfrwt>
<totfact> 0.56196638E+03</totfact>
</mgrwt>
</event>
<event>
 9    1  0.2117506E-002  0.2746805E+03  0.7818608E-02  0.1098630E+00
          2   -1    0    0  501    0  0.00000000000E+00  0.00000000000E+00  0.47206287725E+02  0.47206287725E+02  0.00000000000E+00 0. -1.
         -2   -1    0    0    0  501 -0.00000000000E+00 -0.00000000000E+00 -0.39957265088E+03  0.39957265088E+03  0.00000000000E+00 0. -1.
         36    2    1    2    0    0  0.71054273576E-14  0.00000000000E+00 -0.35236636315E+03  0.44677893860E+03  0.27468048001E+03 0.  0.
         25    2    3    3    0    0  0.58316440863E+02  0.10374623417E+01 -0.24216836839E+03  0.27064613336E+03  0.10583915743E+03 0.  0.
         25    2    3    3    0    0 -0.58316440863E+02 -0.10374623417E+01 -0.11019799476E+03  0.17613280525E+03  0.12440773060E+03 0.  0.
          5    1    4    4  502    0 -0.45165071511E+01 -0.42793107392E+02 -0.10276214743E+03  0.11150694069E+03  0.47000000000E+01 0.  1.
         -5    1    4    4    0  502  0.62832948014E+02  0.43830569734E+02 -0.13940622096E+03  0.15913919267E+03  0.47000000000E+01 0.  1.
          5    1    5    5  503    0  0.13189988457E+02  0.33269954934E+02  0.47417936603E+01  0.36406596984E+02  0.47000000000E+01 0.  1.
         -5    1    5    5    0  503 -0.71506429319E+02 -0.34307417276E+02 -0.11493978842E+03  0.13972620826E+03  0.47000000000E+01 0.  1.
<mgrwt>
<rscale>  0 0.27468048E+03</rscale>
<asrwt>0</asrwt>
<pdfrwt beam="1">  1        2 0.72625057E-02 0.27468048E+03</pdfrwt>
<pdfrwt beam="2">  1       -2 0.61472717E-01 0.27468048E+03</pdfrwt>
<totfact> 0.24142509E+03</totfact>
</mgrwt>
</event>
<event>
 9    1  0.2117506E-002  0.2743265E+03  0.7818608E-02  0.1098829E+00
         -4   -1    0    0    0  501 -0.00000000000E+00  0.00000000000E+00  0.75320859226E+02  0.75320859226E+02  0.00000000000E+00 0. -1.
          4   -1    0    0  501    0  0.00000000000E+00 -0.00000000000E+00 -0.24978151127E+03  0.24978151127E+03  0.00000000000E+00 0. -1.
         36    2    1    2    0    0 -0.71054273576E-14  0.00000000000E+00 -0.17446065205E+03  0.32510237050E+03  0.27432650654E+03 0.  0.
         25    2    3    3    0    0 -0.37464188592E+02 -0.32885203035E+02 -0.77847194882E+02  0.15896399764E+03  0.12932271567E+03 0.  0.
         25    2    3    3    0    0  0.37464188592E+02  0.32885203035E+02 -0.96613457165E+02  0.16613837287E+03  0.12562960172E+03 0.  0.
          5    1    4    4  502    0  0.71320480534E+01  0.14077308443E+02  0.29338736328E+02  0.33643545766E+02  0.47000000000E+01 0. -1.
         -5    1    4    4    0  502 -0.44596236646E+02 -0.46962511479E+02 -0.10718593121E+03  0.12532045187E+03  0.47000000000E+01 0. -1.
          5    1    5    5  503    0 -0.10311444200E+02  0.71013463101E+02 -0.66027279208E+02  0.97626479107E+02  0.47000000000E+01 0. -1.
         -5    1    5    5    0  503  0.47775632792E+02 -0.38128260066E+02 -0.30586177957E+02  0.68511893758E+02  0.47000000000E+01 0. -1.
<mgrwt>
<rscale>  0 0.27432651E+03</rscale>
<asrwt>0</asrwt>
<pdfrwt beam="1">  1        4 0.38427925E-01 0.27432651E+03</pdfrwt>
<pdfrwt beam="2">  1       -4 0.11587824E-01 0.27432651E+03</pdfrwt>
<totfact> 0.72824303E+02</totfact>
</mgrwt>
</event>
<event>
 9    1  0.2117506E-002  0.2785845E+03  0.7818608E-02  0.1096465E+00
          2   -1    0    0  501    0  0.00000000000E+00  0.00000000000E+00  0.65435817701E+03  0.65435817701E+03  0.00000000000E+00 0. -1.
         -2   -1    0    0    0  501 -0.00000000000E+00 -0.00000000000E+00 -0.29650924847E+02  0.29650924847E+02  0.00000000000E+00 0. -1.
         36    2    1    2    0    0  0.71054273576E-14  0.00000000000E+00  0.62470725217E+03  0.68400910186E+03  0.27858445850E+03 0.  0.
         25    2    3    3    0    0  0.29751925451E+02  0.29478008732E+02  0.42744619280E+03  0.44741398318E+03  0.12535906243E+03 0.  0.
         25    2    3    3    0    0 -0.29751925451E+02 -0.29478008732E+02  0.19726105936E+03  0.23659511868E+03  0.12373841189E+03 0.  0.
          5    1    4    4  502    0  0.36656036866E+02  0.66635632196E+02  0.15940362529E+03  0.17667930912E+03  0.47000000000E+01 0. -1.
         -5    1    4    4    0  502 -0.69041114155E+01 -0.37157623464E+02  0.26804256752E+03  0.27073467406E+03  0.47000000000E+01 0. -1.
          5    1    5    5  503    0  0.36797065301E+01  0.46376329578E+02  0.84348486875E+02  0.96442010677E+02  0.47000000000E+01 0. -1.
         -5    1    5    5    0  503 -0.33431631981E+02 -0.75854338311E+02  0.11291257249E+03  0.14015310801E+03  0.47000000000E+01 0. -1.
<mgrwt>
<rscale>  0 0.27858446E+03</rscale>
<asrwt>0</asrwt>
<pdfrwt beam="1">  1        2 0.10067048E+00 0.27858446E+03</pdfrwt>
<pdfrwt beam="2">  1       -2 0.45616812E-02 0.27858446E+03</pdfrwt>
<totfact> 0.10212732E+04</totfact>
</mgrwt>
</event>
<event>
 9    1  0.2117506E-002  0.2745848E+03  0.7818608E-02  0.1098684E+00
          2   -1    0    0  501    0  0.00000000000E+00  0.00000000000E+00  0.31751247680E+04  0.31751247680E+04  0.00000000000E+00 0.  1.
         -2   -1    0    0    0  501 -0.00000000000E+00 -0.00000000000E+00 -0.59365223368E+01  0.59365223368E+01  0.00000000000E+00 0.  1.
         36    2    1    2    0    0  0.00000000000E+00  0.00000000000E+00  0.31691882457E+04  0.31810612903E+04  0.27458477093E+03 0.  0.
         25    2    3    3    0    0 -0.18813373800E+02 -0.41597398939E+01  0.10293279638E+04  0.10374945403E+04  0.12848197394E+03 0.  0.
         25    2    3    3    0    0  0.18813373800E+02  0.41597398939E+01  0.21398602819E+04  0.21435667500E+04  0.12451963494E+03 0.  0.
          5    1    4    4  502    0  0.13866500851E+02  0.11094449773E+02  0.18703903824E+02  0.26216267466E+02  0.47000000000E+01 0. -1.
         -5    1    4    4    0  502 -0.32679874650E+02 -0.15254189667E+02  0.10106240600E+04  0.10112782728E+04  0.47000000000E+01 0. -1.
          5    1    5    5  503    0 -0.33487986627E+02  0.44908035393E+02  0.74165641453E+03  0.74378390954E+03  0.47000000000E+01 0. -1.
         -5    1    5    5    0  503  0.52301360426E+02 -0.40748295499E+02  0.13982038674E+04  0.13997828405E+04  0.47000000000E+01 0. -1.
<mgrwt>
<rscale>  0 0.27458477E+03</rscale>
<asrwt>0</asrwt>
<pdfrwt beam="1">  1        2 0.48847938E+00 0.27458477E+03</pdfrwt>
<pdfrwt beam="2">  1       -2 0.91331367E-03 0.27458477E+03</pdfrwt>
<totfact> 0.39736168E+03</totfact>
</mgrwt>
</event>
<event>
 9    1  0.2117506E-002  0.2750077E+03  0.7818608E-02  0.1098447E+00
         -2   -1    0    0    0  501 -0.00000000000E+00  0.00000000000E+00  0.26859573247E+02  0.26859573247E+02  0.00000000000E+00 0. -1.
          2   -1    0    0  501    0  0.00000000000E+00 -0.00000000000E+00 -0.70393184791E+03  0.70393184791E+03  0.00000000000E+00 0. -1.
         36    2    1    2    0    0  0.00000000000E+00  0.00000000000E+00 -0.67707227466E+03  0.73079142116E+03  0.27500770193E+03 0.  0.
         25    2    3    3    0    0  0.96655648964E+00  0.52691525868E+02 -0.27784247427E+03  0.30950757550E+03  0.12578222312E+03 0.  0.
         25    2    3    3    0    0 -0.96655648964E+00 -0.52691525868E+02 -0.39922980039E+03  0.42128384566E+03  0.12376717643E+03 0.  0.
          5    1    4    4  502    0  0.58894230294E+01  0.24619492202E+02  0.41157476189E+01  0.26073628025E+02  0.47000000000E+01 0.  1.
         -5    1    4    4    0  502 -0.49228665398E+01  0.28072033666E+02 -0.28195822189E+03  0.28343394747E+03  0.47000000000E+01 0.  1.
          5    1    5    5  503    0  0.36348981717E+02 -0.57682225984E+02 -0.36104120497E+03  0.36745248584E+03  0.47000000000E+01 0. -1.
         -5    1    5    5    0  503 -0.37315538207E+02  0.49907001160E+01 -0.38188595423E+02  0.53831359816E+02  0.47000000000E+01 0. -1.
<mgrwt>
<rscale>  0 0.27500770E+03</rscale>
<asrwt>0</asrwt>
<pdfrwt beam="1">  1        2 0.10829722E+00 0.27500770E+03</pdfrwt>
<pdfrwt beam="2">  1       -2 0.41322416E-02 0.27500770E+03</pdfrwt>
<totfact> 0.10855290E+04</totfact>
</mgrwt>
</event>
<event>
 8    1  0.2117506E-002  0.3244993E+03  0.7818608E-02  0.1073597E+00
          1   -1    0    0  501    0  0.00000000000E+00  0.00000000000E+00  0.72378205041E+03  0.72378205041E+03  0.00000000000E+00 0. -1.
         -1   -1    0    0    0  501 -0.00000000000E+00 -0.00000000000E+00 -0.36371376509E+02  0.36371376509E+02  0.00000000000E+00 0. -1.
         25    2    1    2    0    0 -0.64093157761E+00 -0.86878724657E+02  0.45601679505E+03  0.48035858115E+03  0.12346953277E+03 0.  0.
         25    2    1    2    0    0  0.64093157761E+00  0.86878724657E+02  0.23139387885E+03  0.27979484577E+03  0.13112476867E+03 0.  0.
          5    1    3    3  502    0 -0.38775257047E+02 -0.28008653621E+02  0.34914931737E+03  0.35244196835E+03  0.47000000000E+01 0. -1.
         -5    1    3    3    0  502  0.38134325469E+02 -0.58870071037E+02  0.10686747769E+03  0.12791661280E+03  0.47000000000E+01 0. -1.
          5    1    4    4  503    0 -0.15073343137E+01  0.50898908029E+02  0.59996085058E+01  0.51488408380E+02  0.47000000000E+01 0.  1.
         -5    1    4    4    0  503  0.21482658914E+01  0.35979816628E+02  0.22539427034E+03  0.22830643739E+03  0.47000000000E+01 0.  1.
<mgrwt>
<rscale>  0 0.32449930E+03</rscale>
<asrwt>0</asrwt>
<pdfrwt beam="1">  1        1 0.11135107E+00 0.32449930E+03</pdfrwt>
<pdfrwt beam="2">  1       -1 0.55955969E-02 0.32449930E+03</pdfrwt>
<totfact> 0.39922635E+03</totfact>
</mgrwt>
</event>
<event>
 9    1  0.2117506E-002  0.2737835E+03  0.7818608E-02  0.1099134E+00
         -1   -1    0    0    0  501 -0.00000000000E+00  0.00000000000E+00  0.59668322906E+01  0.59668322906E+01  0.00000000000E+00 0. -1.
          1   -1    0    0  501    0  0.00000000000E+00 -0.00000000000E+00 -0.31405854372E+04  0.31405854372E+04  0.00000000000E+00 0. -1.
         36    2    1    2    0    0 -0.71054273576E-14 -0.35527136788E-14 -0.31346186049E+04  0.31465522695E+04  0.27378346625E+03 0.  0.
         25    2    3    3    0    0  0.52161587842E+02  0.46398652499E+01 -0.17815981068E+04  0.17867262529E+04  0.12472581502E+03 0.  0.
         25    2    3    3    0    0 -0.52161587842E+02 -0.46398652499E+01 -0.13530204981E+04  0.13598260166E+04  0.12537929490E+03 0.  0.
          5    1    4    4  502    0  0.45517443668E+02 -0.23960573051E+02 -0.27349005106E+03  0.27832507032E+03  0.47000000000E+01 0. -1.
         -5    1    4    4    0  502  0.66441441740E+01  0.28600438301E+02 -0.15081080558E+04  0.15084011826E+04  0.47000000000E+01 0. -1.
          5    1    5    5  503    0  0.11030400968E+02 -0.48622608228E+02 -0.78448346354E+03  0.78608029001E+03  0.47000000000E+01 0. -1.
         -5    1    5    5    0  503 -0.63191988810E+02  0.43982742978E+02 -0.56853703454E+03  0.57374572658E+03  0.47000000000E+01 0. -1.
<mgrwt>
<rscale>  0 0.27378347E+03</rscale>
<asrwt>0</asrwt>
<pdfrwt beam="1">  1        1 0.48316813E+00 0.27378347E+03</pdfrwt>
<pdfrwt beam="2">  1       -1 0.91797204E-03 0.27378347E+03</pdfrwt>
<totfact> 0.12259921E+03</totfact>
</mgrwt>
</event>
<event>
 9    1  0.2117506E-002  0.2716498E+03  0.7818608E-02  0.1100339E+00
          1   -1    0    0  501    0  0.00000000000E+00  0.00000000000E+00  0.10288035436E+04  0.10288035436E+04  0.00000000000E+00 0. -1.
         -1   -1    0    0    0  501 -0.00000000000E+00 -0.00000000000E+00 -0.17931902387E+02  0.17931902387E+02  0.00000000000E+00 0. -1.
         36    2    1    2    0    0  0.00000000000E+00  0.00000000000E+00  0.10108716412E+04  0.10467354460E+04  0.27164980927E+03 0.  0.
         25    2    3    3    0    0  0.69033787426E+02  0.53886545564E+02  0.27358944540E+03  0.29756469382E+03  0.77615325616E+02 0.  0.
         25    2    3    3    0    0 -0.69033787426E+02 -0.53886545564E+02  0.73728219577E+03  0.74917075214E+03  0.10001177956E+03 0.  0.
          5    1    4    4  502    0  0.48230647388E+01  0.12027580432E+02  0.40357293797E+00  0.13790486418E+02  0.47000000000E+01 0. -1.
         -5    1    4    4    0  502  0.64210722687E+02  0.41858965133E+02  0.27318587247E+03  0.28377420740E+03  0.47000000000E+01 0. -1.
          5    1    5    5  503    0 -0.26031741914E+02  0.27838601504E+02  0.28113070694E+03  0.28374143812E+03  0.47000000000E+01 0.  1.
         -5    1    5    5    0  503 -0.43002045512E+02 -0.81725147068E+02  0.45615148883E+03  0.46542931402E+03  0.47000000000E+01 0.  1.
<mgrwt>
<rscale>  0 0.27164981E+03</rscale>
<asrwt>0</asrwt>
<pdfrwt beam="1">  1        1 0.15827742E+00 0.27164981E+03</pdfrwt>
<pdfrwt beam="2">  1       -1 0.27587550E-02 0.27164981E+03</pdfrwt>
<totfact> 0.64914278E+03</totfact>
</mgrwt>
</event>
<event>
 9    1  0.2117506E-002  0.2806846E+03  0.7818608E-02  0.1095316E+00
         -3   -1    0    0    0  501 -0.00000000000E+00  0.00000000000E+00  0.47127682218E+03  0.47127682218E+03  0.00000000000E+00 0.  1.
          3   -1    0    0  501    0  0.00000000000E+00 -0.00000000000E+00 -0.41792754188E+02  0.41792754188E+02  0.00000000000E+00 0.  1.
         36    2    1    2    0    0  0.00000000000E+00 -0.71054273576E-14  0.42948406800E+03  0.51306957637E+03  0.28068456590E+03 0.  0.
         25    2    3    3    0    0  0.36516302056E+02  0.32862043397E+02  0.16932093890E+03  0.21811936008E+03  0.12842554528E+03 0.  0.
         25    2    3    3    0    0 -0.36516302056E+02 -0.32862043397E+02  0.26016312910E+03  0.29495021629E+03  0.12999008476E+03 0.  0.
          5    1    4    4  502    0 -0.41044063744E+01  0.76355541236E+02  0.80756741564E+02  0.11131377335E+03  0.47000000000E+01 0.  1.
         -5    1    4    4    0  502  0.40620708430E+02 -0.43493497838E+02  0.88564197337E+02  0.10680558673E+03  0.47000000000E+01 0.  1.
          5    1    5    5  503    0 -0.20251850427E+02 -0.79280588064E+02  0.11214602456E+03  0.13890417530E+03  0.47000000000E+01 0.  1.
         -5    1    5    5    0  503 -0.16264451629E+02  0.46418544667E+02  0.14801710453E+03  0.15604604099E+03  0.47000000000E+01 0.  1.
<mgrwt>
<rscale>  0 0.28068457E+03</rscale>
<asrwt>0</asrwt>
<pdfrwt beam="1">  1        3 0.64296548E-02 0.28068457E+03</pdfrwt>
<pdfrwt beam="2">  1       -3 0.72504123E-01 0.28068457E+03</pdfrwt>
<totfact> 0.71518492E+02</totfact>
</mgrwt>
</event>
<event>
 9    1  0.2117506E-002  0.2748750E+03  0.7818608E-02  0.1098522E+00
          2   -1    0    0  501    0  0.00000000000E+00  0.00000000000E+00  0.25851254207E+04  0.25851254207E+04  0.00000000000E+00 0.  1.
         -2   -1    0    0    0  501 -0.00000000000E+00 -0.00000000000E+00 -0.73068256696E+01  0.73068256696E+01  0.00000000000E+00 0.  1.
         36    2    1    2    0    0  0.00000000000E+00  0.00000000000E+00  0.25778185950E+04  0.25924322464E+04  0.27487495909E+03 0.  0.
         25    2    3    3    0    0 -0.40584038437E+02 -0.17827110316E+02  0.10989548488E+04  0.11072146326E+04  0.12750534474E+03 0.  0.
         25    2    3    3    0    0  0.40584038437E+02  0.17827110316E+02  0.14788637462E+04  0.14852176137E+04  0.12987882912E+03 0.  0.
          5    1    4    4  502    0 -0.52538070500E+02  0.32630571003E+02  0.87881983813E+03  0.88100590288E+03  0.47000000000E+01 0. -1.
         -5    1    4    4    0  502  0.11954032063E+02 -0.50457681319E+02  0.22013501070E+03  0.22620872977E+03  0.47000000000E+01 0. -1.
          5    1    5    5  503    0 -0.34193777061E+02 -0.29232376377E+02  0.67111998412E+03  0.67264245279E+03  0.47000000000E+01 0.  1.
         -5    1    5    5    0  503  0.74777815498E+02  0.47059486693E+02  0.80774376208E+03  0.81257516093E+03  0.47000000000E+01 0.  1.
<mgrwt>
<rscale>  0 0.27487496E+03</rscale>
<asrwt>0</asrwt>
<pdfrwt beam="1">  1        2 0.39771087E+00 0.27487496E+03</pdfrwt>
<pdfrwt beam="2">  1       -2 0.11241291E-02 0.27487496E+03</pdfrwt>
<totfact> 0.64733577E+03</totfact>
</mgrwt>
</event>
<event>
 9    1  0.2117506E-002  0.2751628E+03  0.7818608E-02  0.1098361E+00
         -1   -1    0    0    0  501 -0.00000000000E+00  0.00000000000E+00  0.87575309185E+01  0.87575309185E+01  0.00000000000E+00 0.  1.
          1   -1    0    0  501    0  0.00000000000E+00 -0.00000000000E+00 -0.21614135278E+04  0.21614135278E+04  0.00000000000E+00 0.  1.
         36    2    1    2    0    0  0.71054273576E-14  0.14210854715E-13 -0.21526559969E+04  0.21701710587E+04  0.27516283032E+03 0.  0.
         25    2    3    3    0    0  0.37702307336E+02  0.48472555582E+02 -0.10005906344E+04  0.10095006726E+04  0.11890726531E+03 0.  0.
         25    2    3    3    0    0 -0.37702307336E+02 -0.48472555582E+02 -0.11520653625E+04  0.11606703861E+04  0.12700430354E+03 0.  0.
          5    1    4    4  502    0 -0.52101851704E+01  0.76760661274E+02 -0.45589744191E+03  0.46236772454E+03  0.47000000000E+01 0. -1.
         -5    1    4    4    0  502  0.42912492506E+02 -0.28288105692E+02 -0.54469319245E+03  0.54713294804E+03  0.47000000000E+01 0. -1.
          5    1    5    5  503    0 -0.18750725949E+02 -0.20339718310E+02 -0.44712735156E+02  0.52788375138E+02  0.47000000000E+01 0. -1.
         -5    1    5    5    0  503 -0.18951581387E+02 -0.28132837272E+02 -0.11073526274E+04  0.11078820110E+04  0.47000000000E+01 0. -1.
<mgrwt>
<rscale>  0 0.27516283E+03</rscale>
<asrwt>0</asrwt>
<pdfrwt beam="1">  1        1 0.33252527E+00 0.27516283E+03</pdfrwt>
<pdfrwt beam="2">  1       -1 0.13473120E-02 0.27516283E+03</pdfrwt>
<totfact> 0.32324149E+03</totfact>
</mgrwt>
</event>
<event>
 9    1  0.2117506E-002  0.2765856E+03  0.7818608E-02  0.1097569E+00
         -1   -1    0    0    0  501 -0.00000000000E+00  0.00000000000E+00  0.33751402405E+02  0.33751402405E+02  0.00000000000E+00 0.  1.
          1   -1    0    0  501    0  0.00000000000E+00 -0.00000000000E+00 -0.56664010425E+03  0.56664010425E+03  0.00000000000E+00 0.  1.
         36    2    1    2    0    0  0.00000000000E+00  0.35527136788E-14 -0.53288870184E+03  0.60039150665E+03  0.27658559744E+03 0.  0.
         25    2    3    3    0    0 -0.22921974081E+02 -0.27195736624E+02 -0.30099837233E+03  0.32774968810E+03  0.12471893566E+03 0.  0.
         25    2    3    3    0    0  0.22921974081E+02  0.27195736624E+02 -0.23189032951E+03  0.27264181856E+03  0.13890792389E+03 0.  0.
          5    1    4    4  502    0  0.87118883234E+01  0.15462447266E+02 -0.25960164979E+03  0.26025005446E+03  0.47000000000E+01 0.  1.
         -5    1    4    4    0  502 -0.31633862404E+02 -0.42658183889E+02 -0.41396722545E+02  0.67499633634E+02  0.47000000000E+01 0.  1.
          5    1    5    5  503    0 -0.36425069035E+02 -0.36399474223E+02 -0.12130873288E+03  0.13186965553E+03  0.47000000000E+01 0.  1.
         -5    1    5    5    0  503  0.59347043116E+02  0.63595210846E+02 -0.11058159663E+03  0.14077216302E+03  0.47000000000E+01 0.  1.
<mgrwt>
<rscale>  0 0.27658560E+03</rscale>
<asrwt>0</asrwt>
<pdfrwt beam="1">  1        1 0.87175405E-01 0.27658560E+03</pdfrwt>
<pdfrwt beam="2">  1       -1 0.51925232E-02 0.27658560E+03</pdfrwt>
<totfact> 0.63080784E+03</totfact>
</mgrwt>
</event>
<event>
 9    1  0.2117506E-002  0.2748098E+03  0.7818608E-02  0.1098558E+00
         -2   -1    0    0    0  501 -0.00000000000E+00  0.00000000000E+00  0.32663195881E+03  0.32663195881E+03  0.00000000000E+00 0.  1.
          2   -1    0    0  501    0  0.00000000000E+00 -0.00000000000E+00 -0.57802374039E+02  0.57802374039E+02  0.00000000000E+00 0.  1.
         36    2    1    2    0    0  0.35527136788E-14  0.00000000000E+00  0.26882958477E+03  0.38443433285E+03  0.27480977171E+03 0.  0.
         25    2    3    3    0    0 -0.60427638451E+01 -0.41236557414E+02  0.74004433930E+02  0.15049783155E+03  0.12424158884E+03 0.  0.
         25    2    3    3    0    0  0.60427638451E+01  0.41236557414E+02  0.19482515084E+03  0.23393650130E+03  0.12260700869E+03 0.  0.
          5    1    4    4  502    0  0.48121226504E+02 -0.48142781742E+02  0.66330350792E+02  0.95158737435E+02  0.47000000000E+01 0. -1.
         -5    1    4    4    0  502 -0.54163990350E+02  0.69062243278E+01  0.76740831387E+01  0.55339094111E+02  0.47000000000E+01 0. -1.
          5    1    5    5  503    0  0.34111436885E+02 -0.33085387002E+01  0.17353608242E+03  0.17695027114E+03  0.47000000000E+01 0. -1.
         -5    1    5    5    0  503 -0.28068673040E+02  0.44545096114E+02  0.21289068423E+02  0.56986230165E+02  0.47000000000E+01 0. -1.
<mgrwt>
<rscale>  0 0.27480977E+03</rscale>
<asrwt>0</asrwt>
<pdfrwt beam="1">  1        2 0.88926731E-02 0.27480977E+03</pdfrwt>
<pdfrwt beam="2">  1       -2 0.50251070E-01 0.27480977E+03</pdfrwt>
<totfact> 0.28153169E+03</totfact>
</mgrwt>
</event>
<event>
 9    1  0.2117506E-002  0.2829238E+03  0.7818608E-02  0.1094103E+00
          1   -1    0    0  501    0  0.00000000000E+00  0.00000000000E+00  0.10229540461E+04  0.10229540461E+04  0.00000000000E+00 0. -1.
         -1   -1    0    0    0  501 -0.00000000000E+00 -0.00000000000E+00 -0.19562435569E+02  0.19562435569E+02  0.00000000000E+00 0. -1.
         36    2    1    2    0    0  0.71054273576E-14  0.00000000000E+00  0.10033916106E+04  0.10425164817E+04  0.28292382450E+03 0.  0.
         25    2    3    3    0    0  0.54753049050E+02 -0.23118382502E+02  0.32019158694E+03  0.34751992968E+03  0.12130578382E+03 0.  0.
         25    2    3    3    0    0 -0.54753049050E+02  0.23118382502E+02  0.68320002363E+03  0.69499655202E+03  0.11280770830E+03 0.  0.
          5    1    4    4  502    0  0.79454816240E+02 -0.22001529797E+02  0.11950242976E+03  0.14525858273E+03  0.47000000000E+01 0.  1.
         -5    1    4    4    0  502 -0.24701767190E+02 -0.11168527055E+01  0.20068915717E+03  0.20226134695E+03  0.47000000000E+01 0.  1.
          5    1    5    5  503    0 -0.46973882144E+02 -0.36350340698E+02  0.22072900466E+03  0.22862912406E+03  0.47000000000E+01 0.  1.
         -5    1    5    5    0  503 -0.77791669058E+01  0.59468723200E+02  0.46247101897E+03  0.46636742796E+03  0.47000000000E+01 0.  1.
<mgrwt>
<rscale>  0 0.28292382E+03</rscale>
<asrwt>0</asrwt>
<pdfrwt beam="1">  1        1 0.15737750E+00 0.28292382E+03</pdfrwt>
<pdfrwt beam="2">  1       -1 0.30096063E-02 0.28292382E+03</pdfrwt>
<totfact> 0.57715936E+03</totfact>
</mgrwt>
</event>
<event>
 9    1  0.2117506E-002  0.2746471E+03  0.7818608E-02  0.1098649E+00
          2   -1    0    0  501    0  0.00000000000E+00  0.00000000000E+00  0.20305045904E+04  0.20305045904E+04  0.00000000000E+00 0.  1.
         -2   -1    0    0    0  501 -0.00000000000E+00 -0.00000000000E+00 -0.92872269957E+01  0.92872269957E+01  0.00000000000E+00 0.  1.
         36    2    1    2    0    0 -0.10658141036E-13 -0.17763568394E-14  0.20212173634E+04  0.20397918174E+04  0.27464709754E+03 0.  0.
         25    2    3    3    0    0  0.19470566077E+02 -0.12387783775E+02  0.14164843215E+04  0.14220731289E+04  0.12382080057E+03 0.  0.
         25    2    3    3    0    0 -0.19470566077E+02  0.12387783775E+02  0.60473304187E+03  0.61771868849E+03  0.12386188299E+03 0.  0.
          5    1    4    4  502    0  0.37440836645E+02 -0.54862292238E+02  0.49962668187E+03  0.50404424269E+03  0.47000000000E+01 0.  1.
         -5    1    4    4    0  502 -0.17970270569E+02  0.42474508463E+02  0.91685763963E+03  0.91802888617E+03  0.47000000000E+01 0.  1.
          5    1    5    5  503    0  0.40315397457E+02  0.28019412687E+02  0.13150007605E+03  0.14044493142E+03  0.47000000000E+01 0.  1.
         -5    1    5    5    0  503 -0.59785963534E+02 -0.15631628912E+02  0.47323296581E+03  0.47727375707E+03  0.47000000000E+01 0.  1.
<mgrwt>
<rscale>  0 0.27464710E+03</rscale>
<asrwt>0</asrwt>
<pdfrwt beam="1">  1        2 0.31238497E+00 0.27464710E+03</pdfrwt>
<pdfrwt beam="2">  1       -2 0.14288058E-02 0.27464710E+03</pdfrwt>
<totfact> 0.90699073E+03</totfact>
</mgrwt>
</event>
<event>
 9    1  0.2117506E-002  0.2748152E+03  0.7818608E-02  0.1098555E+00
          2   -1    0    0  501    0  0.00000000000E+00  0.00000000000E+00  0.13635758097E+04  0.13635758097E+04  0.00000000000E+00 0.  1.
         -2   -1    0    0    0  501 -0.00000000000E+00 -0.00000000000E+00 -0.13846565434E+02  0.13846565434E+02  0.00000000000E+00 0.  1.
         36    2    1    2    0    0 -0.17763568394E-14  0.00000000000E+00  0.13497292442E+04  0.13774223751E+04  0.27481515004E+03 0.  0.
         25    2    3    3    0    0 -0.28259307935E+01  0.54521829975E+02  0.59273413871E+03  0.60823670551E+03  0.12505004962E+03 0.  0.
         25    2    3    3    0    0  0.28259307935E+01 -0.54521829975E+02  0.75699510553E+03  0.76918566960E+03  0.12499755473E+03 0.  0.
          5    1    4    4  502    0  0.46310401329E+02  0.63772212938E+02  0.25966952834E+03  0.27140726291E+03  0.47000000000E+01 0. -1.
         -5    1    4    4    0  502 -0.49136332123E+02 -0.92503829638E+01  0.33306461037E+03  0.33682944260E+03  0.47000000000E+01 0. -1.
          5    1    5    5  503    0 -0.72642297419E+01 -0.15598163892E+02  0.69446654421E+03  0.69469557561E+03  0.47000000000E+01 0. -1.
         -5    1    5    5    0  503  0.10090160535E+02 -0.38923666083E+02  0.62528561327E+02  0.74490093989E+02  0.47000000000E+01 0. -1.
<mgrwt>
<rscale>  0 0.27481515E+03</rscale>
<asrwt>0</asrwt>
<pdfrwt beam="1">  1        2 0.20978079E+00 0.27481515E+03</pdfrwt>
<pdfrwt beam="2">  1       -2 0.21302419E-02 0.27481515E+03</pdfrwt>
<totfact> 0.11391293E+04</totfact>
</mgrwt>
</event>
<event>
 9    1  0.2117506E-002  0.2809689E+03  0.7818608E-02  0.1095161E+00
          1   -1    0    0  501    0  0.00000000000E+00  0.00000000000E+00  0.15078388694E+04  0.15078388694E+04  0.00000000000E+00 0.  1.
         -1   -1    0    0    0  501 -0.00000000000E+00 -0.00000000000E+00 -0.13088853062E+02  0.13088853062E+02  0.00000000000E+00 0.  1.
         36    2    1    2    0    0 -0.71054273576E-14 -0.14210854715E-13  0.14947500164E+04  0.15209277225E+04  0.28096890507E+03 0.  0.
         25    2    3    3    0    0  0.26747258782E+02  0.61621007968E+02  0.77831003071E+03  0.79046868362E+03  0.12067175068E+03 0.  0.
         25    2    3    3    0    0 -0.26747258782E+02 -0.61621007968E+02  0.71643998566E+03  0.73045903887E+03  0.12558499090E+03 0.  0.
          5    1    4    4  502    0 -0.40028102624E+02 -0.63120330757E+01  0.17685278725E+03  0.18149680195E+03  0.47000000000E+01 0. -1.
         -5    1    4    4    0  502  0.66775361406E+02  0.67933041043E+02  0.60145724346E+03  0.60897188167E+03  0.47000000000E+01 0. -1.
          5    1    5    5  503    0 -0.65365692699E+02 -0.14087329407E+02  0.52855153332E+03  0.53278507863E+03  0.47000000000E+01 0.  1.
         -5    1    5    5    0  503  0.38618433916E+02 -0.47533678561E+02  0.18788845234E+03  0.19767396025E+03  0.47000000000E+01 0.  1.
<mgrwt>
<rscale>  0 0.28096891E+03</rscale>
<asrwt>0</asrwt>
<pdfrwt beam="1">  1        1 0.23197507E+00 0.28096891E+03</pdfrwt>
<pdfrwt beam="2">  1       -1 0.20136709E-02 0.28096891E+03</pdfrwt>
<totfact> 0.48016718E+03</totfact>
</mgrwt>
</event>
<event>
 9    1  0.2117506E-002  0.2749380E+03  0.7818608E-02  0.1098486E+00
         -2   -1    0    0    0  501 -0.00000000000E+00  0.00000000000E+00  0.12533503868E+02  0.12533503868E+02  0.00000000000E+00 0. -1.
          2   -1    0    0  501    0  0.00000000000E+00 -0.00000000000E+00 -0.15077762314E+04  0.15077762314E+04  0.00000000000E+00 0. -1.
         36    2    1    2    0    0 -0.10658141036E-13 -0.14210854715E-13 -0.14952427275E+04  0.15203097353E+04  0.27493795102E+03 0.  0.
         25    2    3    3    0    0 -0.26472719473E+02 -0.49119700882E+02 -0.65297132005E+03  0.66695292477E+03  0.12385923123E+03 0.  0.
         25    2    3    3    0    0  0.26472719473E+02  0.49119700882E+02 -0.84227140748E+03  0.85335681050E+03  0.12523247291E+03 0.  0.
          5    1    4    4  502    0 -0.38262606308E+02 -0.51504873462E+02 -0.14285288080E+03  0.15667103939E+03  0.47000000000E+01 0. -1.
         -5    1    4    4    0  502  0.11789886835E+02  0.23851725798E+01 -0.51011843925E+03  0.51028188538E+03  0.47000000000E+01 0. -1.
          5    1    5    5  503    0 -0.37613264296E+02  0.17931090991E+02 -0.11186248983E+03  0.11946375310E+03  0.47000000000E+01 0. -1.
         -5    1    5    5    0  503  0.64085983769E+02  0.31188609891E+02 -0.73040891765E+03  0.73389305739E+03  0.47000000000E+01 0. -1.
<mgrwt>
<rscale>  0 0.27493795E+03</rscale>
<asrwt>0</asrwt>
<pdfrwt beam="1">  1        2 0.23196560E+00 0.27493795E+03</pdfrwt>
<pdfrwt beam="2">  1       -2 0.19282311E-02 0.27493795E+03</pdfrwt>
<totfact> 0.11024582E+04</totfact>
</mgrwt>
</event>
<event>
 9    1  0.2117506E-002  0.2744590E+03  0.7818608E-02  0.1098754E+00
          2   -1    0    0  501    0  0.00000000000E+00  0.00000000000E+00  0.32712036045E+03  0.32712036045E+03  0.00000000000E+00 0. -1.
         -2   -1    0    0    0  501 -0.00000000000E+00 -0.00000000000E+00 -0.57568821571E+02  0.57568821571E+02  0.00000000000E+00 0. -1.
         36    2    1    2    0    0  0.00000000000E+00  0.35527136788E-14  0.26955153888E+03  0.38468918202E+03  0.27445898537E+03 0.  0.
         25    2    3    3    0    0 -0.34098456876E+02  0.27203563998E+02  0.12887194356E+03  0.19096811908E+03  0.13400785802E+03 0.  0.
         25    2    3    3    0    0  0.34098456876E+02 -0.27203563998E+02  0.14067959532E+03  0.19372106294E+03  0.12583466547E+03 0.  0.
          5    1    4    4  502    0  0.42650930825E+02  0.13671220559E+02  0.60604849125E+01  0.45440330645E+02  0.47000000000E+01 0. -1.
         -5    1    4    4    0  502 -0.76749387701E+02  0.13532343438E+02  0.12281145864E+03  0.14552778843E+03  0.47000000000E+01 0. -1.
          5    1    5    5  503    0  0.41176730214E+02  0.44412712242E+02  0.57703954836E+02  0.83784536303E+02  0.47000000000E+01 0.  1.
         -5    1    5    5    0  503 -0.70782733380E+01 -0.71616276240E+02  0.82975640485E+02  0.10993652664E+03  0.47000000000E+01 0.  1.
<mgrwt>
<rscale>  0 0.27445899E+03</rscale>
<asrwt>0</asrwt>
<pdfrwt beam="1">  1        2 0.50326208E-01 0.27445899E+03</pdfrwt>
<pdfrwt beam="2">  1       -2 0.88567420E-02 0.27445899E+03</pdfrwt>
<totfact> 0.79521719E+03</totfact>
</mgrwt>
</event>
<event>
 9    1  0.2117506E-002  0.2757246E+03  0.7818608E-02  0.1098047E+00
         -2   -1    0    0    0  501 -0.00000000000E+00  0.00000000000E+00  0.12962325560E+03  0.12962325560E+03  0.00000000000E+00 0. -1.
          2   -1    0    0  501    0  0.00000000000E+00 -0.00000000000E+00 -0.14662503415E+03  0.14662503415E+03  0.00000000000E+00 0. -1.
         36    2    1    2    0    0 -0.71054273576E-14  0.00000000000E+00 -0.17001778551E+02  0.27624828975E+03  0.27572460375E+03 0.  0.
         25    2    3    3    0    0  0.41347844461E+02  0.38366593515E+02  0.52409413067E+00  0.13695103567E+03  0.12479451813E+03 0.  0.
         25    2    3    3    0    0 -0.41347844461E+02 -0.38366593515E+02 -0.17525872682E+02  0.13929725408E+03  0.12615438574E+03 0.  0.
          5    1    4    4  502    0  0.69058289171E+02  0.57859201738E+01  0.38626445399E+02  0.79477144259E+02  0.47000000000E+01 0.  1.
         -5    1    4    4    0  502 -0.27710444710E+02  0.32580673341E+02 -0.38102351268E+02  0.57473891408E+02  0.47000000000E+01 0.  1.
          5    1    5    5  503    0  0.13142973784E+02 -0.19932738529E+02  0.46877086513E+02  0.52816693053E+02  0.47000000000E+01 0. -1.
         -5    1    5    5    0  503 -0.54490818245E+02 -0.18433854986E+02 -0.64402959195E+02  0.86480561028E+02  0.47000000000E+01 0. -1.
<mgrwt>
<rscale>  0 0.27572460E+03</rscale>
<asrwt>0</asrwt>
<pdfrwt beam="1">  1        2 0.22557697E-01 0.27572460E+03</pdfrwt>
<pdfrwt beam="2">  1       -2 0.19942039E-01 0.27572460E+03</pdfrwt>
<totfact> 0.50731658E+03</totfact>
</mgrwt>
</event>
<event>
 9    1  0.2117506E-002  0.2751526E+03  0.7818608E-02  0.1098366E+00
         -2   -1    0    0    0  501 -0.00000000000E+00  0.00000000000E+00  0.11212979145E+02  0.11212979145E+02  0.00000000000E+00 0.  1.
          2   -1    0    0  501    0  0.00000000000E+00 -0.00000000000E+00 -0.16879762260E+04  0.16879762260E+04  0.00000000000E+00 0.  1.
         36    2    1    2    0    0  0.35527136788E-14  0.00000000000E+00 -0.16767632468E+04  0.16991892051E+04  0.27515262833E+03 0.  0.
         25    2    3    3    0    0  0.30402499149E+02  0.17870475079E+02 -0.63042771380E+03  0.64368534691E+03  0.12509219666E+03 0.  0.
         25    2    3    3    0    0 -0.30402499149E+02 -0.17870475079E+02 -0.10463355330E+04  0.10555038582E+04  0.13426347672E+03 0.  0.
          5    1    4    4  502    0  0.21752154749E+02  0.68150115047E+02 -0.25894004794E+03  0.26868128487E+03  0.47000000000E+01 0. -1.
         -5    1    4    4    0  502  0.86503443994E+01 -0.50279639968E+02 -0.37148766586E+03  0.37500406203E+03  0.47000000000E+01 0. -1.
          5    1    5    5  503    0  0.22737092935E+02 -0.28012441588E+01 -0.87727950384E+03  0.87759115778E+03  0.47000000000E+01 0. -1.
         -5    1    5    5    0  503 -0.53139592084E+02 -0.15069230920E+02 -0.16905602919E+03  0.17791270043E+03  0.47000000000E+01 0. -1.
<mgrwt>
<rscale>  0 0.27515263E+03</rscale>
<asrwt>0</asrwt>
<pdfrwt beam="1">  1        2 0.25968858E+00 0.27515263E+03</pdfrwt>
<pdfrwt beam="2">  1       -2 0.17250742E-02 0.27515263E+03</pdfrwt>
<totfact> 0.10418286E+04</totfact>
</mgrwt>
</event>
<event>
 9    1  0.2117506E-002  0.2749058E+03  0.7818608E-02  0.1098504E+00
          1   -1    0    0  501    0  0.00000000000E+00  0.00000000000E+00  0.37738443299E+03  0.37738443299E+03  0.00000000000E+00 0. -1.
         -1   -1    0    0    0  501 -0.00000000000E+00 -0.00000000000E+00 -0.50063793935E+02  0.50063793935E+02  0.00000000000E+00 0. -1.
         36    2    1    2    0    0  0.00000000000E+00  0.71054273576E-14  0.32732063906E+03  0.42744822693E+03  0.27490577650E+03 0.  0.
         25    2    3    3    0    0  0.18625107086E+02  0.44738720705E+02  0.12198334201E+03  0.18108185871E+03  0.12474877187E+03 0.  0.
         25    2    3    3    0    0 -0.18625107086E+02 -0.44738720705E+02  0.20533729705E+03  0.24636636822E+03  0.12721845025E+03 0.  0.
          5    1    4    4  502    0 -0.58972678689E+01 -0.42361541266E+02  0.34773451123E+02  0.55322335903E+02  0.47000000000E+01 0. -1.
         -5    1    4    4    0  502  0.24522374955E+02  0.87100261972E+02  0.87209890884E+02  0.12575952281E+03  0.47000000000E+01 0. -1.
          5    1    5    5  503    0  0.68511795014E+00 -0.32968227533E+02  0.21765517617E+03  0.22018909857E+03  0.47000000000E+01 0.  1.
         -5    1    5    5    0  503 -0.19310225037E+02 -0.11770493172E+02 -0.12317879118E+02  0.26177269652E+02  0.47000000000E+01 0.  1.
<mgrwt>
<rscale>  0 0.27490578E+03</rscale>
<asrwt>0</asrwt>
<pdfrwt beam="1">  1        1 0.58059142E-01 0.27490578E+03</pdfrwt>
<pdfrwt beam="2">  1       -1 0.77021224E-02 0.27490578E+03</pdfrwt>
<totfact> 0.59263976E+03</totfact>
</mgrwt>
</event>
<event>
 9    1  0.2117506E-002  0.2753209E+03  0.7818608E-02  0.1098272E+00
         -4   -1    0    0    0  501 -0.00000000000E+00  0.00000000000E+00  0.40374743698E+03  0.40374743698E+03  0.00000000000E+00 0.  1.
          4   -1    0    0  501    0  0.00000000000E+00 -0.00000000000E+00 -0.46936269701E+02  0.46936269701E+02  0.00000000000E+00 0.  1.
         36    2    1    2    0    0  0.71054273576E-14  0.00000000000E+00  0.35681116728E+03  0.45068370668E+03  0.27532089345E+03 0.  0.
         25    2    3    3    0    0 -0.22007255764E+00  0.50037989084E+02  0.11084132942E+03  0.17450311845E+03  0.12514667097E+03 0.  0.
         25    2    3    3    0    0  0.22007255764E+00 -0.50037989084E+02  0.24596983786E+03  0.27618058824E+03  0.11519855641E+03 0.  0.
          5    1    4    4  502    0 -0.50895588129E+02  0.63827432359E+02  0.72838545868E+02  0.10950728641E+03  0.47000000000E+01 0. -1.
         -5    1    4    4    0  502  0.50675515571E+02 -0.13789443275E+02  0.38002783552E+02  0.64995832036E+02  0.47000000000E+01 0. -1.
          5    1    5    5  503    0 -0.38772951811E+02 -0.37164013045E+02  0.22189113462E+03  0.22834682236E+03  0.47000000000E+01 0. -1.
         -5    1    5    5    0  503  0.38993024368E+02 -0.12873976039E+02  0.24078703239E+02  0.47833765878E+02  0.47000000000E+01 0. -1.
<mgrwt>
<rscale>  0 0.27532089E+03</rscale>
<asrwt>0</asrwt>
<pdfrwt beam="1">  1        4 0.72209648E-02 0.27532089E+03</pdfrwt>
<pdfrwt beam="2">  1       -4 0.62114988E-01 0.27532089E+03</pdfrwt>
<totfact> 0.60474755E+02</totfact>
</mgrwt>
</event>
<event>
 9    1  0.2117506E-002  0.2750918E+03  0.7818608E-02  0.1098400E+00
         -2   -1    0    0    0  501 -0.00000000000E+00  0.00000000000E+00  0.37412376517E+03  0.37412376517E+03  0.00000000000E+00 0.  1.
          2   -1    0    0  501    0  0.00000000000E+00 -0.00000000000E+00 -0.50568508220E+02  0.50568508220E+02  0.00000000000E+00 0.  1.
         36    2    1    2    0    0 -0.71054273576E-14 -0.35527136788E-14  0.32355525695E+03  0.42469227339E+03  0.27509184426E+03 0.  0.
         25    2    3    3    0    0 -0.46357764076E+02  0.24930084474E+02  0.13596892072E+03  0.19272108339E+03  0.12602903308E+03 0.  0.
         25    2    3    3    0    0  0.46357764076E+02 -0.24930084474E+02  0.18758633624E+03  0.23197119001E+03  0.12590253392E+03 0.  0.
          5    1    4    4  502    0 -0.37029695437E+02 -0.35066585642E+02  0.91331478444E+01  0.52022765808E+02  0.47000000000E+01 0. -1.
         -5    1    4    4    0  502 -0.93280686395E+01  0.59996670116E+02  0.12683577287E+03  0.14069831758E+03  0.47000000000E+01 0. -1.
          5    1    5    5  503    0 -0.34832211185E+02 -0.39675890986E+02  0.85818450581E+02  0.10086801139E+03  0.47000000000E+01 0. -1.
         -5    1    5    5    0  503  0.81189975261E+02  0.14745806512E+02  0.10176788566E+03  0.13110317862E+03  0.47000000000E+01 0. -1.
<mgrwt>
<rscale>  0 0.27509184E+03</rscale>
<asrwt>0</asrwt>
<pdfrwt beam="1">  1        2 0.77797707E-02 0.27509184E+03</pdfrwt>
<pdfrwt beam="2">  1       -2 0.57557500E-01 0.27509184E+03</pdfrwt>
<totfact> 0.25332213E+03</totfact>
</mgrwt>
</event>
<event>
 9    1  0.2117506E-002  0.2746977E+03  0.7818608E-02  0.1098621E+00
          1   -1    0    0  501    0  0.00000000000E+00  0.00000000000E+00  0.44202924373E+03  0.44202924373E+03  0.00000000000E+00 0. -1.
         -1   -1    0    0    0  501 -0.00000000000E+00 -0.00000000000E+00 -0.42677514816E+02  0.42677514816E+02  0.00000000000E+00 0. -1.
         36    2    1    2    0    0 -0.71054273576E-14  0.00000000000E+00  0.39935172892E+03  0.48470675855E+03  0.27469772186E+03 0.  0.
         25    2    3    3    0    0 -0.20688102789E+02 -0.19467130922E+02  0.28188314402E+03  0.31059203187E+03  0.12728839930E+03 0.  0.
         25    2    3    3    0    0  0.20688102789E+02  0.19467130922E+02  0.11746858490E+03  0.17411472668E+03  0.12533994904E+03 0.  0.
          5    1    4    4  502    0 -0.72952525194E+02 -0.62705986598E+01  0.19370873861E+03  0.20713897932E+03  0.47000000000E+01 0. -1.
         -5    1    4    4    0  502  0.52264422405E+02 -0.13196532262E+02  0.88174405401E+02  0.10345305255E+03  0.47000000000E+01 0. -1.
          5    1    5    5  503    0  0.61618483524E+02  0.12173060051E+02  0.16934711925E+02  0.65221893339E+02  0.47000000000E+01 0. -1.
         -5    1    5    5    0  503 -0.40930380735E+02  0.72940708707E+01  0.10053387298E+03  0.10889283334E+03  0.47000000000E+01 0. -1.
<mgrwt>
<rscale>  0 0.27469772E+03</rscale>
<asrwt>0</asrwt>
<pdfrwt beam="1">  1        1 0.68004496E-01 0.27469772E+03</pdfrwt>
<pdfrwt beam="2">  1       -1 0.65657718E-02 0.27469772E+03</pdfrwt>
<totfact> 0.61625669E+03</totfact>
</mgrwt>
</event>
<event>
 9    1  0.2117506E-002  0.2748973E+03  0.7818608E-02  0.1098509E+00
         -2   -1    0    0    0  501 -0.00000000000E+00  0.00000000000E+00  0.75243753222E+02  0.75243753222E+02  0.00000000000E+00 0. -1.
          2   -1    0    0  501    0  0.00000000000E+00 -0.00000000000E+00 -0.25107901069E+03  0.25107901069E+03  0.00000000000E+00 0. -1.
         36    2    1    2    0    0  0.35527136788E-14  0.14210854715E-13 -0.17583525747E+03  0.32632276391E+03  0.27489726895E+03 0.  0.
         25    2    3    3    0    0 -0.14910196724E+02 -0.41802835096E+02 -0.13311367117E+03  0.18654013105E+03  0.12291533693E+03 0.  0.
         25    2    3    3    0    0  0.14910196724E+02  0.41802835096E+02 -0.42721586301E+02  0.13978263286E+03  0.12547613130E+03 0.  0.
          5    1    4    4  502    0 -0.33787219850E+02 -0.74524565393E+02 -0.12183319362E+03  0.14683631751E+03  0.47000000000E+01 0.  1.
         -5    1    4    4    0  502  0.18877023126E+02  0.32721730298E+02 -0.11280477543E+02  0.39703813537E+02  0.47000000000E+01 0.  1.
          5    1    5    5  503    0 -0.30931101980E+02  0.21729263429E+01 -0.67279662655E+02  0.74230032234E+02  0.47000000000E+01 0.  1.
         -5    1    5    5    0  503  0.45841298704E+02  0.39629908753E+02  0.24558076354E+02  0.65552600626E+02  0.47000000000E+01 0.  1.
<mgrwt>
<rscale>  0 0.27489727E+03</rscale>
<asrwt>0</asrwt>
<pdfrwt beam="1">  1        2 0.38627540E-01 0.27489727E+03</pdfrwt>
<pdfrwt beam="2">  1       -2 0.11575962E-01 0.27489727E+03</pdfrwt>
<totfact> 0.69047531E+03</totfact>
</mgrwt>
</event>
<event>
 9    1  0.2117506E-002  0.2745434E+03  0.7818608E-02  0.1098707E+00
          2   -1    0    0  501    0  0.00000000000E+00  0.00000000000E+00  0.80477134695E+03  0.80477134695E+03  0.00000000000E+00 0. -1.
         -2   -1    0    0    0  501 -0.00000000000E+00 -0.00000000000E+00 -0.23414754811E+02  0.23414754811E+02  0.00000000000E+00 0. -1.
         36    2    1    2    0    0  0.00000000000E+00  0.00000000000E+00  0.78135659214E+03  0.82818610176E+03  0.27454343021E+03 0.  0.
         25    2    3    3    0    0  0.42673723217E+01  0.58286887242E+02  0.35181464415E+03  0.37734556474E+03  0.12329054992E+03 0.  0.
         25    2    3    3    0    0 -0.42673723217E+01 -0.58286887242E+02  0.42954194799E+03  0.45084053702E+03  0.12383591179E+03 0.  0.
          5    1    4    4  502    0 -0.44351403730E+02  0.17763037459E+02  0.51530653447E+02  0.70427769788E+02  0.47000000000E+01 0.  1.
         -5    1    4    4    0  502  0.48618776052E+02  0.40523849782E+02  0.30028399070E+03  0.30691779495E+03  0.47000000000E+01 0.  1.
          5    1    5    5  503    0 -0.20842396327E+02 -0.29096174066E+02  0.41025833463E+03  0.41184339737E+03  0.47000000000E+01 0. -1.
         -5    1    5    5    0  503  0.16575024005E+02 -0.29190713175E+02  0.19283613365E+02  0.38997139650E+02  0.47000000000E+01 0. -1.
<mgrwt>
<rscale>  0 0.27454343E+03</rscale>
<asrwt>0</asrwt>
<pdfrwt beam="1">  1        2 0.12381096E+00 0.27454343E+03</pdfrwt>
<pdfrwt beam="2">  1       -2 0.36022706E-02 0.27454343E+03</pdfrwt>
<totfact> 0.11292554E+04</totfact>
</mgrwt>
</event>
<event>
 9    1  0.2117506E-002  0.2765386E+03  0.7818608E-02  0.1097595E+00
         -2   -1    0    0    0  501 -0.00000000000E+00  0.00000000000E+00  0.75119714000E+02  0.75119714000E+02  0.00000000000E+00 0. -1.
          2   -1    0    0  501    0  0.00000000000E+00 -0.00000000000E+00 -0.25450571874E+03  0.25450571874E+03  0.00000000000E+00 0. -1.
         36    2    1    2    0    0  0.00000000000E+00  0.00000000000E+00 -0.17938600474E+03  0.32962543274E+03  0.27653858178E+03 0.  0.
         25    2    3    3    0    0  0.26091905960E+02  0.20843677044E+02 -0.14466966182E+03  0.19413917477E+03  0.12508182003E+03 0.  0.
         25    2    3    3    0    0 -0.26091905960E+02 -0.20843677044E+02 -0.34716342926E+02  0.13548625797E+03  0.12663354691E+03 0.  0.
          5    1    4    4  502    0 -0.35539306658E+02 -0.26434904076E+02 -0.85407107541E+02  0.96323987094E+02  0.47000000000E+01 0. -1.
         -5    1    4    4    0  502  0.61631212618E+02  0.47278581120E+02 -0.59262554275E+02  0.97815187679E+02  0.47000000000E+01 0. -1.
          5    1    5    5  503    0  0.48524019040E+02  0.90439001211E+01 -0.20832610744E+02  0.53781597443E+02  0.47000000000E+01 0. -1.
         -5    1    5    5    0  503 -0.74615924999E+02 -0.29887577165E+02 -0.13883732182E+02  0.81704660526E+02  0.47000000000E+01 0. -1.
<mgrwt>
<rscale>  0 0.27653858E+03</rscale>
<asrwt>0</asrwt>
<pdfrwt beam="1">  1        2 0.39154726E-01 0.27653858E+03</pdfrwt>
<pdfrwt beam="2">  1       -2 0.11556879E-01 0.27653858E+03</pdfrwt>
<totfact> 0.68239684E+03</totfact>
</mgrwt>
</event>
<event>
 9    1  0.2117506E-002  0.2743476E+03  0.7818608E-02  0.1098817E+00
         -2   -1    0    0    0  501 -0.00000000000E+00  0.00000000000E+00  0.11935104412E+03  0.11935104412E+03  0.00000000000E+00 0. -1.
          2   -1    0    0  501    0  0.00000000000E+00 -0.00000000000E+00 -0.15765808609E+03  0.15765808609E+03  0.00000000000E+00 0. -1.
         36    2    1    2    0    0  0.35527136788E-14  0.00000000000E+00 -0.38307041967E+02  0.27700913022E+03  0.27434764216E+03 0.  0.
         25    2    3    3    0    0 -0.66405826180E+01 -0.30728480601E+02  0.28815306027E+02  0.13235712741E+03  0.12529864508E+03 0.  0.
         25    2    3    3    0    0  0.66405826180E+01  0.30728480601E+02 -0.67122347994E+02  0.14465200280E+03  0.12421938438E+03 0.  0.
          5    1    4    4  502    0 -0.45924238421E+02  0.30698698544E+02  0.19156280287E+02  0.58655765627E+02  0.47000000000E+01 0. -1.
         -5    1    4    4    0  502  0.39283655803E+02 -0.61427179145E+02  0.96590257403E+01  0.73701361787E+02  0.47000000000E+01 0. -1.
          5    1    5    5  503    0  0.77945865555E+01  0.44028361311E+02 -0.99571194560E+02  0.10925092661E+03  0.47000000000E+01 0.  1.
         -5    1    5    5    0  503 -0.11540039376E+01 -0.13299880710E+02  0.32448846566E+02  0.35401076191E+02  0.47000000000E+01 0.  1.
<mgrwt>
<rscale>  0 0.27434764E+03</rscale>
<asrwt>0</asrwt>
<pdfrwt beam="1">  1        2 0.24255090E-01 0.27434764E+03</pdfrwt>
<pdfrwt beam="2">  1       -2 0.18361699E-01 0.27434764E+03</pdfrwt>
<totfact> 0.53793368E+03</totfact>
</mgrwt>
</event>
<event>
 9    1  0.2117506E-002  0.2850229E+03  0.7818608E-02  0.1092977E+00
         -1   -1    0    0    0  501 -0.00000000000E+00  0.00000000000E+00  0.58354492613E+03  0.58354492613E+03  0.00000000000E+00 0.  1.
          1   -1    0    0  501    0  0.00000000000E+00 -0.00000000000E+00 -0.34803673953E+02  0.34803673953E+02  0.00000000000E+00 0.  1.
         36    2    1    2    0    0 -0.17763568394E-14  0.00000000000E+00  0.54874125218E+03  0.61834860008E+03  0.28502285765E+03 0.  0.
         25    2    3    3    0    0 -0.10252315836E+02 -0.53418914961E+02  0.18358672170E+03  0.22965512993E+03  0.12680182910E+03 0.  0.
         25    2    3    3    0    0  0.10252315836E+02  0.53418914961E+02  0.36515453048E+03  0.38869347015E+03  0.12159807629E+03 0.  0.
          5    1    4    4  502    0  0.46691810744E+02  0.14538428926E+02  0.62124344829E+02  0.79202369451E+02  0.47000000000E+01 0. -1.
         -5    1    4    4    0  502 -0.56944126580E+02 -0.67957343887E+02  0.12146237687E+03  0.15045276048E+03  0.47000000000E+01 0. -1.
          5    1    5    5  503    0  0.18192228044E+02 -0.34272398853E+02  0.17168770336E+03  0.17608041336E+03  0.47000000000E+01 0.  1.
         -5    1    5    5    0  503 -0.79399122084E+01  0.87691313815E+02  0.19346682711E+03  0.21261305679E+03  0.47000000000E+01 0.  1.
<mgrwt>
<rscale>  0 0.28502286E+03</rscale>
<asrwt>0</asrwt>
<pdfrwt beam="1">  1        1 0.53544118E-02 0.28502286E+03</pdfrwt>
<pdfrwt beam="2">  1       -1 0.89776135E-01 0.28502286E+03</pdfrwt>
<totfact> 0.19325095E+03</totfact>
</mgrwt>
</event>
<event>
 9    1  0.2117506E-002  0.2752408E+03  0.7818608E-02  0.1098317E+00
          2   -1    0    0  501    0  0.00000000000E+00  0.00000000000E+00  0.77209980558E+02  0.77209980558E+02  0.00000000000E+00 0.  1.
         -2   -1    0    0    0  501 -0.00000000000E+00 -0.00000000000E+00 -0.24529696280E+03  0.24529696280E+03  0.00000000000E+00 0.  1.
         36    2    1    2    0    0  0.00000000000E+00  0.35527136788E-14 -0.16808698225E+03  0.32250694336E+03  0.27524079443E+03 0.  0.
         25    2    3    3    0    0 -0.52288937610E+02 -0.68751608096E+01 -0.75803972443E+02  0.15672816894E+03  0.12663362851E+03 0.  0.
         25    2    3    3    0    0  0.52288937610E+02  0.68751608096E+01 -0.92283009804E+02  0.16577877442E+03  0.12722046736E+03 0.  0.
          5    1    4    4  502    0  0.12950460430E+02  0.23127063436E+02  0.22372640125E+02  0.35002864378E+02  0.47000000000E+01 0. -1.
         -5    1    4    4    0  502 -0.65239398040E+02 -0.30002224245E+02 -0.98176612568E+02  0.12172530457E+03  0.47000000000E+01 0. -1.
          5    1    5    5  503    0  0.58321986633E+02  0.60009773490E+02 -0.60821120707E+02  0.10355638929E+03  0.47000000000E+01 0. -1.
         -5    1    5    5    0  503 -0.60330490232E+01 -0.53134612680E+02 -0.31461889097E+02  0.62222385126E+02  0.47000000000E+01 0. -1.
<mgrwt>
<rscale>  0 0.27524079E+03</rscale>
<asrwt>0</asrwt>
<pdfrwt beam="1">  1        2 0.11878458E-01 0.27524079E+03</pdfrwt>
<pdfrwt beam="2">  1       -2 0.37737995E-01 0.27524079E+03</pdfrwt>
<totfact> 0.34303208E+03</totfact>
</mgrwt>
</event>
<event>
 9    1  0.2117506E-002  0.2760307E+03  0.7818608E-02  0.1097877E+00
          4   -1    0    0  501    0  0.00000000000E+00  0.00000000000E+00  0.27392851276E+03  0.27392851276E+03  0.00000000000E+00 0. -1.
         -4   -1    0    0    0  501 -0.00000000000E+00 -0.00000000000E+00 -0.69537263649E+02  0.69537263649E+02  0.00000000000E+00 0. -1.
         36    2    1    2    0    0  0.00000000000E+00 -0.71054273576E-14  0.20439124911E+03  0.34346577641E+03  0.27603071723E+03 0.  0.
         25    2    3    3    0    0  0.13004847799E+02 -0.23340060294E+02  0.61651132792E+02  0.14949031713E+03  0.13353878935E+03 0.  0.
         25    2    3    3    0    0 -0.13004847799E+02  0.23340060294E+02  0.14274011632E+03  0.19397545928E+03  0.12859958598E+03 0.  0.
          5    1    4    4  502    0 -0.45221945787E+02 -0.49074751699E+02  0.10557431163E+02  0.67726693319E+02  0.47000000000E+01 0. -1.
         -5    1    4    4    0  502  0.58226793586E+02  0.25734691406E+02  0.51093701629E+02  0.81763623814E+02  0.47000000000E+01 0. -1.
          5    1    5    5  503    0  0.42419355723E+02 -0.13906693263E+01  0.12265298687E+03  0.12987371130E+03  0.47000000000E+01 0. -1.
         -5    1    5    5    0  503 -0.55424203522E+02  0.24730729620E+02  0.20087129456E+02  0.64101747974E+02  0.47000000000E+01 0. -1.
<mgrwt>
<rscale>  0 0.27603072E+03</rscale>
<asrwt>0</asrwt>
<pdfrwt beam="1">  1        4 0.42142848E-01 0.27603072E+03</pdfrwt>
<pdfrwt beam="2">  1       -4 0.10698041E-01 0.27603072E+03</pdfrwt>
<totfact> 0.69575211E+02</totfact>
</mgrwt>
</event>
<event>
 9    1  0.2117506E-002  0.2758403E+03  0.7818608E-02  0.1097983E+00
         -2   -1    0    0    0  501 -0.00000000000E+00  0.00000000000E+00  0.60892360306E+02  0.60892360306E+02  0.00000000000E+00 0. -1.
          2   -1    0    0  501    0  0.00000000000E+00 -0.00000000000E+00 -0.31238676627E+03  0.31238676627E+03  0.00000000000E+00 0. -1.
         36    2    1    2    0    0  0.17763568394E-14  0.00000000000E+00 -0.25149440597E+03  0.37327912658E+03  0.27584029819E+03 0.  0.
         25    2    3    3    0    0 -0.83197179124E+01  0.33543395218E+02 -0.37060438526E+02  0.13363845003E+03  0.12365832828E+03 0.  0.
         25    2    3    3    0    0  0.83197179124E+01 -0.33543395218E+02 -0.21443396744E+03  0.23964067655E+03  0.10124895257E+03 0.  0.
          5    1    4    4  502    0 -0.23955333106E+02  0.15268134535E+02  0.41969064095E+02  0.50896623241E+02  0.47000000000E+01 0.  1.
         -5    1    4    4    0  502  0.15635615194E+02  0.18275260683E+02 -0.79029502621E+02  0.82741826787E+02  0.47000000000E+01 0.  1.
          5    1    5    5  503    0 -0.56878258192E+01 -0.64153344818E+02 -0.90811772179E+02  0.11143101444E+03  0.47000000000E+01 0.  1.
         -5    1    5    5    0  503  0.14007543732E+02  0.30609949599E+02 -0.12362219526E+03  0.12820966211E+03  0.47000000000E+01 0.  1.
<mgrwt>
<rscale>  0 0.27584030E+03</rscale>
<asrwt>0</asrwt>
<pdfrwt beam="1">  1        2 0.48059502E-01 0.27584030E+03</pdfrwt>
<pdfrwt beam="2">  1       -2 0.93680555E-02 0.27584030E+03</pdfrwt>
<totfact> 0.76498660E+03</totfact>
</mgrwt>
</event>
<event>
 9    1  0.2117506E-002  0.2741659E+03  0.7818608E-02  0.1098919E+00
          2   -1    0    0  501    0  0.00000000000E+00  0.00000000000E+00  0.10109211062E+04  0.10109211062E+04  0.00000000000E+00 0. -1.
         -2   -1    0    0    0  501 -0.00000000000E+00 -0.00000000000E+00 -0.18588722554E+02  0.18588722554E+02  0.00000000000E+00 0. -1.
         36    2    1    2    0    0  0.53290705182E-14  0.00000000000E+00  0.99233238369E+03  0.10295098288E+04  0.27416587657E+03 0.  0.
         25    2    3    3    0    0 -0.11859293837E+02 -0.32399601000E+02  0.31312179105E+03  0.33768611357E+03  0.12163995343E+03 0.  0.
         25    2    3    3    0    0  0.11859293837E+02  0.32399601000E+02  0.67921059264E+03  0.69182371523E+03  0.12689620485E+03 0.  0.
          5    1    4    4  502    0  0.11927659235E+02 -0.73779605342E+02  0.22799909029E+03  0.23998202931E+03  0.47000000000E+01 0. -1.
         -5    1    4    4    0  502 -0.23786953072E+02  0.41380004342E+02  0.85122700763E+02  0.97704084260E+02  0.47000000000E+01 0. -1.
          5    1    5    5  503    0  0.51274879734E+02 -0.27128445981E+02  0.36161700698E+03  0.36627041323E+03  0.47000000000E+01 0.  1.
         -5    1    5    5    0  503 -0.39415585897E+02  0.59528046980E+02  0.31759358566E+03  0.32555330200E+03  0.47000000000E+01 0.  1.
<mgrwt>
<rscale>  0 0.27416588E+03</rscale>
<asrwt>0</asrwt>
<pdfrwt beam="1">  1        2 0.15552628E+00 0.27416588E+03</pdfrwt>
<pdfrwt beam="2">  1       -2 0.28598043E-02 0.27416588E+03</pdfrwt>
<totfact> 0.11731351E+04</totfact>
</mgrwt>
</event>
<event>
 9    1  0.2117506E-002  0.2761929E+03  0.7818608E-02  0.1097787E+00
          1   -1    0    0  501    0  0.00000000000E+00  0.00000000000E+00  0.51789534585E+03  0.51789534585E+03  0.00000000000E+00 0. -1.
         -1   -1    0    0    0  501 -0.00000000000E+00 -0.00000000000E+00 -0.36823334055E+02  0.36823334055E+02  0.00000000000E+00 0. -1.
         36    2    1    2    0    0  0.00000000000E+00  0.00000000000E+00  0.48107201179E+03  0.55471867990E+03  0.27619292768E+03 0.  0.
         25    2    3    3    0    0  0.24560236822E+02 -0.22138357091E+01  0.13231541266E+03  0.18306668901E+03  0.12408842773E+03 0.  0.
         25    2    3    3    0    0 -0.24560236822E+02  0.22138357091E+01  0.34875659913E+03  0.37165199089E+03  0.12603940095E+03 0.  0.
          5    1    4    4  502    0  0.68499944414E+02  0.14655526447E+02  0.43925953488E+02  0.82816702602E+02  0.47000000000E+01 0. -1.
         -5    1    4    4    0  502 -0.43939707591E+02 -0.16869362156E+02  0.88389459170E+02  0.10024998641E+03  0.47000000000E+01 0. -1.
          5    1    5    5  503    0  0.10162051031E+02  0.39250503572E+02  0.29405520842E+03  0.29687442616E+03  0.47000000000E+01 0.  1.
         -5    1    5    5    0  503 -0.34722287854E+02 -0.37036667863E+02  0.54701390716E+02  0.74777564727E+02  0.47000000000E+01 0.  1.
<mgrwt>
<rscale>  0 0.27619293E+03</rscale>
<asrwt>0</asrwt>
<pdfrwt beam="1">  1        1 0.79676202E-01 0.27619293E+03</pdfrwt>
<pdfrwt beam="2">  1       -1 0.56651287E-02 0.27619293E+03</pdfrwt>
<totfact> 0.62499993E+03</totfact>
</mgrwt>
</event>
<event>
 9    1  0.2117506E-002  0.2750092E+03  0.7818608E-02  0.1098446E+00
          2   -1    0    0  501    0  0.00000000000E+00  0.00000000000E+00  0.10017222690E+03  0.10017222690E+03  0.00000000000E+00 0.  1.
         -2   -1    0    0    0  501 -0.00000000000E+00 -0.00000000000E+00 -0.18875004323E+03  0.18875004323E+03  0.00000000000E+00 0.  1.
         36    2    1    2    0    0  0.00000000000E+00  0.00000000000E+00 -0.88577816331E+02  0.28892227012E+03  0.27500917917E+03 0.  0.
         25    2    3    3    0    0  0.25537018410E+02  0.27088981659E+02 -0.78895146239E+00  0.12988594711E+03  0.12443385623E+03 0.  0.
         25    2    3    3    0    0 -0.25537018410E+02 -0.27088981659E+02 -0.87788864868E+02  0.15903632301E+03  0.12727810105E+03 0.  0.
          5    1    4    4  502    0 -0.25934665563E+01 -0.13729148724E+02 -0.54609100790E+02  0.56563764749E+02  0.47000000000E+01 0.  1.
         -5    1    4    4    0  502  0.28130484966E+02  0.40818130383E+02  0.53820149328E+02  0.73322182360E+02  0.47000000000E+01 0.  1.
          5    1    5    5  503    0  0.36178986006E+01  0.49768818403E+02 -0.29527942798E+02  0.58172277602E+02  0.47000000000E+01 0. -1.
         -5    1    5    5    0  503 -0.29154917010E+02 -0.76857800062E+02 -0.58260922070E+02  0.10086404541E+03  0.47000000000E+01 0. -1.
<mgrwt>
<rscale>  0 0.27500918E+03</rscale>
<asrwt>0</asrwt>
<pdfrwt beam="1">  1        2 0.15411112E-01 0.27500918E+03</pdfrwt>
<pdfrwt beam="2">  1       -2 0.29038468E-01 0.27500918E+03</pdfrwt>
<totfact> 0.40719648E+03</totfact>
</mgrwt>
</event>
<event>
 9    1  0.2117506E-002  0.2744239E+03  0.7818608E-02  0.1098774E+00
         -1   -1    0    0    0  501 -0.00000000000E+00  0.00000000000E+00  0.16101290596E+02  0.16101290596E+02  0.00000000000E+00 0. -1.
          1   -1    0    0  501    0  0.00000000000E+00 -0.00000000000E+00 -0.11692923681E+04  0.11692923681E+04  0.00000000000E+00 0. -1.
         36    2    1    2    0    0  0.71054273576E-14 -0.71054273576E-14 -0.11531910775E+04  0.11853936587E+04  0.27442387805E+03 0.  0.
         25    2    3    3    0    0  0.51535625262E+02  0.34440616033E+02 -0.62306563527E+03  0.63805771334E+03  0.12273867766E+03 0.  0.
         25    2    3    3    0    0 -0.51535625262E+02 -0.34440616033E+02 -0.53012544225E+03  0.54733594537E+03  0.12125005515E+03 0.  0.
          5    1    4    4  502    0 -0.28069657825E+02 -0.10291025115E+02 -0.55874299299E+02  0.63543986423E+02  0.47000000000E+01 0.  1.
         -5    1    4    4    0  502  0.79605283087E+02  0.44731641148E+02 -0.56719133597E+03  0.57451372691E+03  0.47000000000E+01 0.  1.
          5    1    5    5  503    0  0.17215401371E+02  0.18909079865E+02 -0.30108478395E+02  0.39781073602E+02  0.47000000000E+01 0.  1.
         -5    1    5    5    0  503 -0.68751026632E+02 -0.53349695898E+02 -0.50001696385E+03  0.50755487177E+03  0.47000000000E+01 0.  1.
<mgrwt>
<rscale>  0 0.27442388E+03</rscale>
<asrwt>0</asrwt>
<pdfrwt beam="1">  1        1 0.17989120E+00 0.27442388E+03</pdfrwt>
<pdfrwt beam="2">  1       -1 0.24771207E-02 0.27442388E+03</pdfrwt>
<totfact> 0.60232931E+03</totfact>
</mgrwt>
</event>
<event>
 9    1  0.2117506E-002  0.2756372E+03  0.7818608E-02  0.1098096E+00
          3   -1    0    0  501    0  0.00000000000E+00  0.00000000000E+00  0.16456696626E+03  0.16456696626E+03  0.00000000000E+00 0. -1.
         -3   -1    0    0    0  501 -0.00000000000E+00 -0.00000000000E+00 -0.11541784343E+03  0.11541784343E+03  0.00000000000E+00 0. -1.
         36    2    1    2    0    0  0.14210854715E-13  0.17763568394E-14  0.49149122831E+02  0.27998480969E+03  0.27563718432E+03 0.  0.
         25    2    3    3    0    0 -0.42284429113E+02 -0.70716784544E+01  0.17341081129E+02  0.14422420500E+03  0.13660866236E+03 0.  0.
         25    2    3    3    0    0  0.42284429113E+02  0.70716784544E+01  0.31808041702E+02  0.13576060469E+03  0.12482471184E+03 0.  0.
          5    1    4    4  502    0  0.49436567999E+02  0.12962376943E+01  0.15302517985E+02  0.51979914817E+02  0.47000000000E+01 0.  1.
         -5    1    4    4    0  502 -0.91720997112E+02 -0.83679161487E+01  0.20385631446E+01  0.92244290184E+02  0.47000000000E+01 0.  1.
          5    1    5    5  503    0  0.75574741907E+02 -0.13546836422E+01 -0.15312559478E+02  0.77265394970E+02  0.47000000000E+01 0.  1.
         -5    1    5    5    0  503 -0.33290312794E+02  0.84263620966E+01  0.47120601180E+02  0.58495209716E+02  0.47000000000E+01 0.  1.
<mgrwt>
<rscale>  0 0.27563718E+03</rscale>
<asrwt>0</asrwt>
<pdfrwt beam="1">  1        3 0.25317995E-01 0.27563718E+03</pdfrwt>
<pdfrwt beam="2">  1       -3 0.17756591E-01 0.27563718E+03</pdfrwt>
<totfact> 0.10339799E+03</totfact>
</mgrwt>
</event>
<event>
 9    1  0.2117506E-002  0.2739038E+03  0.7818608E-02  0.1099066E+00
          2   -1    0    0  501    0  0.00000000000E+00  0.00000000000E+00  0.12992751347E+04  0.12992751347E+04  0.00000000000E+00 0.  1.
         -2   -1    0    0    0  501 -0.00000000000E+00 -0.00000000000E+00 -0.14435607253E+02  0.14435607253E+02  0.00000000000E+00 0.  1.
         36    2    1    2    0    0  0.00000000000E+00  0.53290705182E-14  0.12848395274E+04  0.13137107419E+04  0.27390381931E+03 0.  0.
         25    2    3    3    0    0 -0.59584653701E+02  0.63417232802E+01  0.67467106243E+03  0.68897967972E+03  0.12618006251E+03 0.  0.
         25    2    3    3    0    0  0.59584653701E+02 -0.63417232802E+01  0.61016846500E+03  0.62473106222E+03  0.11996997962E+03 0.  0.
          5    1    4    4  502    0 -0.25990059359E+02  0.57173022783E+02  0.49950732283E+03  0.50346190847E+03  0.47000000000E+01 0. -1.
         -5    1    4    4    0  502 -0.33594594343E+02 -0.50831299503E+02  0.17516373960E+03  0.18551777124E+03  0.47000000000E+01 0. -1.
          5    1    5    5  503    0  0.49848440100E+02 -0.19083713875E+02  0.60481499803E+03  0.60718393173E+03  0.47000000000E+01 0. -1.
         -5    1    5    5    0  503  0.97362136009E+01  0.12741990595E+02  0.53534669708E+01  0.17547130483E+02  0.47000000000E+01 0. -1.
<mgrwt>
<rscale>  0 0.27390382E+03</rscale>
<asrwt>0</asrwt>
<pdfrwt beam="1">  1        2 0.19988839E+00 0.27390382E+03</pdfrwt>
<pdfrwt beam="2">  1       -2 0.22208637E-02 0.27390382E+03</pdfrwt>
<totfact> 0.11620744E+04</totfact>
</mgrwt>
</event>
<event>
 9    1  0.2117506E-002  0.2746836E+03  0.7818608E-02  0.1098629E+00
         -2   -1    0    0    0  501 -0.00000000000E+00  0.00000000000E+00  0.22190601239E+03  0.22190601239E+03  0.00000000000E+00 0. -1.
          2   -1    0    0  501    0  0.00000000000E+00 -0.00000000000E+00 -0.85003441803E+02  0.85003441803E+02  0.00000000000E+00 0. -1.
         36    2    1    2    0    0 -0.71054273576E-14  0.00000000000E+00  0.13690257059E+03  0.30690945420E+03  0.27468363483E+03 0.  0.
         25    2    3    3    0    0 -0.41571630088E+01 -0.34364175035E+02  0.11193692366E+03  0.17467112740E+03  0.12954516331E+03 0.  0.
         25    2    3    3    0    0  0.41571630088E+01  0.34364175035E+02  0.24965646929E+02  0.13223832680E+03  0.12516194716E+03 0.  0.
          5    1    4    4  502    0 -0.58940896751E+02  0.86291684883E+01  0.74382338241E+02  0.95411289168E+02  0.47000000000E+01 0.  1.
         -5    1    4    4    0  502  0.54783733742E+02 -0.42993343523E+02  0.37554585422E+02  0.79259838229E+02  0.47000000000E+01 0.  1.
          5    1    5    5  503    0  0.59603375255E+02  0.38965014593E+02  0.27165023842E+02  0.76360089212E+02  0.47000000000E+01 0. -1.
         -5    1    5    5    0  503 -0.55446212247E+02 -0.46008395584E+01 -0.21993769126E+01  0.55878237588E+02  0.47000000000E+01 0. -1.
<mgrwt>
<rscale>  0 0.27468363E+03</rscale>
<asrwt>0</asrwt>
<pdfrwt beam="1">  1        2 0.13077453E-01 0.27468363E+03</pdfrwt>
<pdfrwt beam="2">  1       -2 0.34139386E-01 0.27468363E+03</pdfrwt>
<totfact> 0.36829417E+03</totfact>
</mgrwt>
</event>
<event>
 9    1  0.2117506E-002  0.2743088E+03  0.7818608E-02  0.1098839E+00
          2   -1    0    0  501    0  0.00000000000E+00  0.00000000000E+00  0.17525775901E+03  0.17525775901E+03  0.00000000000E+00 0.  1.
         -2   -1    0    0    0  501 -0.00000000000E+00 -0.00000000000E+00 -0.10733523666E+03  0.10733523666E+03  0.00000000000E+00 0.  1.
         36    2    1    2    0    0 -0.71054273576E-14  0.00000000000E+00  0.67922522352E+02  0.28259299568E+03  0.27430882626E+03 0.  0.
         25    2    3    3    0    0 -0.37884315701E+02 -0.29282040465E+02  0.27996833025E+01  0.13436987005E+03  0.12551798469E+03 0.  0.
         25    2    3    3    0    0  0.37884315701E+02  0.29282040465E+02  0.65122839050E+02  0.14822312563E+03  0.12424351707E+03 0.  0.
          5    1    4    4  502    0 -0.55684589331E+02 -0.57940064975E+02  0.34740700528E+02  0.87674573803E+02  0.47000000000E+01 0.  1.
         -5    1    4    4    0  502  0.17800273630E+02  0.28658024510E+02 -0.31941017226E+02  0.46695296246E+02  0.47000000000E+01 0.  1.
          5    1    5    5  503    0  0.14036298171E+02 -0.39444619005E+02 -0.10255684609E+02  0.43360866015E+02  0.47000000000E+01 0. -1.
         -5    1    5    5    0  503  0.23848017530E+02  0.68726659470E+02  0.75378523659E+02  0.10486225961E+03  0.47000000000E+01 0. -1.
<mgrwt>
<rscale>  0 0.27430883E+03</rscale>
<asrwt>0</asrwt>
<pdfrwt beam="1">  1        2 0.26962732E-01 0.27430883E+03</pdfrwt>
<pdfrwt beam="2">  1       -2 0.16513113E-01 0.27430883E+03</pdfrwt>
<totfact> 0.57137214E+03</totfact>
</mgrwt>
</event>
<event>
 9    1  0.2117506E-002  0.2749980E+03  0.7818608E-02  0.1098453E+00
          1   -1    0    0  501    0  0.00000000000E+00  0.00000000000E+00  0.64161131752E+02  0.64161131752E+02  0.00000000000E+00 0. -1.
         -1   -1    0    0    0  501 -0.00000000000E+00 -0.00000000000E+00 -0.29466402698E+03  0.29466402698E+03  0.00000000000E+00 0. -1.
         36    2    1    2    0    0  0.00000000000E+00  0.00000000000E+00 -0.23050289523E+03  0.35882515873E+03  0.27499801787E+03 0.  0.
         25    2    3    3    0    0 -0.12168532949E+02  0.24695717488E+02 -0.51466077404E+02  0.13808466976E+03  0.12514258765E+03 0.  0.
         25    2    3    3    0    0  0.12168532949E+02 -0.24695717488E+02 -0.17903681783E+03  0.22074048897E+03  0.12615161385E+03 0.  0.
          5    1    4    4  502    0 -0.67920072711E+02  0.50966810764E+01 -0.34072498131E+02  0.76302932866E+02  0.47000000000E+01 0. -1.
         -5    1    4    4    0  502  0.55751539762E+02  0.19599036411E+02 -0.17393579274E+02  0.61781736897E+02  0.47000000000E+01 0. -1.
          5    1    5    5  503    0  0.58468653927E+02  0.15915760576E+02 -0.12364140853E+03  0.13777221356E+03  0.47000000000E+01 0.  1.
         -5    1    5    5    0  503 -0.46300120978E+02 -0.40611478063E+02 -0.55395409296E+02  0.82968275408E+02  0.47000000000E+01 0.  1.
<mgrwt>
<rscale>  0 0.27499802E+03</rscale>
<asrwt>0</asrwt>
<pdfrwt beam="1">  1        1 0.98709432E-02 0.27499802E+03</pdfrwt>
<pdfrwt beam="2">  1       -1 0.45332928E-01 0.27499802E+03</pdfrwt>
<totfact> 0.32013362E+03</totfact>
</mgrwt>
</event>
<event>
 9    1  0.2117506E-002  0.2753650E+03  0.7818608E-02  0.1098248E+00
         -1   -1    0    0    0  501 -0.00000000000E+00  0.00000000000E+00  0.17904592113E+03  0.17904592113E+03  0.00000000000E+00 0.  1.
          1   -1    0    0  501    0  0.00000000000E+00 -0.00000000000E+00 -0.10587493724E+03  0.10587493724E+03  0.00000000000E+00 0.  1.
         36    2    1    2    0    0 -0.14210854715E-13 -0.71054273576E-14  0.73170983889E+02  0.28492085838E+03  0.27536503528E+03 0.  0.
         25    2    3    3    0    0  0.48886668335E+02 -0.34462637614E+02  0.73738232508E+02  0.15347730254E+03  0.12058348033E+03 0.  0.
         25    2    3    3    0    0 -0.48886668335E+02  0.34462637614E+02 -0.56724861901E+00  0.13144355584E+03  0.11704489254E+03 0.  0.
          5    1    4    4  502    0 -0.19902362643E+02  0.15754337781E+02 -0.15434925334E+02  0.30077069634E+02  0.47000000000E+01 0. -1.
         -5    1    4    4    0  502  0.68789030978E+02 -0.50216975395E+02  0.89173157843E+02  0.12340023290E+03  0.47000000000E+01 0. -1.
          5    1    5    5  503    0 -0.25248855325E+02  0.75245891422E+02 -0.16994563065E+02  0.81304083814E+02  0.47000000000E+01 0. -1.
         -5    1    5    5    0  503 -0.23637813010E+02 -0.40783253808E+02  0.16427314446E+02  0.50139472025E+02  0.47000000000E+01 0. -1.
<mgrwt>
<rscale>  0 0.27536504E+03</rscale>
<asrwt>0</asrwt>
<pdfrwt beam="1">  1        1 0.16288452E-01 0.27536504E+03</pdfrwt>
<pdfrwt beam="2">  1       -1 0.27545526E-01 0.27536504E+03</pdfrwt>
<totfact> 0.39281902E+03</totfact>
</mgrwt>
</event>
<event>
 9    1  0.2117506E-002  0.2749430E+03  0.7818608E-02  0.1098483E+00
         -1   -1    0    0    0  501 -0.00000000000E+00  0.00000000000E+00  0.52077253386E+02  0.52077253386E+02  0.00000000000E+00 0.  1.
          1   -1    0    0  501    0  0.00000000000E+00 -0.00000000000E+00 -0.36289202800E+03  0.36289202800E+03  0.00000000000E+00 0.  1.
         36    2    1    2    0    0  0.00000000000E+00  0.00000000000E+00 -0.31081477462E+03  0.41496928139E+03  0.27494304933E+03 0.  0.
         25    2    3    3    0    0 -0.83477510504E+00  0.47746099738E+02 -0.21967437935E+03  0.25081479362E+03  0.11122428183E+03 0.  0.
         25    2    3    3    0    0  0.83477510504E+00 -0.47746099738E+02 -0.91140395272E+02  0.16415448777E+03  0.12790518877E+03 0.  0.
          5    1    4    4  502    0 -0.38759199559E+02  0.44309369734E+02 -0.19827228957E+03  0.20688060955E+03  0.47000000000E+01 0.  1.
         -5    1    4    4    0  502  0.37924424454E+02  0.34367300043E+01 -0.21402089779E+02  0.43934184074E+02  0.47000000000E+01 0.  1.
          5    1    5    5  503    0  0.28329550953E+02 -0.75844980592E+02 -0.21264149303E+02  0.83840793077E+02  0.47000000000E+01 0.  1.
         -5    1    5    5    0  503 -0.27494775848E+02  0.28098880854E+02 -0.69876245969E+02  0.80313694691E+02  0.47000000000E+01 0.  1.
<mgrwt>
<rscale>  0 0.27494305E+03</rscale>
<asrwt>0</asrwt>
<pdfrwt beam="1">  1        1 0.55829542E-01 0.27494305E+03</pdfrwt>
<pdfrwt beam="2">  1       -1 0.80118853E-02 0.27494305E+03</pdfrwt>
<totfact> 0.58656612E+03</totfact>
</mgrwt>
</event>
<event>
 9    1  0.2117506E-002  0.2718611E+03  0.7818608E-02  0.1100219E+00
         -4   -1    0    0    0  501 -0.00000000000E+00  0.00000000000E+00  0.29875938479E+03  0.29875938479E+03  0.00000000000E+00 0. -1.
          4   -1    0    0  501    0  0.00000000000E+00 -0.00000000000E+00 -0.61846122705E+02  0.61846122705E+02  0.00000000000E+00 0. -1.
         36    2    1    2    0    0 -0.35527136788E-14 -0.35527136788E-14  0.23691326208E+03  0.36060550749E+03  0.27186106430E+03 0.  0.
         25    2    3    3    0    0  0.11991892376E+02 -0.25499450808E+02  0.40658721156E+02  0.12579545407E+03  0.11566043915E+03 0.  0.
         25    2    3    3    0    0 -0.11991892376E+02  0.25499450808E+02  0.19625454093E+03  0.23481005343E+03  0.12580098919E+03 0.  0.
          5    1    4    4  502    0 -0.45303590786E+02 -0.24612011022E+02 -0.55024788233E+01  0.52062786113E+02  0.47000000000E+01 0. -1.
         -5    1    4    4    0  502  0.57295483162E+02 -0.88743978643E+00  0.46161199979E+02  0.73732667954E+02  0.47000000000E+01 0. -1.
          5    1    5    5  503    0  0.53146801294E+01  0.34782281643E+02 -0.19761669235E+01  0.35553455203E+02  0.47000000000E+01 0.  1.
         -5    1    5    5    0  503 -0.17306572505E+02 -0.92828308351E+01  0.19823070785E+03  0.19925659822E+03  0.47000000000E+01 0.  1.
<mgrwt>
<rscale>  0 0.27186106E+03</rscale>
<asrwt>0</asrwt>
<pdfrwt beam="1">  1        4 0.95147883E-02 0.27186106E+03</pdfrwt>
<pdfrwt beam="2">  1       -4 0.45962981E-01 0.27186106E+03</pdfrwt>
<totfact> 0.71147727E+02</totfact>
</mgrwt>
</event>
<event>
 9    1  0.2117506E-002  0.2742155E+03  0.7818608E-02  0.1098891E+00
          2   -1    0    0  501    0  0.00000000000E+00  0.00000000000E+00  0.17186965155E+02  0.17186965155E+02  0.00000000000E+00 0.  1.
         -2   -1    0    0    0  501 -0.00000000000E+00 -0.00000000000E+00 -0.10937668677E+04  0.10937668677E+04  0.00000000000E+00 0.  1.
         36    2    1    2    0    0  0.00000000000E+00  0.00000000000E+00 -0.10765799026E+04  0.11109538329E+04  0.27421548493E+03 0.  0.
         25    2    3    3    0    0 -0.53638814560E+02 -0.57900053281E+01 -0.51693306548E+03  0.53374465111E+03  0.12146156513E+03 0.  0.
         25    2    3    3    0    0  0.53638814560E+02  0.57900053281E+01 -0.55964683707E+03  0.57720918176E+03  0.13059559975E+03 0.  0.
          5    1    4    4  502    0 -0.51414300417E+02 -0.43644395165E+02 -0.46145842364E+03  0.46638420885E+03  0.47000000000E+01 0.  1.
         -5    1    4    4    0  502 -0.22245141438E+01  0.37854389837E+02 -0.55474641840E+02  0.67360442252E+02  0.47000000000E+01 0.  1.
          5    1    5    5  503    0  0.81309424864E+02  0.42757803845E+02 -0.42326975607E+03  0.43314989180E+03  0.47000000000E+01 0.  1.
         -5    1    5    5    0  503 -0.27670610304E+02 -0.36967798517E+02 -0.13637708100E+03  0.14405928996E+03  0.47000000000E+01 0.  1.
<mgrwt>
<rscale>  0 0.27421548E+03</rscale>
<asrwt>0</asrwt>
<pdfrwt beam="1">  1        2 0.26441484E-02 0.27421548E+03</pdfrwt>
<pdfrwt beam="2">  1       -2 0.16827183E+00 0.27421548E+03</pdfrwt>
<totfact> 0.87168973E+02</totfact>
</mgrwt>
</event>
<event>
 9    1  0.2117506E-002  0.2747943E+03  0.7818608E-02  0.1098567E+00
         -3   -1    0    0    0  501 -0.00000000000E+00  0.00000000000E+00  0.36937494136E+03  0.36937494136E+03  0.00000000000E+00 0. -1.
          3   -1    0    0  501    0  0.00000000000E+00 -0.00000000000E+00 -0.51107900985E+02  0.51107900985E+02  0.00000000000E+00 0. -1.
         36    2    1    2    0    0 -0.71054273576E-14  0.00000000000E+00  0.31826704038E+03  0.42048284235E+03  0.27479430802E+03 0.  0.
         25    2    3    3    0    0  0.35983260529E+02  0.18386065168E+02  0.99400097318E+02  0.16424899789E+03  0.12435638918E+03 0.  0.
         25    2    3    3    0    0 -0.35983260529E+02 -0.18386065168E+02  0.21886694306E+03  0.25623384446E+03  0.12696535689E+03 0.  0.
          5    1    4    4  502    0 -0.31145817941E+01  0.23777871650E+02  0.11790134637E+03  0.12040724761E+03  0.47000000000E+01 0. -1.
         -5    1    4    4    0  502  0.39097842323E+02 -0.53918064817E+01 -0.18501249054E+02  0.43841750284E+02  0.47000000000E+01 0. -1.
          5    1    5    5  503    0  0.44557748765E+02 -0.23039704046E+02  0.10660279088E+03  0.11790871876E+03  0.47000000000E+01 0.  1.
         -5    1    5    5    0  503 -0.80541009294E+02  0.46536388778E+01  0.11226415218E+03  0.13832512569E+03  0.47000000000E+01 0.  1.
<mgrwt>
<rscale>  0 0.27479431E+03</rscale>
<asrwt>0</asrwt>
<pdfrwt beam="1">  1        3 0.78627543E-02 0.27479431E+03</pdfrwt>
<pdfrwt beam="2">  1       -3 0.56826912E-01 0.27479431E+03</pdfrwt>
<totfact> 0.85891370E+02</totfact>
</mgrwt>
</event>
<event>
 9    1  0.2117506E-002  0.2750014E+03  0.7818608E-02  0.1098451E+00
         -2   -1    0    0    0  501 -0.00000000000E+00  0.00000000000E+00  0.12421766585E+03  0.12421766585E+03  0.00000000000E+00 0. -1.
          2   -1    0    0  501    0  0.00000000000E+00 -0.00000000000E+00 -0.15220411696E+03  0.15220411696E+03  0.00000000000E+00 0. -1.
         36    2    1    2    0    0 -0.35527136788E-14 -0.71054273576E-14 -0.27986451113E+02  0.27642178281E+03  0.27500138285E+03 0.  0.
         25    2    3    3    0    0 -0.16678931899E+02 -0.16421400577E+02  0.42319570778E+02  0.13196939982E+03  0.12278895411E+03 0.  0.
         25    2    3    3    0    0  0.16678931899E+02  0.16421400577E+02 -0.70306021891E+02  0.14445238300E+03  0.12399881077E+03 0.  0.
          5    1    4    4  502    0 -0.19083865318E+02 -0.20707414059E+02 -0.40124769504E+02  0.49245081381E+02  0.47000000000E+01 0.  1.
         -5    1    4    4    0  502  0.24049334190E+01  0.42860134819E+01  0.82444340282E+02  0.82724318437E+02  0.47000000000E+01 0.  1.
          5    1    5    5  503    0 -0.27214571218E+02  0.40324238884E+02  0.98656377564E+01  0.49860785559E+02  0.47000000000E+01 0. -1.
         -5    1    5    5    0  503  0.43893503117E+02 -0.23902838307E+02 -0.80171659647E+02  0.94591597437E+02  0.47000000000E+01 0. -1.
<mgrwt>
<rscale>  0 0.27500138E+03</rscale>
<asrwt>0</asrwt>
<pdfrwt beam="1">  1        2 0.23416018E-01 0.27500138E+03</pdfrwt>
<pdfrwt beam="2">  1       -2 0.19110410E-01 0.27500138E+03</pdfrwt>
<totfact> 0.52299975E+03</totfact>
</mgrwt>
</event>
<event>
 9    1  0.2117506E-002  0.2735326E+03  0.7818608E-02  0.1099275E+00
          2   -1    0    0  501    0  0.00000000000E+00  0.00000000000E+00  0.10315713869E+04  0.10315713869E+04  0.00000000000E+00 0.  1.
         -2   -1    0    0    0  501 -0.00000000000E+00 -0.00000000000E+00 -0.18132555678E+02  0.18132555678E+02  0.00000000000E+00 0.  1.
         36    2    1    2    0    0 -0.17763568394E-14  0.14210854715E-13  0.10134388312E+04  0.10497039426E+04  0.27353263505E+03 0.  0.
         25    2    3    3    0    0  0.10323407092E+02  0.47103613188E+02  0.49096798595E+03  0.50860862127E+03  0.12372486935E+03 0.  0.
         25    2    3    3    0    0 -0.10323407092E+02 -0.47103613188E+02  0.52247084530E+03  0.54109532133E+03  0.13222344524E+03 0.  0.
          5    1    4    4  502    0 -0.52019427510E+02  0.20661358754E+02  0.13488086610E+03  0.14610903676E+03  0.47000000000E+01 0. -1.
         -5    1    4    4    0  502  0.62342834602E+02  0.26442254435E+02  0.35608711985E+03  0.36249958451E+03  0.47000000000E+01 0. -1.
          5    1    5    5  503    0 -0.54288091477E+01 -0.67221338649E+02  0.11743717854E+03  0.13550557642E+03  0.47000000000E+01 0.  1.
         -5    1    5    5    0  503 -0.48945979444E+01  0.20117725461E+02  0.40503366676E+03  0.40558974491E+03  0.47000000000E+01 0.  1.
<mgrwt>
<rscale>  0 0.27353264E+03</rscale>
<asrwt>0</asrwt>
<pdfrwt beam="1">  1        2 0.15870324E+00 0.27353264E+03</pdfrwt>
<pdfrwt beam="2">  1       -2 0.27896247E-02 0.27353264E+03</pdfrwt>
<totfact> 0.11825415E+04</totfact>
</mgrwt>
</event>
<event>
 9    1  0.2117506E-002  0.2745213E+03  0.7818608E-02  0.1098719E+00
         -2   -1    0    0    0  501 -0.00000000000E+00  0.00000000000E+00  0.56851549648E+03  0.56851549648E+03  0.00000000000E+00 0. -1.
          2   -1    0    0  501    0  0.00000000000E+00 -0.00000000000E+00 -0.33139801060E+02  0.33139801060E+02  0.00000000000E+00 0. -1.
         36    2    1    2    0    0  0.00000000000E+00  0.00000000000E+00  0.53537569542E+03  0.60165529754E+03  0.27452133216E+03 0.  0.
         25    2    3    3    0    0 -0.47926909330E+02  0.32380854574E+02  0.28107273896E+03  0.31324833824E+03  0.12560703978E+03 0.  0.
         25    2    3    3    0    0  0.47926909330E+02 -0.32380854574E+02  0.25430295646E+03  0.28840695930E+03  0.12313842669E+03 0.  0.
          5    1    4    4  502    0  0.18280618867E+02  0.16510394143E+02  0.22073452751E+03  0.22215444127E+03  0.47000000000E+01 0. -1.
         -5    1    4    4    0  502 -0.66207528198E+02  0.15870460432E+02  0.60338211451E+02  0.91093896972E+02  0.47000000000E+01 0. -1.
          5    1    5    5  503    0  0.66733788287E+02  0.23681252197E+02  0.96212180312E+02  0.11955364422E+03  0.47000000000E+01 0. -1.
         -5    1    5    5    0  503 -0.18806878957E+02 -0.56062106772E+02  0.15809077615E+03  0.16885331508E+03  0.47000000000E+01 0. -1.
<mgrwt>
<rscale>  0 0.27452133E+03</rscale>
<asrwt>0</asrwt>
<pdfrwt beam="1">  1        2 0.50984314E-02 0.27452133E+03</pdfrwt>
<pdfrwt beam="2">  1       -2 0.87463915E-01 0.27452133E+03</pdfrwt>
<totfact> 0.17841536E+03</totfact>
</mgrwt>
</event>
<event>
 9    1  0.2117506E-002  0.2748502E+03  0.7818608E-02  0.1098535E+00
         -2   -1    0    0    0  501 -0.00000000000E+00  0.00000000000E+00  0.11267918064E+03  0.11267918064E+03  0.00000000000E+00 0.  1.
          2   -1    0    0  501    0  0.00000000000E+00 -0.00000000000E+00 -0.16760557312E+03  0.16760557312E+03  0.00000000000E+00 0.  1.
         36    2    1    2    0    0  0.71054273576E-14 -0.71054273576E-14 -0.54926392480E+02  0.28028475377E+03  0.27485020394E+03 0.  0.
         25    2    3    3    0    0  0.18474097635E+02 -0.57932477410E+02 -0.27887975251E+02  0.13921742857E+03  0.12209131432E+03 0.  0.
         25    2    3    3    0    0 -0.18474097635E+02  0.57932477410E+02 -0.27038417229E+02  0.14106732520E+03  0.12438428361E+03 0.  0.
          5    1    4    4  502    0  0.64039186019E+02 -0.29081501441E+02 -0.43554893181E+02  0.82860544242E+02  0.47000000000E+01 0. -1.
         -5    1    4    4    0  502 -0.45565088385E+02 -0.28850975969E+02  0.15666917929E+02  0.56356884329E+02  0.47000000000E+01 0. -1.
          5    1    5    5  503    0  0.51910066019E+02  0.19996790605E+02 -0.24409079984E+02  0.60929629691E+02  0.47000000000E+01 0. -1.
         -5    1    5    5    0  503 -0.70384163654E+02  0.37935686805E+02 -0.26293372451E+01  0.80137695506E+02  0.47000000000E+01 0. -1.
<mgrwt>
<rscale>  0 0.27485020E+03</rscale>
<asrwt>0</asrwt>
<pdfrwt beam="1">  1        2 0.25785473E-01 0.27485020E+03</pdfrwt>
<pdfrwt beam="2">  1       -2 0.17335259E-01 0.27485020E+03</pdfrwt>
<totfact> 0.55356084E+03</totfact>
</mgrwt>
</event>
<event>
 9    1  0.2117506E-002  0.2750942E+03  0.7818608E-02  0.1098399E+00
          2   -1    0    0  501    0  0.00000000000E+00  0.00000000000E+00  0.56453491116E+03  0.56453491116E+03  0.00000000000E+00 0. -1.
         -2   -1    0    0    0  501 -0.00000000000E+00 -0.00000000000E+00 -0.33512914436E+02  0.33512914436E+02  0.00000000000E+00 0. -1.
         36    2    1    2    0    0  0.10658141036E-13  0.00000000000E+00  0.53102199672E+03  0.59804782560E+03  0.27509423966E+03 0.  0.
         25    2    3    3    0    0 -0.26208211633E+02  0.47266866905E+02  0.24681285018E+03  0.28176738803E+03  0.12472069147E+03 0.  0.
         25    2    3    3    0    0  0.26208211633E+02 -0.47266866905E+02  0.28420914655E+03  0.31628043756E+03  0.12781803136E+03 0.  0.
          5    1    4    4  502    0 -0.43736251149E+02 -0.30775994495E+02  0.12407191617E+03  0.13518857897E+03  0.47000000000E+01 0. -1.
         -5    1    4    4    0  502  0.17528039517E+02  0.78042861400E+02  0.12274093401E+03  0.14657880906E+03  0.47000000000E+01 0. -1.
          5    1    5    5  503    0  0.64420946147E+02  0.10724405666E+02  0.10177547322E+03  0.12101821403E+03  0.47000000000E+01 0.  1.
         -5    1    5    5    0  503 -0.38212734515E+02 -0.57991272571E+02  0.18243367333E+03  0.19526222353E+03  0.47000000000E+01 0.  1.
<mgrwt>
<rscale>  0 0.27509424E+03</rscale>
<asrwt>0</asrwt>
<pdfrwt beam="1">  1        2 0.86851517E-01 0.27509424E+03</pdfrwt>
<pdfrwt beam="2">  1       -2 0.51558334E-02 0.27509424E+03</pdfrwt>
<totfact> 0.10069683E+04</totfact>
</mgrwt>
</event>
<event>
 9    1  0.2117506E-002  0.2758924E+03  0.7818608E-02  0.1097954E+00
          1   -1    0    0  501    0  0.00000000000E+00  0.00000000000E+00  0.19865460557E+03  0.19865460557E+03  0.00000000000E+00 0.  1.
         -1   -1    0    0    0  501 -0.00000000000E+00 -0.00000000000E+00 -0.95790132482E+02  0.95790132482E+02  0.00000000000E+00 0.  1.
         36    2    1    2    0    0 -0.71054273576E-14  0.71054273576E-14  0.10286447309E+03  0.29444473805E+03  0.27589237746E+03 0.  0.
         25    2    3    3    0    0 -0.14545753529E+02  0.43584691081E+02  0.48852047307E+02  0.14505604812E+03  0.12862165575E+03 0.  0.
         25    2    3    3    0    0  0.14545753529E+02 -0.43584691081E+02  0.54012425780E+02  0.14938868993E+03  0.13148549083E+03 0.  0.
          5    1    4    4  502    0 -0.32259182496E+02  0.11411911252E+02  0.85957311979E+02  0.92637120294E+02  0.47000000000E+01 0.  1.
         -5    1    4    4    0  502  0.17713428967E+02  0.32172779829E+02 -0.37105264672E+02  0.52418927823E+02  0.47000000000E+01 0.  1.
          5    1    5    5  503    0  0.34957469501E+02 -0.80455363997E+02  0.60255705270E+02  0.10652666468E+03  0.47000000000E+01 0. -1.
         -5    1    5    5    0  503 -0.20411715972E+02  0.36870672916E+02 -0.62432794904E+01  0.42862025256E+02  0.47000000000E+01 0. -1.
<mgrwt>
<rscale>  0 0.27589238E+03</rscale>
<asrwt>0</asrwt>
<pdfrwt beam="1">  1        1 0.30562247E-01 0.27589238E+03</pdfrwt>
<pdfrwt beam="2">  1       -1 0.14736944E-01 0.27589238E+03</pdfrwt>
<totfact> 0.48585984E+03</totfact>
</mgrwt>
</event>
<event>
 9    1  0.2117506E-002  0.2748632E+03  0.7818608E-02  0.1098528E+00
         -1   -1    0    0    0  501 -0.00000000000E+00  0.00000000000E+00  0.80781966224E+02  0.80781966224E+02  0.00000000000E+00 0.  1.
          1   -1    0    0  501    0  0.00000000000E+00 -0.00000000000E+00 -0.23380766107E+03  0.23380766107E+03  0.00000000000E+00 0.  1.
         36    2    1    2    0    0  0.00000000000E+00  0.00000000000E+00 -0.15302569484E+03  0.31458962729E+03  0.27486318472E+03 0.  0.
         25    2    3    3    0    0 -0.32748501943E+02  0.46379200336E+02 -0.74036715770E+02  0.15579642644E+03  0.12477017514E+03 0.  0.
         25    2    3    3    0    0  0.32748501943E+02 -0.46379200336E+02 -0.78988979072E+02  0.15879320085E+03  0.12550907226E+03 0.  0.
          5    1    4    4  502    0 -0.24467372167E+01 -0.39279171035E+02 -0.45724084116E+02  0.60511335041E+02  0.47000000000E+01 0. -1.
         -5    1    4    4    0  502 -0.30301764726E+02  0.85658371370E+02 -0.28312631654E+02  0.95285091397E+02  0.47000000000E+01 0. -1.
          5    1    5    5  503    0 -0.15375506565E+02  0.87986681967E+01  0.25325900951E+02  0.31262022058E+02  0.47000000000E+01 0. -1.
         -5    1    5    5    0  503  0.48124008508E+02 -0.55177868532E+02 -0.10431488002E+03  0.12753117879E+03  0.47000000000E+01 0. -1.
<mgrwt>
<rscale>  0 0.27486318E+03</rscale>
<asrwt>0</asrwt>
<pdfrwt beam="1">  1        1 0.35970408E-01 0.27486318E+03</pdfrwt>
<pdfrwt beam="2">  1       -1 0.12427995E-01 0.27486318E+03</pdfrwt>
<totfact> 0.51759120E+03</totfact>
</mgrwt>
</event>
<event>
 9    1  0.2117506E-002  0.2748190E+03  0.7818608E-02  0.1098553E+00
          1   -1    0    0  501    0  0.00000000000E+00  0.00000000000E+00  0.15006439594E+04  0.15006439594E+04  0.00000000000E+00 0. -1.
         -1   -1    0    0    0  501 -0.00000000000E+00 -0.00000000000E+00 -0.12582177387E+02  0.12582177387E+02  0.00000000000E+00 0. -1.
         36    2    1    2    0    0  0.71054273576E-14  0.00000000000E+00  0.14880617820E+04  0.15132261368E+04  0.27481898400E+03 0.  0.
         25    2    3    3    0    0  0.25790345204E+02 -0.47680096006E+02  0.84036025923E+03  0.85130605950E+03  0.12481229181E+03 0.  0.
         25    2    3    3    0    0 -0.25790345204E+02  0.47680096006E+02  0.64770152276E+03  0.66192007727E+03  0.12522936014E+03 0.  0.
          5    1    4    4  502    0 -0.34373821790E+02 -0.32888791824E+02  0.63387189575E+03  0.63567200857E+03  0.47000000000E+01 0.  1.
         -5    1    4    4    0  502  0.60164166995E+02 -0.14791304182E+02  0.20648836348E+03  0.21563405093E+03  0.47000000000E+01 0.  1.
          5    1    5    5  503    0 -0.54379933157E+02  0.39707469578E+02  0.60992814671E+03  0.61365160671E+03  0.47000000000E+01 0. -1.
         -5    1    5    5    0  503  0.28589587952E+02  0.79726264285E+01  0.37773376054E+02  0.48268470558E+02  0.47000000000E+01 0. -1.
<mgrwt>
<rscale>  0 0.27481898E+03</rscale>
<asrwt>0</asrwt>
<pdfrwt beam="1">  1        1 0.23086816E+00 0.27481898E+03</pdfrwt>
<pdfrwt beam="2">  1       -1 0.19357208E-02 0.27481898E+03</pdfrwt>
<totfact> 0.51423644E+03</totfact>
</mgrwt>
</event>
<event>
 9    1  0.2117506E-002  0.2761270E+03  0.7818608E-02  0.1097823E+00
         -2   -1    0    0    0  501 -0.00000000000E+00  0.00000000000E+00  0.11047270105E+02  0.11047270105E+02  0.00000000000E+00 0. -1.
          2   -1    0    0  501    0  0.00000000000E+00 -0.00000000000E+00 -0.17254515439E+04  0.17254515439E+04  0.00000000000E+00 0. -1.
         36    2    1    2    0    0  0.00000000000E+00  0.00000000000E+00 -0.17144042738E+04  0.17364988140E+04  0.27612699439E+03 0.  0.
         25    2    3    3    0    0 -0.49124689128E+02  0.70826953402E+00 -0.71324064260E+03  0.72630464470E+03  0.12803314386E+03 0.  0.
         25    2    3    3    0    0  0.49124689128E+02 -0.70826953402E+00 -0.10011636312E+04  0.10101941693E+04  0.12549863164E+03 0.  0.
          5    1    4    4  502    0 -0.36093641524E+02 -0.12704212488E+02 -0.70376515732E+03  0.70482028534E+03  0.47000000000E+01 0.  1.
         -5    1    4    4    0  502 -0.13031047604E+02  0.13412482022E+02 -0.94754852819E+01  0.21484359357E+02  0.47000000000E+01 0.  1.
          5    1    5    5  503    0  0.49290799603E+02 -0.27445738471E+02 -0.18246588965E+03  0.19104644035E+03  0.47000000000E+01 0.  1.
         -5    1    5    5    0  503 -0.16611047462E+00  0.26737468937E+02 -0.81869774153E+03  0.81914772894E+03  0.47000000000E+01 0.  1.
<mgrwt>
<rscale>  0 0.27612699E+03</rscale>
<asrwt>0</asrwt>
<pdfrwt beam="1">  1        2 0.26545390E+00 0.27612699E+03</pdfrwt>
<pdfrwt beam="2">  1       -2 0.16995812E-02 0.27612699E+03</pdfrwt>
<totfact> 0.10175842E+04</totfact>
</mgrwt>
</event>
<event>
 9    1  0.2117506E-002  0.2757354E+03  0.7818608E-02  0.1098041E+00
         -3   -1    0    0    0  501 -0.00000000000E+00  0.00000000000E+00  0.53012967223E+02  0.53012967223E+02  0.00000000000E+00 0.  1.
          3   -1    0    0  501    0  0.00000000000E+00 -0.00000000000E+00 -0.35854433336E+03  0.35854433336E+03  0.00000000000E+00 0.  1.
         36    2    1    2    0    0 -0.14210854715E-13 -0.12434497876E-13 -0.30553136613E+03  0.41155730058E+03  0.27573537308E+03 0.  0.
         25    2    3    3    0    0 -0.47737149206E+02 -0.14490764318E+02 -0.20033330411E+03  0.24045850868E+03  0.12328034717E+03 0.  0.
         25    2    3    3    0    0  0.47737149206E+02  0.14490764318E+02 -0.10519806203E+03  0.17109879190E+03  0.12537681871E+03 0.  0.
          5    1    4    4  502    0  0.36223438231E+02 -0.20860154092E+02 -0.34456750873E+02  0.54375005165E+02  0.47000000000E+01 0.  1.
         -5    1    4    4    0  502 -0.83960587437E+02  0.63693897743E+01 -0.16587655323E+03  0.18608350352E+03  0.47000000000E+01 0.  1.
          5    1    5    5  503    0  0.26959946975E+02  0.70098657772E+02 -0.62554355449E+02  0.97856006193E+02  0.47000000000E+01 0.  1.
         -5    1    5    5    0  503  0.20777202231E+02 -0.55607893455E+02 -0.42643706578E+02  0.73242785705E+02  0.47000000000E+01 0.  1.
<mgrwt>
<rscale>  0 0.27573537E+03</rscale>
<asrwt>0</asrwt>
<pdfrwt beam="1">  1        3 0.55160669E-01 0.27573537E+03</pdfrwt>
<pdfrwt beam="2">  1       -3 0.81558408E-02 0.27573537E+03</pdfrwt>
<totfact> 0.86071243E+02</totfact>
</mgrwt>
</event>
<event>
 9    1  0.2117506E-002  0.2759294E+03  0.7818608E-02  0.1097933E+00
          2   -1    0    0  501    0  0.00000000000E+00  0.00000000000E+00  0.25438239119E+04  0.25438239119E+04  0.00000000000E+00 0. -1.
         -2   -1    0    0    0  501 -0.00000000000E+00 -0.00000000000E+00 -0.74825391771E+01  0.74825391771E+01  0.00000000000E+00 0. -1.
         36    2    1    2    0    0  0.00000000000E+00 -0.71054273576E-14  0.25363413727E+04  0.25513064511E+04  0.27592942634E+03 0.  0.
         25    2    3    3    0    0 -0.23912836973E+02 -0.45491691811E+02  0.12147249803E+04  0.12222277011E+04  0.12506981095E+03 0.  0.
         25    2    3    3    0    0  0.23912836973E+02  0.45491691811E+02  0.13216163924E+04  0.13290787500E+04  0.13091645161E+03 0.  0.
          5    1    4    4  502    0  0.37730021390E+02  0.24074079660E+01  0.75009125497E+03  0.75105814083E+03  0.47000000000E+01 0.  1.
         -5    1    4    4    0  502 -0.61642858363E+02 -0.47899099777E+02  0.46463372537E+03  0.47116956024E+03  0.47000000000E+01 0.  1.
          5    1    5    5  503    0  0.16848248464E+02  0.26235911281E+02  0.12938774756E+04  0.12942616421E+04  0.47000000000E+01 0.  1.
         -5    1    5    5    0  503  0.70645885091E+01  0.19255780530E+02  0.27738916832E+02  0.34817107887E+02  0.47000000000E+01 0.  1.
<mgrwt>
<rscale>  0 0.27592943E+03</rscale>
<asrwt>0</asrwt>
<pdfrwt beam="1">  1        2 0.39135683E+00 0.27592943E+03</pdfrwt>
<pdfrwt beam="2">  1       -2 0.11511619E-02 0.27592943E+03</pdfrwt>
<totfact> 0.65904876E+03</totfact>
</mgrwt>
</event>
<event>
 9    1  0.2117506E-002  0.2741406E+03  0.7818608E-02  0.1098933E+00
          2   -1    0    0  501    0  0.00000000000E+00  0.00000000000E+00  0.64853862964E+03  0.64853862964E+03  0.00000000000E+00 0. -1.
         -2   -1    0    0    0  501 -0.00000000000E+00 -0.00000000000E+00 -0.28970149667E+02  0.28970149667E+02  0.00000000000E+00 0. -1.
         36    2    1    2    0    0  0.35527136788E-14 -0.71054273576E-14  0.61956847998E+03  0.67750877931E+03  0.27414055640E+03 0.  0.
         25    2    3    3    0    0 -0.94999437639E+01  0.40171785579E+02  0.36301700804E+03  0.38772492933E+03  0.12978925767E+03 0.  0.
         25    2    3    3    0    0  0.94999437639E+01 -0.40171785579E+02  0.25655147193E+03  0.28978384998E+03  0.12826535257E+03 0.  0.
          5    1    4    4  502    0  0.36562127905E+02 -0.31721018053E+02  0.10083375757E+03  0.11194886712E+03  0.47000000000E+01 0.  1.
         -5    1    4    4    0  502 -0.46062071669E+02  0.71892803632E+02  0.26218325047E+03  0.27577606221E+03  0.47000000000E+01 0.  1.
          5    1    5    5  503    0 -0.30567069339E+02  0.11486637332E+02  0.20151396181E+03  0.20419660959E+03  0.47000000000E+01 0.  1.
         -5    1    5    5    0  503  0.40067013103E+02 -0.51658422911E+02  0.55037510126E+02  0.85587240390E+02  0.47000000000E+01 0.  1.
<mgrwt>
<rscale>  0 0.27414056E+03</rscale>
<asrwt>0</asrwt>
<pdfrwt beam="1">  1        2 0.99775163E-01 0.27414056E+03</pdfrwt>
<pdfrwt beam="2">  1       -2 0.44569466E-02 0.27414056E+03</pdfrwt>
<totfact> 0.10684386E+04</totfact>
</mgrwt>
</event>
<event>
 9    1  0.2117506E-002  0.2748347E+03  0.7818608E-02  0.1098544E+00
         -2   -1    0    0    0  501 -0.00000000000E+00  0.00000000000E+00  0.11231453611E+02  0.11231453611E+02  0.00000000000E+00 0. -1.
          2   -1    0    0  501    0  0.00000000000E+00 -0.00000000000E+00 -0.16813075144E+04  0.16813075144E+04  0.00000000000E+00 0. -1.
         36    2    1    2    0    0  0.00000000000E+00 -0.71054273576E-14 -0.16700760607E+04  0.16925389680E+04  0.27483469470E+03 0.  0.
         25    2    3    3    0    0  0.36467770863E+02  0.38077550735E+02 -0.92574043456E+03  0.93541364976E+03  0.12338373397E+03 0.  0.
         25    2    3    3    0    0 -0.36467770863E+02 -0.38077550735E+02 -0.74433562619E+03  0.75712531820E+03  0.12815391086E+03 0.  0.
          5    1    4    4  502    0  0.64885615729E+01  0.80263565315E+02 -0.62991653855E+03  0.63506005770E+03  0.47000000000E+01 0. -1.
         -5    1    4    4    0  502  0.29979209290E+02 -0.42186014580E+02 -0.29582389601E+03  0.30035359206E+03  0.47000000000E+01 0. -1.
          5    1    5    5  503    0 -0.78139212028E+02 -0.22730828779E+02 -0.61321644165E+03  0.61861047626E+03  0.47000000000E+01 0.  1.
         -5    1    5    5    0  503  0.41671441165E+02 -0.15346721957E+02 -0.13111918454E+03  0.13851484194E+03  0.47000000000E+01 0.  1.
<mgrwt>
<rscale>  0 0.27483469E+03</rscale>
<asrwt>0</asrwt>
<pdfrwt beam="1">  1        2 0.25866278E+00 0.27483469E+03</pdfrwt>
<pdfrwt beam="2">  1       -2 0.17279154E-02 0.27483469E+03</pdfrwt>
<totfact> 0.10477407E+04</totfact>
</mgrwt>
</event>
<event>
 9    1  0.2117506E-002  0.2723881E+03  0.7818608E-02  0.1099921E+00
          2   -1    0    0  501    0  0.00000000000E+00  0.00000000000E+00  0.23739670999E+04  0.23739670999E+04  0.00000000000E+00 0. -1.
         -2   -1    0    0    0  501 -0.00000000000E+00 -0.00000000000E+00 -0.78134262983E+01  0.78134262983E+01  0.00000000000E+00 0. -1.
         36    2    1    2    0    0 -0.35527136788E-14 -0.71054273576E-14  0.23661536736E+04  0.23817805262E+04  0.27238808322E+03 0.  0.
         25    2    3    3    0    0 -0.31996284859E+02  0.30264323247E+02  0.10247353962E+04  0.10329374576E+04  0.12221893352E+03 0.  0.
         25    2    3    3    0    0  0.31996284859E+02 -0.30264323247E+02  0.13414182774E+04  0.13488430686E+04  0.13429421836E+03 0.  0.
          5    1    4    4  502    0 -0.42064764700E+02  0.35464501071E+02  0.10168618932E+04  0.10183601401E+04  0.47000000000E+01 0. -1.
         -5    1    4    4    0  502  0.10068479841E+02 -0.52001778239E+01  0.78735030173E+01  0.14577317499E+02  0.47000000000E+01 0. -1.
          5    1    5    5  503    0 -0.38932322185E+02 -0.50856278401E+02  0.48502572321E+03  0.48925875459E+03  0.47000000000E+01 0. -1.
         -5    1    5    5    0  503  0.70928607044E+02  0.20591955154E+02  0.85639255421E+03  0.85958431396E+03  0.47000000000E+01 0. -1.
<mgrwt>
<rscale>  0 0.27238808E+03</rscale>
<asrwt>0</asrwt>
<pdfrwt beam="1">  1        2 0.36522513E+00 0.27238808E+03</pdfrwt>
<pdfrwt beam="2">  1       -2 0.12020675E-02 0.27238808E+03</pdfrwt>
<totfact> 0.76596971E+03</totfact>
</mgrwt>
</event>
<event>
 9    1  0.2117506E-002  0.2747231E+03  0.7818608E-02  0.1098606E+00
         -2   -1    0    0    0  501 -0.00000000000E+00  0.00000000000E+00  0.16124209395E+02  0.16124209395E+02  0.00000000000E+00 0. -1.
          2   -1    0    0  501    0  0.00000000000E+00 -0.00000000000E+00 -0.11701780737E+04  0.11701780737E+04  0.00000000000E+00 0. -1.
         36    2    1    2    0    0 -0.71054273576E-14  0.71054273576E-14 -0.11540538643E+04  0.11863022831E+04  0.27472310635E+03 0.  0.
         25    2    3    3    0    0  0.43821130482E+02 -0.33707536682E+02 -0.50552373044E+03  0.52319823888E+03  0.12298644488E+03 0.  0.
         25    2    3    3    0    0 -0.43821130482E+02  0.33707536682E+02 -0.64853013389E+03  0.66310404424E+03  0.12672469932E+03 0.  0.
          5    1    4    4  502    0  0.90614459878E+00  0.18446870852E+02 -0.73200704588E+01  0.20415228967E+02  0.47000000000E+01 0.  1.
         -5    1    4    4    0  502  0.42914985883E+02 -0.52154407534E+02 -0.49820365998E+03  0.50278300992E+03  0.47000000000E+01 0.  1.
          5    1    5    5  503    0 -0.36426873117E+02 -0.24887727990E+02 -0.51635786985E+03  0.51826041315E+03  0.47000000000E+01 0. -1.
         -5    1    5    5    0  503 -0.73942573643E+01  0.58595264672E+02 -0.13217226405E+03  0.14484363109E+03  0.47000000000E+01 0. -1.
<mgrwt>
<rscale>  0 0.27472311E+03</rscale>
<asrwt>0</asrwt>
<pdfrwt beam="1">  1        2 0.18002744E+00 0.27472311E+03</pdfrwt>
<pdfrwt beam="2">  1       -2 0.24806470E-02 0.27472311E+03</pdfrwt>
<totfact> 0.11667559E+04</totfact>
</mgrwt>
</event>
<event>
 9    1  0.2117506E-002  0.2747224E+03  0.7818608E-02  0.1098607E+00
         -2   -1    0    0    0  501 -0.00000000000E+00  0.00000000000E+00  0.36836855682E+02  0.36836855682E+02  0.00000000000E+00 0. -1.
          2   -1    0    0  501    0  0.00000000000E+00 -0.00000000000E+00 -0.51220718714E+03  0.51220718714E+03  0.00000000000E+00 0. -1.
         36    2    1    2    0    0  0.00000000000E+00  0.17763568394E-14 -0.47537033146E+03  0.54904404282E+03  0.27472242160E+03 0.  0.
         25    2    3    3    0    0  0.18800660658E+02 -0.58711015685E+01 -0.39548982922E+03  0.41559866709E+03  0.12618285301E+03 0.  0.
         25    2    3    3    0    0 -0.18800660658E+02  0.58711015685E+01 -0.79880502239E+02  0.13344537573E+03  0.10506587930E+03 0.  0.
          5    1    4    4  502    0 -0.30078694555E+02 -0.16632986492E+02 -0.27711111059E+02  0.44400222769E+02  0.47000000000E+01 0.  1.
         -5    1    4    4    0  502  0.48879355213E+02  0.10761884924E+02 -0.36777871816E+03  0.37119844432E+03  0.47000000000E+01 0.  1.
          5    1    5    5  503    0  0.49021838947E+01  0.32042171728E+02  0.12014624042E+02  0.34888011792E+02  0.47000000000E+01 0.  1.
         -5    1    5    5    0  503 -0.23702844552E+02 -0.26171070159E+02 -0.91895126280E+02  0.98557363942E+02  0.47000000000E+01 0.  1.
<mgrwt>
<rscale>  0 0.27472242E+03</rscale>
<asrwt>0</asrwt>
<pdfrwt beam="1">  1        2 0.78801099E-01 0.27472242E+03</pdfrwt>
<pdfrwt beam="2">  1       -2 0.56672091E-02 0.27472242E+03</pdfrwt>
<totfact> 0.97327674E+03</totfact>
</mgrwt>
</event>
<event>
 9    1  0.2117506E-002  0.2745403E+03  0.7818608E-02  0.1098709E+00
          1   -1    0    0  501    0  0.00000000000E+00  0.00000000000E+00  0.63844845275E+03  0.63844845275E+03  0.00000000000E+00 0.  1.
         -1   -1    0    0    0  501 -0.00000000000E+00 -0.00000000000E+00 -0.29513882832E+02  0.29513882832E+02  0.00000000000E+00 0.  1.
         36    2    1    2    0    0  0.71054273576E-14  0.00000000000E+00  0.60893456992E+03  0.66796233558E+03  0.27454029088E+03 0.  0.
         25    2    3    3    0    0 -0.54708014377E+02 -0.16680579219E+02  0.26595707138E+03  0.29951323769E+03  0.12531483221E+03 0.  0.
         25    2    3    3    0    0  0.54708014377E+02  0.16680579219E+02  0.34297749854E+03  0.36844909790E+03  0.12186043113E+03 0.  0.
          5    1    4    4  502    0 -0.88564283281E+02 -0.32338184335E+02  0.22454028505E+03  0.24357713367E+03  0.47000000000E+01 0.  1.
         -5    1    4    4    0  502  0.33856268905E+02  0.15657605116E+02  0.41416786331E+02  0.55936104013E+02  0.47000000000E+01 0.  1.
          5    1    5    5  503    0  0.39890442246E+02 -0.50081190093E+00  0.20422378578E+02  0.45062864334E+02  0.47000000000E+01 0. -1.
         -5    1    5    5    0  503  0.14817572130E+02  0.17181391120E+02  0.32255511996E+03  0.32338623356E+03  0.47000000000E+01 0. -1.
<mgrwt>
<rscale>  0 0.27454029E+03</rscale>
<asrwt>0</asrwt>
<pdfrwt beam="1">  1        1 0.98222828E-01 0.27454029E+03</pdfrwt>
<pdfrwt beam="2">  1       -1 0.45405979E-02 0.27454029E+03</pdfrwt>
<totfact> 0.65308315E+03</totfact>
</mgrwt>
</event>
<event>
 9    1  0.2117506E-002  0.2750528E+03  0.7818608E-02  0.1098422E+00
         -1   -1    0    0    0  501 -0.00000000000E+00  0.00000000000E+00  0.21225837521E+03  0.21225837521E+03  0.00000000000E+00 0. -1.
          1   -1    0    0  501    0  0.00000000000E+00 -0.00000000000E+00 -0.89106045945E+02  0.89106045945E+02  0.00000000000E+00 0. -1.
         36    2    1    2    0    0  0.71054273576E-14  0.71054273576E-14  0.12315232926E+03  0.30136442116E+03  0.27505275518E+03 0.  0.
         25    2    3    3    0    0 -0.18142077152E+01  0.48441571844E+02  0.29222795251E+02  0.13919329153E+03  0.12716494569E+03 0.  0.
         25    2    3    3    0    0  0.18142077152E+01 -0.48441571844E+02  0.93929534013E+02  0.16217112962E+03  0.12299122201E+03 0.  0.
          5    1    4    4  502    0 -0.62684026217E+02  0.93745594742E+01  0.11674838595E+02  0.64618583738E+02  0.47000000000E+01 0. -1.
         -5    1    4    4    0  502  0.60869818501E+02  0.39067012370E+02  0.17547956656E+02  0.74574707795E+02  0.47000000000E+01 0. -1.
          5    1    5    5  503    0  0.23601657237E+02 -0.73563998187E+02  0.18467164267E+02  0.79572773042E+02  0.47000000000E+01 0. -1.
         -5    1    5    5    0  503 -0.21787449521E+02  0.25122426343E+02  0.75462369746E+02  0.82598356580E+02  0.47000000000E+01 0. -1.
<mgrwt>
<rscale>  0 0.27505276E+03</rscale>
<asrwt>0</asrwt>
<pdfrwt beam="1">  1        1 0.13708622E-01 0.27505276E+03</pdfrwt>
<pdfrwt beam="2">  1       -1 0.32655135E-01 0.27505276E+03</pdfrwt>
<totfact> 0.36874946E+03</totfact>
</mgrwt>
</event>
<event>
 9    1  0.2117506E-002  0.2741675E+03  0.7818608E-02  0.1098918E+00
          2   -1    0    0  501    0  0.00000000000E+00  0.00000000000E+00  0.30466712725E+03  0.30466712725E+03  0.00000000000E+00 0. -1.
         -2   -1    0    0    0  501 -0.00000000000E+00 -0.00000000000E+00 -0.61680273530E+02  0.61680273530E+02  0.00000000000E+00 0. -1.
         36    2    1    2    0    0  0.00000000000E+00 -0.35527136788E-14  0.24298685372E+03  0.36634740078E+03  0.27416747979E+03 0.  0.
         25    2    3    3    0    0  0.19494117935E+02  0.19042570324E+02  0.19398979634E+03  0.23281831374E+03  0.12581608010E+03 0.  0.
         25    2    3    3    0    0 -0.19494117935E+02 -0.19042570324E+02  0.48997057380E+02  0.13352908703E+03  0.12118855282E+03 0.  0.
          5    1    4    4  502    0  0.50677389247E+01  0.39516845420E+02  0.31014315789E+01  0.40236450236E+02  0.47000000000E+01 0.  1.
         -5    1    4    4    0  502  0.14426379010E+02 -0.20474275096E+02  0.19088836476E+03  0.19258186351E+03  0.47000000000E+01 0.  1.
          5    1    5    5  503    0 -0.10359839237E+02 -0.70064605508E+02  0.37296830250E+02  0.80184280010E+02  0.47000000000E+01 0. -1.
         -5    1    5    5    0  503 -0.91342786975E+01  0.51022035184E+02  0.11700227130E+02  0.53344807025E+02  0.47000000000E+01 0. -1.
<mgrwt>
<rscale>  0 0.27416748E+03</rscale>
<asrwt>0</asrwt>
<pdfrwt beam="1">  1        2 0.46871865E-01 0.27416748E+03</pdfrwt>
<pdfrwt beam="2">  1       -2 0.94892730E-02 0.27416748E+03</pdfrwt>
<totfact> 0.76985389E+03</totfact>
</mgrwt>
</event>
<event>
 9    1  0.2117506E-002  0.2744054E+03  0.7818608E-02  0.1098784E+00
          2   -1    0    0  501    0  0.00000000000E+00  0.00000000000E+00  0.16727707475E+04  0.16727707475E+04  0.00000000000E+00 0.  1.
         -2   -1    0    0    0  501 -0.00000000000E+00 -0.00000000000E+00 -0.11253530769E+02  0.11253530769E+02  0.00000000000E+00 0.  1.
         36    2    1    2    0    0 -0.71054273576E-14  0.71054273576E-14  0.16615172167E+04  0.16840242783E+04  0.27440537223E+03 0.  0.
         25    2    3    3    0    0 -0.36968573031E+02 -0.39832548989E+02  0.72783507933E+03  0.74155548652E+03  0.13117671112E+03 0.  0.
         25    2    3    3    0    0  0.36968573031E+02  0.39832548989E+02  0.93368213742E+03  0.94246879176E+03  0.11632618949E+03 0.  0.
          5    1    4    4  502    0 -0.20574790658E+02  0.48041487584E+02  0.27073240893E+03  0.27577061806E+03  0.47000000000E+01 0.  1.
         -5    1    4    4    0  502 -0.16393782373E+02 -0.87874036573E+02  0.45710267040E+03  0.46578486846E+03  0.47000000000E+01 0.  1.
          5    1    5    5  503    0 -0.41437904665E+02  0.63464941387E+01  0.26058821661E+03  0.26398046626E+03  0.47000000000E+01 0. -1.
         -5    1    5    5    0  503  0.78406477696E+02  0.33486054850E+02  0.67309392080E+03  0.67848832550E+03  0.47000000000E+01 0. -1.
<mgrwt>
<rscale>  0 0.27440537E+03</rscale>
<asrwt>0</asrwt>
<pdfrwt beam="1">  1        2 0.25734915E+00 0.27440537E+03</pdfrwt>
<pdfrwt beam="2">  1       -2 0.17313138E-02 0.27440537E+03</pdfrwt>
<totfact> 0.10555832E+04</totfact>
</mgrwt>
</event>
<event>
 9    1  0.2117506E-002  0.2751093E+03  0.7818608E-02  0.1098391E+00
          2   -1    0    0  501    0  0.00000000000E+00  0.00000000000E+00  0.15273700699E+03  0.15273700699E+03  0.00000000000E+00 0. -1.
         -2   -1    0    0    0  501 -0.00000000000E+00 -0.00000000000E+00 -0.12388146340E+03  0.12388146340E+03  0.00000000000E+00 0. -1.
         36    2    1    2    0    0 -0.35527136788E-14  0.35527136788E-14  0.28855543590E+02  0.27661847038E+03  0.27510931602E+03 0.  0.
         25    2    3    3    0    0  0.30561908709E+02  0.31740475808E+02 -0.23105621452E+02  0.13142981729E+03  0.12164883502E+03 0.  0.
         25    2    3    3    0    0 -0.30561908709E+02 -0.31740475808E+02  0.51961165043E+02  0.14518865309E+03  0.12821191148E+03 0.  0.
          5    1    4    4  502    0  0.73113298805E+02  0.55935669146E-01  0.27290248147E+00  0.73264739587E+02  0.47000000000E+01 0.  1.
         -5    1    4    4    0  502 -0.42551390096E+02  0.31684540139E+02 -0.23378523934E+02  0.58165077703E+02  0.47000000000E+01 0.  1.
          5    1    5    5  503    0  0.83095220795E+01  0.14248090694E+02 -0.35194095064E+02  0.39150613954E+02  0.47000000000E+01 0.  1.
         -5    1    5    5    0  503 -0.38871430788E+02 -0.45988566502E+02  0.87155260107E+02  0.10603803914E+03  0.47000000000E+01 0.  1.
<mgrwt>
<rscale>  0 0.27510932E+03</rscale>
<asrwt>0</asrwt>
<pdfrwt beam="1">  1        2 0.23498001E-01 0.27510932E+03</pdfrwt>
<pdfrwt beam="2">  1       -2 0.19058687E-01 0.27510932E+03</pdfrwt>
<totfact> 0.52336093E+03</totfact>
</mgrwt>
</event>
<event>
 9    1  0.2117506E-002  0.2761185E+03  0.7818608E-02  0.1097828E+00
          2   -1    0    0  501    0  0.00000000000E+00  0.00000000000E+00  0.10986074992E+04  0.10986074992E+04  0.00000000000E+00 0. -1.
         -2   -1    0    0    0  501 -0.00000000000E+00 -0.00000000000E+00 -0.17349563907E+02  0.17349563907E+02  0.00000000000E+00 0. -1.
         36    2    1    2    0    0  0.00000000000E+00 -0.71054273576E-14  0.10812579353E+04  0.11159570631E+04  0.27611853263E+03 0.  0.
         25    2    3    3    0    0  0.18506083552E+02  0.59598029864E+02  0.19105536128E+03  0.21490173067E+03  0.76067091958E+02 0.  0.
         25    2    3    3    0    0 -0.18506083552E+02 -0.59598029864E+02  0.89020257401E+03  0.90105533244E+03  0.12468235257E+03 0.  0.
          5    1    4    4  502    0 -0.86066636256E+01  0.34871156844E+02  0.23196214912E+02  0.43014260713E+02  0.47000000000E+01 0.  1.
         -5    1    4    4    0  502  0.27112747177E+02  0.24726873020E+02  0.16785914637E+03  0.17188746996E+03  0.47000000000E+01 0.  1.
          5    1    5    5  503    0  0.14582445972E+02  0.12152155133E+02  0.59807302563E+03  0.59839264417E+03  0.47000000000E+01 0. -1.
         -5    1    5    5    0  503 -0.33088529523E+02 -0.71750184997E+02  0.29212954838E+03  0.30266268827E+03  0.47000000000E+01 0. -1.
<mgrwt>
<rscale>  0 0.27611853E+03</rscale>
<asrwt>0</asrwt>
<pdfrwt beam="1">  1        2 0.16901648E+00 0.27611853E+03</pdfrwt>
<pdfrwt beam="2">  1       -2 0.26691645E-02 0.27611853E+03</pdfrwt>
<totfact> 0.11520275E+04</totfact>
</mgrwt>
</event>
<event>
 9    1  0.2117506E-002  0.2750543E+03  0.7818608E-02  0.1098421E+00
          1   -1    0    0  501    0  0.00000000000E+00  0.00000000000E+00  0.30901626823E+03  0.30901626823E+03  0.00000000000E+00 0.  1.
         -1   -1    0    0    0  501 -0.00000000000E+00 -0.00000000000E+00 -0.61206219593E+02  0.61206219593E+02  0.00000000000E+00 0.  1.
         36    2    1    2    0    0  0.00000000000E+00  0.71054273576E-14  0.24781004864E+03  0.37022248782E+03  0.27505430425E+03 0.  0.
         25    2    3    3    0    0 -0.18479788125E+02  0.61527993890E+02  0.14214332910E+03  0.19874709586E+03  0.12316040558E+03 0.  0.
         25    2    3    3    0    0  0.18479788125E+02 -0.61527993890E+02  0.10566671954E+03  0.17147539197E+03  0.11879039453E+03 0.  0.
          5    1    4    4  502    0  0.12547568491E+02  0.79953105117E+02  0.40169122747E+02  0.90474244485E+02  0.47000000000E+01 0. -1.
         -5    1    4    4    0  502 -0.31027356616E+02 -0.18425111227E+02  0.10197420636E+03  0.10827285137E+03  0.47000000000E+01 0. -1.
          5    1    5    5  503    0  0.17872479108E+02 -0.50595542570E+02  0.13200245723E+03  0.14256953796E+03  0.47000000000E+01 0.  1.
         -5    1    5    5    0  503  0.60730901744E+00 -0.10932451320E+02 -0.26335737698E+02  0.28905854012E+02  0.47000000000E+01 0.  1.
<mgrwt>
<rscale>  0 0.27505430E+03</rscale>
<asrwt>0</asrwt>
<pdfrwt beam="1">  1        1 0.47540963E-01 0.27505430E+03</pdfrwt>
<pdfrwt beam="2">  1       -1 0.94163416E-02 0.27505430E+03</pdfrwt>
<totfact> 0.56105280E+03</totfact>
</mgrwt>
</event>
<event>
 9    1  0.2117506E-002  0.2721872E+03  0.7818608E-02  0.1100034E+00
          2   -1    0    0  501    0  0.00000000000E+00  0.00000000000E+00  0.25325670253E+04  0.25325670253E+04  0.00000000000E+00 0. -1.
         -2   -1    0    0    0  501 -0.00000000000E+00 -0.00000000000E+00 -0.73133170777E+01  0.73133170777E+01  0.00000000000E+00 0. -1.
         36    2    1    2    0    0  0.00000000000E+00 -0.71054273576E-14  0.25252537082E+04  0.25398803423E+04  0.27218718321E+03 0.  0.
         25    2    3    3    0    0 -0.51865800623E+02  0.17815354514E+02  0.10454457618E+04  0.10540275517E+04  0.12251445136E+03 0.  0.
         25    2    3    3    0    0  0.51865800623E+02 -0.17815354514E+02  0.14798079464E+04  0.14858527906E+04  0.12214544230E+03 0.  0.
          5    1    4    4  502    0 -0.69483323411E+02  0.56910727144E+02  0.76798296687E+03  0.77323133052E+03  0.47000000000E+01 0.  1.
         -5    1    4    4    0  502  0.17617522788E+02 -0.39095372630E+02  0.27746279490E+03  0.28079622117E+03  0.47000000000E+01 0.  1.
          5    1    5    5  503    0 -0.22975581082E+02 -0.26514622874E+02  0.15915140457E+03  0.16304036963E+03  0.47000000000E+01 0. -1.
         -5    1    5    5    0  503  0.74841381705E+02  0.86992683598E+01  0.13206565418E+04  0.13228124210E+04  0.47000000000E+01 0. -1.
<mgrwt>
<rscale>  0 0.27218718E+03</rscale>
<asrwt>0</asrwt>
<pdfrwt beam="1">  1        2 0.38962500E+00 0.27218718E+03</pdfrwt>
<pdfrwt beam="2">  1       -2 0.11251277E-02 0.27218718E+03</pdfrwt>
<totfact> 0.69121410E+03</totfact>
</mgrwt>
</event>
<event>
 9    1  0.2117506E-002  0.2755729E+03  0.7818608E-02  0.1098132E+00
         -2   -1    0    0    0  501 -0.00000000000E+00  0.00000000000E+00  0.20415996701E+02  0.20415996701E+02  0.00000000000E+00 0. -1.
          2   -1    0    0  501    0  0.00000000000E+00 -0.00000000000E+00 -0.92991329800E+03  0.92991329800E+03  0.00000000000E+00 0. -1.
         36    2    1    2    0    0 -0.71054273576E-14  0.71054273576E-14 -0.90949730130E+03  0.95032929470E+03  0.27557290741E+03 0.  0.
         25    2    3    3    0    0  0.44663410344E+02  0.41638846712E+02 -0.40703853353E+03  0.42901064791E+03  0.12100063827E+03 0.  0.
         25    2    3    3    0    0 -0.44663410344E+02 -0.41638846712E+02 -0.50245876777E+03  0.52131864680E+03  0.12481868612E+03 0.  0.
          5    1    4    4  502    0  0.11733735801E+02  0.54119091411E+02 -0.66683185261E+02  0.86806070108E+02  0.47000000000E+01 0. -1.
         -5    1    4    4    0  502  0.32929674542E+02 -0.12480244699E+02 -0.34035534827E+03  0.34220457780E+03  0.47000000000E+01 0. -1.
          5    1    5    5  503    0 -0.12915037780E+02  0.43146899949E+02 -0.11993287074E+03  0.12819686681E+03  0.47000000000E+01 0.  1.
         -5    1    5    5    0  503 -0.31748372564E+02 -0.84785746661E+02 -0.38252589704E+03  0.39312177999E+03  0.47000000000E+01 0.  1.
<mgrwt>
<rscale>  0 0.27557291E+03</rscale>
<asrwt>0</asrwt>
<pdfrwt beam="1">  1        2 0.14306360E+00 0.27557291E+03</pdfrwt>
<pdfrwt beam="2">  1       -2 0.31409222E-02 0.27557291E+03</pdfrwt>
<totfact> 0.11459882E+04</totfact>
</mgrwt>
</event>
<event>
 9    1  0.2117506E-002  0.2744293E+03  0.7818608E-02  0.1098771E+00
         -2   -1    0    0    0  501 -0.00000000000E+00  0.00000000000E+00  0.18961473455E+02  0.18961473455E+02  0.00000000000E+00 0.  1.
          2   -1    0    0  501    0  0.00000000000E+00 -0.00000000000E+00 -0.99295329146E+03  0.99295329146E+03  0.00000000000E+00 0.  1.
         36    2    1    2    0    0  0.00000000000E+00  0.00000000000E+00 -0.97399181801E+03  0.10119147649E+04  0.27442928034E+03 0.  0.
         25    2    3    3    0    0  0.36530859631E+02 -0.37090757652E+02 -0.44856215941E+03  0.46956279443E+03  0.12872831490E+03 0.  0.
         25    2    3    3    0    0 -0.36530859631E+02  0.37090757652E+02 -0.52542965860E+03  0.54235197048E+03  0.12393185926E+03 0.  0.
          5    1    4    4  502    0  0.44997934837E+01  0.32798524235E+02 -0.33202723971E+02  0.47122205089E+02  0.47000000000E+01 0. -1.
         -5    1    4    4    0  502  0.32031066147E+02 -0.69889281887E+02 -0.41535943543E+03  0.42244058934E+03  0.47000000000E+01 0. -1.
          5    1    5    5  503    0 -0.33930981554E+02 -0.38186491979E+02 -0.12943651834E+03  0.13923154082E+03  0.47000000000E+01 0.  1.
         -5    1    5    5    0  503 -0.25998780771E+01  0.75277249631E+02 -0.39599314026E+03  0.40312042966E+03  0.47000000000E+01 0.  1.
<mgrwt>
<rscale>  0 0.27442928E+03</rscale>
<asrwt>0</asrwt>
<pdfrwt beam="1">  1        2 0.15276211E+00 0.27442928E+03</pdfrwt>
<pdfrwt beam="2">  1       -2 0.29171486E-02 0.27442928E+03</pdfrwt>
<totfact> 0.11682675E+04</totfact>
</mgrwt>
</event>
<event>
 9    1  0.2117506E-002  0.2749597E+03  0.7818608E-02  0.1098474E+00
         -1   -1    0    0    0  501 -0.00000000000E+00  0.00000000000E+00  0.23926355980E+02  0.23926355980E+02  0.00000000000E+00 0.  1.
          1   -1    0    0  501    0  0.00000000000E+00 -0.00000000000E+00 -0.78995342678E+03  0.78995342678E+03  0.00000000000E+00 0.  1.
         36    2    1    2    0    0  0.00000000000E+00 -0.71054273576E-14 -0.76602707080E+03  0.81387978276E+03  0.27495968357E+03 0.  0.
         25    2    3    3    0    0 -0.39469588000E+02  0.27282025353E+02 -0.46876810067E+03  0.48773507085E+03  0.12585630636E+03 0.  0.
         25    2    3    3    0    0  0.39469588000E+02 -0.27282025353E+02 -0.29725897013E+03  0.32614471190E+03  0.12532087016E+03 0.  0.
          5    1    4    4  502    0 -0.71140137727E+02 -0.23084101359E+02 -0.25302222029E+03  0.26388658339E+03  0.47000000000E+01 0. -1.
         -5    1    4    4    0  502  0.31670549727E+02  0.50366126712E+02 -0.21574588037E+03  0.22384848746E+03  0.47000000000E+01 0. -1.
          5    1    5    5  503    0 -0.30654533915E+02  0.29416862224E+01 -0.19995255301E+03  0.20236468917E+03  0.47000000000E+01 0.  1.
         -5    1    5    5    0  503  0.70124121915E+02 -0.30223711575E+02 -0.97306417114E+02  0.12378002273E+03  0.47000000000E+01 0.  1.
<mgrwt>
<rscale>  0 0.27495968E+03</rscale>
<asrwt>0</asrwt>
<pdfrwt beam="1">  1        1 0.12153129E+00 0.27495968E+03</pdfrwt>
<pdfrwt beam="2">  1       -1 0.36809780E-02 0.27495968E+03</pdfrwt>
<totfact> 0.65280228E+03</totfact>
</mgrwt>
</event>
<event>
 9    1  0.2117506E-002  0.2747088E+03  0.7818608E-02  0.1098614E+00
          2   -1    0    0  501    0  0.00000000000E+00  0.00000000000E+00  0.68260227788E+02  0.68260227788E+02  0.00000000000E+00 0. -1.
         -2   -1    0    0    0  501 -0.00000000000E+00 -0.00000000000E+00 -0.27638693853E+03  0.27638693853E+03  0.00000000000E+00 0. -1.
         36    2    1    2    0    0 -0.71054273576E-14  0.17763568394E-14 -0.20812671075E+03  0.34464716632E+03  0.27470883045E+03 0.  0.
         25    2    3    3    0    0 -0.29334454460E+02 -0.97567451973E+01 -0.23311695247E+02  0.13056426829E+03  0.12469117340E+03 0.  0.
         25    2    3    3    0    0  0.29334454460E+02  0.97567451973E+01 -0.18481501550E+03  0.21408289803E+03  0.10353353552E+03 0.  0.
          5    1    4    4  502    0 -0.30384717367E+02 -0.60729440263E+02  0.10970118171E+02  0.68947294776E+02  0.47000000000E+01 0. -1.
         -5    1    4    4    0  502  0.10502629066E+01  0.50972695066E+02 -0.34281813418E+02  0.61616973519E+02  0.47000000000E+01 0. -1.
          5    1    5    5  503    0 -0.37997695919E+02 -0.44648637382E+01 -0.56389026493E+02  0.68304994050E+02  0.47000000000E+01 0. -1.
         -5    1    5    5    0  503  0.67332150380E+02  0.14221608935E+02 -0.12842598901E+03  0.14577790398E+03  0.47000000000E+01 0. -1.
<mgrwt>
<rscale>  0 0.27470883E+03</rscale>
<asrwt>0</asrwt>
<pdfrwt beam="1">  1        2 0.10501574E-01 0.27470883E+03</pdfrwt>
<pdfrwt beam="2">  1       -2 0.42521067E-01 0.27470883E+03</pdfrwt>
<totfact> 0.31765462E+03</totfact>
</mgrwt>
</event>
<event>
 9    1  0.2117506E-002  0.2755598E+03  0.7818608E-02  0.1098139E+00
         -4   -1    0    0    0  501 -0.00000000000E+00  0.00000000000E+00  0.28903869980E+02  0.28903869980E+02  0.00000000000E+00 0.  1.
          4   -1    0    0  501    0  0.00000000000E+00 -0.00000000000E+00 -0.65677366881E+03  0.65677366881E+03  0.00000000000E+00 0.  1.
         36    2    1    2    0    0  0.71054273576E-14  0.71054273576E-14 -0.62786979883E+03  0.68567753879E+03  0.27555979917E+03 0.  0.
         25    2    3    3    0    0 -0.15827577351E+02 -0.41626978620E+02 -0.21952397309E+03  0.25602508374E+03  0.12399496438E+03 0.  0.
         25    2    3    3    0    0  0.15827577351E+02  0.41626978620E+02 -0.40834582574E+03  0.42965245504E+03  0.12598254313E+03 0.  0.
          5    1    4    4  502    0  0.33234841806E+02  0.21448704154E+02 -0.28712498417E+02  0.49102944770E+02  0.47000000000E+01 0.  1.
         -5    1    4    4    0  502 -0.49062419157E+02 -0.63075682774E+02 -0.19081147467E+03  0.20692213897E+03  0.47000000000E+01 0.  1.
          5    1    5    5  503    0 -0.30948373326E-01 -0.32707825551E+01 -0.36513837535E+03  0.36518327197E+03  0.47000000000E+01 0.  1.
         -5    1    5    5    0  503  0.15858525724E+02  0.44897761175E+02 -0.43207450386E+02  0.64469183068E+02  0.47000000000E+01 0.  1.
<mgrwt>
<rscale>  0 0.27555980E+03</rscale>
<asrwt>0</asrwt>
<pdfrwt beam="1">  1        4 0.10104210E+00 0.27555980E+03</pdfrwt>
<pdfrwt beam="2">  1       -4 0.44467493E-02 0.27555980E+03</pdfrwt>
<totfact> 0.45044027E+02</totfact>
</mgrwt>
</event>
<event>
 9    1  0.2117506E-002  0.2718497E+03  0.7818608E-02  0.1100226E+00
         -2   -1    0    0    0  501 -0.00000000000E+00  0.00000000000E+00  0.43851534879E+03  0.43851534879E+03  0.00000000000E+00 0. -1.
          2   -1    0    0  501    0  0.00000000000E+00 -0.00000000000E+00 -0.42132077270E+02  0.42132077270E+02  0.00000000000E+00 0. -1.
         36    2    1    2    0    0  0.71054273576E-14  0.14210854715E-13  0.39638327152E+03  0.48064742606E+03  0.27184968316E+03 0.  0.
         25    2    3    3    0    0 -0.52418627224E+01  0.29506867192E+02  0.10712025551E+03  0.16426437219E+03  0.12087142960E+03 0.  0.
         25    2    3    3    0    0  0.52418627224E+01 -0.29506867192E+02  0.28926301600E+03  0.31638305386E+03  0.12460743159E+03 0.  0.
          5    1    4    4  502    0  0.32639389688E+02 -0.35928645405E+02  0.41036853275E+02  0.63736258492E+02  0.47000000000E+01 0.  1.
         -5    1    4    4    0  502 -0.37881252411E+02  0.65435512596E+02  0.66083402238E+02  0.10052811370E+03  0.47000000000E+01 0.  1.
          5    1    5    5  503    0 -0.48032413348E+02  0.18386624933E+02  0.80712200233E+02  0.95821344047E+02  0.47000000000E+01 0.  1.
         -5    1    5    5    0  503  0.53274276070E+02 -0.47893492124E+02  0.20855081577E+03  0.22056170982E+03  0.47000000000E+01 0.  1.
<mgrwt>
<rscale>  0 0.27184968E+03</rscale>
<asrwt>0</asrwt>
<pdfrwt beam="1">  1        2 0.64818583E-02 0.27184968E+03</pdfrwt>
<pdfrwt beam="2">  1       -2 0.67463897E-01 0.27184968E+03</pdfrwt>
<totfact> 0.22982579E+03</totfact>
</mgrwt>
</event>
<event>
 9    1  0.2117506E-002  0.2736314E+03  0.7818608E-02  0.1099219E+00
         -1   -1    0    0    0  501 -0.00000000000E+00  0.00000000000E+00  0.17923457671E+02  0.17923457671E+02  0.00000000000E+00 0.  1.
          1   -1    0    0  501    0  0.00000000000E+00 -0.00000000000E+00 -0.10443593380E+04  0.10443593380E+04  0.00000000000E+00 0.  1.
         36    2    1    2    0    0  0.00000000000E+00  0.71054273576E-14 -0.10264358803E+04  0.10622827956E+04  0.27363136068E+03 0.  0.
         25    2    3    3    0    0  0.38958915451E+02  0.52719611118E+02 -0.37629145693E+03  0.40289265350E+03  0.12817985489E+03 0.  0.
         25    2    3    3    0    0 -0.38958915451E+02 -0.52719611118E+02 -0.65014442338E+03  0.65939014214E+03  0.88376658782E+02 0.  0.
          5    1    4    4  502    0  0.31825386635E+02  0.30447826635E+02 -0.37644121436E+03  0.37903826093E+03  0.47000000000E+01 0.  1.
         -5    1    4    4    0  502  0.71335288161E+01  0.22271784483E+02  0.14975743696E+00  0.23854392567E+02  0.47000000000E+01 0.  1.
          5    1    5    5  503    0  0.21814203567E+02  0.32300693963E+01 -0.23511577360E+03  0.23619443224E+03  0.47000000000E+01 0. -1.
         -5    1    5    5    0  503 -0.60773119017E+02 -0.55949680515E+02 -0.41502864978E+03  0.42319570991E+03  0.47000000000E+01 0. -1.
<mgrwt>
<rscale>  0 0.27363136E+03</rscale>
<asrwt>0</asrwt>
<pdfrwt beam="1">  1        1 0.16067069E+00 0.27363136E+03</pdfrwt>
<pdfrwt beam="2">  1       -1 0.27574547E-02 0.27363136E+03</pdfrwt>
<totfact> 0.63275666E+03</totfact>
</mgrwt>
</event>
<event>
 9    1  0.2117506E-002  0.2748360E+03  0.7818608E-02  0.1098543E+00
          3   -1    0    0  501    0  0.00000000000E+00  0.00000000000E+00  0.12447249335E+03  0.12447249335E+03  0.00000000000E+00 0.  1.
         -3   -1    0    0    0  501 -0.00000000000E+00 -0.00000000000E+00 -0.15170985938E+03  0.15170985938E+03  0.00000000000E+00 0.  1.
         36    2    1    2    0    0  0.00000000000E+00 -0.71054273576E-14 -0.27237366034E+02  0.27618235273E+03  0.27483598355E+03 0.  0.
         25    2    3    3    0    0  0.34771937789E+02  0.22795633460E+02 -0.50618529416E+02  0.14364661970E+03  0.12784125809E+03 0.  0.
         25    2    3    3    0    0 -0.34771937789E+02 -0.22795633460E+02  0.23381163382E+02  0.13253573303E+03  0.12365400586E+03 0.  0.
          5    1    4    4  502    0  0.52480897069E+02  0.66899576284E+02 -0.42603211107E+02  0.95220383641E+02  0.47000000000E+01 0.  1.
         -5    1    4    4    0  502 -0.17708959279E+02 -0.44103942825E+02 -0.80153183093E+01  0.48426236061E+02  0.47000000000E+01 0.  1.
          5    1    5    5  503    0 -0.39989972692E+02 -0.22239293135E+02  0.70890780635E+02  0.84506667513E+02  0.47000000000E+01 0.  1.
         -5    1    5    5    0  503  0.52180349027E+01 -0.55634032439E+00 -0.47509617253E+02  0.48029065515E+02  0.47000000000E+01 0.  1.
<mgrwt>
<rscale>  0 0.27483598E+03</rscale>
<asrwt>0</asrwt>
<pdfrwt beam="1">  1        3 0.19149614E-01 0.27483598E+03</pdfrwt>
<pdfrwt beam="2">  1       -3 0.23339978E-01 0.27483598E+03</pdfrwt>
<totfact> 0.10490020E+03</totfact>
</mgrwt>
</event>
<event>
 9    1  0.2117506E-002  0.2746708E+03  0.7818608E-02  0.1098636E+00
         -2   -1    0    0    0  501 -0.00000000000E+00  0.00000000000E+00  0.40187012571E+02  0.40187012571E+02  0.00000000000E+00 0. -1.
          2   -1    0    0  501    0  0.00000000000E+00 -0.00000000000E+00 -0.46933093397E+03  0.46933093397E+03  0.00000000000E+00 0. -1.
         36    2    1    2    0    0  0.10658141036E-13  0.00000000000E+00 -0.42914392139E+03  0.50951794654E+03  0.27467077124E+03 0.  0.
         25    2    3    3    0    0  0.30004142709E+02 -0.48834609680E+02 -0.17442222756E+03  0.22100957456E+03  0.12303272287E+03 0.  0.
         25    2    3    3    0    0 -0.30004142709E+02  0.48834609680E+02 -0.25472169384E+03  0.28850837198E+03  0.12275533272E+03 0.  0.
          5    1    4    4  502    0  0.44600265586E+02  0.22409444325E+02 -0.12001178564E+03  0.13006262175E+03  0.47000000000E+01 0. -1.
         -5    1    4    4    0  502 -0.14596122876E+02 -0.71244054005E+02 -0.54410441918E+02  0.90946952801E+02  0.47000000000E+01 0. -1.
          5    1    5    5  503    0  0.44967286557E+02 -0.11096477877E+01 -0.88565459339E+02  0.99444551216E+02  0.47000000000E+01 0. -1.
         -5    1    5    5    0  503 -0.74971429267E+02  0.49944257467E+02 -0.16615623450E+03  0.18906382077E+03  0.47000000000E+01 0. -1.
<mgrwt>
<rscale>  0 0.27467077E+03</rscale>
<asrwt>0</asrwt>
<pdfrwt beam="1">  1        2 0.72204760E-01 0.27467077E+03</pdfrwt>
<pdfrwt beam="2">  1       -2 0.61826173E-02 0.27467077E+03</pdfrwt>
<totfact> 0.93891011E+03</totfact>
</mgrwt>
</event>
<event>
 9    1  0.2117506E-002  0.2750618E+03  0.7818608E-02  0.1098417E+00
         -2   -1    0    0    0  501 -0.00000000000E+00  0.00000000000E+00  0.18270934529E+02  0.18270934529E+02  0.00000000000E+00 0. -1.
          2   -1    0    0  501    0  0.00000000000E+00 -0.00000000000E+00 -0.10352371436E+04  0.10352371436E+04  0.00000000000E+00 0. -1.
         36    2    1    2    0    0 -0.71054273576E-14 -0.71054273576E-14 -0.10169662091E+04  0.10535080782E+04  0.27506181177E+03 0.  0.
         25    2    3    3    0    0  0.25137536179E+02  0.36875405733E+02 -0.40637883470E+03  0.42879243049E+03  0.12933483630E+03 0.  0.
         25    2    3    3    0    0 -0.25137536179E+02 -0.36875405733E+02 -0.61058737442E+03  0.62471564768E+03  0.12434229928E+03 0.  0.
          5    1    4    4  502    0  0.21254439247E+02 -0.42753821472E+02 -0.23323050674E+03  0.23811383771E+03  0.47000000000E+01 0. -1.
         -5    1    4    4    0  502  0.38830969322E+01  0.79629227204E+02 -0.17314832796E+03  0.19067859278E+03  0.47000000000E+01 0. -1.
          5    1    5    5  503    0 -0.48487217046E+02 -0.57917532057E+02 -0.21645493766E+03  0.22930390484E+03  0.47000000000E+01 0. -1.
         -5    1    5    5    0  503  0.23349680867E+02  0.21042126324E+02 -0.39413243676E+03  0.39541174285E+03  0.47000000000E+01 0. -1.
<mgrwt>
<rscale>  0 0.27506181E+03</rscale>
<asrwt>0</asrwt>
<pdfrwt beam="1">  1        2 0.15926732E+00 0.27506181E+03</pdfrwt>
<pdfrwt beam="2">  1       -2 0.28109117E-02 0.27506181E+03</pdfrwt>
<totfact> 0.11635314E+04</totfact>
</mgrwt>
</event>
<event>
 9    1  0.2117506E-002  0.2777971E+03  0.7818608E-02  0.1096898E+00
         -2   -1    0    0    0  501 -0.00000000000E+00  0.00000000000E+00  0.48578853510E+02  0.48578853510E+02  0.00000000000E+00 0.  1.
          2   -1    0    0  501    0  0.00000000000E+00 -0.00000000000E+00 -0.39714427580E+03  0.39714427580E+03  0.00000000000E+00 0.  1.
         36    2    1    2    0    0  0.00000000000E+00 -0.35527136788E-14 -0.34856542229E+03  0.44572312931E+03  0.27779714611E+03 0.  0.
         25    2    3    3    0    0 -0.56686285822E+02 -0.16378926002E+02 -0.17869472354E+03  0.22601402277E+03  0.12517559686E+03 0.  0.
         25    2    3    3    0    0  0.56686285822E+02  0.16378926002E+02 -0.16987069874E+03  0.21970910654E+03  0.12623166396E+03 0.  0.
          5    1    4    4  502    0  0.50769990861E+01 -0.54035532138E+02 -0.12324489572E+03  0.13474794608E+03  0.47000000000E+01 0.  1.
         -5    1    4    4    0  502 -0.61763284909E+02  0.37656606136E+02 -0.55449827826E+02  0.91266076690E+02  0.47000000000E+01 0.  1.
          5    1    5    5  503    0  0.10647264294E+02 -0.18527727024E+02  0.14627424697E+02  0.26319051253E+02  0.47000000000E+01 0. -1.
         -5    1    5    5    0  503  0.46039021528E+02  0.34906653025E+02 -0.18449812344E+03  0.19339005528E+03  0.47000000000E+01 0. -1.
<mgrwt>
<rscale>  0 0.27779715E+03</rscale>
<asrwt>0</asrwt>
<pdfrwt beam="1">  1        2 0.61099120E-01 0.27779715E+03</pdfrwt>
<pdfrwt beam="2">  1       -2 0.74736697E-02 0.27779715E+03</pdfrwt>
<totfact> 0.84135978E+03</totfact>
</mgrwt>
</event>
<event>
 9    1  0.2117506E-002  0.2756269E+03  0.7818608E-02  0.1098102E+00
         -2   -1    0    0    0  501 -0.00000000000E+00  0.00000000000E+00  0.17456800736E+02  0.17456800736E+02  0.00000000000E+00 0. -1.
          2   -1    0    0  501    0  0.00000000000E+00 -0.00000000000E+00 -0.10879743839E+04  0.10879743839E+04  0.00000000000E+00 0. -1.
         36    2    1    2    0    0  0.00000000000E+00 -0.35527136788E-14 -0.10705175832E+04  0.11054311846E+04  0.27562693646E+03 0.  0.
         25    2    3    3    0    0  0.49922881149E+02 -0.19910723547E+01 -0.45559964570E+03  0.47553014321E+03  0.12673445270E+03 0.  0.
         25    2    3    3    0    0 -0.49922881149E+02  0.19910723547E+01 -0.61491793747E+03  0.62990104144E+03  0.12710229642E+03 0.  0.
          5    1    4    4  502    0 -0.20372699028E+02  0.44617605952E+02 -0.12638431059E+03  0.13564977549E+03  0.47000000000E+01 0. -1.
         -5    1    4    4    0  502  0.70295580177E+02 -0.46608678307E+02 -0.32921533511E+03  0.33988036771E+03  0.47000000000E+01 0. -1.
          5    1    5    5  503    0 -0.22110997281E+02  0.23217671319E+02 -0.30765412553E+02  0.44682849862E+02  0.47000000000E+01 0.  1.
         -5    1    5    5    0  503 -0.27811883868E+02 -0.21226598964E+02 -0.58415252492E+03  0.58521819158E+03  0.47000000000E+01 0.  1.
<mgrwt>
<rscale>  0 0.27562694E+03</rscale>
<asrwt>0</asrwt>
<pdfrwt beam="1">  1        2 0.16738061E+00 0.27562694E+03</pdfrwt>
<pdfrwt beam="2">  1       -2 0.26856627E-02 0.27562694E+03</pdfrwt>
<totfact> 0.11580673E+04</totfact>
</mgrwt>
</event>
<event>
 9    1  0.2117506E-002  0.2852359E+03  0.7818608E-02  0.1092863E+00
         -1   -1    0    0    0  501 -0.00000000000E+00  0.00000000000E+00  0.17642966000E+02  0.17642966000E+02  0.00000000000E+00 0. -1.
          1   -1    0    0  501    0  0.00000000000E+00 -0.00000000000E+00 -0.11528601700E+04  0.11528601700E+04  0.00000000000E+00 0. -1.
         36    2    1    2    0    0  0.00000000000E+00 -0.71054273576E-14 -0.11352172040E+04  0.11705031360E+04  0.28523585176E+03 0.  0.
         25    2    3    3    0    0 -0.21308413316E+02  0.44779831819E+02 -0.42266270007E+03  0.44530608365E+03  0.13112767934E+03 0.  0.
         25    2    3    3    0    0  0.21308413316E+02 -0.44779831819E+02 -0.71255450394E+03  0.72519705237E+03  0.12536970070E+03 0.  0.
          5    1    4    4  502    0  0.18254138332E+02  0.79996524584E+02 -0.19687195969E+03  0.21333850104E+03  0.47000000000E+01 0. -1.
         -5    1    4    4    0  502 -0.39562551648E+02 -0.35216692765E+02 -0.22579074038E+03  0.23196758261E+03  0.47000000000E+01 0. -1.
          5    1    5    5  503    0 -0.33077178991E+02 -0.25073395103E+02 -0.82471139340E+02  0.92446491205E+02  0.47000000000E+01 0. -1.
         -5    1    5    5    0  503  0.54385592307E+02 -0.19706436716E+02 -0.63008336460E+03  0.63275056116E+03  0.47000000000E+01 0. -1.
<mgrwt>
<rscale>  0 0.28523585E+03</rscale>
<asrwt>0</asrwt>
<pdfrwt beam="1">  1        1 0.17736313E+00 0.28523585E+03</pdfrwt>
<pdfrwt beam="2">  1       -1 0.27143020E-02 0.28523585E+03</pdfrwt>
<totfact> 0.54114063E+03</totfact>
</mgrwt>
</event>
<event>
 9    1  0.2117506E-002  0.2737213E+03  0.7818608E-02  0.1099169E+00
          2   -1    0    0  501    0  0.00000000000E+00  0.00000000000E+00  0.41030851968E+03  0.41030851968E+03  0.00000000000E+00 0. -1.
         -2   -1    0    0    0  501 -0.00000000000E+00 -0.00000000000E+00 -0.45650613327E+02  0.45650613327E+02  0.00000000000E+00 0. -1.
         36    2    1    2    0    0 -0.71054273576E-14 -0.71054273576E-14  0.36465790636E+03  0.45595913301E+03  0.27372128581E+03 0.  0.
         25    2    3    3    0    0 -0.54995488144E+01 -0.56014754568E+02  0.20421753223E+03  0.24667589560E+03  0.12639738618E+03 0.  0.
         25    2    3    3    0    0  0.54995488144E+01  0.56014754568E+02  0.16044037412E+03  0.20928323741E+03  0.12202648091E+03 0.  0.
          5    1    4    4  502    0  0.34270423990E+02  0.68285350831E+01  0.71318563027E+01  0.35972826218E+02  0.47000000000E+01 0.  1.
         -5    1    4    4    0  502 -0.39769972804E+02 -0.62843289651E+02  0.19708567593E+03  0.21070306938E+03  0.47000000000E+01 0.  1.
          5    1    5    5  503    0 -0.38972110174E+02  0.39633087514E+02  0.15067173738E+03  0.16066632952E+03  0.47000000000E+01 0.  1.
         -5    1    5    5    0  503  0.44471658988E+02  0.16381667054E+02  0.97686367462E+01  0.48616907887E+02  0.47000000000E+01 0.  1.
<mgrwt>
<rscale>  0 0.27372129E+03</rscale>
<asrwt>0</asrwt>
<pdfrwt beam="1">  1        2 0.63124385E-01 0.27372129E+03</pdfrwt>
<pdfrwt beam="2">  1       -2 0.70231715E-02 0.27372129E+03</pdfrwt>
<totfact> 0.89378605E+03</totfact>
</mgrwt>
</event>
<event>
 9    1  0.2117506E-002  0.2748133E+03  0.7818608E-02  0.1098556E+00
         -2   -1    0    0    0  501 -0.00000000000E+00  0.00000000000E+00  0.40584994061E+01  0.40584994061E+01  0.00000000000E+00 0.  1.
          2   -1    0    0  501    0  0.00000000000E+00 -0.00000000000E+00 -0.46521089060E+04  0.46521089060E+04  0.00000000000E+00 0.  1.
         36    2    1    2    0    0 -0.71054273576E-14  0.00000000000E+00 -0.46480504066E+04  0.46561674054E+04  0.27481325464E+03 0.  0.
         25    2    3    3    0    0  0.30212409871E+02 -0.41532863854E+02 -0.24240629102E+04  0.24278697927E+04  0.12582912700E+03 0.  0.
         25    2    3    3    0    0 -0.30212409871E+02  0.41532863854E+02 -0.22239874964E+04  0.22282976127E+04  0.12865495789E+03 0.  0.
          5    1    4    4  502    0 -0.42637253121E+02  0.12928674637E+02 -0.82236035295E+03  0.82357982375E+03  0.47000000000E+01 0.  1.
         -5    1    4    4    0  502  0.72849662992E+02 -0.54461538491E+02 -0.16017025572E+04  0.16042899689E+04  0.47000000000E+01 0.  1.
          5    1    5    5  503    0  0.10981498639E+02 -0.37720733588E+02 -0.36050956323E+03  0.36267434737E+03  0.47000000000E+01 0.  1.
         -5    1    5    5    0  503 -0.41193908510E+02  0.79253597442E+02 -0.18634779331E+04  0.18656232653E+04  0.47000000000E+01 0.  1.
<mgrwt>
<rscale>  0 0.27481325E+03</rscale>
<asrwt>0</asrwt>
<pdfrwt beam="1">  1        2 0.71570761E+00 0.27481325E+03</pdfrwt>
<pdfrwt beam="2">  1       -2 0.62438579E-03 0.27481325E+03</pdfrwt>
<totfact> 0.51152623E+02</totfact>
</mgrwt>
</event>
<event>
 9    1  0.2117506E-002  0.2749933E+03  0.7818608E-02  0.1098455E+00
         -1   -1    0    0    0  501 -0.00000000000E+00  0.00000000000E+00  0.68067631250E+01  0.68067631250E+01  0.00000000000E+00 0. -1.
          1   -1    0    0  501    0  0.00000000000E+00 -0.00000000000E+00 -0.27774335779E+04  0.27774335779E+04  0.00000000000E+00 0. -1.
         36    2    1    2    0    0  0.71054273576E-14  0.00000000000E+00 -0.27706268147E+04  0.27842403410E+04  0.27499332690E+03 0.  0.
         25    2    3    3    0    0  0.23174266058E+02  0.52140351209E+02 -0.14243841561E+04  0.14310937986E+04  0.12610937097E+03 0.  0.
         25    2    3    3    0    0 -0.23174266058E+02 -0.52140351209E+02 -0.13462426587E+04  0.13531465424E+04  0.12401857270E+03 0.  0.
          5    1    4    4  502    0  0.11003693334E+01  0.58114628899E+02 -0.25932693532E+03  0.26580269052E+03  0.47000000000E+01 0. -1.
         -5    1    4    4    0  502  0.22073896725E+02 -0.59742776902E+01 -0.11650572207E+04  0.11652911081E+04  0.47000000000E+01 0. -1.
          5    1    5    5  503    0 -0.19828578853E+02 -0.92127571957E+02 -0.10351719202E+04  0.10394631578E+04  0.47000000000E+01 0.  1.
         -5    1    5    5    0  503 -0.33456872054E+01  0.39987220748E+02 -0.31107073843E+03  0.31368338457E+03  0.47000000000E+01 0.  1.
<mgrwt>
<rscale>  0 0.27499333E+03</rscale>
<asrwt>0</asrwt>
<pdfrwt beam="1">  1        1 0.42729817E+00 0.27499333E+03</pdfrwt>
<pdfrwt beam="2">  1       -1 0.10471926E-02 0.27499333E+03</pdfrwt>
<totfact> 0.18145644E+03</totfact>
</mgrwt>
</event>
<event>
 9    1  0.2117506E-002  0.2726286E+03  0.7818608E-02  0.1099785E+00
          2   -1    0    0  501    0  0.00000000000E+00  0.00000000000E+00  0.98391387794E+03  0.98391387794E+03  0.00000000000E+00 0. -1.
         -2   -1    0    0    0  501 -0.00000000000E+00 -0.00000000000E+00 -0.18885382954E+02  0.18885382954E+02  0.00000000000E+00 0. -1.
         36    2    1    2    0    0 -0.71054273576E-14  0.00000000000E+00  0.96502849498E+03  0.10027992609E+04  0.27262861463E+03 0.  0.
         25    2    3    3    0    0  0.36473091962E+02 -0.32800244989E+02  0.45824367829E+03  0.47770224039E+03  0.12572199200E+03 0.  0.
         25    2    3    3    0    0 -0.36473091962E+02  0.32800244989E+02  0.50678481670E+03  0.52509702051E+03  0.12841295885E+03 0.  0.
          5    1    4    4  502    0  0.72767247260E+02 -0.42146192253E+02  0.20452778484E+03  0.22119014120E+03  0.47000000000E+01 0. -1.
         -5    1    4    4    0  502 -0.36294155298E+02  0.93459472644E+01  0.25371589345E+03  0.25651209918E+03  0.47000000000E+01 0. -1.
          5    1    5    5  503    0  0.21971191983E+02 -0.31875179151E+02  0.26864523981E+03  0.27146107492E+03  0.47000000000E+01 0.  1.
         -5    1    5    5    0  503 -0.58444283945E+02  0.64675424140E+02  0.23813957689E+03  0.25363594558E+03  0.47000000000E+01 0.  1.
<mgrwt>
<rscale>  0 0.27262861E+03</rscale>
<asrwt>0</asrwt>
<pdfrwt beam="1">  1        2 0.15137133E+00 0.27262861E+03</pdfrwt>
<pdfrwt beam="2">  1       -2 0.29054443E-02 0.27262861E+03</pdfrwt>
<totfact> 0.11901807E+04</totfact>
</mgrwt>
</event>
<event>
 9    1  0.2117506E-002  0.2756531E+03  0.7818608E-02  0.1098087E+00
         -2   -1    0    0    0  501 -0.00000000000E+00  0.00000000000E+00  0.62941541982E+02  0.62941541982E+02  0.00000000000E+00 0.  1.
          2   -1    0    0  501    0  0.00000000000E+00 -0.00000000000E+00 -0.30180628996E+03  0.30180628996E+03  0.00000000000E+00 0.  1.
         36    2    1    2    0    0 -0.71054273576E-14  0.71054273576E-14 -0.23886474798E+03  0.36474783195E+03  0.27565306652E+03 0.  0.
         25    2    3    3    0    0 -0.33221535743E+02 -0.22843168403E+02 -0.66196596363E+02  0.14756452998E+03  0.12556998192E+03 0.  0.
         25    2    3    3    0    0  0.33221535743E+02  0.22843168403E+02 -0.17266815162E+03  0.21718330197E+03  0.12541457367E+03 0.  0.
          5    1    4    4  502    0  0.43472985995E+01  0.49218685610E+02 -0.33281711957E+02  0.59759019144E+02  0.47000000000E+01 0.  1.
         -5    1    4    4    0  502 -0.37568834343E+02 -0.72061854013E+02 -0.32914884406E+02  0.87805510836E+02  0.47000000000E+01 0.  1.
          5    1    5    5  503    0  0.67832322485E+02  0.10533563807E+02 -0.40315930349E+02  0.79747377262E+02  0.47000000000E+01 0.  1.
         -5    1    5    5    0  503 -0.34610786742E+02  0.12309604597E+02 -0.13235222127E+03  0.13743592471E+03  0.47000000000E+01 0.  1.
<mgrwt>
<rscale>  0 0.27565307E+03</rscale>
<asrwt>0</asrwt>
<pdfrwt beam="1">  1        2 0.46431737E-01 0.27565307E+03</pdfrwt>
<pdfrwt beam="2">  1       -2 0.96833141E-02 0.27565307E+03</pdfrwt>
<totfact> 0.75332026E+03</totfact>
</mgrwt>
</event>
<event>
 9    1  0.2117506E-002  0.2765853E+03  0.7818608E-02  0.1097569E+00
         -2   -1    0    0    0  501 -0.00000000000E+00  0.00000000000E+00  0.65925969790E+02  0.65925969790E+02  0.00000000000E+00 0.  1.
          2   -1    0    0  501    0  0.00000000000E+00 -0.00000000000E+00 -0.29009603309E+03  0.29009603309E+03  0.00000000000E+00 0.  1.
         36    2    1    2    0    0 -0.71054273576E-14  0.71054273576E-14 -0.22417006330E+03  0.35602200288E+03  0.27658533810E+03 0.  0.
         25    2    3    3    0    0 -0.30643781027E+02  0.43297714744E+02 -0.14956506369E+03  0.20308535858E+03  0.12672892794E+03 0.  0.
         25    2    3    3    0    0  0.30643781027E+02 -0.43297714744E+02 -0.74604999610E+02  0.15293664429E+03  0.12251521450E+03 0.  0.
          5    1    4    4  502    0 -0.32623786701E+02 -0.88122905535E+01  0.96706307011E+01  0.35462360633E+02  0.47000000000E+01 0.  1.
         -5    1    4    4    0  502  0.19800056739E+01  0.52110005298E+02 -0.15923569439E+03  0.16762299795E+03  0.47000000000E+01 0.  1.
          5    1    5    5  503    0 -0.43983954120E+02  0.29863323196E+01 -0.15444625387E+02  0.46948193300E+02  0.47000000000E+01 0.  1.
         -5    1    5    5    0  503  0.74627735147E+02 -0.46284047064E+02 -0.59160374223E+02  0.10598845099E+03  0.47000000000E+01 0.  1.
<mgrwt>
<rscale>  0 0.27658534E+03</rscale>
<asrwt>0</asrwt>
<pdfrwt beam="1">  1        2 0.44630160E-01 0.27658534E+03</pdfrwt>
<pdfrwt beam="2">  1       -2 0.10142457E-01 0.27658534E+03</pdfrwt>
<totfact> 0.73040230E+03</totfact>
</mgrwt>
</event>
<event>
 9    1  0.2117506E-002  0.2784375E+03  0.7818608E-02  0.1096545E+00
          2   -1    0    0  501    0  0.00000000000E+00  0.00000000000E+00  0.36560556212E+02  0.36560556212E+02  0.00000000000E+00 0. -1.
         -2   -1    0    0    0  501 -0.00000000000E+00 -0.00000000000E+00 -0.53013027200E+03  0.53013027200E+03  0.00000000000E+00 0. -1.
         36    2    1    2    0    0  0.14210854715E-13  0.00000000000E+00 -0.49356971579E+03  0.56669082821E+03  0.27843748030E+03 0.  0.
         25    2    3    3    0    0 -0.57636333968E+02 -0.16406057604E+02 -0.25218179360E+03  0.28614690679E+03  0.12121587982E+03 0.  0.
         25    2    3    3    0    0  0.57636333968E+02  0.16406057604E+02 -0.24138792218E+03  0.28054392142E+03  0.12979082075E+03 0.  0.
          5    1    4    4  502    0  0.29291909762E+02  0.20826858150E+02 -0.41089030444E+02  0.54792083560E+02  0.47000000000E+01 0.  1.
         -5    1    4    4    0  502 -0.86928243731E+02 -0.37232915754E+02 -0.21109276316E+03  0.23135482323E+03  0.47000000000E+01 0.  1.
          5    1    5    5  503    0 -0.38950592381E+02 -0.12625527168E+02 -0.83795235892E+02  0.93382461637E+02  0.47000000000E+01 0.  1.
         -5    1    5    5    0  503  0.96586926349E+02  0.29031584772E+02 -0.15759268629E+03  0.18716145978E+03  0.47000000000E+01 0.  1.
<mgrwt>
<rscale>  0 0.27843748E+03</rscale>
<asrwt>0</asrwt>
<pdfrwt beam="1">  1        2 0.56247008E-02 0.27843748E+03</pdfrwt>
<pdfrwt beam="2">  1       -2 0.81558505E-01 0.27843748E+03</pdfrwt>
<totfact> 0.18332233E+03</totfact>
</mgrwt>
</event>
<event>
 9    1  0.2117506E-002  0.2753537E+03  0.7818608E-02  0.1098254E+00
         -1   -1    0    0    0  501 -0.00000000000E+00  0.00000000000E+00  0.50101355346E+02  0.50101355346E+02  0.00000000000E+00 0.  1.
          1   -1    0    0  501    0  0.00000000000E+00 -0.00000000000E+00 -0.37833124707E+03  0.37833124707E+03  0.00000000000E+00 0.  1.
         36    2    1    2    0    0  0.35527136788E-14  0.00000000000E+00 -0.32822989172E+03  0.42843260242E+03  0.27535365077E+03 0.  0.
         25    2    3    3    0    0  0.28490994723E+02 -0.43804317271E+02 -0.17621517795E+03  0.22181955269E+03  0.12418361415E+03 0.  0.
         25    2    3    3    0    0 -0.28490994723E+02  0.43804317271E+02 -0.15201471377E+03  0.20661304972E+03  0.12980725758E+03 0.  0.
          5    1    4    4  502    0  0.62310512703E+02 -0.58068534329E+01 -0.35462651778E+02  0.72083349057E+02  0.47000000000E+01 0.  1.
         -5    1    4    4    0  502 -0.33819517980E+02 -0.37997463838E+02 -0.14075252617E+03  0.14973620363E+03  0.47000000000E+01 0.  1.
          5    1    5    5  503    0 -0.43725569236E+02 -0.30069282998E+01  0.27242486086E+01  0.44164222548E+02  0.47000000000E+01 0.  1.
         -5    1    5    5    0  503  0.15234574513E+02  0.46811245571E+02 -0.15473896238E+03  0.16244882718E+03  0.47000000000E+01 0.  1.
<mgrwt>
<rscale>  0 0.27535365E+03</rscale>
<asrwt>0</asrwt>
<pdfrwt beam="1">  1        1 0.58204805E-01 0.27535365E+03</pdfrwt>
<pdfrwt beam="2">  1       -1 0.77079011E-02 0.27535365E+03</pdfrwt>
<totfact> 0.59010479E+03</totfact>
</mgrwt>
</event>
<event>
 9    1  0.2117506E-002  0.2749725E+03  0.7818608E-02  0.1098467E+00
         -1   -1    0    0    0  501 -0.00000000000E+00  0.00000000000E+00  0.19375413281E+02  0.19375413281E+02  0.00000000000E+00 0. -1.
          1   -1    0    0  501    0  0.00000000000E+00 -0.00000000000E+00 -0.97559054111E+03  0.97559054111E+03  0.00000000000E+00 0. -1.
         36    2    1    2    0    0  0.00000000000E+00  0.35527136788E-14 -0.95621512783E+03  0.99496595439E+03  0.27497250718E+03 0.  0.
         25    2    3    3    0    0  0.44272253238E+02 -0.31950214530E+02 -0.47789019622E+03  0.49789717651E+03  0.12861457972E+03 0.  0.
         25    2    3    3    0    0 -0.44272253238E+02  0.31950214530E+02 -0.47832493161E+03  0.49706877788E+03  0.12370036835E+03 0.  0.
          5    1    4    4  502    0  0.29089465483E+02 -0.23555134407E+02 -0.26388556141E+02  0.46037889333E+02  0.47000000000E+01 0. -1.
         -5    1    4    4    0  502  0.15182787756E+02 -0.83950801232E+01 -0.45150164008E+03  0.45185928718E+03  0.47000000000E+01 0. -1.
          5    1    5    5  503    0 -0.50224214609E+02 -0.18957164552E+02 -0.39824854957E+03  0.40187789571E+03  0.47000000000E+01 0.  1.
         -5    1    5    5    0  503  0.59519613708E+01  0.50907379081E+02 -0.80076382039E+02  0.95190882177E+02  0.47000000000E+01 0.  1.
<mgrwt>
<rscale>  0 0.27497251E+03</rscale>
<asrwt>0</asrwt>
<pdfrwt beam="1">  1        1 0.15009083E+00 0.27497251E+03</pdfrwt>
<pdfrwt beam="2">  1       -1 0.29808333E-02 0.27497251E+03</pdfrwt>
<totfact> 0.63489157E+03</totfact>
</mgrwt>
</event>
<event>
 9    1  0.2117506E-002  0.2690054E+03  0.7818608E-02  0.1101850E+00
          2   -1    0    0  501    0  0.00000000000E+00  0.00000000000E+00  0.10295870491E+04  0.10295870491E+04  0.00000000000E+00 0.  1.
         -2   -1    0    0    0  501 -0.00000000000E+00 -0.00000000000E+00 -0.17571098802E+02  0.17571098802E+02  0.00000000000E+00 0.  1.
         36    2    1    2    0    0 -0.35527136788E-14 -0.71054273576E-14  0.10120159503E+04  0.10471581479E+04  0.26900539597E+03 0.  0.
         25    2    3    3    0    0  0.31311350659E+02  0.16409527243E+02  0.63760946431E+03  0.65113375363E+03  0.12719930373E+03 0.  0.
         25    2    3    3    0    0 -0.31311350659E+02 -0.16409527243E+02  0.37440648601E+03  0.39602439430E+03  0.12411861604E+03 0.  0.
          5    1    4    4  502    0  0.14323193671E+02  0.40035223805E+02  0.60747670219E+03  0.60898112181E+03  0.47000000000E+01 0. -1.
         -5    1    4    4    0  502  0.16988156988E+02 -0.23625696561E+02  0.30132762128E+02  0.42152631819E+02  0.47000000000E+01 0. -1.
          5    1    5    5  503    0 -0.64832898767E+01 -0.60214947465E+02  0.29980937978E+03  0.30590133565E+03  0.47000000000E+01 0.  1.
         -5    1    5    5    0  503 -0.24828060782E+02  0.43805420222E+02  0.74597106232E+02  0.90123058655E+02  0.47000000000E+01 0.  1.
<mgrwt>
<rscale>  0 0.26900540E+03</rscale>
<asrwt>0</asrwt>
<pdfrwt beam="1">  1        2 0.15839796E+00 0.26900540E+03</pdfrwt>
<pdfrwt beam="2">  1       -2 0.27032468E-02 0.26900540E+03</pdfrwt>
<totfact> 0.12417833E+04</totfact>
</mgrwt>
</event>
<event>
 9    1  0.2117506E-002  0.2787595E+03  0.7818608E-02  0.1096368E+00
          1   -1    0    0  501    0  0.00000000000E+00  0.00000000000E+00  0.12391365454E+04  0.12391365454E+04  0.00000000000E+00 0. -1.
         -1   -1    0    0    0  501 -0.00000000000E+00 -0.00000000000E+00 -0.15677626219E+02  0.15677626219E+02  0.00000000000E+00 0. -1.
         36    2    1    2    0    0  0.00000000000E+00  0.00000000000E+00  0.12234589192E+04  0.12548141716E+04  0.27875953504E+03 0.  0.
         25    2    3    3    0    0 -0.17213600524E+02 -0.34726014473E+02  0.86593364650E+03  0.87575765138E+03  0.12493270061E+03 0.  0.
         25    2    3    3    0    0  0.17213600524E+02  0.34726014473E+02  0.35752527267E+03  0.37905652023E+03  0.11982203807E+03 0.  0.
          5    1    4    4  502    0 -0.31045233858E+02 -0.41507825844E+02  0.13558066191E+03  0.14522710503E+03  0.47000000000E+01 0. -1.
         -5    1    4    4    0  502  0.13831633334E+02  0.67818113711E+01  0.73035298459E+03  0.73053054635E+03  0.47000000000E+01 0. -1.
          5    1    5    5  503    0 -0.13855582556E+02  0.42384288389E+01  0.32284235748E+03  0.32320151489E+03  0.47000000000E+01 0. -1.
         -5    1    5    5    0  503  0.31069183080E+02  0.30487585634E+02  0.34682915190E+02  0.55855005336E+02  0.47000000000E+01 0. -1.
<mgrwt>
<rscale>  0 0.27875954E+03</rscale>
<asrwt>0</asrwt>
<pdfrwt beam="1">  1        1 0.19063632E+00 0.27875954E+03</pdfrwt>
<pdfrwt beam="2">  1       -1 0.24119435E-02 0.27875954E+03</pdfrwt>
<totfact> 0.55990015E+03</totfact>
</mgrwt>
</event>
<event>
 9    1  0.2117506E-002  0.2747861E+03  0.7818608E-02  0.1098571E+00
         -2   -1    0    0    0  501 -0.00000000000E+00  0.00000000000E+00  0.91372658490E+01  0.91372658490E+01  0.00000000000E+00 0. -1.
          2   -1    0    0  501    0  0.00000000000E+00 -0.00000000000E+00 -0.20659187047E+04  0.20659187047E+04  0.00000000000E+00 0. -1.
         36    2    1    2    0    0  0.53290705182E-14  0.26645352591E-14 -0.20567814389E+04  0.20750559706E+04  0.27478608718E+03 0.  0.
         25    2    3    3    0    0  0.61252397634E+01 -0.35332907732E+01 -0.15379584901E+04  0.15415036593E+04  0.10424591910E+03 0.  0.
         25    2    3    3    0    0 -0.61252397634E+01  0.35332907732E+01 -0.51882294879E+03  0.53355231129E+03  0.12430130324E+03 0.  0.
          5    1    4    4  502    0 -0.39057803387E+01  0.39160037328E+02 -0.12031181396E+04  0.12037707886E+04  0.47000000000E+01 0. -1.
         -5    1    4    4    0  502  0.10031020102E+02 -0.42693328101E+02 -0.33484035051E+03  0.33773287071E+03  0.47000000000E+01 0. -1.
          5    1    5    5  503    0 -0.64040945603E+02  0.11423914091E+02 -0.30006177851E+03  0.30706824884E+03  0.47000000000E+01 0.  1.
         -5    1    5    5    0  503  0.57915705840E+02 -0.78906233182E+01 -0.21876117028E+03  0.22648406245E+03  0.47000000000E+01 0.  1.
<mgrwt>
<rscale>  0 0.27478609E+03</rscale>
<asrwt>0</asrwt>
<pdfrwt beam="1">  1        2 0.31783359E+00 0.27478609E+03</pdfrwt>
<pdfrwt beam="2">  1       -2 0.14057334E-02 0.27478609E+03</pdfrwt>
<totfact> 0.88974876E+03</totfact>
</mgrwt>
</event>
<event>
 9    1  0.2117506E-002  0.2768381E+03  0.7818608E-02  0.1097429E+00
         -2   -1    0    0    0  501 -0.00000000000E+00  0.00000000000E+00  0.32966482180E+02  0.32966482180E+02  0.00000000000E+00 0.  1.
          2   -1    0    0  501    0  0.00000000000E+00 -0.00000000000E+00 -0.58119141511E+03  0.58119141511E+03  0.00000000000E+00 0.  1.
         36    2    1    2    0    0  0.00000000000E+00 -0.71054273576E-14 -0.54822493293E+03  0.61415789729E+03  0.27683812186E+03 0.  0.
         25    2    3    3    0    0 -0.53082749460E+02 -0.26041765536E+02 -0.25946914982E+03  0.29299313522E+03  0.12257563270E+03 0.  0.
         25    2    3    3    0    0  0.53082749460E+02  0.26041765536E+02 -0.28875578311E+03  0.32116476207E+03  0.12755763512E+03 0.  0.
          5    1    4    4  502    0  0.90403214180E+01  0.37427251526E+02 -0.13187907987E+03  0.13746529844E+03  0.47000000000E+01 0. -1.
         -5    1    4    4    0  502 -0.62123070878E+02 -0.63469017062E+02 -0.12759006996E+03  0.15552783678E+03  0.47000000000E+01 0. -1.
          5    1    5    5  503    0  0.12598378498E+02  0.43923149374E+02 -0.22381180298E+02  0.51097645966E+02  0.47000000000E+01 0. -1.
         -5    1    5    5    0  503  0.40484370962E+02 -0.17881383837E+02 -0.26637460281E+03  0.27006711611E+03  0.47000000000E+01 0. -1.
<mgrwt>
<rscale>  0 0.27683812E+03</rscale>
<asrwt>0</asrwt>
<pdfrwt beam="1">  1        2 0.89414067E-01 0.27683812E+03</pdfrwt>
<pdfrwt beam="2">  1       -2 0.50717663E-02 0.27683812E+03</pdfrwt>
<totfact> 0.99878767E+03</totfact>
</mgrwt>
</event>
<event>
 9    1  0.2117506E-002  0.2754721E+03  0.7818608E-02  0.1098188E+00
          2   -1    0    0  501    0  0.00000000000E+00  0.00000000000E+00  0.89855071411E+03  0.89855071411E+03  0.00000000000E+00 0. -1.
         -2   -1    0    0    0  501 -0.00000000000E+00 -0.00000000000E+00 -0.21113133662E+02  0.21113133662E+02  0.00000000000E+00 0. -1.
         36    2    1    2    0    0  0.00000000000E+00 -0.17763568394E-14  0.87743758044E+03  0.91966384777E+03  0.27547211350E+03 0.  0.
         25    2    3    3    0    0  0.80901155445E+01  0.37437455816E+01  0.62941288223E+03  0.64067856551E+03  0.11928529825E+03 0.  0.
         25    2    3    3    0    0 -0.80901155445E+01 -0.37437455816E+01  0.24802469821E+03  0.27898528226E+03  0.12742476681E+03 0.  0.
          5    1    4    4  502    0  0.82790821139E+01  0.18091125404E+02  0.13317763020E+02  0.24398459601E+02  0.47000000000E+01 0.  1.
         -5    1    4    4    0  502 -0.18896656943E+00 -0.14347379823E+02  0.61609511921E+03  0.61628010590E+03  0.47000000000E+01 0.  1.
          5    1    5    5  503    0 -0.55029970939E+02  0.23552981863E+02  0.19051232287E+03  0.19975003335E+03  0.47000000000E+01 0. -1.
         -5    1    5    5    0  503  0.46939855394E+02 -0.27296727445E+02  0.57512375340E+02  0.79235248916E+02  0.47000000000E+01 0. -1.
<mgrwt>
<rscale>  0 0.27547211E+03</rscale>
<asrwt>0</asrwt>
<pdfrwt beam="1">  1        2 0.13823854E+00 0.27547211E+03</pdfrwt>
<pdfrwt beam="2">  1       -2 0.32481751E-02 0.27547211E+03</pdfrwt>
<totfact> 0.11416153E+04</totfact>
</mgrwt>
</event>
<event>
 9    1  0.2117506E-002  0.2742998E+03  0.7818608E-02  0.1098844E+00
         -1   -1    0    0    0  501 -0.00000000000E+00  0.00000000000E+00  0.11831366524E+03  0.11831366524E+03  0.00000000000E+00 0. -1.
          1   -1    0    0  501    0  0.00000000000E+00 -0.00000000000E+00 -0.15898491693E+03  0.15898491693E+03  0.00000000000E+00 0. -1.
         36    2    1    2    0    0  0.00000000000E+00  0.17763568394E-14 -0.40671251689E+02  0.27729858218E+03  0.27429975021E+03 0.  0.
         25    2    3    3    0    0  0.49471803646E+02  0.89055015162E+01 -0.59367654167E+02  0.14642183222E+03  0.12404864883E+03 0.  0.
         25    2    3    3    0    0 -0.49471803646E+02 -0.89055015162E+01  0.18696402478E+02  0.13087674995E+03  0.11938341970E+03 0.  0.
          5    1    4    4  502    0  0.54302277056E+01 -0.92095312640E+01 -0.89246143553E+02  0.90007038492E+02  0.47000000000E+01 0. -1.
         -5    1    4    4    0  502  0.44041575940E+02  0.18115032780E+02  0.29878489386E+02  0.56414793733E+02  0.47000000000E+01 0. -1.
          5    1    5    5  503    0  0.19305825750E+02  0.31328343225E+02 -0.20028156112E+02  0.42159186832E+02  0.47000000000E+01 0. -1.
         -5    1    5    5    0  503 -0.68777629395E+02 -0.40233844741E+02  0.38724558591E+02  0.88717563120E+02  0.47000000000E+01 0. -1.
<mgrwt>
<rscale>  0 0.27429975E+03</rscale>
<asrwt>0</asrwt>
<pdfrwt beam="1">  1        1 0.24459218E-01 0.27429975E+03</pdfrwt>
<pdfrwt beam="2">  1       -1 0.18202102E-01 0.27429975E+03</pdfrwt>
<totfact> 0.45971490E+03</totfact>
</mgrwt>
</event>
<event>
 9    1  0.2117506E-002  0.2754118E+03  0.7818608E-02  0.1098222E+00
         -1   -1    0    0    0  501 -0.00000000000E+00  0.00000000000E+00  0.86192009200E+02  0.86192009200E+02  0.00000000000E+00 0.  1.
          1   -1    0    0  501    0  0.00000000000E+00 -0.00000000000E+00 -0.22000781175E+03  0.22000781175E+03  0.00000000000E+00 0.  1.
         36    2    1    2    0    0  0.71054273576E-14  0.00000000000E+00 -0.13381580255E+03  0.30619982095E+03  0.27541180319E+03 0.  0.
         25    2    3    3    0    0  0.36994286355E+02  0.36236135752E+02 -0.68341248123E+02  0.15300443914E+03  0.12672094319E+03 0.  0.
         25    2    3    3    0    0 -0.36994286355E+02 -0.36236135752E+02 -0.65474554429E+02  0.15319538182E+03  0.12845338834E+03 0.  0.
          5    1    4    4  502    0 -0.25591774800E+02  0.34385872477E+02  0.17595723594E+02  0.46572810224E+02  0.47000000000E+01 0.  1.
         -5    1    4    4    0  502  0.62586061154E+02  0.18502632746E+01 -0.85936971717E+02  0.10643162891E+03  0.47000000000E+01 0.  1.
          5    1    5    5  503    0 -0.54526084622E+02 -0.16521932387E+02  0.22343998170E+02  0.61379250633E+02  0.47000000000E+01 0. -1.
         -5    1    5    5    0  503  0.17531798267E+02 -0.19714203365E+02 -0.87818552600E+02  0.91816131183E+02  0.47000000000E+01 0. -1.
<mgrwt>
<rscale>  0 0.27541180E+03</rscale>
<asrwt>0</asrwt>
<pdfrwt beam="1">  1        1 0.33847355E-01 0.27541180E+03</pdfrwt>
<pdfrwt beam="2">  1       -1 0.13260309E-01 0.27541180E+03</pdfrwt>
<totfact> 0.50471337E+03</totfact>
</mgrwt>
</event>
<event>
 9    1  0.2117506E-002  0.2751601E+03  0.7818608E-02  0.1098362E+00
         -3   -1    0    0    0  501 -0.00000000000E+00  0.00000000000E+00  0.11646130953E+02  0.11646130953E+02  0.00000000000E+00 0.  1.
          3   -1    0    0  501    0  0.00000000000E+00 -0.00000000000E+00 -0.16252839932E+04  0.16252839932E+04  0.00000000000E+00 0.  1.
         36    2    1    2    0    0  0.00000000000E+00  0.00000000000E+00 -0.16136378622E+04  0.16369301241E+04  0.27516010045E+03 0.  0.
         25    2    3    3    0    0 -0.23520709594E+02  0.15171670754E+02 -0.11318197396E+04  0.11382326861E+04  0.11736405463E+03 0.  0.
         25    2    3    3    0    0  0.23520709594E+02 -0.15171670754E+02 -0.48181812264E+03  0.49869743808E+03  0.12556682708E+03 0.  0.
          5    1    4    4  502    0  0.32023968728E+02  0.26414033125E+02 -0.18290013555E+03  0.18761072812E+03  0.47000000000E+01 0.  1.
         -5    1    4    4    0  502 -0.55544678323E+02 -0.11242362372E+02 -0.94891960404E+03  0.95062195795E+03  0.47000000000E+01 0.  1.
          5    1    5    5  503    0  0.30513406803E+02 -0.44796011639E+02 -0.45383535919E+03  0.45708464632E+03  0.47000000000E+01 0.  1.
         -5    1    5    5    0  503 -0.69926972089E+01  0.29624340885E+02 -0.27982763457E+02  0.41612791757E+02  0.47000000000E+01 0.  1.
<mgrwt>
<rscale>  0 0.27516010E+03</rscale>
<asrwt>0</asrwt>
<pdfrwt beam="1">  1        3 0.25004376E+00 0.27516010E+03</pdfrwt>
<pdfrwt beam="2">  1       -3 0.17917120E-02 0.27516010E+03</pdfrwt>
<totfact> 0.23617922E+02</totfact>
</mgrwt>
</event>
<event>
 9    1  0.2117506E-002  0.2768618E+03  0.7818608E-02  0.1097415E+00
         -2   -1    0    0    0  501 -0.00000000000E+00  0.00000000000E+00  0.70645549573E+01  0.70645549573E+01  0.00000000000E+00 0.  1.
          2   -1    0    0  501    0  0.00000000000E+00 -0.00000000000E+00 -0.27125721730E+04  0.27125721730E+04  0.00000000000E+00 0.  1.
         36    2    1    2    0    0  0.71054273576E-14 -0.14210854715E-13 -0.27055076181E+04  0.27196367280E+04  0.27686180807E+03 0.  0.
         25    2    3    3    0    0  0.41319242834E+02 -0.62249969659E+02 -0.16326598359E+04  0.16394198328E+04  0.12859591735E+03 0.  0.
         25    2    3    3    0    0 -0.41319242834E+02  0.62249969659E+02 -0.10728477822E+04  0.10802168952E+04  0.10140926152E+03 0.  0.
          5    1    4    4  502    0  0.49048300478E+02 -0.26826697768E+02 -0.15187677433E+04  0.15198035911E+04  0.47000000000E+01 0. -1.
         -5    1    4    4    0  502 -0.77290576440E+01 -0.35423271891E+02 -0.11389209259E+03  0.11961624170E+03  0.47000000000E+01 0. -1.
          5    1    5    5  503    0 -0.34787808265E+02  0.39400670614E+02 -0.19439515794E+03  0.20143031519E+03  0.47000000000E+01 0. -1.
         -5    1    5    5    0  503 -0.65314345694E+01  0.22849299045E+02 -0.87845262423E+03  0.87878657996E+03  0.47000000000E+01 0. -1.
<mgrwt>
<rscale>  0 0.27686181E+03</rscale>
<asrwt>0</asrwt>
<pdfrwt beam="1">  1        2 0.41731866E+00 0.27686181E+03</pdfrwt>
<pdfrwt beam="2">  1       -2 0.10868550E-02 0.27686181E+03</pdfrwt>
<totfact> 0.57695193E+03</totfact>
</mgrwt>
</event>
<event>
 9    1  0.2117506E-002  0.2757169E+03  0.7818608E-02  0.1098052E+00
          2   -1    0    0  501    0  0.00000000000E+00  0.00000000000E+00  0.21150156291E+03  0.21150156291E+03  0.00000000000E+00 0.  1.
         -2   -1    0    0    0  501 -0.00000000000E+00 -0.00000000000E+00 -0.89857273387E+02  0.89857273387E+02  0.00000000000E+00 0.  1.
         36    2    1    2    0    0 -0.71054273576E-14  0.14210854715E-13  0.12164428952E+03  0.30135883630E+03  0.27571691105E+03 0.  0.
         25    2    3    3    0    0 -0.33083344235E+02  0.24265990834E+02  0.53862668838E+02  0.13903419451E+03  0.12143300281E+03 0.  0.
         25    2    3    3    0    0  0.33083344235E+02 -0.24265990834E+02  0.67781620684E+02  0.16232464179E+03  0.14167425755E+03 0.  0.
          5    1    4    4  502    0 -0.84371646430E+01  0.59723576002E+02  0.70158393808E+02  0.92641143664E+02  0.47000000000E+01 0.  1.
         -5    1    4    4    0  502 -0.24646179592E+02 -0.35457585167E+02 -0.16295724970E+02  0.46393050845E+02  0.47000000000E+01 0.  1.
          5    1    5    5  503    0  0.42476879969E+02 -0.79619486496E+02  0.33501733070E+02  0.96374291595E+02  0.47000000000E+01 0.  1.
         -5    1    5    5    0  503 -0.93935357334E+01  0.55353495662E+02  0.34279887614E+02  0.65950350191E+02  0.47000000000E+01 0.  1.
<mgrwt>
<rscale>  0 0.27571691E+03</rscale>
<asrwt>0</asrwt>
<pdfrwt beam="1">  1        2 0.32538702E-01 0.27571691E+03</pdfrwt>
<pdfrwt beam="2">  1       -2 0.13824196E-01 0.27571691E+03</pdfrwt>
<totfact> 0.62362381E+03</totfact>
</mgrwt>
</event>
<event>
 9    1  0.2117506E-002  0.2750394E+03  0.7818608E-02  0.1098430E+00
         -1   -1    0    0    0  501 -0.00000000000E+00  0.00000000000E+00  0.34265566370E+02  0.34265566370E+02  0.00000000000E+00 0. -1.
          1   -1    0    0  501    0  0.00000000000E+00 -0.00000000000E+00 -0.55191459056E+03  0.55191459056E+03  0.00000000000E+00 0. -1.
         36    2    1    2    0    0 -0.35527136788E-14  0.17763568394E-14 -0.51764902419E+03  0.58618015693E+03  0.27503938651E+03 0.  0.
         25    2    3    3    0    0 -0.12313872362E+02 -0.59586632396E+01 -0.36080742377E+03  0.38295681262E+03  0.12761969348E+03 0.  0.
         25    2    3    3    0    0  0.12313872362E+02  0.59586632396E+01 -0.15684160042E+03  0.20322334431E+03  0.12850409694E+03 0.  0.
          5    1    4    4  502    0  0.57542904206E+01 -0.15928752591E+02 -0.36135760466E+03  0.36178480547E+03  0.47000000000E+01 0. -1.
         -5    1    4    4    0  502 -0.18068162782E+02  0.99700893516E+01  0.55018089171E+00  0.21172007156E+02  0.47000000000E+01 0. -1.
          5    1    5    5  503    0 -0.26981680332E+02 -0.46010061716E+02 -0.32143276883E+02  0.62451718162E+02  0.47000000000E+01 0. -1.
         -5    1    5    5    0  503  0.39295552694E+02  0.51968724956E+02 -0.12469832353E+03  0.14077162614E+03  0.47000000000E+01 0. -1.
<mgrwt>
<rscale>  0 0.27503939E+03</rscale>
<asrwt>0</asrwt>
<pdfrwt beam="1">  1        1 0.84909932E-01 0.27503939E+03</pdfrwt>
<pdfrwt beam="2">  1       -1 0.52716259E-02 0.27503939E+03</pdfrwt>
<totfact> 0.63908881E+03</totfact>
</mgrwt>
</event>
<event>
 9    1  0.2117506E-002  0.2737974E+03  0.7818608E-02  0.1099126E+00
          2   -1    0    0  501    0  0.00000000000E+00  0.00000000000E+00  0.45551019503E+02  0.45551019503E+02  0.00000000000E+00 0.  1.
         -2   -1    0    0    0  501 -0.00000000000E+00 -0.00000000000E+00 -0.41143445054E+03  0.41143445054E+03  0.00000000000E+00 0.  1.
         36    2    1    2    0    0  0.00000000000E+00  0.00000000000E+00 -0.36588343103E+03  0.45698547004E+03  0.27379743374E+03 0.  0.
         25    2    3    3    0    0  0.50756727615E+02  0.82411999613E+01 -0.24317064163E+03  0.27800595284E+03  0.12454391230E+03 0.  0.
         25    2    3    3    0    0 -0.50756727615E+02 -0.82411999613E+01 -0.12271278941E+03  0.17897951720E+03  0.11971247269E+03 0.  0.
          5    1    4    4  502    0 -0.37201785511E+02  0.18776432243E+02 -0.11254951195E+03  0.12010832566E+03  0.47000000000E+01 0. -1.
         -5    1    4    4    0  502  0.87958513126E+02 -0.10535232282E+02 -0.13062112967E+03  0.15789762718E+03  0.47000000000E+01 0. -1.
          5    1    5    5  503    0  0.34828324394E+02  0.20653065158E+01 -0.68557744725E+02  0.77068359479E+02  0.47000000000E+01 0.  1.
         -5    1    5    5    0  503 -0.85585052009E+02 -0.10306506477E+02 -0.54155044682E+02  0.10191115772E+03  0.47000000000E+01 0.  1.
<mgrwt>
<rscale>  0 0.27379743E+03</rscale>
<asrwt>0</asrwt>
<pdfrwt beam="1">  1        2 0.70078489E-02 0.27379743E+03</pdfrwt>
<pdfrwt beam="2">  1       -2 0.63297610E-01 0.27379743E+03</pdfrwt>
<totfact> 0.23775451E+03</totfact>
</mgrwt>
</event>
<event>
 9    1  0.2117506E-002  0.2743473E+03  0.7818608E-02  0.1098817E+00
         -2   -1    0    0    0  501 -0.00000000000E+00  0.00000000000E+00  0.17265795274E+03  0.17265795274E+03  0.00000000000E+00 0.  1.
          2   -1    0    0  501    0  0.00000000000E+00 -0.00000000000E+00 -0.10898202993E+03  0.10898202993E+03  0.00000000000E+00 0.  1.
         36    2    1    2    0    0  0.00000000000E+00  0.00000000000E+00  0.63675922807E+02  0.28163998267E+03  0.27434732857E+03 0.  0.
         25    2    3    3    0    0  0.84389909517E+02 -0.30631747967E+02  0.38599945976E+02  0.15812696578E+03  0.12431500580E+03 0.  0.
         25    2    3    3    0    0 -0.84389909517E+02  0.30631747967E+02  0.25075976831E+02  0.12351301689E+03  0.81035177024E+02 0.  0.
          5    1    4    4  502    0  0.10373276905E+03 -0.13386513125E+02 -0.75717226198E+01  0.10497193478E+03  0.47000000000E+01 0.  1.
         -5    1    4    4    0  502 -0.19342859535E+02 -0.17245234841E+02  0.46171668596E+02  0.53155031000E+02  0.47000000000E+01 0.  1.
          5    1    5    5  503    0 -0.85159868596E+02  0.33182353644E+02 -0.62446850685E+01  0.91729809246E+02  0.47000000000E+01 0.  1.
         -5    1    5    5    0  503  0.76995907932E+00 -0.25506056768E+01  0.31320661899E+02  0.31783207644E+02  0.47000000000E+01 0.  1.
<mgrwt>
<rscale>  0 0.27434733E+03</rscale>
<asrwt>0</asrwt>
<pdfrwt beam="1">  1        2 0.16766466E-01 0.27434733E+03</pdfrwt>
<pdfrwt beam="2">  1       -2 0.26562762E-01 0.27434733E+03</pdfrwt>
<totfact> 0.43265811E+03</totfact>
</mgrwt>
</event>
<event>
 9    1  0.2117506E-002  0.2751720E+03  0.7818608E-02  0.1098356E+00
          1   -1    0    0  501    0  0.00000000000E+00  0.00000000000E+00  0.69197261069E+03  0.69197261069E+03  0.00000000000E+00 0. -1.
         -1   -1    0    0    0  501 -0.00000000000E+00 -0.00000000000E+00 -0.27356431456E+02  0.27356431456E+02  0.00000000000E+00 0. -1.
         36    2    1    2    0    0  0.71054273576E-14  0.00000000000E+00  0.66461617923E+03  0.71932904214E+03  0.27517195565E+03 0.  0.
         25    2    3    3    0    0 -0.47394724586E+02 -0.15447381560E+02  0.42739393398E+03  0.44756188103E+03  0.12313074772E+03 0.  0.
         25    2    3    3    0    0  0.47394724586E+02  0.15447381560E+02  0.23722224525E+03  0.27176716111E+03  0.12287438586E+03 0.  0.
          5    1    4    4  502    0 -0.82868056462E+02 -0.70906093607E+01  0.37110899236E+03  0.38034374680E+03  0.47000000000E+01 0.  1.
         -5    1    4    4    0  502  0.35473331876E+02 -0.83567721993E+01  0.56284941625E+02  0.67218134232E+02  0.47000000000E+01 0.  1.
          5    1    5    5  503    0  0.86245623516E+02  0.19793844049E+02  0.19411293397E+03  0.21338234457E+03  0.47000000000E+01 0. -1.
         -5    1    5    5    0  503 -0.38850898930E+02 -0.43464624894E+01  0.43109311278E+02  0.58384816542E+02  0.47000000000E+01 0. -1.
<mgrwt>
<rscale>  0 0.27517196E+03</rscale>
<asrwt>0</asrwt>
<pdfrwt beam="1">  1        1 0.10645731E+00 0.27517196E+03</pdfrwt>
<pdfrwt beam="2">  1       -1 0.42086823E-02 0.27517196E+03</pdfrwt>
<totfact> 0.65167402E+03</totfact>
</mgrwt>
</event>
<event>
 9    1  0.2117506E-002  0.2601584E+03  0.7818608E-02  0.1107048E+00
         -3   -1    0    0    0  501 -0.00000000000E+00  0.00000000000E+00  0.19137262886E+02  0.19137262886E+02  0.00000000000E+00 0. -1.
          3   -1    0    0  501    0  0.00000000000E+00 -0.00000000000E+00 -0.88417017077E+03  0.88417017077E+03  0.00000000000E+00 0. -1.
         36    2    1    2    0    0  0.35527136788E-14 -0.71054273576E-14 -0.86503290788E+03  0.90330743366E+03  0.26015839017E+03 0.  0.
         25    2    3    3    0    0 -0.21565486895E+02  0.14212013190E+02 -0.47409447432E+03  0.49197795508E+03  0.12887857135E+03 0.  0.
         25    2    3    3    0    0  0.21565486895E+02 -0.14212013190E+02 -0.39093843356E+03  0.41132947858E+03  0.12526783135E+03 0.  0.
          5    1    4    4  502    0 -0.25751074811E+02  0.36971233587E+02 -0.46415111242E+03  0.46635644643E+03  0.47000000000E+01 0.  1.
         -5    1    4    4    0  502  0.41855879164E+01 -0.22759220396E+02 -0.99433619007E+01  0.25621508643E+02  0.47000000000E+01 0.  1.
          5    1    5    5  503    0 -0.11850826138E+02  0.50040702573E+02 -0.11602374761E+03  0.12699651178E+03  0.47000000000E+01 0. -1.
         -5    1    5    5    0  503  0.33416313032E+02 -0.64252715763E+02 -0.27491468595E+03  0.28433296680E+03  0.47000000000E+01 0. -1.
<mgrwt>
<rscale>  0 0.26015839E+03</rscale>
<asrwt>0</asrwt>
<pdfrwt beam="1">  1        3 0.13602614E+00 0.26015839E+03</pdfrwt>
<pdfrwt beam="2">  1       -3 0.29441952E-02 0.26015839E+03</pdfrwt>
<totfact> 0.57964569E+02</totfact>
</mgrwt>
</event>
<event>
 9    1  0.2117506E-002  0.2751258E+03  0.7818608E-02  0.1098381E+00
         -1   -1    0    0    0  501 -0.00000000000E+00  0.00000000000E+00  0.27559758538E+03  0.27559758538E+03  0.00000000000E+00 0.  1.
          1   -1    0    0  501    0  0.00000000000E+00 -0.00000000000E+00 -0.68663728261E+02  0.68663728261E+02  0.00000000000E+00 0.  1.
         36    2    1    2    0    0  0.35527136788E-14  0.71054273576E-14  0.20693385712E+03  0.34426131364E+03  0.27512584547E+03 0.  0.
         25    2    3    3    0    0 -0.25529648832E+02  0.41127598793E+01  0.43817771626E+02  0.13595271979E+03  0.12607326102E+03 0.  0.
         25    2    3    3    0    0  0.25529648832E+02 -0.41127598793E+01  0.16311608549E+03  0.20830859385E+03  0.12695249175E+03 0.  0.
          5    1    4    4  502    0 -0.51098264803E+02 -0.40192924465E+02  0.52700382036E+02  0.83820785666E+02  0.47000000000E+01 0. -1.
         -5    1    4    4    0  502  0.25568615971E+02  0.44305684344E+02 -0.88826104096E+01  0.52131934124E+02  0.47000000000E+01 0. -1.
          5    1    5    5  503    0  0.19214264473E+02  0.59915571148E+02  0.98693992348E+02  0.11713947990E+03  0.47000000000E+01 0. -1.
         -5    1    5    5    0  503  0.63153843587E+01 -0.64028331027E+02  0.64422093144E+02  0.91169113952E+02  0.47000000000E+01 0. -1.
<mgrwt>
<rscale>  0 0.27512585E+03</rscale>
<asrwt>0</asrwt>
<pdfrwt beam="1">  1        1 0.10563651E-01 0.27512585E+03</pdfrwt>
<pdfrwt beam="2">  1       -1 0.42399628E-01 0.27512585E+03</pdfrwt>
<totfact> 0.32976151E+03</totfact>
</mgrwt>
</event>
<event>
 9    1  0.2117506E-002  0.2749150E+03  0.7818608E-02  0.1098499E+00
          4   -1    0    0  501    0  0.00000000000E+00  0.00000000000E+00  0.17755174855E+03  0.17755174855E+03  0.00000000000E+00 0. -1.
         -4   -1    0    0    0  501 -0.00000000000E+00 -0.00000000000E+00 -0.10641721671E+03  0.10641721671E+03  0.00000000000E+00 0. -1.
         36    2    1    2    0    0  0.00000000000E+00  0.00000000000E+00  0.71134531839E+02  0.28396896526E+03  0.27491498979E+03 0.  0.
         25    2    3    3    0    0 -0.27692975718E+02 -0.34776751167E+02  0.15875935950E+01  0.13424881681E+03  0.12666452161E+03 0.  0.
         25    2    3    3    0    0  0.27692975718E+02  0.34776751167E+02  0.69546938244E+02  0.14972014845E+03  0.12491206070E+03 0.  0.
          5    1    4    4  502    0  0.11443034864E+01  0.23742343298E+02 -0.46926665736E+02  0.52812974285E+02  0.47000000000E+01 0.  1.
         -5    1    4    4    0  502 -0.28837279204E+02 -0.58519094466E+02  0.48514259331E+02  0.81435842523E+02  0.47000000000E+01 0.  1.
          5    1    5    5  503    0 -0.29909566677E+02  0.55200378058E+02  0.90646175538E+01  0.63607556217E+02  0.47000000000E+01 0. -1.
         -5    1    5    5    0  503  0.57602542395E+02 -0.20423626890E+02  0.60482320690E+02  0.86112592237E+02  0.47000000000E+01 0. -1.
<mgrwt>
<rscale>  0 0.27491499E+03</rscale>
<asrwt>0</asrwt>
<pdfrwt beam="1">  1        4 0.27315654E-01 0.27491499E+03</pdfrwt>
<pdfrwt beam="2">  1       -4 0.16371880E-01 0.27491499E+03</pdfrwt>
<totfact> 0.76889897E+02</totfact>
</mgrwt>
</event>
<event>
 9    1  0.2117506E-002  0.2745414E+03  0.7818608E-02  0.1098708E+00
          2   -1    0    0  501    0  0.00000000000E+00  0.00000000000E+00  0.17457269863E+03  0.17457269863E+03  0.00000000000E+00 0.  1.
         -2   -1    0    0    0  501 -0.00000000000E+00 -0.00000000000E+00 -0.10793921764E+03  0.10793921764E+03  0.00000000000E+00 0.  1.
         36    2    1    2    0    0  0.71054273576E-14  0.17763568394E-14  0.66633480991E+02  0.28251191628E+03  0.27454136674E+03 0.  0.
         25    2    3    3    0    0  0.47522847588E+02 -0.68317884183E+01  0.68096465065E+02  0.14754072143E+03  0.12176223368E+03 0.  0.
         25    2    3    3    0    0 -0.47522847588E+02  0.68317884183E+01 -0.14629840746E+01  0.13497119485E+03  0.12613480384E+03 0.  0.
          5    1    4    4  502    0 -0.28226138126E+02  0.98771336541E+01  0.62719587116E+02  0.69642725756E+02  0.47000000000E+01 0.  1.
         -5    1    4    4    0  502  0.75748985714E+02 -0.16708922072E+02  0.53768779496E+01  0.77897995674E+02  0.47000000000E+01 0.  1.
          5    1    5    5  503    0 -0.34524624463E+02 -0.48401485174E+01  0.60739786773E+02  0.70191085113E+02  0.47000000000E+01 0. -1.
         -5    1    5    5    0  503 -0.12998223124E+02  0.11671936936E+02 -0.62202770848E+02  0.64780109736E+02  0.47000000000E+01 0. -1.
<mgrwt>
<rscale>  0 0.27454137E+03</rscale>
<asrwt>0</asrwt>
<pdfrwt beam="1">  1        2 0.26857338E-01 0.27454137E+03</pdfrwt>
<pdfrwt beam="2">  1       -2 0.16606034E-01 0.27454137E+03</pdfrwt>
<totfact> 0.56852374E+03</totfact>
</mgrwt>
</event>
<event>
 9    1  0.2117506E-002  0.2709403E+03  0.7818608E-02  0.1100743E+00
         -2   -1    0    0    0  501 -0.00000000000E+00  0.00000000000E+00  0.27635179323E+03  0.27635179323E+03  0.00000000000E+00 0. -1.
          2   -1    0    0  501    0  0.00000000000E+00 -0.00000000000E+00 -0.66408704089E+02  0.66408704089E+02  0.00000000000E+00 0. -1.
         36    2    1    2    0    0  0.00000000000E+00  0.00000000000E+00  0.20994308914E+03  0.34276049732E+03  0.27094032156E+03 0.  0.
         25    2    3    3    0    0 -0.24707379931E+02  0.42816432137E+02  0.10983261382E+03  0.17337164256E+03  0.12470293461E+03 0.  0.
         25    2    3    3    0    0  0.24707379931E+02 -0.42816432137E+02  0.10011047532E+03  0.16938885476E+03  0.12738436075E+03 0.  0.
          5    1    4    4  502    0  0.27083765085E+02 -0.23557073499E+02  0.16893835362E+01  0.36240999707E+02  0.47000000000E+01 0. -1.
         -5    1    4    4    0  502 -0.51791145016E+02  0.66373505637E+02  0.10814323029E+03  0.13713064285E+03  0.47000000000E+01 0. -1.
          5    1    5    5  503    0  0.41959873270E+02  0.21085397075E+02  0.90866513699E+02  0.10239159266E+03  0.47000000000E+01 0. -1.
         -5    1    5    5    0  503 -0.17252493339E+02 -0.63901829213E+02  0.92439616201E+01  0.66997262105E+02  0.47000000000E+01 0. -1.
<mgrwt>
<rscale>  0 0.27094032E+03</rscale>
<asrwt>0</asrwt>
<pdfrwt beam="1">  1        2 0.10216724E-01 0.27094032E+03</pdfrwt>
<pdfrwt beam="2">  1       -2 0.42515660E-01 0.27094032E+03</pdfrwt>
<totfact> 0.32858921E+03</totfact>
</mgrwt>
</event>
<event>
 9    1  0.2117506E-002  0.2753034E+03  0.7818608E-02  0.1098282E+00
         -2   -1    0    0    0  501 -0.00000000000E+00  0.00000000000E+00  0.38961722987E+02  0.38961722987E+02  0.00000000000E+00 0.  1.
          2   -1    0    0  501    0  0.00000000000E+00 -0.00000000000E+00 -0.48632324186E+03  0.48632324186E+03  0.00000000000E+00 0.  1.
         36    2    1    2    0    0  0.00000000000E+00  0.14210854715E-13 -0.44736151887E+03  0.52528496485E+03  0.27530340667E+03 0.  0.
         25    2    3    3    0    0 -0.33157128880E+02 -0.55450275648E+02 -0.24988088637E+03  0.28671578711E+03  0.12486535524E+03 0.  0.
         25    2    3    3    0    0  0.33157128880E+02  0.55450275648E+02 -0.19748063250E+03  0.23856917774E+03  0.11722851227E+03 0.  0.
          5    1    4    4  502    0 -0.10515615857E+02 -0.56253494809E+02 -0.28455260404E+02  0.64084519969E+02  0.47000000000E+01 0.  1.
         -5    1    4    4    0  502 -0.22641513023E+02  0.80321916117E+00 -0.22142562597E+03  0.22263126714E+03  0.47000000000E+01 0.  1.
          5    1    5    5  503    0 -0.24647327613E+01  0.26847015528E+02 -0.19009356006E+03  0.19205334865E+03  0.47000000000E+01 0.  1.
         -5    1    5    5    0  503  0.35621861641E+02  0.28603260120E+02 -0.73870724339E+01  0.46515829084E+02  0.47000000000E+01 0.  1.
<mgrwt>
<rscale>  0 0.27530341E+03</rscale>
<asrwt>0</asrwt>
<pdfrwt beam="1">  1        2 0.74818963E-01 0.27530341E+03</pdfrwt>
<pdfrwt beam="2">  1       -2 0.59941110E-02 0.27530341E+03</pdfrwt>
<totfact> 0.94657859E+03</totfact>
</mgrwt>
</event>
<event>
 9    1  0.2117506E-002  0.2749772E+03  0.7818608E-02  0.1098464E+00
         -2   -1    0    0    0  501 -0.00000000000E+00  0.00000000000E+00  0.50719109398E+02  0.50719109398E+02  0.00000000000E+00 0. -1.
          2   -1    0    0  501    0  0.00000000000E+00 -0.00000000000E+00 -0.37270193917E+03  0.37270193917E+03  0.00000000000E+00 0. -1.
         36    2    1    2    0    0 -0.71054273576E-14  0.00000000000E+00 -0.32198282978E+03  0.42342104857E+03  0.27497716579E+03 0.  0.
         25    2    3    3    0    0  0.25138386610E+02 -0.71133307346E+01 -0.16969653922E+03  0.22483213775E+03  0.14515521618E+03 0.  0.
         25    2    3    3    0    0 -0.25138386610E+02  0.71133307346E+01 -0.15228629056E+03  0.19858891083E+03  0.12475537366E+03 0.  0.
          5    1    4    4  502    0 -0.53561399527E+02  0.25407195410E+02 -0.49053192367E+02  0.77088616405E+02  0.47000000000E+01 0. -1.
         -5    1    4    4    0  502  0.78699786137E+02 -0.32520526145E+02 -0.12064334685E+03  0.14774352134E+03  0.47000000000E+01 0. -1.
          5    1    5    5  503    0  0.46794679063E+01  0.37614790824E+02 -0.15089424478E+03  0.15565324608E+03  0.47000000000E+01 0. -1.
         -5    1    5    5    0  503 -0.29817854517E+02 -0.30501460090E+02 -0.13920457788E+01  0.42935664744E+02  0.47000000000E+01 0. -1.
<mgrwt>
<rscale>  0 0.27497717E+03</rscale>
<asrwt>0</asrwt>
<pdfrwt beam="1">  1        2 0.57338763E-01 0.27497717E+03</pdfrwt>
<pdfrwt beam="2">  1       -2 0.78029394E-02 0.27497717E+03</pdfrwt>
<totfact> 0.84245453E+03</totfact>
</mgrwt>
</event>
<event>
 9    1  0.2117506E-002  0.2761698E+03  0.7818608E-02  0.1097799E+00
          2   -1    0    0  501    0  0.00000000000E+00  0.00000000000E+00  0.15143226738E+04  0.15143226738E+04  0.00000000000E+00 0. -1.
         -2   -1    0    0    0  501 -0.00000000000E+00 -0.00000000000E+00 -0.12591396753E+02  0.12591396753E+02  0.00000000000E+00 0. -1.
         36    2    1    2    0    0 -0.35527136788E-14  0.71054273576E-14  0.15017312770E+04  0.15269140705E+04  0.27616978544E+03 0.  0.
         25    2    3    3    0    0  0.57964924822E+01 -0.33418367540E+02  0.10054125241E+04  0.10137870655E+04  0.12553678341E+03 0.  0.
         25    2    3    3    0    0 -0.57964924822E+01  0.33418367540E+02  0.49631875290E+03  0.51312700498E+03  0.12576419264E+03 0.  0.
          5    1    4    4  502    0  0.54382320993E+02 -0.45042657389E+02  0.39290329580E+03  0.39922596067E+03  0.47000000000E+01 0. -1.
         -5    1    4    4    0  502 -0.48585828511E+02  0.11624289850E+02  0.61250922833E+03  0.61456110488E+03  0.47000000000E+01 0. -1.
          5    1    5    5  503    0  0.92433458381E+01 -0.20891917564E+01 -0.39950951235E+01  0.11307296296E+02  0.47000000000E+01 0.  1.
         -5    1    5    5    0  503 -0.15039838320E+02  0.35507559296E+02  0.50031384802E+03  0.50181970868E+03  0.47000000000E+01 0.  1.
<mgrwt>
<rscale>  0 0.27616979E+03</rscale>
<asrwt>0</asrwt>
<pdfrwt beam="1">  1        2 0.23297257E+00 0.27616979E+03</pdfrwt>
<pdfrwt beam="2">  1       -2 0.19371392E-02 0.27616979E+03</pdfrwt>
<totfact> 0.10863254E+04</totfact>
</mgrwt>
</event>
<event>
 9    1  0.2117506E-002  0.2722623E+03  0.7818608E-02  0.1099992E+00
         -1   -1    0    0    0  501 -0.00000000000E+00  0.00000000000E+00  0.91628395392E+02  0.91628395392E+02  0.00000000000E+00 0. -1.
          1   -1    0    0  501    0  0.00000000000E+00 -0.00000000000E+00 -0.20224828928E+03  0.20224828928E+03  0.00000000000E+00 0. -1.
         36    2    1    2    0    0  0.00000000000E+00 -0.35527136788E-14 -0.11061989389E+03  0.29387668467E+03  0.27226227221E+03 0.  0.
         25    2    3    3    0    0  0.51180110552E+02  0.19151219299E+02 -0.54655336199E+02  0.14679438272E+03  0.12480068952E+03 0.  0.
         25    2    3    3    0    0 -0.51180110552E+02 -0.19151219299E+02 -0.55964557688E+02  0.14708230196E+03  0.12455921851E+03 0.  0.
          5    1    4    4  502    0  0.42189797199E+02  0.23646286259E+02 -0.94053002917E+02  0.10586398443E+03  0.47000000000E+01 0.  1.
         -5    1    4    4    0  502  0.89903133529E+01 -0.44950669608E+01  0.39397666717E+02  0.40930398287E+02  0.47000000000E+01 0.  1.
          5    1    5    5  503    0 -0.54830093772E+02 -0.40478805140E+02  0.17360885611E+02  0.70486617154E+02  0.47000000000E+01 0.  1.
         -5    1    5    5    0  503  0.36499832199E+01  0.21327585841E+02 -0.73325443298E+02  0.76595684802E+02  0.47000000000E+01 0.  1.
<mgrwt>
<rscale>  0 0.27226227E+03</rscale>
<asrwt>0</asrwt>
<pdfrwt beam="1">  1        1 0.31115122E-01 0.27226227E+03</pdfrwt>
<pdfrwt beam="2">  1       -1 0.14096676E-01 0.27226227E+03</pdfrwt>
<totfact> 0.50936240E+03</totfact>
</mgrwt>
</event>
<event>
 9    1  0.2117506E-002  0.2749492E+03  0.7818608E-02  0.1098480E+00
          2   -1    0    0  501    0  0.00000000000E+00  0.00000000000E+00  0.11809243188E+04  0.11809243188E+04  0.00000000000E+00 0.  1.
         -2   -1    0    0    0  501 -0.00000000000E+00 -0.00000000000E+00 -0.16003792020E+02  0.16003792020E+02  0.00000000000E+00 0.  1.
         36    2    1    2    0    0  0.00000000000E+00  0.00000000000E+00  0.11649205268E+04  0.11969281108E+04  0.27494921123E+03 0.  0.
         25    2    3    3    0    0 -0.29142427310E+02 -0.16729430267E+01  0.66421637626E+03  0.67615051678E+03  0.12306115163E+03 0.  0.
         25    2    3    3    0    0  0.29142427310E+02  0.16729430267E+01  0.50070415050E+03  0.52077759402E+03  0.14018764674E+03 0.  0.
          5    1    4    4  502    0 -0.58594195104E+02 -0.44640986914E+02  0.41352667015E+03  0.42006248861E+03  0.47000000000E+01 0. -1.
         -5    1    4    4    0  502  0.29451767793E+02  0.42968043887E+02  0.25068970611E+03  0.25608802817E+03  0.47000000000E+01 0. -1.
          5    1    5    5  503    0 -0.54575899350E+01  0.31671151685E+02  0.20578483517E+02  0.38450112104E+02  0.47000000000E+01 0.  1.
         -5    1    5    5    0  503  0.34600017245E+02 -0.29998208658E+02  0.48012566698E+03  0.48232748191E+03  0.47000000000E+01 0.  1.
<mgrwt>
<rscale>  0 0.27494921E+03</rscale>
<asrwt>0</asrwt>
<pdfrwt beam="1">  1        2 0.18168060E+00 0.27494921E+03</pdfrwt>
<pdfrwt beam="2">  1       -2 0.24621228E-02 0.27494921E+03</pdfrwt>
<totfact> 0.11632008E+04</totfact>
</mgrwt>
</event>
<event>
 9    1  0.2117506E-002  0.2746779E+03  0.7818608E-02  0.1098632E+00
          1   -1    0    0  501    0  0.00000000000E+00  0.00000000000E+00  0.28428103201E+04  0.28428103201E+04  0.00000000000E+00 0.  1.
         -1   -1    0    0    0  501 -0.00000000000E+00 -0.00000000000E+00 -0.66349786530E+01  0.66349786530E+01  0.00000000000E+00 0.  1.
         36    2    1    2    0    0 -0.71054273576E-14 -0.35527136788E-14  0.28361753414E+04  0.28494452987E+04  0.27467788981E+03 0.  0.
         25    2    3    3    0    0  0.26849082096E+02 -0.12724767640E-01  0.19298290051E+04  0.19340714535E+04  0.12518596175E+03 0.  0.
         25    2    3    3    0    0 -0.26849082096E+02  0.12724767640E-01  0.90634633632E+03  0.91537384521E+03  0.12539825261E+03 0.  0.
          5    1    4    4  502    0  0.29379220496E+02  0.19527245079E+02  0.18792529895E+04  0.18795899395E+04  0.47000000000E+01 0.  1.
         -5    1    4    4    0  502 -0.25301383995E+01 -0.19539969847E+02  0.50576015539E+02  0.54481514018E+02  0.47000000000E+01 0.  1.
          5    1    5    5  503    0 -0.37997812305E+02  0.51902258314E+02  0.66994811646E+03  0.67304550136E+03  0.47000000000E+01 0.  1.
         -5    1    5    5    0  503  0.11148730208E+02 -0.51889533546E+02  0.23639821986E+03  0.24232834385E+03  0.47000000000E+01 0.  1.
<mgrwt>
<rscale>  0 0.27467789E+03</rscale>
<asrwt>0</asrwt>
<pdfrwt beam="1">  1        1 0.43735446E+00 0.27467789E+03</pdfrwt>
<pdfrwt beam="2">  1       -1 0.10207682E-02 0.27467789E+03</pdfrwt>
<totfact> 0.16986482E+03</totfact>
</mgrwt>
</event>
<event>
 8    1  0.2117506E-002  0.3072498E+03  0.7818608E-02  0.1081672E+00
         -2   -1    0    0    0  501 -0.00000000000E+00  0.00000000000E+00  0.11051536696E+02  0.11051536696E+02  0.00000000000E+00 0.  1.
          2   -1    0    0  501    0  0.00000000000E+00 -0.00000000000E+00 -0.21355042669E+04  0.21355042669E+04  0.00000000000E+00 0.  1.
         25    2    1    2    0    0  0.23552867011E+02 -0.25955844796E+02 -0.15853431437E+04  0.15910198709E+04  0.12962601203E+03 0.  0.
         25    2    1    2    0    0 -0.23552867011E+02  0.25955844796E+02 -0.53910958647E+03  0.55553593263E+03  0.12943176889E+03 0.  0.
          5    1    3    3  502    0 -0.19488308848E+02  0.20374505545E+02 -0.92158672588E+02  0.96489510265E+02  0.47000000000E+01 0.  1.
         -5    1    3    3    0  502  0.43041175859E+02 -0.46330350341E+02 -0.14931844711E+04  0.14945303607E+04  0.47000000000E+01 0.  1.
          5    1    4    4  503    0 -0.56282797325E+01  0.57689941864E+02 -0.49372954024E+03  0.49714259105E+03  0.47000000000E+01 0.  1.
         -5    1    4    4    0  503 -0.17924587279E+02 -0.31734097068E+02 -0.45380046232E+02  0.58393341588E+02  0.47000000000E+01 0.  1.
<mgrwt>
<rscale>  0 0.30724976E+03</rscale>
<asrwt>0</asrwt>
<pdfrwt beam="1">  1        2 0.32853927E+00 0.30724976E+03</pdfrwt>
<pdfrwt beam="2">  1       -2 0.17002356E-02 0.30724976E+03</pdfrwt>
<totfact> 0.61866150E+03</totfact>
</mgrwt>
</event>
<event>
 9    1  0.2117506E-002  0.2750566E+03  0.7818608E-02  0.1098420E+00
          1   -1    0    0  501    0  0.00000000000E+00  0.00000000000E+00  0.52703753625E+03  0.52703753625E+03  0.00000000000E+00 0. -1.
         -1   -1    0    0    0  501 -0.00000000000E+00 -0.00000000000E+00 -0.35887448264E+02  0.35887448264E+02  0.00000000000E+00 0. -1.
         36    2    1    2    0    0  0.71054273576E-14  0.00000000000E+00  0.49115008799E+03  0.56292498452E+03  0.27505659284E+03 0.  0.
         25    2    3    3    0    0 -0.45280409925E+02 -0.38518224124E+02  0.23879523694E+03  0.27391956593E+03  0.12031123931E+03 0.  0.
         25    2    3    3    0    0  0.45280409925E+02  0.38518224124E+02  0.25235485105E+03  0.28900541858E+03  0.12769961632E+03 0.  0.
          5    1    4    4  502    0 -0.31906226854E+02  0.41665098780E+02  0.89184110913E+02  0.10358515052E+03  0.47000000000E+01 0. -1.
         -5    1    4    4    0  502 -0.13374183071E+02 -0.80183322905E+02  0.14961112602E+03  0.17033441542E+03  0.47000000000E+01 0. -1.
          5    1    5    5  503    0 -0.15654649703E+02  0.21319804428E+02  0.21217664597E+03  0.21387057117E+03  0.47000000000E+01 0. -1.
         -5    1    5    5    0  503  0.60935059628E+02  0.17198419696E+02  0.40178205078E+02  0.75134847409E+02  0.47000000000E+01 0. -1.
<mgrwt>
<rscale>  0 0.27505659E+03</rscale>
<asrwt>0</asrwt>
<pdfrwt beam="1">  1        1 0.81082692E-01 0.27505659E+03</pdfrwt>
<pdfrwt beam="2">  1       -1 0.55211463E-02 0.27505659E+03</pdfrwt>
<totfact> 0.63453073E+03</totfact>
</mgrwt>
</event>
<event>
 9    1  0.2117506E-002  0.2753005E+03  0.7818608E-02  0.1098284E+00
         -3   -1    0    0    0  501 -0.00000000000E+00  0.00000000000E+00  0.58543308279E+02  0.58543308279E+02  0.00000000000E+00 0. -1.
          3   -1    0    0  501    0  0.00000000000E+00 -0.00000000000E+00 -0.32365091611E+03  0.32365091611E+03  0.00000000000E+00 0. -1.
         36    2    1    2    0    0  0.71054273576E-14  0.00000000000E+00 -0.26510760783E+03  0.38219422439E+03  0.27530052929E+03 0.  0.
         25    2    3    3    0    0 -0.37434699210E+02  0.38175182205E+02 -0.15703776311E+03  0.20789568853E+03  0.12530385879E+03 0.  0.
         25    2    3    3    0    0  0.37434699210E+02 -0.38175182205E+02 -0.10806984472E+03  0.17429853586E+03  0.12586575000E+03 0.  0.
          5    1    4    4  502    0 -0.76594610816E+02  0.49579134516E+02 -0.83995635453E+02  0.12410552671E+03  0.47000000000E+01 0.  1.
         -5    1    4    4    0  502  0.39159911605E+02 -0.11403952311E+02 -0.73042127660E+02  0.83790161823E+02  0.47000000000E+01 0.  1.
          5    1    5    5  503    0  0.12073209619E+02  0.11826381246E+02  0.24587323511E+02  0.30203512400E+02  0.47000000000E+01 0. -1.
         -5    1    5    5    0  503  0.25361489591E+02 -0.50001563451E+02 -0.13265716823E+03  0.14409502346E+03  0.47000000000E+01 0. -1.
<mgrwt>
<rscale>  0 0.27530053E+03</rscale>
<asrwt>0</asrwt>
<pdfrwt beam="1">  1        3 0.49792447E-01 0.27530053E+03</pdfrwt>
<pdfrwt beam="2">  1       -3 0.90066631E-02 0.27530053E+03</pdfrwt>
<totfact> 0.89948735E+02</totfact>
</mgrwt>
</event>
<event>
 9    1  0.2117506E-002  0.2746695E+03  0.7818608E-02  0.1098636E+00
         -2   -1    0    0    0  501 -0.00000000000E+00  0.00000000000E+00  0.63228481316E+02  0.63228481316E+02  0.00000000000E+00 0.  1.
          2   -1    0    0  501    0  0.00000000000E+00 -0.00000000000E+00 -0.29829658748E+03  0.29829658748E+03  0.00000000000E+00 0.  1.
         36    2    1    2    0    0 -0.14210854715E-13  0.00000000000E+00 -0.23506810616E+03  0.36152506879E+03  0.27466954843E+03 0.  0.
         25    2    3    3    0    0 -0.33736322426E+02 -0.11347444896E+01 -0.17291205927E+03  0.21738757917E+03  0.12735522071E+03 0.  0.
         25    2    3    3    0    0  0.33736322426E+02  0.11347444896E+01 -0.62156046891E+02  0.14413748962E+03  0.12558986684E+03 0.  0.
          5    1    4    4  502    0  0.39864387634E+02  0.23894068335E+02 -0.10144805091E+03  0.11168658351E+03  0.47000000000E+01 0.  1.
         -5    1    4    4    0  502 -0.73600710060E+02 -0.25028812825E+02 -0.71464008359E+02  0.10570099566E+03  0.47000000000E+01 0.  1.
          5    1    5    5  503    0  0.47724673064E+02 -0.54246233518E+02 -0.39766992142E+02  0.82606306866E+02  0.47000000000E+01 0.  1.
         -5    1    5    5    0  503 -0.13988350639E+02  0.55380978008E+02 -0.22389054749E+02  0.61531182755E+02  0.47000000000E+01 0.  1.
<mgrwt>
<rscale>  0 0.27466955E+03</rscale>
<asrwt>0</asrwt>
<pdfrwt beam="1">  1        2 0.45891783E-01 0.27466955E+03</pdfrwt>
<pdfrwt beam="2">  1       -2 0.97274587E-02 0.27466955E+03</pdfrwt>
<totfact> 0.75727059E+03</totfact>
</mgrwt>
</event>
<event>
 9    1  0.2117506E-002  0.2754529E+03  0.7818608E-02  0.1098199E+00
         -1   -1    0    0    0  501 -0.00000000000E+00  0.00000000000E+00  0.86929316533E+01  0.86929316533E+01  0.00000000000E+00 0.  1.
          1   -1    0    0  501    0  0.00000000000E+00 -0.00000000000E+00 -0.21820681869E+04  0.21820681869E+04  0.00000000000E+00 0.  1.
         36    2    1    2    0    0  0.00000000000E+00  0.71054273576E-14 -0.21733752552E+04  0.21907611185E+04  0.27545286066E+03 0.  0.
         25    2    3    3    0    0 -0.22234104316E+02  0.36301370492E+02 -0.13172786884E+04  0.13242521320E+04  0.12887366419E+03 0.  0.
         25    2    3    3    0    0  0.22234104316E+02 -0.36301370492E+02 -0.85609656682E+03  0.86650898651E+03  0.12698168018E+03 0.  0.
          5    1    4    4  502    0 -0.72281994634E+02  0.26230124644E+02 -0.98883493918E+03  0.99183130275E+03  0.47000000000E+01 0. -1.
         -5    1    4    4    0  502  0.50047890318E+02  0.10071245847E+02 -0.32844374921E+03  0.33242082924E+03  0.47000000000E+01 0. -1.
          5    1    5    5  503    0 -0.17468355649E+02 -0.62181108908E+02 -0.24028570665E+03  0.24885928670E+03  0.47000000000E+01 0.  1.
         -5    1    5    5    0  503  0.39702459965E+02  0.25879738416E+02 -0.61581086016E+03  0.61764969982E+03  0.47000000000E+01 0.  1.
<mgrwt>
<rscale>  0 0.27545286E+03</rscale>
<asrwt>0</asrwt>
<pdfrwt beam="1">  1        1 0.33570255E+00 0.27545286E+03</pdfrwt>
<pdfrwt beam="2">  1       -1 0.13373751E-02 0.27545286E+03</pdfrwt>
<totfact> 0.31675416E+03</totfact>
</mgrwt>
</event>
<event>
 9    1  0.2117506E-002  0.2756131E+03  0.7818608E-02  0.1098109E+00
         -2   -1    0    0    0  501 -0.00000000000E+00  0.00000000000E+00  0.89041229274E+02  0.89041229274E+02  0.00000000000E+00 0.  1.
          2   -1    0    0  501    0  0.00000000000E+00 -0.00000000000E+00 -0.21327924536E+03  0.21327924536E+03  0.00000000000E+00 0.  1.
         36    2    1    2    0    0  0.00000000000E+00  0.71054273576E-14 -0.12423801608E+03  0.30232047463E+03  0.27561310698E+03 0.  0.
         25    2    3    3    0    0  0.38889354398E+02  0.30126481490E+02 -0.94629038704E+02  0.15718191727E+03  0.11546217294E+03 0.  0.
         25    2    3    3    0    0 -0.38889354398E+02 -0.30126481490E+02 -0.29608977379E+02  0.14513855736E+03  0.13329862159E+03 0.  0.
          5    1    4    4  502    0  0.99703693452E+00  0.43137030434E+02 -0.10660586288E+03  0.11510298640E+03  0.47000000000E+01 0.  1.
         -5    1    4    4    0  502  0.37892317463E+02 -0.13010548944E+02  0.11976824174E+02  0.42078930878E+02  0.47000000000E+01 0.  1.
          5    1    5    5  503    0 -0.83288691148E+02  0.69396225473E+01 -0.22470335430E+02  0.86672777783E+02  0.47000000000E+01 0.  1.
         -5    1    5    5    0  503  0.44399336750E+02 -0.37066104037E+02 -0.71386419491E+01  0.58465779574E+02  0.47000000000E+01 0.  1.
<mgrwt>
<rscale>  0 0.27561311E+03</rscale>
<asrwt>0</asrwt>
<pdfrwt beam="1">  1        2 0.32812191E-01 0.27561311E+03</pdfrwt>
<pdfrwt beam="2">  1       -2 0.13698651E-01 0.27561311E+03</pdfrwt>
<totfact> 0.62724809E+03</totfact>
</mgrwt>
</event>
<event>
 9    1  0.2117506E-002  0.2750006E+03  0.7818608E-02  0.1098451E+00
         -2   -1    0    0    0  501 -0.00000000000E+00  0.00000000000E+00  0.74813411193E+02  0.74813411193E+02  0.00000000000E+00 0.  1.
          2   -1    0    0  501    0  0.00000000000E+00 -0.00000000000E+00 -0.25271316501E+03  0.25271316501E+03  0.00000000000E+00 0.  1.
         36    2    1    2    0    0  0.00000000000E+00  0.00000000000E+00 -0.17789975382E+03  0.32752657621E+03  0.27500061039E+03 0.  0.
         25    2    3    3    0    0  0.19610900263E+02  0.26926592377E+02 -0.14335592339E+03  0.19314093733E+03  0.12507146803E+03 0.  0.
         25    2    3    3    0    0 -0.19610900263E+02 -0.26926592377E+02 -0.34543830431E+02  0.13438563888E+03  0.12552527606E+03 0.  0.
          5    1    4    4  502    0 -0.41747281726E+01  0.16012024834E+02  0.20716939474E+02  0.26927585777E+02  0.47000000000E+01 0. -1.
         -5    1    4    4    0  502  0.23785628436E+02  0.10914567543E+02 -0.16407286286E+03  0.16621335155E+03  0.47000000000E+01 0. -1.
          5    1    5    5  503    0 -0.44430553721E+02 -0.68153395577E+02 -0.23004923315E+02  0.84677481832E+02  0.47000000000E+01 0.  1.
         -5    1    5    5    0  503  0.24819653458E+02  0.41226803199E+02 -0.11538907116E+02  0.49708157049E+02  0.47000000000E+01 0.  1.
<mgrwt>
<rscale>  0 0.27500061E+03</rscale>
<asrwt>0</asrwt>
<pdfrwt beam="1">  1        2 0.38878948E-01 0.27500061E+03</pdfrwt>
<pdfrwt beam="2">  1       -2 0.11509756E-01 0.27500061E+03</pdfrwt>
<totfact> 0.69201880E+03</totfact>
</mgrwt>
</event>
<event>
 9    1  0.2117506E-002  0.2749591E+03  0.7818608E-02  0.1098474E+00
          2   -1    0    0  501    0  0.00000000000E+00  0.00000000000E+00  0.15758815962E+04  0.15758815962E+04  0.00000000000E+00 0. -1.
         -2   -1    0    0    0  501 -0.00000000000E+00 -0.00000000000E+00 -0.11993681296E+02  0.11993681296E+02  0.00000000000E+00 0. -1.
         36    2    1    2    0    0  0.35527136788E-14  0.00000000000E+00  0.15638879149E+04  0.15878752775E+04  0.27495906332E+03 0.  0.
         25    2    3    3    0    0  0.26814946555E+02 -0.39860304667E+02  0.94588920816E+03  0.95608993843E+03  0.13074284302E+03 0.  0.
         25    2    3    3    0    0 -0.26814946555E+02  0.39860304667E+02  0.61799870678E+03  0.63178533910E+03  0.12215738979E+03 0.  0.
          5    1    4    4  502    0  0.31898397816E+02 -0.43972231153E+02  0.14123010253E+03  0.15139054382E+03  0.47000000000E+01 0.  1.
         -5    1    4    4    0  502 -0.50834512610E+01  0.41119264859E+01  0.80465910563E+03  0.80469939461E+03  0.47000000000E+01 0.  1.
          5    1    5    5  503    0  0.38500595600E+02  0.66561985750E+01  0.39621186696E+03  0.39816144258E+03  0.47000000000E+01 0.  1.
         -5    1    5    5    0  503 -0.65315542154E+02  0.33204106092E+02  0.22178683982E+03  0.23362389652E+03  0.47000000000E+01 0.  1.
<mgrwt>
<rscale>  0 0.27495906E+03</rscale>
<asrwt>0</asrwt>
<pdfrwt beam="1">  1        2 0.24244316E+00 0.27495906E+03</pdfrwt>
<pdfrwt beam="2">  1       -2 0.18451830E-02 0.27495906E+03</pdfrwt>
<totfact> 0.10818492E+04</totfact>
</mgrwt>
</event>
<event>
 9    1  0.2117506E-002  0.2790054E+03  0.7818608E-02  0.1096233E+00
          1   -1    0    0  501    0  0.00000000000E+00  0.00000000000E+00  0.27273373273E+03  0.27273373273E+03  0.00000000000E+00 0.  1.
         -1   -1    0    0    0  501 -0.00000000000E+00 -0.00000000000E+00 -0.71355310206E+02  0.71355310206E+02  0.00000000000E+00 0.  1.
         36    2    1    2    0    0 -0.14210854715E-13 -0.14210854715E-13  0.20137842252E+03  0.34408904293E+03  0.27900537703E+03 0.  0.
         25    2    3    3    0    0  0.31737841221E+02  0.51097105449E+02  0.10527125528E+03  0.17364368225E+03  0.12430561711E+03 0.  0.
         25    2    3    3    0    0 -0.31737841221E+02 -0.51097105449E+02  0.96107167247E+02  0.17044536069E+03  0.12726676170E+03 0.  0.
          5    1    4    4  502    0 -0.42353098646E+02 -0.38233009571E+01  0.50850288543E+02  0.66454830072E+02  0.47000000000E+01 0. -1.
         -5    1    4    4    0  502  0.74090939866E+02  0.54920406406E+02  0.54420966733E+02  0.10718885217E+03  0.47000000000E+01 0. -1.
          5    1    5    5  503    0  0.48735154483E+02 -0.91041196796E+01  0.36660017589E+02  0.61838880708E+02  0.47000000000E+01 0.  1.
         -5    1    5    5    0  503 -0.80472995703E+02 -0.41992985769E+02  0.59447149658E+02  0.10860647998E+03  0.47000000000E+01 0.  1.
<mgrwt>
<rscale>  0 0.27900538E+03</rscale>
<asrwt>0</asrwt>
<pdfrwt beam="1">  1        1 0.41959035E-01 0.27900538E+03</pdfrwt>
<pdfrwt beam="2">  1       -1 0.10977740E-01 0.27900538E+03</pdfrwt>
<totfact> 0.51794742E+03</totfact>
</mgrwt>
</event>
<event>
 9    1  0.2117506E-002  0.2756271E+03  0.7818608E-02  0.1098102E+00
         -2   -1    0    0    0  501 -0.00000000000E+00  0.00000000000E+00  0.18030695350E+02  0.18030695350E+02  0.00000000000E+00 0.  1.
          2   -1    0    0  501    0  0.00000000000E+00 -0.00000000000E+00 -0.10533467685E+04  0.10533467685E+04  0.00000000000E+00 0.  1.
         36    2    1    2    0    0 -0.35527136788E-14  0.00000000000E+00 -0.10353160731E+04  0.10713774638E+04  0.27562710084E+03 0.  0.
         25    2    3    3    0    0 -0.29253630871E+02 -0.49084614239E+02 -0.38143925510E+03  0.40292894987E+03  0.11657941088E+03 0.  0.
         25    2    3    3    0    0  0.29253630871E+02  0.49084614239E+02 -0.65387681801E+03  0.66844851394E+03  0.12650473658E+03 0.  0.
          5    1    4    4  502    0 -0.47788282998E+02 -0.35787714614E+02 -0.37357801418E+03  0.37834786003E+03  0.47000000000E+01 0. -1.
         -5    1    4    4    0  502  0.18534652127E+02 -0.13296899625E+02 -0.78612409170E+01  0.24581089843E+02  0.47000000000E+01 0. -1.
          5    1    5    5  503    0 -0.64221053010E+00  0.21004626264E+02 -0.10877074256E+02  0.24124831672E+02  0.47000000000E+01 0. -1.
         -5    1    5    5    0  503  0.29895841401E+02  0.28079987976E+02 -0.64299974375E+03  0.64432368226E+03  0.47000000000E+01 0. -1.
<mgrwt>
<rscale>  0 0.27562710E+03</rscale>
<asrwt>0</asrwt>
<pdfrwt beam="1">  1        2 0.16205335E+00 0.27562710E+03</pdfrwt>
<pdfrwt beam="2">  1       -2 0.27739531E-02 0.27562710E+03</pdfrwt>
<totfact> 0.11573480E+04</totfact>
</mgrwt>
</event>
<event>
 9    1  0.2117506E-002  0.2756371E+03  0.7818608E-02  0.1098096E+00
         -1   -1    0    0    0  501 -0.00000000000E+00  0.00000000000E+00  0.14380298509E+03  0.14380298509E+03  0.00000000000E+00 0.  1.
          1   -1    0    0  501    0  0.00000000000E+00 -0.00000000000E+00 -0.13208317952E+03  0.13208317952E+03  0.00000000000E+00 0.  1.
         36    2    1    2    0    0 -0.71054273576E-14 -0.35527136788E-14  0.11719805571E+02  0.27588616461E+03  0.27563712011E+03 0.  0.
         25    2    3    3    0    0 -0.59894127183E+02 -0.14002649121E+02  0.10148137892E+02  0.13876563621E+03  0.12397393450E+03 0.  0.
         25    2    3    3    0    0  0.59894127183E+02  0.14002649121E+02  0.15716676787E+01  0.13712052840E+03  0.12254055866E+03 0.  0.
          5    1    4    4  502    0 -0.45619409870E+02  0.18059599977E+02  0.59980363263E+02  0.77633843685E+02  0.47000000000E+01 0. -1.
         -5    1    4    4    0  502 -0.14274717313E+02 -0.32062249098E+02 -0.49832225371E+02  0.61131792522E+02  0.47000000000E+01 0. -1.
          5    1    5    5  503    0  0.11544159624E+02 -0.50197922080E+02  0.18353656944E+02  0.54882107520E+02  0.47000000000E+01 0.  1.
         -5    1    5    5    0  503  0.48349967559E+02  0.64200571201E+02 -0.16781989266E+02  0.82238420882E+02  0.47000000000E+01 0.  1.
<mgrwt>
<rscale>  0 0.27563712E+03</rscale>
<asrwt>0</asrwt>
<pdfrwt beam="1">  1        1 0.20320489E-01 0.27563712E+03</pdfrwt>
<pdfrwt beam="2">  1       -1 0.22123536E-01 0.27563712E+03</pdfrwt>
<totfact> 0.42446399E+03</totfact>
</mgrwt>
</event>
<event>
 9    1  0.2117506E-002  0.2758296E+03  0.7818608E-02  0.1097989E+00
          1   -1    0    0  501    0  0.00000000000E+00  0.00000000000E+00  0.10796311706E+03  0.10796311706E+03  0.00000000000E+00 0. -1.
         -1   -1    0    0    0  501 -0.00000000000E+00 -0.00000000000E+00 -0.17617588276E+03  0.17617588276E+03  0.00000000000E+00 0. -1.
         36    2    1    2    0    0  0.00000000000E+00  0.00000000000E+00 -0.68212765696E+02  0.28413899981E+03  0.27582963911E+03 0.  0.
         25    2    3    3    0    0  0.40604496007E+02 -0.45298877095E+01 -0.76379341075E+02  0.15137394970E+03  0.12414114517E+03 0.  0.
         25    2    3    3    0    0 -0.40604496007E+02  0.45298877095E+01  0.81665753793E+01  0.13276505012E+03  0.12605800490E+03 0.  0.
          5    1    4    4  502    0  0.41978278521E+02 -0.22448339696E+01 -0.10972346202E+03  0.11759482670E+03  0.47000000000E+01 0. -1.
         -5    1    4    4    0  502 -0.13737825144E+01 -0.22850537399E+01  0.33344120948E+02  0.33779123002E+02  0.47000000000E+01 0. -1.
          5    1    5    5  503    0 -0.21583674080E+02 -0.14310978653E+02 -0.56657549678E+02  0.62472610257E+02  0.47000000000E+01 0.  1.
         -5    1    5    5    0  503 -0.19020821927E+02  0.18840866362E+02  0.64824125057E+02  0.70292439860E+02  0.47000000000E+01 0.  1.
<mgrwt>
<rscale>  0 0.27582964E+03</rscale>
<asrwt>0</asrwt>
<pdfrwt beam="1">  1        1 0.16609710E-01 0.27582964E+03</pdfrwt>
<pdfrwt beam="2">  1       -1 0.27103982E-01 0.27582964E+03</pdfrwt>
<totfact> 0.39350140E+03</totfact>
</mgrwt>
</event>
<event>
 9    1  0.2117506E-002  0.2747935E+03  0.7818608E-02  0.1098567E+00
         -1   -1    0    0    0  501 -0.00000000000E+00  0.00000000000E+00  0.34886985370E+02  0.34886985370E+02  0.00000000000E+00 0. -1.
          1   -1    0    0  501    0  0.00000000000E+00 -0.00000000000E+00 -0.54111507371E+03  0.54111507371E+03  0.00000000000E+00 0. -1.
         36    2    1    2    0    0  0.00000000000E+00  0.88817841970E-15 -0.50622808834E+03  0.57600205908E+03  0.27479354912E+03 0.  0.
         25    2    3    3    0    0 -0.46054923008E+02 -0.69806872689E+01 -0.18810197841E+03  0.23181123279E+03  0.12721755947E+03 0.  0.
         25    2    3    3    0    0  0.46054923008E+02  0.69806872689E+01 -0.31812610992E+03  0.34419082628E+03  0.12285486216E+03 0.  0.
          5    1    4    4  502    0  0.39528132426E+02  0.20595345089E+02 -0.52364541867E+02  0.68925878575E+02  0.47000000000E+01 0. -1.
         -5    1    4    4    0  502 -0.85583055434E+02 -0.27576032358E+02 -0.13573743655E+03  0.16288535422E+03  0.47000000000E+01 0. -1.
          5    1    5    5  503    0 -0.31903083279E+02  0.13879377030E+01 -0.25111937563E+02  0.40895384848E+02  0.47000000000E+01 0.  1.
         -5    1    5    5    0  503  0.77958006287E+02  0.55927495660E+01 -0.29301417236E+03  0.30329544144E+03  0.47000000000E+01 0.  1.
<mgrwt>
<rscale>  0 0.27479355E+03</rscale>
<asrwt>0</asrwt>
<pdfrwt beam="1">  1        1 0.83248466E-01 0.27479355E+03</pdfrwt>
<pdfrwt beam="2">  1       -1 0.53672290E-02 0.27479355E+03</pdfrwt>
<totfact> 0.63894416E+03</totfact>
</mgrwt>
</event>
<event>
 9    1  0.2117506E-002  0.2706813E+03  0.7818608E-02  0.1100890E+00
         -2   -1    0    0    0  501 -0.00000000000E+00  0.00000000000E+00  0.35353711430E+02  0.35353711430E+02  0.00000000000E+00 0. -1.
          2   -1    0    0  501    0  0.00000000000E+00 -0.00000000000E+00 -0.51810962514E+03  0.51810962514E+03  0.00000000000E+00 0. -1.
         36    2    1    2    0    0 -0.53290705182E-14  0.71054273576E-14 -0.48275591371E+03  0.55346333657E+03  0.27068134902E+03 0.  0.
         25    2    3    3    0    0 -0.13571656851E+02  0.51091529491E+02 -0.24546327279E+03  0.27991966551E+03  0.12372658000E+03 0.  0.
         25    2    3    3    0    0  0.13571656851E+02 -0.51091529491E+02 -0.23729264092E+03  0.27354367106E+03  0.12539461027E+03 0.  0.
          5    1    4    4  502    0  0.47655980668E+02  0.54075055806E+02 -0.11695282220E+03  0.13746001882E+03  0.47000000000E+01 0. -1.
         -5    1    4    4    0  502 -0.61227637519E+02 -0.29835263149E+01 -0.12851045059E+03  0.14245964669E+03  0.47000000000E+01 0. -1.
          5    1    5    5  503    0 -0.81574197537E+01  0.31375510034E+02 -0.16236127064E+02  0.36560469758E+02  0.47000000000E+01 0. -1.
         -5    1    5    5    0  503  0.21729076605E+02 -0.82467039525E+02 -0.22105651386E+03  0.23698320130E+03  0.47000000000E+01 0. -1.
<mgrwt>
<rscale>  0 0.27068135E+03</rscale>
<asrwt>0</asrwt>
<pdfrwt beam="1">  1        2 0.79709171E-01 0.27068135E+03</pdfrwt>
<pdfrwt beam="2">  1       -2 0.54390327E-02 0.27068135E+03</pdfrwt>
<totfact> 0.10224686E+04</totfact>
</mgrwt>
</event>
<event>
 9    1  0.2117506E-002  0.2752146E+03  0.7818608E-02  0.1098332E+00
         -4   -1    0    0    0  501 -0.00000000000E+00  0.00000000000E+00  0.14470193998E+02  0.14470193998E+02  0.00000000000E+00 0. -1.
          4   -1    0    0  501    0  0.00000000000E+00 -0.00000000000E+00 -0.13086052920E+04  0.13086052920E+04  0.00000000000E+00 0. -1.
         36    2    1    2    0    0  0.00000000000E+00  0.71054273576E-14 -0.12941350980E+04  0.13230754859E+04  0.27521462492E+03 0.  0.
         25    2    3    3    0    0 -0.31336113047E+02 -0.40742248917E+02 -0.54948122187E+03  0.56585091403E+03  0.12496303811E+03 0.  0.
         25    2    3    3    0    0  0.31336113047E+02  0.40742248917E+02 -0.74465387608E+03  0.75722457192E+03  0.12742752578E+03 0.  0.
          5    1    4    4  502    0 -0.56055425956E+02 -0.62088045397E+01 -0.10465246624E+03  0.11897473985E+03  0.47000000000E+01 0. -1.
         -5    1    4    4    0  502  0.24719312908E+02 -0.34533444377E+02 -0.44482875564E+03  0.44687617418E+03  0.47000000000E+01 0. -1.
          5    1    5    5  503    0  0.36810575036E+02  0.20348295067E+02 -0.67142902402E+02  0.79368324220E+02  0.47000000000E+01 0. -1.
         -5    1    5    5    0  503 -0.54744619881E+01  0.20393953850E+02 -0.67751097368E+03  0.67785624770E+03  0.47000000000E+01 0. -1.
<mgrwt>
<rscale>  0 0.27521462E+03</rscale>
<asrwt>0</asrwt>
<pdfrwt beam="1">  1        4 0.20132397E+00 0.27521462E+03</pdfrwt>
<pdfrwt beam="2">  1       -4 0.22261828E-02 0.27521462E+03</pdfrwt>
<totfact> 0.22725451E+02</totfact>
</mgrwt>
</event>
<event>
 9    1  0.2117506E-002  0.2727348E+03  0.7818608E-02  0.1099725E+00
          2   -1    0    0  501    0  0.00000000000E+00  0.00000000000E+00  0.21703525361E+02  0.21703525361E+02  0.00000000000E+00 0.  1.
         -2   -1    0    0    0  501 -0.00000000000E+00 -0.00000000000E+00 -0.85682214566E+03  0.85682214566E+03  0.00000000000E+00 0.  1.
         36    2    1    2    0    0  0.00000000000E+00 -0.35527136788E-14 -0.83511862029E+03  0.87852567102E+03  0.27273475150E+03 0.  0.
         25    2    3    3    0    0  0.36724751916E+02  0.13700446817E+02 -0.51106274498E+03  0.52851094704E+03  0.12884984360E+03 0.  0.
         25    2    3    3    0    0 -0.36724751916E+02 -0.13700446817E+02 -0.32405587532E+03  0.35001472397E+03  0.12633957030E+03 0.  0.
          5    1    4    4  502    0  0.70170543472E+02  0.48385601328E+02 -0.29580190425E+03  0.30787323389E+03  0.47000000000E+01 0. -1.
         -5    1    4    4    0  502 -0.33445791556E+02 -0.34685154511E+02 -0.21526084073E+03  0.22063771316E+03  0.47000000000E+01 0. -1.
          5    1    5    5  503    0  0.38677960638E+02 -0.36103917847E+02 -0.11797961949E+03  0.12938608170E+03  0.47000000000E+01 0. -1.
         -5    1    5    5    0  503 -0.75402712554E+02  0.22403471030E+02 -0.20607625583E+03  0.22062864228E+03  0.47000000000E+01 0. -1.
<mgrwt>
<rscale>  0 0.27273475E+03</rscale>
<asrwt>0</asrwt>
<pdfrwt beam="1">  1        2 0.33390036E-02 0.27273475E+03</pdfrwt>
<pdfrwt beam="2">  1       -2 0.13181880E+00 0.27273475E+03</pdfrwt>
<totfact> 0.11920511E+03</totfact>
</mgrwt>
</event>
<event>
 9    1  0.2117506E-002  0.2752156E+03  0.7818608E-02  0.1098331E+00
          2   -1    0    0  501    0  0.00000000000E+00  0.00000000000E+00  0.12563388442E+03  0.12563388442E+03  0.00000000000E+00 0. -1.
         -2   -1    0    0    0  501 -0.00000000000E+00 -0.00000000000E+00 -0.15072287991E+03  0.15072287991E+03  0.00000000000E+00 0. -1.
         36    2    1    2    0    0  0.00000000000E+00  0.00000000000E+00 -0.25088995493E+02  0.27635676433E+03  0.27521555824E+03 0.  0.
         25    2    3    3    0    0 -0.11452560097E+02 -0.13045559196E+02 -0.31673944917E+01  0.15020291494E+03  0.14916278195E+03 0.  0.
         25    2    3    3    0    0  0.11452560097E+02  0.13045559196E+02 -0.21921601002E+02  0.12615384940E+03  0.12301580947E+03 0.  0.
          5    1    4    4  502    0 -0.74669104720E+02 -0.69798380226E+01 -0.30250623193E+02  0.81002367509E+02  0.47000000000E+01 0.  1.
         -5    1    4    4    0  502  0.63216544623E+02 -0.60657211732E+01  0.27083228701E+02  0.69200547427E+02  0.47000000000E+01 0.  1.
          5    1    5    5  503    0  0.13558056168E+02 -0.22311878008E+02  0.43880896722E+02  0.51276348197E+02  0.47000000000E+01 0. -1.
         -5    1    5    5    0  503 -0.21054960710E+01  0.35357437204E+02 -0.65802497724E+02  0.74877501201E+02  0.47000000000E+01 0. -1.
<mgrwt>
<rscale>  0 0.27521556E+03</rscale>
<asrwt>0</asrwt>
<pdfrwt beam="1">  1        2 0.19328290E-01 0.27521556E+03</pdfrwt>
<pdfrwt beam="2">  1       -2 0.23188135E-01 0.27521556E+03</pdfrwt>
<totfact> 0.46620481E+03</totfact>
</mgrwt>
</event>
<event>
 9    1  0.2117506E-002  0.2747639E+03  0.7818608E-02  0.1098584E+00
         -2   -1    0    0    0  501 -0.00000000000E+00  0.00000000000E+00  0.55105826195E+02  0.55105826195E+02  0.00000000000E+00 0. -1.
          2   -1    0    0  501    0  0.00000000000E+00 -0.00000000000E+00 -0.34250090589E+03  0.34250090589E+03  0.00000000000E+00 0. -1.
         36    2    1    2    0    0 -0.14210854715E-13  0.35527136788E-14 -0.28739507969E+03  0.39760673208E+03  0.27476386510E+03 0.  0.
         25    2    3    3    0    0 -0.50105499649E+02  0.76025703476E+01 -0.11573649699E+03  0.17940962755E+03  0.12737549824E+03 0.  0.
         25    2    3    3    0    0  0.50105499649E+02 -0.76025703476E+01 -0.17165858271E+03  0.21819710454E+03  0.12479962837E+03 0.  0.
          5    1    4    4  502    0 -0.32687148766E+02  0.42887511801E+02  0.30227470376E+01  0.54212686362E+02  0.47000000000E+01 0. -1.
         -5    1    4    4    0  502 -0.17418350883E+02 -0.35284941453E+02 -0.11875924403E+03  0.12519694119E+03  0.47000000000E+01 0. -1.
          5    1    5    5  503    0  0.95443478676E+01  0.11021888728E+02 -0.17262878839E+03  0.17330714119E+03  0.47000000000E+01 0.  1.
         -5    1    5    5    0  503  0.40561151782E+02 -0.18624459076E+02  0.97020568540E+00  0.44889963342E+02  0.47000000000E+01 0.  1.
<mgrwt>
<rscale>  0 0.27476387E+03</rscale>
<asrwt>0</asrwt>
<pdfrwt beam="1">  1        2 0.52692449E-01 0.27476387E+03</pdfrwt>
<pdfrwt beam="2">  1       -2 0.84778192E-02 0.27476387E+03</pdfrwt>
<totfact> 0.81066301E+03</totfact>
</mgrwt>
</event>
<event>
 9    1  0.2117506E-002  0.2749892E+03  0.7818608E-02  0.1098458E+00
          2   -1    0    0  501    0  0.00000000000E+00  0.00000000000E+00  0.30549917901E+04  0.30549917901E+04  0.00000000000E+00 0.  1.
         -2   -1    0    0    0  501 -0.00000000000E+00 -0.00000000000E+00 -0.61881555826E+01  0.61881555826E+01  0.00000000000E+00 0.  1.
         36    2    1    2    0    0 -0.17763568394E-14  0.00000000000E+00  0.30488036345E+04  0.30611799457E+04  0.27498919616E+03 0.  0.
         25    2    3    3    0    0 -0.33161786513E+01 -0.41623276809E+02  0.12612672306E+04  0.12684370208E+04  0.12803887898E+03 0.  0.
         25    2    3    3    0    0  0.33161786513E+01  0.41623276809E+02  0.17875364039E+04  0.17927429249E+04  0.12998963491E+03 0.  0.
          5    1    4    4  502    0  0.32938728275E+02  0.17027340034E+02  0.13579453462E+03  0.14084436716E+03  0.47000000000E+01 0. -1.
         -5    1    4    4    0  502 -0.36254906927E+02 -0.58650616843E+02  0.11254726960E+04  0.11275926536E+04  0.47000000000E+01 0. -1.
          5    1    5    5  503    0 -0.10615341874E+02  0.77447495293E+02  0.15576844678E+04  0.15596518173E+04  0.47000000000E+01 0. -1.
         -5    1    5    5    0  503  0.13931520526E+02 -0.35824218484E+02  0.22985193611E+03  0.23309110757E+03  0.47000000000E+01 0. -1.
<mgrwt>
<rscale>  0 0.27498920E+03</rscale>
<asrwt>0</asrwt>
<pdfrwt beam="1">  1        2 0.46999753E+00 0.27498920E+03</pdfrwt>
<pdfrwt beam="2">  1       -2 0.95202637E-03 0.27498920E+03</pdfrwt>
<totfact> 0.44245441E+03</totfact>
</mgrwt>
</event>
<event>
 9    1  0.2117506E-002  0.2753762E+03  0.7818608E-02  0.1098241E+00
          1   -1    0    0  501    0  0.00000000000E+00  0.00000000000E+00  0.42385156550E+03  0.42385156550E+03  0.00000000000E+00 0. -1.
         -1   -1    0    0    0  501 -0.00000000000E+00 -0.00000000000E+00 -0.44727963710E+02  0.44727963710E+02  0.00000000000E+00 0. -1.
         36    2    1    2    0    0  0.71054273576E-14  0.00000000000E+00  0.37912360179E+03  0.46857952921E+03  0.27537623311E+03 0.  0.
         25    2    3    3    0    0  0.45920616373E+02 -0.17536392366E+02  0.23619893157E+03  0.27118952241E+03  0.12384503916E+03 0.  0.
         25    2    3    3    0    0 -0.45920616373E+02  0.17536392366E+02  0.14292467023E+03  0.19739000681E+03  0.12696111752E+03 0.  0.
          5    1    4    4  502    0  0.58764545387E+02  0.57508480818E+01  0.36290976933E+02  0.69465596197E+02  0.47000000000E+01 0. -1.
         -5    1    4    4    0  502 -0.12843929014E+02 -0.23287240447E+02  0.19990795463E+03  0.20172392621E+03  0.47000000000E+01 0. -1.
          5    1    5    5  503    0 -0.86327922923E+02  0.24570917393E+02  0.12074805731E+03  0.15052715237E+03  0.47000000000E+01 0.  1.
         -5    1    5    5    0  503  0.40407306551E+02 -0.70345250275E+01  0.22176612920E+02  0.46862854433E+02  0.47000000000E+01 0.  1.
<mgrwt>
<rscale>  0 0.27537623E+03</rscale>
<asrwt>0</asrwt>
<pdfrwt beam="1">  1        1 0.65207931E-01 0.27537623E+03</pdfrwt>
<pdfrwt beam="2">  1       -1 0.68812254E-02 0.27537623E+03</pdfrwt>
<totfact> 0.60610119E+03</totfact>
</mgrwt>
</event>
<event>
 9    1  0.2117506E-002  0.2747992E+03  0.7818608E-02  0.1098564E+00
          1   -1    0    0  501    0  0.00000000000E+00  0.00000000000E+00  0.10621783159E+04  0.10621783159E+04  0.00000000000E+00 0. -1.
         -1   -1    0    0    0  501 -0.00000000000E+00 -0.00000000000E+00 -0.17773522288E+02  0.17773522288E+02  0.00000000000E+00 0. -1.
         36    2    1    2    0    0  0.00000000000E+00  0.14210854715E-13  0.10444047936E+04  0.10799518382E+04  0.27479919921E+03 0.  0.
         25    2    3    3    0    0  0.33099111712E+02  0.43792205709E+02  0.56178076622E+03  0.57805817129E+03  0.12466078623E+03 0.  0.
         25    2    3    3    0    0 -0.33099111712E+02 -0.43792205709E+02  0.48262402738E+03  0.50189366689E+03  0.12632494837E+03 0.  0.
          5    1    4    4  502    0 -0.41794809652E+02  0.42711383744E+02  0.28837215246E+03  0.29453634195E+03  0.47000000000E+01 0.  1.
         -5    1    4    4    0  502  0.74893921364E+02  0.10808219651E+01  0.27340861376E+03  0.28352182934E+03  0.47000000000E+01 0.  1.
          5    1    5    5  503    0  0.46113175277E+02 -0.34610860884E+02  0.20020794565E+03  0.20839781219E+03  0.47000000000E+01 0.  1.
         -5    1    5    5    0  503 -0.79212286989E+02 -0.91813448245E+01  0.28241608174E+03  0.29349585470E+03  0.47000000000E+01 0.  1.
<mgrwt>
<rscale>  0 0.27479920E+03</rscale>
<asrwt>0</asrwt>
<pdfrwt beam="1">  1        1 0.16341200E+00 0.27479920E+03</pdfrwt>
<pdfrwt beam="2">  1       -1 0.27343889E-02 0.27479920E+03</pdfrwt>
<totfact> 0.62170813E+03</totfact>
</mgrwt>
</event>
<event>
 9    1  0.2117506E-002  0.2741251E+03  0.7818608E-02  0.1098942E+00
         -2   -1    0    0    0  501 -0.00000000000E+00  0.00000000000E+00  0.49920331600E+01  0.49920331600E+01  0.00000000000E+00 0.  1.
          2   -1    0    0  501    0  0.00000000000E+00 -0.00000000000E+00 -0.37632255975E+04  0.37632255975E+04  0.00000000000E+00 0.  1.
         36    2    1    2    0    0  0.71054273576E-14 -0.71054273576E-14 -0.37582335643E+04  0.37682176307E+04  0.27412513180E+03 0.  0.
         25    2    3    3    0    0  0.37041933020E+02 -0.43086123793E+02 -0.17832154995E+04  0.17884657705E+04  0.12459444500E+03 0.  0.
         25    2    3    3    0    0 -0.37041933020E+02  0.43086123793E+02 -0.19750180649E+04  0.19797518602E+04  0.12446908250E+03 0.  0.
          5    1    4    4  502    0  0.54931906700E+02  0.13083370786E+02 -0.13552205156E+04  0.13564045949E+04  0.47000000000E+01 0.  1.
         -5    1    4    4    0  502 -0.17889973680E+02 -0.56169494579E+02 -0.42799498384E+03  0.43206117562E+03  0.47000000000E+01 0.  1.
          5    1    5    5  503    0 -0.40914177237E+02  0.82370049935E+02 -0.11069971191E+04  0.11108210957E+04  0.47000000000E+01 0. -1.
         -5    1    5    5    0  503  0.38722442172E+01 -0.39283926143E+02 -0.86802094578E+03  0.86893076447E+03  0.47000000000E+01 0. -1.
<mgrwt>
<rscale>  0 0.27412513E+03</rscale>
<asrwt>0</asrwt>
<pdfrwt beam="1">  1        2 0.57895902E+00 0.27412513E+03</pdfrwt>
<pdfrwt beam="2">  1       -2 0.76800346E-03 0.27412513E+03</pdfrwt>
<totfact> 0.20920374E+03</totfact>
</mgrwt>
</event>
<event>
 9    1  0.2117506E-002  0.2790073E+03  0.7818608E-02  0.1096232E+00
          1   -1    0    0  501    0  0.00000000000E+00  0.00000000000E+00  0.61487688886E+03  0.61487688886E+03  0.00000000000E+00 0.  1.
         -1   -1    0    0    0  501 -0.00000000000E+00 -0.00000000000E+00 -0.31650668406E+02  0.31650668406E+02  0.00000000000E+00 0.  1.
         36    2    1    2    0    0  0.00000000000E+00  0.00000000000E+00  0.58322622046E+03  0.64652755727E+03  0.27900727245E+03 0.  0.
         25    2    3    3    0    0  0.41953230425E+02 -0.27979507543E+02  0.38409691386E+03  0.40731332147E+03  0.12582041260E+03 0.  0.
         25    2    3    3    0    0 -0.41953230425E+02  0.27979507543E+02  0.19912930660E+03  0.23921423580E+03  0.12258892069E+03 0.  0.
          5    1    4    4  502    0  0.34062678490E+02  0.32824488056E+02  0.55786238270E+02  0.73293297527E+02  0.47000000000E+01 0. -1.
         -5    1    4    4    0  502  0.78905519351E+01 -0.60803995599E+02  0.32831067559E+03  0.33402002395E+03  0.47000000000E+01 0. -1.
          5    1    5    5  503    0 -0.87188150399E+01  0.48105782982E+02  0.19354683168E+03  0.19968137155E+03  0.47000000000E+01 0. -1.
         -5    1    5    5    0  503 -0.33234415385E+02 -0.20126275439E+02  0.55824749168E+01  0.39532864243E+02  0.47000000000E+01 0. -1.
<mgrwt>
<rscale>  0 0.27900727E+03</rscale>
<asrwt>0</asrwt>
<pdfrwt beam="1">  1        1 0.94596436E-01 0.27900727E+03</pdfrwt>
<pdfrwt beam="2">  1       -1 0.48693341E-02 0.27900727E+03</pdfrwt>
<totfact> 0.62052423E+03</totfact>
</mgrwt>
</event>
<event>
 9    1  0.2117506E-002  0.2745302E+03  0.7818608E-02  0.1098714E+00
          2   -1    0    0  501    0  0.00000000000E+00  0.00000000000E+00  0.53491452745E+03  0.53491452745E+03  0.00000000000E+00 0. -1.
         -2   -1    0    0    0  501 -0.00000000000E+00 -0.00000000000E+00 -0.35223777720E+02  0.35223777720E+02  0.00000000000E+00 0. -1.
         36    2    1    2    0    0  0.35527136788E-14  0.00000000000E+00  0.49969074973E+03  0.57013830517E+03  0.27453021994E+03 0.  0.
         25    2    3    3    0    0  0.10895929861E+02 -0.26895419118E+02  0.34403581207E+03  0.36825417837E+03  0.12809533574E+03 0.  0.
         25    2    3    3    0    0 -0.10895929861E+02  0.26895419118E+02  0.15565493766E+03  0.20188412681E+03  0.12524638191E+03 0.  0.
          5    1    4    4  502    0  0.73130933134E+01 -0.71696170896E+02  0.12290791137E+03  0.14255618868E+03  0.47000000000E+01 0.  1.
         -5    1    4    4    0  502  0.35828365476E+01  0.44800751778E+02  0.22112790070E+03  0.22569798968E+03  0.47000000000E+01 0.  1.
          5    1    5    5  503    0 -0.23113069863E+02 -0.35562339394E+02  0.11438180766E+02  0.44179361255E+02  0.47000000000E+01 0. -1.
         -5    1    5    5    0  503  0.12217140002E+02  0.62457758513E+02  0.14421675690E+03  0.15770476555E+03  0.47000000000E+01 0. -1.
<mgrwt>
<rscale>  0 0.27453022E+03</rscale>
<asrwt>0</asrwt>
<pdfrwt beam="1">  1        2 0.82294537E-01 0.27453022E+03</pdfrwt>
<pdfrwt beam="2">  1       -2 0.54190431E-02 0.27453022E+03</pdfrwt>
<totfact> 0.99238187E+03</totfact>
</mgrwt>
</event>
<event>
 9    1  0.2117506E-002  0.2786374E+03  0.7818608E-02  0.1096435E+00
          2   -1    0    0  501    0  0.00000000000E+00  0.00000000000E+00  0.13659018692E+03  0.13659018692E+03  0.00000000000E+00 0. -1.
         -2   -1    0    0    0  501 -0.00000000000E+00 -0.00000000000E+00 -0.14210174058E+03  0.14210174058E+03  0.00000000000E+00 0. -1.
         36    2    1    2    0    0  0.00000000000E+00  0.35527136788E-14 -0.55115536555E+01  0.27869192750E+03  0.27863742252E+03 0.  0.
         25    2    3    3    0    0  0.60291468693E+02 -0.21021635853E+02 -0.55797979363E+01  0.13643759733E+03  0.12044547915E+03 0.  0.
         25    2    3    3    0    0 -0.60291468693E+02  0.21021635853E+02  0.68244280817E-01  0.14225433017E+03  0.12711931177E+03 0.  0.
          5    1    4    4  502    0  0.58233289133E+02  0.37941034957E+02  0.19223019444E+02  0.72265154628E+02  0.47000000000E+01 0.  1.
         -5    1    4    4    0  502  0.20581795599E+01 -0.58962670810E+02 -0.24802817381E+02  0.64172442700E+02  0.47000000000E+01 0.  1.
          5    1    5    5  503    0 -0.88053970982E+02 -0.17408191046E+02 -0.17327812448E+02  0.91536276991E+02  0.47000000000E+01 0. -1.
         -5    1    5    5    0  503  0.27762502288E+02  0.38429826899E+02  0.17396056728E+02  0.50718053181E+02  0.47000000000E+01 0. -1.
<mgrwt>
<rscale>  0 0.27863742E+03</rscale>
<asrwt>0</asrwt>
<pdfrwt beam="1">  1        2 0.21013875E-01 0.27863742E+03</pdfrwt>
<pdfrwt beam="2">  1       -2 0.21861806E-01 0.27863742E+03</pdfrwt>
<totfact> 0.46954350E+03</totfact>
</mgrwt>
</event>
<event>
 9    1  0.2117506E-002  0.2817434E+03  0.7818608E-02  0.1094741E+00
          1   -1    0    0  501    0  0.00000000000E+00  0.00000000000E+00  0.11317838318E+04  0.11317838318E+04  0.00000000000E+00 0.  1.
         -1   -1    0    0    0  501 -0.00000000000E+00 -0.00000000000E+00 -0.17534125997E+02  0.17534125997E+02  0.00000000000E+00 0.  1.
         36    2    1    2    0    0  0.71054273576E-14  0.00000000000E+00  0.11142497058E+04  0.11493179577E+04  0.28174343156E+03 0.  0.
         25    2    3    3    0    0 -0.63655140274E+02 -0.33455379550E+02  0.57661445819E+03  0.59281837632E+03  0.11738038422E+03 0.  0.
         25    2    3    3    0    0  0.63655140274E+02  0.33455379550E+02  0.53763524756E+03  0.55649958143E+03  0.12437397399E+03 0.  0.
          5    1    4    4  502    0 -0.84245415378E+02  0.12558948568E+02  0.40524333589E+03  0.41412470162E+03  0.47000000000E+01 0. -1.
         -5    1    4    4    0  502  0.20590275103E+02 -0.46014328118E+02  0.17137112230E+03  0.17869367470E+03  0.47000000000E+01 0. -1.
          5    1    5    5  503    0  0.18381045105E+02  0.71016199857E+02  0.40074142823E+03  0.40742722757E+03  0.47000000000E+01 0.  1.
         -5    1    5    5    0  503  0.45274095169E+02 -0.37560820307E+02  0.13689381933E+03  0.14907235386E+03  0.47000000000E+01 0.  1.
<mgrwt>
<rscale>  0 0.28174343E+03</rscale>
<asrwt>0</asrwt>
<pdfrwt beam="1">  1        1 0.17412053E+00 0.28174343E+03</pdfrwt>
<pdfrwt beam="2">  1       -1 0.26975587E-02 0.28174343E+03</pdfrwt>
<totfact> 0.56519144E+03</totfact>
</mgrwt>
</event>
<event>
 9    1  0.2117506E-002  0.2745719E+03  0.7818608E-02  0.1098691E+00
          2   -1    0    0  501    0  0.00000000000E+00  0.00000000000E+00  0.37500600105E+03  0.37500600105E+03  0.00000000000E+00 0. -1.
         -2   -1    0    0    0  501 -0.00000000000E+00 -0.00000000000E+00 -0.50259000211E+02  0.50259000211E+02  0.00000000000E+00 0. -1.
         36    2    1    2    0    0  0.71054273576E-14  0.71054273576E-14  0.32474700084E+03  0.42526500126E+03  0.27457186080E+03 0.  0.
         25    2    3    3    0    0 -0.44135803657E+02  0.14470354163E+02  0.20400485956E+03  0.24657633936E+03  0.13047815180E+03 0.  0.
         25    2    3    3    0    0  0.44135803657E+02 -0.14470354163E+02  0.12074214128E+03  0.17868866190E+03  0.12326237421E+03 0.  0.
          5    1    4    4  502    0 -0.39282146648E+02  0.53156373905E+02  0.38840472134E+02  0.76807287463E+02  0.47000000000E+01 0. -1.
         -5    1    4    4    0  502 -0.48536570095E+01 -0.38686019741E+02  0.16516438742E+03  0.16976905190E+03  0.47000000000E+01 0. -1.
          5    1    5    5  503    0 -0.31535484515E+01  0.29630024351E+02 -0.10797354958E+02  0.32039913935E+02  0.47000000000E+01 0. -1.
         -5    1    5    5    0  503  0.47289352109E+02 -0.44100378514E+02  0.13153949624E+03  0.14664874796E+03  0.47000000000E+01 0. -1.
<mgrwt>
<rscale>  0 0.27457186E+03</rscale>
<asrwt>0</asrwt>
<pdfrwt beam="1">  1        2 0.57693229E-01 0.27457186E+03</pdfrwt>
<pdfrwt beam="2">  1       -2 0.77321541E-02 0.27457186E+03</pdfrwt>
<totfact> 0.84878524E+03</totfact>
</mgrwt>
</event>
<event>
 9    1  0.2117506E-002  0.2746692E+03  0.7818608E-02  0.1098637E+00
          2   -1    0    0  501    0  0.00000000000E+00  0.00000000000E+00  0.14715365784E+04  0.14715365784E+04  0.00000000000E+00 0.  1.
         -2   -1    0    0    0  501 -0.00000000000E+00 -0.00000000000E+00 -0.12817074045E+02  0.12817074045E+02  0.00000000000E+00 0.  1.
         36    2    1    2    0    0  0.14210854715E-13  0.71054273576E-14  0.14587195043E+04  0.14843536524E+04  0.27466920675E+03 0.  0.
         25    2    3    3    0    0 -0.45083443107E+02 -0.20407508724E+02  0.92122195246E+03  0.93153751036E+03  0.12908626670E+03 0.  0.
         25    2    3    3    0    0  0.45083443107E+02  0.20407508724E+02  0.53749755186E+03  0.55281614206E+03  0.11938628650E+03 0.  0.
          5    1    4    4  502    0 -0.31777198065E+02 -0.57809167371E+02  0.82067291919E+03  0.82333335925E+03  0.47000000000E+01 0. -1.
         -5    1    4    4    0  502 -0.13306245041E+02  0.37401658647E+02  0.10054903327E+03  0.10820415111E+03  0.47000000000E+01 0. -1.
          5    1    5    5  503    0 -0.40287457820E+02  0.10688641596E+02  0.21382036031E+03  0.21789576132E+03  0.47000000000E+01 0.  1.
         -5    1    5    5    0  503  0.85370900926E+02  0.97188671278E+01  0.32367719155E+03  0.33492038074E+03  0.47000000000E+01 0.  1.
<mgrwt>
<rscale>  0 0.27466921E+03</rscale>
<asrwt>0</asrwt>
<pdfrwt beam="1">  1        2 0.22639011E+00 0.27466921E+03</pdfrwt>
<pdfrwt beam="2">  1       -2 0.19718587E-02 0.27466921E+03</pdfrwt>
<totfact> 0.11155539E+04</totfact>
</mgrwt>
</event>
<event>
 9    1  0.2117506E-002  0.2749617E+03  0.7818608E-02  0.1098473E+00
          2   -1    0    0  501    0  0.00000000000E+00  0.00000000000E+00  0.52938045000E+02  0.52938045000E+02  0.00000000000E+00 0.  1.
         -2   -1    0    0    0  501 -0.00000000000E+00 -0.00000000000E+00 -0.35703979215E+03  0.35703979215E+03  0.00000000000E+00 0.  1.
         36    2    1    2    0    0  0.00000000000E+00 -0.71054273576E-14 -0.30410174715E+03  0.40997783715E+03  0.27496173249E+03 0.  0.
         25    2    3    3    0    0 -0.26254912861E+02 -0.24941804628E+02 -0.22845027469E+03  0.26153661173E+03  0.12206742892E+03 0.  0.
         25    2    3    3    0    0  0.26254912861E+02  0.24941804628E+02 -0.75651472462E+02  0.14844122542E+03  0.12247545897E+03 0.  0.
          5    1    4    4  502    0  0.71174608414E+01  0.46161422379E+02 -0.65519857586E+02  0.80600725202E+02  0.47000000000E+01 0. -1.
         -5    1    4    4    0  502 -0.33372373703E+02 -0.71103227007E+02 -0.16293041710E+03  0.18093588653E+03  0.47000000000E+01 0. -1.
          5    1    5    5  503    0  0.32266877606E+02  0.66185988554E+02 -0.76776154027E+02  0.10648194353E+03  0.47000000000E+01 0.  1.
         -5    1    5    5    0  503 -0.60119647450E+01 -0.41244183926E+02  0.11246815651E+01  0.41959281886E+02  0.47000000000E+01 0.  1.
<mgrwt>
<rscale>  0 0.27496173E+03</rscale>
<asrwt>0</asrwt>
<pdfrwt beam="1">  1        2 0.81443145E-02 0.27496173E+03</pdfrwt>
<pdfrwt beam="2">  1       -2 0.54929200E-01 0.27496173E+03</pdfrwt>
<totfact> 0.26294236E+03</totfact>
</mgrwt>
</event>
<event>
 9    1  0.2117506E-002  0.2692111E+03  0.7818608E-02  0.1101732E+00
         -2   -1    0    0    0  501 -0.00000000000E+00  0.00000000000E+00  0.47559624478E+02  0.47559624478E+02  0.00000000000E+00 0. -1.
          2   -1    0    0  501    0  0.00000000000E+00 -0.00000000000E+00 -0.38096724958E+03  0.38096724958E+03  0.00000000000E+00 0. -1.
         36    2    1    2    0    0  0.00000000000E+00  0.00000000000E+00 -0.33340762510E+03  0.42852687406E+03  0.26921113891E+03 0.  0.
         25    2    3    3    0    0  0.18152194476E+02  0.31006395446E+02 -0.20571586667E+03  0.24448406902E+03  0.12713199237E+03 0.  0.
         25    2    3    3    0    0 -0.18152194476E+02 -0.31006395446E+02 -0.12769175843E+03  0.18404280503E+03  0.12757613488E+03 0.  0.
          5    1    4    4  502    0  0.10061106380E+02  0.75204658102E+02 -0.17219323784E+03  0.18822743588E+03  0.47000000000E+01 0. -1.
         -5    1    4    4    0  502  0.80910880966E+01 -0.44198262656E+02 -0.33522628833E+02  0.56256633140E+02  0.47000000000E+01 0. -1.
          5    1    5    5  503    0 -0.69760223116E+01  0.28218358477E+02 -0.11945575588E+03  0.12303133038E+03  0.47000000000E+01 0.  1.
         -5    1    5    5    0  503 -0.11176172165E+02 -0.59224753923E+02 -0.82360025502E+01  0.61011474654E+02  0.47000000000E+01 0.  1.
<mgrwt>
<rscale>  0 0.26921114E+03</rscale>
<asrwt>0</asrwt>
<pdfrwt beam="1">  1        2 0.58610349E-01 0.26921114E+03</pdfrwt>
<pdfrwt beam="2">  1       -2 0.73168649E-02 0.26921114E+03</pdfrwt>
<totfact> 0.90853367E+03</totfact>
</mgrwt>
</event>
<event>
 9    1  0.2117506E-002  0.2749794E+03  0.7818608E-02  0.1098463E+00
         -2   -1    0    0    0  501 -0.00000000000E+00  0.00000000000E+00  0.49778014361E+01  0.49778014361E+01  0.00000000000E+00 0. -1.
          2   -1    0    0  501    0  0.00000000000E+00 -0.00000000000E+00 -0.37975434345E+04  0.37975434345E+04  0.00000000000E+00 0. -1.
         36    2    1    2    0    0  0.71054273576E-14  0.00000000000E+00 -0.37925656331E+04  0.38025212359E+04  0.27497939677E+03 0.  0.
         25    2    3    3    0    0 -0.26149735857E+02 -0.36399969695E+02 -0.13700336771E+04  0.13766049550E+04  0.12664974988E+03 0.  0.
         25    2    3    3    0    0  0.26149735857E+02  0.36399969695E+02 -0.24225319559E+04  0.24259162809E+04  0.11999982572E+03 0.  0.
          5    1    4    4  502    0 -0.36277990496E+02  0.41518876717E+02 -0.61105131468E+03  0.61355171655E+03  0.47000000000E+01 0. -1.
         -5    1    4    4    0  502  0.10128254639E+02 -0.77918846412E+02 -0.75898236246E+03  0.76305323844E+03  0.47000000000E+01 0. -1.
          5    1    5    5  503    0  0.30872028226E+02  0.75785509311E+02 -0.12377103848E+04  0.12404215462E+04  0.47000000000E+01 0. -1.
         -5    1    5    5    0  503 -0.47222923696E+01 -0.39385539617E+02 -0.11848215711E+04  0.11854947348E+04  0.47000000000E+01 0. -1.
<mgrwt>
<rscale>  0 0.27497940E+03</rscale>
<asrwt>0</asrwt>
<pdfrwt beam="1">  1        2 0.58423673E+00 0.27497940E+03</pdfrwt>
<pdfrwt beam="2">  1       -2 0.76581655E-03 0.27497940E+03</pdfrwt>
<totfact> 0.19849241E+03</totfact>
</mgrwt>
</event>
<event>
 9    1  0.2117506E-002  0.2748938E+03  0.7818608E-02  0.1098511E+00
          1   -1    0    0  501    0  0.00000000000E+00  0.00000000000E+00  0.74573830707E+03  0.74573830707E+03  0.00000000000E+00 0.  1.
         -1   -1    0    0    0  501 -0.00000000000E+00 -0.00000000000E+00 -0.25332823665E+02  0.25332823665E+02  0.00000000000E+00 0.  1.
         36    2    1    2    0    0 -0.71054273576E-14  0.00000000000E+00  0.72040548341E+03  0.77107113074E+03  0.27489384885E+03 0.  0.
         25    2    3    3    0    0 -0.46117010834E+02  0.21554166581E+02  0.33205718134E+03  0.35793879943E+03  0.12355910195E+03 0.  0.
         25    2    3    3    0    0  0.46117010834E+02 -0.21554166581E+02  0.38834830207E+03  0.41313233130E+03  0.13142510668E+03 0.  0.
          5    1    4    4  502    0 -0.21957601501E+02 -0.36168404307E+02  0.25516154925E+03  0.25868860808E+03  0.47000000000E+01 0. -1.
         -5    1    4    4    0  502 -0.24159409333E+02  0.57722570889E+02  0.76895632087E+02  0.99250191352E+02  0.47000000000E+01 0. -1.
          5    1    5    5  503    0  0.82570418379E+02  0.20336338309E+02  0.23967733002E+03  0.25435949593E+03  0.47000000000E+01 0.  1.
         -5    1    5    5    0  503 -0.36453407544E+02 -0.41890504890E+02  0.14867097205E+03  0.15877283537E+03  0.47000000000E+01 0.  1.
<mgrwt>
<rscale>  0 0.27489385E+03</rscale>
<asrwt>0</asrwt>
<pdfrwt beam="1">  1        1 0.11472895E+00 0.27489385E+03</pdfrwt>
<pdfrwt beam="2">  1       -1 0.38973581E-02 0.27489385E+03</pdfrwt>
<totfact> 0.65431199E+03</totfact>
</mgrwt>
</event>
<event>
 9    1  0.2117506E-002  0.2674336E+03  0.7818608E-02  0.1102757E+00
         -4   -1    0    0    0  501 -0.00000000000E+00  0.00000000000E+00  0.12207448269E+03  0.12207448269E+03  0.00000000000E+00 0. -1.
          4   -1    0    0  501    0  0.00000000000E+00 -0.00000000000E+00 -0.14646947094E+03  0.14646947094E+03  0.00000000000E+00 0. -1.
         36    2    1    2    0    0  0.00000000000E+00  0.00000000000E+00 -0.24394988256E+02  0.26854395363E+03  0.26743361715E+03 0.  0.
         25    2    3    3    0    0 -0.32641095906E+02 -0.16374538412E+02 -0.51295027519E+02  0.14001583684E+03  0.12505873847E+03 0.  0.
         25    2    3    3    0    0  0.32641095906E+02  0.16374538412E+02  0.26900039263E+02  0.12852811679E+03  0.12025929504E+03 0.  0.
          5    1    4    4  502    0 -0.45404324291E+01 -0.46594080285E+02  0.24902855199E+02  0.53234068427E+02  0.47000000000E+01 0.  1.
         -5    1    4    4    0  502 -0.28100663477E+02  0.30219541873E+02 -0.76197882717E+02  0.86781768416E+02  0.47000000000E+01 0.  1.
          5    1    5    5  503    0  0.27695558605E+02  0.29204016046E+02  0.71190368179E+02  0.81915059917E+02  0.47000000000E+01 0. -1.
         -5    1    5    5    0  503  0.49455373012E+01 -0.12829477634E+02 -0.44290328916E+02  0.46613056873E+02  0.47000000000E+01 0. -1.
<mgrwt>
<rscale>  0 0.26743362E+03</rscale>
<asrwt>0</asrwt>
<pdfrwt beam="1">  1        4 0.22533765E-01 0.26743362E+03</pdfrwt>
<pdfrwt beam="2">  1       -4 0.18780690E-01 0.26743362E+03</pdfrwt>
<totfact> 0.85717779E+02</totfact>
</mgrwt>
</event>
<event>
 9    1  0.2117506E-002  0.2745521E+03  0.7818608E-02  0.1098702E+00
          1   -1    0    0  501    0  0.00000000000E+00  0.00000000000E+00  0.36591331740E+02  0.36591331740E+02  0.00000000000E+00 0. -1.
         -1   -1    0    0    0  501 -0.00000000000E+00 -0.00000000000E+00 -0.51500500209E+03  0.51500500209E+03  0.00000000000E+00 0. -1.
         36    2    1    2    0    0  0.00000000000E+00 -0.71054273576E-14 -0.47841367035E+03  0.55159633383E+03  0.27455213624E+03 0.  0.
         25    2    3    3    0    0  0.82701745437E+01  0.55274976999E+02 -0.23260240051E+03  0.27043128780E+03  0.12611695298E+03 0.  0.
         25    2    3    3    0    0 -0.82701745437E+01 -0.55274976999E+02 -0.24581126985E+03  0.28116504604E+03  0.12452663916E+03 0.  0.
          5    1    4    4  502    0  0.12559926983E+00 -0.35071567782E+02 -0.23572326368E+02  0.42517939887E+02  0.47000000000E+01 0.  1.
         -5    1    4    4    0  502  0.81445752739E+01  0.90346544781E+02 -0.20903007414E+03  0.22791334791E+03  0.47000000000E+01 0.  1.
          5    1    5    5  503    0 -0.86576985147E+01 -0.90514655215E+02 -0.21725715065E+03  0.23556446689E+03  0.47000000000E+01 0. -1.
         -5    1    5    5    0  503  0.38752397102E+00  0.35239678216E+02 -0.28554119199E+02  0.45600579150E+02  0.47000000000E+01 0. -1.
<mgrwt>
<rscale>  0 0.27455214E+03</rscale>
<asrwt>0</asrwt>
<pdfrwt beam="1">  1        1 0.56294355E-02 0.27455214E+03</pdfrwt>
<pdfrwt beam="2">  1       -1 0.79231541E-01 0.27455214E+03</pdfrwt>
<totfact> 0.23447508E+03</totfact>
</mgrwt>
</event>
<event>
 9    1  0.2117506E-002  0.2760185E+03  0.7818608E-02  0.1097884E+00
         -2   -1    0    0    0  501 -0.00000000000E+00  0.00000000000E+00  0.15754305998E+02  0.15754305998E+02  0.00000000000E+00 0.  1.
          2   -1    0    0  501    0  0.00000000000E+00 -0.00000000000E+00 -0.12089746989E+04  0.12089746989E+04  0.00000000000E+00 0.  1.
         36    2    1    2    0    0  0.00000000000E+00 -0.35527136788E-14 -0.11932203929E+04  0.12247290049E+04  0.27601853090E+03 0.  0.
         25    2    3    3    0    0 -0.11398071084E+02 -0.26033997181E+02 -0.81057985632E+03  0.82072479562E+03  0.12546633672E+03 0.  0.
         25    2    3    3    0    0  0.11398071084E+02  0.26033997181E+02 -0.38264053661E+03  0.40400420930E+03  0.12648294684E+03 0.  0.
          5    1    4    4  502    0 -0.61709392798E+02  0.92291348521E+01 -0.30114836683E+03  0.30758032274E+03  0.47000000000E+01 0. -1.
         -5    1    4    4    0  502  0.50311321715E+02 -0.35263132033E+02 -0.50943148949E+03  0.51314447289E+03  0.47000000000E+01 0. -1.
          5    1    5    5  503    0 -0.44087937850E+02  0.45502444503E+02 -0.26361483841E+03  0.27116248220E+03  0.47000000000E+01 0.  1.
         -5    1    5    5    0  503  0.55486008934E+02 -0.19468447322E+02 -0.11902569819E+03  0.13284172710E+03  0.47000000000E+01 0.  1.
<mgrwt>
<rscale>  0 0.27601853E+03</rscale>
<asrwt>0</asrwt>
<pdfrwt beam="1">  1        2 0.18599613E+00 0.27601853E+03</pdfrwt>
<pdfrwt beam="2">  1       -2 0.24237391E-02 0.27601853E+03</pdfrwt>
<totfact> 0.11476990E+04</totfact>
</mgrwt>
</event>
<event>
 9    1  0.2117506E-002  0.2748306E+03  0.7818608E-02  0.1098546E+00
         -1   -1    0    0    0  501 -0.00000000000E+00  0.00000000000E+00  0.15704301535E+02  0.15704301535E+02  0.00000000000E+00 0.  1.
          1   -1    0    0  501    0  0.00000000000E+00 -0.00000000000E+00 -0.12024072291E+04  0.12024072291E+04  0.00000000000E+00 0.  1.
         36    2    1    2    0    0  0.35527136788E-14  0.71054273576E-14 -0.11867029276E+04  0.12181115306E+04  0.27483060741E+03 0.  0.
         25    2    3    3    0    0  0.71023007669E+00 -0.59886326262E+02 -0.52694347048E+03  0.54352271691E+03  0.11899851352E+03 0.  0.
         25    2    3    3    0    0 -0.71023007669E+00  0.59886326262E+02 -0.65975945708E+03  0.67458881371E+03  0.12728177357E+03 0.  0.
          5    1    4    4  502    0  0.53102824018E+02 -0.58559587155E+02 -0.35409576647E+03  0.36284299221E+03  0.47000000000E+01 0.  1.
         -5    1    4    4    0  502 -0.52392593941E+02 -0.13267391069E+01 -0.17284770401E+03  0.18067972470E+03  0.47000000000E+01 0.  1.
          5    1    5    5  503    0  0.22513573929E+02 -0.35117226980E+02 -0.23189482371E+03  0.23566370086E+03  0.47000000000E+01 0.  1.
         -5    1    5    5    0  503 -0.23223804006E+02  0.95003553242E+02 -0.42786463337E+03  0.43892511285E+03  0.47000000000E+01 0.  1.
<mgrwt>
<rscale>  0 0.27483061E+03</rscale>
<asrwt>0</asrwt>
<pdfrwt beam="1">  1        1 0.18498575E+00 0.27483061E+03</pdfrwt>
<pdfrwt beam="2">  1       -1 0.24160461E-02 0.27483061E+03</pdfrwt>
<totfact> 0.59225132E+03</totfact>
</mgrwt>
</event>
<event>
 9    1  0.2117506E-002  0.2748224E+03  0.7818608E-02  0.1098551E+00
         -1   -1    0    0    0  501 -0.00000000000E+00  0.00000000000E+00  0.13077860043E+02  0.13077860043E+02  0.00000000000E+00 0. -1.
          1   -1    0    0  501    0  0.00000000000E+00 -0.00000000000E+00 -0.14438012950E+04  0.14438012950E+04  0.00000000000E+00 0. -1.
         36    2    1    2    0    0  0.71054273576E-14  0.00000000000E+00 -0.14307234349E+04  0.14568791550E+04  0.27482235183E+03 0.  0.
         25    2    3    3    0    0 -0.40358659745E+02  0.29137167251E+02 -0.85722769547E+03  0.86654681446E+03  0.11656012975E+03 0.  0.
         25    2    3    3    0    0  0.40358659745E+02 -0.29137167251E+02 -0.57349573947E+03  0.59033234057E+03  0.13083238586E+03 0.  0.
          5    1    4    4  502    0 -0.43787672369E+02 -0.20103094912E+02 -0.15077364131E+03  0.15835490390E+03  0.47000000000E+01 0. -1.
         -5    1    4    4    0  502  0.34290126238E+01  0.49240262164E+02 -0.70645405416E+03  0.70819191056E+03  0.47000000000E+01 0. -1.
          5    1    5    5  503    0  0.53780600322E+02  0.86921679773E+01 -0.52207416519E+03  0.52492992933E+03  0.47000000000E+01 0. -1.
         -5    1    5    5    0  503 -0.13421940576E+02 -0.37829335229E+02 -0.51421574289E+02  0.65402411232E+02  0.47000000000E+01 0. -1.
<mgrwt>
<rscale>  0 0.27482235E+03</rscale>
<asrwt>0</asrwt>
<pdfrwt beam="1">  1        1 0.22212325E+00 0.27482235E+03</pdfrwt>
<pdfrwt beam="2">  1       -1 0.20119787E-02 0.27482235E+03</pdfrwt>
<totfact> 0.53020107E+03</totfact>
</mgrwt>
</event>
<event>
 9    1  0.2117506E-002  0.2850031E+03  0.7818608E-02  0.1092987E+00
         -1   -1    0    0    0  501 -0.00000000000E+00  0.00000000000E+00  0.14740899640E+03  0.14740899640E+03  0.00000000000E+00 0.  1.
          1   -1    0    0  501    0  0.00000000000E+00 -0.00000000000E+00 -0.13775743856E+03  0.13775743856E+03  0.00000000000E+00 0.  1.
         36    2    1    2    0    0  0.71054273576E-14  0.00000000000E+00  0.96515578433E+01  0.28516643497E+03  0.28500305799E+03 0.  0.
         25    2    3    3    0    0  0.19756063422E+02 -0.37535858277E+02 -0.43570867493E+02  0.14344751556E+03  0.12992123201E+03 0.  0.
         25    2    3    3    0    0 -0.19756063422E+02  0.37535858277E+02  0.53222425336E+02  0.14171891941E+03  0.12430761385E+03 0.  0.
          5    1    4    4  502    0  0.61001012998E+02 -0.26437316147E+02 -0.67000497546E+02  0.94505089510E+02  0.47000000000E+01 0.  1.
         -5    1    4    4    0  502 -0.41244949576E+02 -0.11098542130E+02  0.23429630053E+02  0.48942426047E+02  0.47000000000E+01 0.  1.
          5    1    5    5  503    0 -0.26902592097E+02 -0.40719223105E+02  0.36798472248E+02  0.61302709170E+02  0.47000000000E+01 0. -1.
         -5    1    5    5    0  503  0.71465286751E+01  0.78255081382E+02  0.16423953088E+02  0.80416210239E+02  0.47000000000E+01 0. -1.
<mgrwt>
<rscale>  0 0.28500306E+03</rscale>
<asrwt>0</asrwt>
<pdfrwt beam="1">  1        1 0.21193452E-01 0.28500306E+03</pdfrwt>
<pdfrwt beam="2">  1       -1 0.22678307E-01 0.28500306E+03</pdfrwt>
<totfact> 0.38641851E+03</totfact>
</mgrwt>
</event>
<event>
 9    1  0.2117506E-002  0.2803003E+03  0.7818608E-02  0.1095525E+00
         -2   -1    0    0    0  501 -0.00000000000E+00  0.00000000000E+00  0.11376022391E+02  0.11376022391E+02  0.00000000000E+00 0.  1.
          2   -1    0    0  501    0  0.00000000000E+00 -0.00000000000E+00 -0.17266200139E+04  0.17266200139E+04  0.00000000000E+00 0.  1.
         36    2    1    2    0    0 -0.17763568394E-14  0.00000000000E+00 -0.17152439915E+04  0.17379960363E+04  0.28030032422E+03 0.  0.
         25    2    3    3    0    0  0.60427328839E+01  0.64406350831E+02 -0.95391995691E+03  0.96398346784E+03  0.12294775085E+03 0.  0.
         25    2    3    3    0    0 -0.60427328839E+01 -0.64406350831E+02 -0.76132403464E+03  0.77401256848E+03  0.12367893033E+03 0.  0.
          5    1    4    4  502    0 -0.34439809320E+02  0.78794089984E+02 -0.78143178355E+03  0.78616304379E+03  0.47000000000E+01 0.  1.
         -5    1    4    4    0  502  0.40482542204E+02 -0.14387739153E+02 -0.17248817336E+03  0.17782042405E+03  0.47000000000E+01 0.  1.
          5    1    5    5  503    0  0.10310080533E+02 -0.69034906523E+02 -0.19088363205E+03  0.20329969765E+03  0.47000000000E+01 0.  1.
         -5    1    5    5    0  503 -0.16352813417E+02  0.46285556922E+01 -0.57044040259E+03  0.57071287084E+03  0.47000000000E+01 0.  1.
<mgrwt>
<rscale>  0 0.28030032E+03</rscale>
<asrwt>0</asrwt>
<pdfrwt beam="1">  1        2 0.26563364E+00 0.28030032E+03</pdfrwt>
<pdfrwt beam="2">  1       -2 0.17501587E-02 0.28030032E+03</pdfrwt>
<totfact> 0.97357233E+03</totfact>
</mgrwt>
</event>
<event>
 9    1  0.2117506E-002  0.2761657E+03  0.7818608E-02  0.1097802E+00
         -2   -1    0    0    0  501 -0.00000000000E+00  0.00000000000E+00  0.46970093525E+02  0.46970093525E+02  0.00000000000E+00 0. -1.
          2   -1    0    0  501    0  0.00000000000E+00 -0.00000000000E+00 -0.40593648271E+03  0.40593648271E+03  0.00000000000E+00 0. -1.
         36    2    1    2    0    0 -0.71054273576E-14  0.35527136788E-14 -0.35896638919E+03  0.45290657624E+03  0.27616570792E+03 0.  0.
         25    2    3    3    0    0 -0.18986474606E+02  0.19319214557E+02 -0.26215118906E+03  0.29293827477E+03  0.12789006463E+03 0.  0.
         25    2    3    3    0    0  0.18986474606E+02 -0.19319214557E+02 -0.96815200125E+02  0.15996830146E+03  0.12443052772E+03 0.  0.
          5    1    4    4  502    0  0.73940870658E+01  0.70114055411E+02 -0.17320086335E+03  0.18705956900E+03  0.47000000000E+01 0.  1.
         -5    1    4    4    0  502 -0.26380561672E+02 -0.50794840854E+02 -0.88950325714E+02  0.10587870577E+03  0.47000000000E+01 0.  1.
          5    1    5    5  503    0  0.45324927784E+02 -0.24843693745E+02  0.72252940832E+01  0.52400888085E+02  0.47000000000E+01 0.  1.
         -5    1    5    5    0  503 -0.26338453177E+02  0.55244791882E+01 -0.10404049421E+03  0.10756741338E+03  0.47000000000E+01 0.  1.
<mgrwt>
<rscale>  0 0.27616571E+03</rscale>
<asrwt>0</asrwt>
<pdfrwt beam="1">  1        2 0.62451765E-01 0.27616571E+03</pdfrwt>
<pdfrwt beam="2">  1       -2 0.72261684E-02 0.27616571E+03</pdfrwt>
<totfact> 0.86549543E+03</totfact>
</mgrwt>
</event>
<event>
 9    1  0.2117506E-002  0.2764750E+03  0.7818608E-02  0.1097630E+00
         -2   -1    0    0    0  501 -0.00000000000E+00  0.00000000000E+00  0.25850407789E+03  0.25850407789E+03  0.00000000000E+00 0.  1.
          2   -1    0    0  501    0  0.00000000000E+00 -0.00000000000E+00 -0.73923784901E+02  0.73923784901E+02  0.00000000000E+00 0.  1.
         36    2    1    2    0    0  0.71054273576E-14  0.00000000000E+00  0.18458029299E+03  0.33242786279E+03  0.27647495257E+03 0.  0.
         25    2    3    3    0    0  0.34432815953E+02 -0.24855717566E+01  0.13771749163E+03  0.19431622424E+03  0.13266834823E+03 0.  0.
         25    2    3    3    0    0 -0.34432815953E+02  0.24855717566E+01  0.46862801360E+02  0.13811163855E+03  0.12524737789E+03 0.  0.
          5    1    4    4  502    0  0.81656068311E+02 -0.14527382750E+02  0.11067836152E+03  0.13838550520E+03  0.47000000000E+01 0.  1.
         -5    1    4    4    0  502 -0.47223252358E+02  0.12041810993E+02  0.27039130107E+02  0.55930719039E+02  0.47000000000E+01 0.  1.
          5    1    5    5  503    0 -0.85738296157E+01  0.58541581736E+01  0.88242345512E+02  0.88975183414E+02  0.47000000000E+01 0. -1.
         -5    1    5    5    0  503 -0.25858986338E+02 -0.33685864171E+01 -0.41379544151E+02  0.49136455133E+02  0.47000000000E+01 0. -1.
<mgrwt>
<rscale>  0 0.27647495E+03</rscale>
<asrwt>0</asrwt>
<pdfrwt beam="1">  1        2 0.11372890E-01 0.27647495E+03</pdfrwt>
<pdfrwt beam="2">  1       -2 0.39769858E-01 0.27647495E+03</pdfrwt>
<totfact> 0.32751476E+03</totfact>
</mgrwt>
</event>
<event>
 9    1  0.2117506E-002  0.2751526E+03  0.7818608E-02  0.1098366E+00
          1   -1    0    0  501    0  0.00000000000E+00  0.00000000000E+00  0.10137573622E+04  0.10137573622E+04  0.00000000000E+00 0. -1.
         -1   -1    0    0    0  501 -0.00000000000E+00 -0.00000000000E+00 -0.18670381953E+02  0.18670381953E+02  0.00000000000E+00 0. -1.
         36    2    1    2    0    0  0.71054273576E-14  0.00000000000E+00  0.99508698023E+03  0.10324277441E+04  0.27515259155E+03 0.  0.
         25    2    3    3    0    0 -0.31975630763E+02 -0.10112407825E+02  0.66709834149E+03  0.67990035676E+03  0.12696297155E+03 0.  0.
         25    2    3    3    0    0  0.31975630763E+02  0.10112407825E+02  0.32798863874E+03  0.35252738737E+03  0.12479707510E+03 0.  0.
          5    1    4    4  502    0  0.35160131598E+02  0.35095253235E+02  0.23070684690E+03  0.23604162951E+03  0.47000000000E+01 0.  1.
         -5    1    4    4    0  502 -0.67135762361E+02 -0.45207661059E+02  0.43639149459E+03  0.44385872725E+03  0.47000000000E+01 0.  1.
          5    1    5    5  503    0 -0.33492112937E+02 -0.33625738012E+02  0.90716169802E+02  0.10248865961E+03  0.47000000000E+01 0. -1.
         -5    1    5    5    0  503  0.65467743700E+02  0.43738145837E+02  0.23727246893E+03  0.25003872776E+03  0.47000000000E+01 0. -1.
<mgrwt>
<rscale>  0 0.27515259E+03</rscale>
<asrwt>0</asrwt>
<pdfrwt beam="1">  1        1 0.15596263E+00 0.27515259E+03</pdfrwt>
<pdfrwt beam="2">  1       -1 0.28723672E-02 0.27515259E+03</pdfrwt>
<totfact> 0.62777679E+03</totfact>
</mgrwt>
</event>
<event>
 9    1  0.2117506E-002  0.2747821E+03  0.7818608E-02  0.1098573E+00
         -2   -1    0    0    0  501 -0.00000000000E+00  0.00000000000E+00  0.69857407512E+01  0.69857407512E+01  0.00000000000E+00 0.  1.
          2   -1    0    0  501    0  0.00000000000E+00 -0.00000000000E+00 -0.27021188300E+04  0.27021188300E+04  0.00000000000E+00 0.  1.
         36    2    1    2    0    0  0.35527136788E-14 -0.71054273576E-14 -0.26951330892E+04  0.27091045707E+04  0.27478210731E+03 0.  0.
         25    2    3    3    0    0 -0.29972733376E+02  0.38429072421E+02 -0.16903449548E+04  0.16954493033E+04  0.12209469987E+03 0.  0.
         25    2    3    3    0    0  0.29972733376E+02 -0.38429072421E+02 -0.10047881345E+04  0.10136552674E+04  0.12458991774E+03 0.  0.
          5    1    4    4  502    0 -0.65526364368E+02  0.58089976997E+02 -0.97484277708E+03  0.97877917830E+03  0.47000000000E+01 0. -1.
         -5    1    4    4    0  502  0.35553630991E+02 -0.19660904577E+02 -0.71550217768E+03  0.71667012503E+03  0.47000000000E+01 0. -1.
          5    1    5    5  503    0 -0.10581409879E+02 -0.69460228777E+02 -0.35944224644E+03  0.36627518090E+03  0.47000000000E+01 0. -1.
         -5    1    5    5    0  503  0.40554143255E+02  0.31031156356E+02 -0.64534588802E+03  0.64738008649E+03  0.47000000000E+01 0. -1.
<mgrwt>
<rscale>  0 0.27478211E+03</rscale>
<asrwt>0</asrwt>
<pdfrwt beam="1">  1        2 0.41571063E+00 0.27478211E+03</pdfrwt>
<pdfrwt beam="2">  1       -2 0.10747292E-02 0.27478211E+03</pdfrwt>
<totfact> 0.59451305E+03</totfact>
</mgrwt>
</event>
<event>
 9    1  0.2117506E-002  0.2755191E+03  0.7818608E-02  0.1098162E+00
         -1   -1    0    0    0  501 -0.00000000000E+00  0.00000000000E+00  0.18937850452E+02  0.18937850452E+02  0.00000000000E+00 0.  1.
          1   -1    0    0  501    0  0.00000000000E+00 -0.00000000000E+00 -0.10021039516E+04  0.10021039516E+04  0.00000000000E+00 0.  1.
         36    2    1    2    0    0  0.35527136788E-14  0.00000000000E+00 -0.98316610119E+03  0.10210418021E+04  0.27551910840E+03 0.  0.
         25    2    3    3    0    0 -0.20351193297E+02  0.11732518329E+02 -0.27539565571E+03  0.30276579583E+03  0.12358210586E+03 0.  0.
         25    2    3    3    0    0  0.20351193297E+02 -0.11732518329E+02 -0.70777044548E+03  0.71827600626E+03  0.12012324762E+03 0.  0.
          5    1    4    4  502    0 -0.13948802036E+02  0.59552283599E+02 -0.22344056909E+03  0.23170848383E+03  0.47000000000E+01 0.  1.
         -5    1    4    4    0  502 -0.64023912618E+01 -0.47819765270E+02 -0.51955086615E+02  0.71057312006E+02  0.47000000000E+01 0.  1.
          5    1    5    5  503    0  0.20715772238E+02  0.43098230179E+02 -0.14354951338E+03  0.15137751965E+03  0.47000000000E+01 0.  1.
         -5    1    5    5    0  503 -0.36457894110E+00 -0.54830748508E+02 -0.56422093211E+03  0.56689848662E+03  0.47000000000E+01 0.  1.
<mgrwt>
<rscale>  0 0.27551911E+03</rscale>
<asrwt>0</asrwt>
<pdfrwt beam="1">  1        1 0.15416982E+00 0.27551911E+03</pdfrwt>
<pdfrwt beam="2">  1       -1 0.29135158E-02 0.27551911E+03</pdfrwt>
<totfact> 0.62720018E+03</totfact>
</mgrwt>
</event>
<event>
 9    1  0.2117506E-002  0.2747215E+03  0.7818608E-02  0.1098607E+00
         -2   -1    0    0    0  501 -0.00000000000E+00  0.00000000000E+00  0.22270251394E+02  0.22270251394E+02  0.00000000000E+00 0. -1.
          2   -1    0    0  501    0  0.00000000000E+00 -0.00000000000E+00 -0.84722755280E+03  0.84722755280E+03  0.00000000000E+00 0. -1.
         36    2    1    2    0    0 -0.35527136788E-14  0.00000000000E+00 -0.82495730140E+03  0.86949780419E+03  0.27472146322E+03 0.  0.
         25    2    3    3    0    0 -0.19185895810E+02 -0.50491033696E+02 -0.32532140089E+03  0.35244399163E+03  0.12435960066E+03 0.  0.
         25    2    3    3    0    0  0.19185895810E+02  0.50491033696E+02 -0.49963590051E+03  0.51705381256E+03  0.12161894968E+03 0.  0.
          5    1    4    4  502    0 -0.82622861568E+01 -0.76226553712E+02 -0.31163518053E+03  0.32096312655E+03  0.47000000000E+01 0. -1.
         -5    1    4    4    0  502 -0.10923609653E+02  0.25735520016E+02 -0.13686220364E+02  0.31480865080E+02  0.47000000000E+01 0. -1.
          5    1    5    5  503    0  0.37822915643E+02 -0.25814235065E+02 -0.10497194634E+03  0.11462175709E+03  0.47000000000E+01 0. -1.
         -5    1    5    5    0  503 -0.18637019834E+02  0.76305268761E+02 -0.39466395417E+03  0.40243205547E+03  0.47000000000E+01 0. -1.
<mgrwt>
<rscale>  0 0.27472146E+03</rscale>
<asrwt>0</asrwt>
<pdfrwt beam="1">  1        2 0.13034272E+00 0.27472146E+03</pdfrwt>
<pdfrwt beam="2">  1       -2 0.34261921E-02 0.27472146E+03</pdfrwt>
<totfact> 0.11391637E+04</totfact>
</mgrwt>
</event>
<event>
 9    1  0.2117506E-002  0.2778737E+03  0.7818608E-02  0.1096856E+00
         -2   -1    0    0    0  501 -0.00000000000E+00  0.00000000000E+00  0.43021763045E+02  0.43021763045E+02  0.00000000000E+00 0.  1.
          2   -1    0    0  501    0  0.00000000000E+00 -0.00000000000E+00 -0.44869040385E+03  0.44869040385E+03  0.00000000000E+00 0.  1.
         36    2    1    2    0    0  0.00000000000E+00  0.26645352591E-14 -0.40566864081E+03  0.49171216690E+03  0.27787372841E+03 0.  0.
         25    2    3    3    0    0  0.49593565901E+02  0.13714781609E+01 -0.15853225352E+03  0.21003042635E+03  0.12852588010E+03 0.  0.
         25    2    3    3    0    0 -0.49593565901E+02 -0.13714781609E+01 -0.24713638729E+03  0.28168174055E+03  0.12572512202E+03 0.  0.
          5    1    4    4  502    0  0.77478647256E+02  0.48278409871E+01 -0.38718251758E+02  0.86876014229E+02  0.47000000000E+01 0.  1.
         -5    1    4    4    0  502 -0.27885081355E+02 -0.34563628261E+01 -0.11981400176E+03  0.12315441212E+03  0.47000000000E+01 0.  1.
          5    1    5    5  503    0  0.70774028317E+01  0.54637274766E+02 -0.10490897724E+03  0.11858880609E+03  0.47000000000E+01 0. -1.
         -5    1    5    5    0  503 -0.56670968732E+02 -0.56008752927E+02 -0.14222741005E+03  0.16309293446E+03  0.47000000000E+01 0. -1.
<mgrwt>
<rscale>  0 0.27787373E+03</rscale>
<asrwt>0</asrwt>
<pdfrwt beam="1">  1        2 0.69029295E-01 0.27787373E+03</pdfrwt>
<pdfrwt beam="2">  1       -2 0.66187326E-02 0.27787373E+03</pdfrwt>
<totfact> 0.88876726E+03</totfact>
</mgrwt>
</event>
<event>
 9    1  0.2117506E-002  0.2779906E+03  0.7818608E-02  0.1096792E+00
         -2   -1    0    0    0  501 -0.00000000000E+00  0.00000000000E+00  0.32471451147E+02  0.32471451147E+02  0.00000000000E+00 0. -1.
          2   -1    0    0  501    0  0.00000000000E+00 -0.00000000000E+00 -0.59497484735E+03  0.59497484735E+03  0.00000000000E+00 0. -1.
         36    2    1    2    0    0  0.71054273576E-14  0.44408920985E-14 -0.56250339620E+03  0.62744629850E+03  0.27799062351E+03 0.  0.
         25    2    3    3    0    0 -0.55768392510E+02 -0.11866682101E+01 -0.17527892677E+03  0.21625166446E+03  0.11371261332E+03 0.  0.
         25    2    3    3    0    0  0.55768392510E+02  0.11866682101E+01 -0.38722446943E+03  0.41119463403E+03  0.12659666485E+03 0.  0.
          5    1    4    4  502    0 -0.37857618012E+02 -0.56073484673E+02 -0.10734368514E+03  0.12697319270E+03  0.47000000000E+01 0.  1.
         -5    1    4    4    0  502 -0.17910774498E+02  0.54886816463E+02 -0.67935241638E+02  0.89278471767E+02  0.47000000000E+01 0.  1.
          5    1    5    5  503    0  0.64035857143E+02 -0.45064847203E+01 -0.39331543495E+03  0.39854738837E+03  0.47000000000E+01 0.  1.
         -5    1    5    5    0  503 -0.82674646333E+01  0.56931529304E+01  0.60909655276E+01  0.12647245661E+02  0.47000000000E+01 0.  1.
<mgrwt>
<rscale>  0 0.27799062E+03</rscale>
<asrwt>0</asrwt>
<pdfrwt beam="1">  1        2 0.91534583E-01 0.27799062E+03</pdfrwt>
<pdfrwt beam="2">  1       -2 0.49956083E-02 0.27799062E+03</pdfrwt>
<totfact> 0.99485914E+03</totfact>
</mgrwt>
</event>
<event>
 9    1  0.2117506E-002  0.2819256E+03  0.7818608E-02  0.1094642E+00
         -2   -1    0    0    0  501 -0.00000000000E+00  0.00000000000E+00  0.11311508057E+03  0.11311508057E+03  0.00000000000E+00 0. -1.
          2   -1    0    0  501    0  0.00000000000E+00 -0.00000000000E+00 -0.17566630439E+03  0.17566630439E+03  0.00000000000E+00 0. -1.
         36    2    1    2    0    0  0.00000000000E+00 -0.35527136788E-14 -0.62551223820E+02  0.28878138497E+03  0.28192558008E+03 0.  0.
         25    2    3    3    0    0  0.56498657086E+02  0.28861020985E+02 -0.55231373227E+02  0.14898304999E+03  0.12296498611E+03 0.  0.
         25    2    3    3    0    0 -0.56498657086E+02 -0.28861020985E+02 -0.73198505924E+01  0.13979833498E+03  0.12435810173E+03 0.  0.
          5    1    4    4  502    0 -0.13236845200E+02  0.57137977149E+02 -0.64737225002E+01  0.59194269879E+02  0.47000000000E+01 0.  1.
         -5    1    4    4    0  502  0.69735502285E+02 -0.28276956164E+02 -0.48757650727E+02  0.89788780108E+02  0.47000000000E+01 0.  1.
          5    1    5    5  503    0  0.32445172765E+02 -0.33986514549E+02 -0.16708785255E+02  0.50090377436E+02  0.47000000000E+01 0.  1.
         -5    1    5    5    0  503 -0.88943829850E+02  0.51254935643E+01  0.93889346629E+01  0.89707957544E+02  0.47000000000E+01 0.  1.
<mgrwt>
<rscale>  0 0.28192558E+03</rscale>
<asrwt>0</asrwt>
<pdfrwt beam="1">  1        2 0.27025585E-01 0.28192558E+03</pdfrwt>
<pdfrwt beam="2">  1       -2 0.17402320E-01 0.28192558E+03</pdfrwt>
<totfact> 0.52245478E+03</totfact>
</mgrwt>
</event>
<event>
 9    1  0.2117506E-002  0.2753182E+03  0.7818608E-02  0.1098274E+00
          2   -1    0    0  501    0  0.00000000000E+00  0.00000000000E+00  0.34712104067E+03  0.34712104067E+03  0.00000000000E+00 0. -1.
         -2   -1    0    0    0  501 -0.00000000000E+00 -0.00000000000E+00 -0.54591988194E+02  0.54591988194E+02  0.00000000000E+00 0. -1.
         36    2    1    2    0    0 -0.14210854715E-13  0.00000000000E+00  0.29252905248E+03  0.40171302886E+03  0.27531819957E+03 0.  0.
         25    2    3    3    0    0 -0.55499022312E+02 -0.25864924319E+02  0.83632305242E+02  0.15287468864E+03  0.11237069084E+03 0.  0.
         25    2    3    3    0    0  0.55499022312E+02  0.25864924319E+02  0.20889674723E+03  0.24883834022E+03  0.12055510263E+03 0.  0.
          5    1    4    4  502    0 -0.29852525643E+02 -0.70259245839E+02  0.50431042197E+02  0.91612853521E+02  0.47000000000E+01 0.  1.
         -5    1    4    4    0  502 -0.25646496670E+02  0.44394321521E+02  0.33201263045E+02  0.61261835122E+02  0.47000000000E+01 0.  1.
          5    1    5    5  503    0 -0.13043687297E+02  0.18976888404E+01  0.16126383223E+03  0.16186986312E+03  0.47000000000E+01 0. -1.
         -5    1    5    5    0  503  0.68542709609E+02  0.23967235478E+02  0.47632915001E+02  0.86968477097E+02  0.47000000000E+01 0. -1.
<mgrwt>
<rscale>  0 0.27531820E+03</rscale>
<asrwt>0</asrwt>
<pdfrwt beam="1">  1        2 0.53403236E-01 0.27531820E+03</pdfrwt>
<pdfrwt beam="2">  1       -2 0.83987676E-02 0.27531820E+03</pdfrwt>
<totfact> 0.81091841E+03</totfact>
</mgrwt>
</event>
<event>
 9    1  0.2117506E-002  0.2747150E+03  0.7818608E-02  0.1098611E+00
          3   -1    0    0  501    0  0.00000000000E+00  0.00000000000E+00  0.27322610159E+03  0.27322610159E+03  0.00000000000E+00 0. -1.
         -3   -1    0    0    0  501 -0.00000000000E+00 -0.00000000000E+00 -0.69052989180E+02  0.69052989180E+02  0.00000000000E+00 0. -1.
         36    2    1    2    0    0 -0.71054273576E-14  0.00000000000E+00  0.20417311241E+03  0.34227909077E+03  0.27471497256E+03 0.  0.
         25    2    3    3    0    0 -0.44945645920E+01  0.50203511152E+02  0.13687281501E+03  0.19301715876E+03  0.12641543595E+03 0.  0.
         25    2    3    3    0    0  0.44945645920E+01 -0.50203511152E+02  0.67300297402E+02  0.14926193201E+03  0.12332558807E+03 0.  0.
          5    1    4    4  502    0 -0.57066346093E+02  0.34900864461E+02  0.11647396656E+03  0.13439833735E+03  0.47000000000E+01 0.  1.
         -5    1    4    4    0  502  0.52571781502E+02  0.15302646691E+02  0.20398848454E+02  0.58618821416E+02  0.47000000000E+01 0.  1.
          5    1    5    5  503    0  0.26859585182E+02 -0.84086532200E+02  0.28422481053E+02  0.92854238690E+02  0.47000000000E+01 0. -1.
         -5    1    5    5    0  503 -0.22365020590E+02  0.33883021048E+02  0.38877816348E+02  0.56407693317E+02  0.47000000000E+01 0. -1.
<mgrwt>
<rscale>  0 0.27471497E+03</rscale>
<asrwt>0</asrwt>
<pdfrwt beam="1">  1        3 0.42034784E-01 0.27471497E+03</pdfrwt>
<pdfrwt beam="2">  1       -3 0.10623537E-01 0.27471497E+03</pdfrwt>
<totfact> 0.95618448E+02</totfact>
</mgrwt>
</event>
<event>
 9    1  0.2117506E-002  0.2750989E+03  0.7818608E-02  0.1098396E+00
         -2   -1    0    0    0  501 -0.00000000000E+00  0.00000000000E+00  0.92960060677E+02  0.92960060677E+02  0.00000000000E+00 0. -1.
          2   -1    0    0  501    0  0.00000000000E+00 -0.00000000000E+00 -0.20352669364E+03  0.20352669364E+03  0.00000000000E+00 0. -1.
         36    2    1    2    0    0  0.00000000000E+00  0.00000000000E+00 -0.11056663296E+03  0.29648675431E+03  0.27509891886E+03 0.  0.
         25    2    3    3    0    0  0.40744231175E+02 -0.22179632578E+02 -0.68702514519E+02  0.15424563456E+03  0.13007556190E+03 0.  0.
         25    2    3    3    0    0 -0.40744231175E+02  0.22179632578E+02 -0.41864118441E+02  0.14224111976E+03  0.12778068423E+03 0.  0.
          5    1    4    4  502    0 -0.21951732426E+02  0.22037721003E+02 -0.70671165944E+02  0.77356598939E+02  0.47000000000E+01 0. -1.
         -5    1    4    4    0  502  0.62695963601E+02 -0.44217353581E+02  0.19686514257E+01  0.76889035616E+02  0.47000000000E+01 0. -1.
          5    1    5    5  503    0 -0.70789994037E+02  0.45124724616E+02 -0.56641255431E+02  0.10137941529E+03  0.47000000000E+01 0.  1.
         -5    1    5    5    0  503  0.30045762862E+02 -0.22945092038E+02  0.14777136990E+02  0.40861704470E+02  0.47000000000E+01 0.  1.
<mgrwt>
<rscale>  0 0.27509892E+03</rscale>
<asrwt>0</asrwt>
<pdfrwt beam="1">  1        2 0.31311798E-01 0.27509892E+03</pdfrwt>
<pdfrwt beam="2">  1       -2 0.14301548E-01 0.27509892E+03</pdfrwt>
<totfact> 0.61507671E+03</totfact>
</mgrwt>
</event>
<event>
 9    1  0.2117506E-002  0.2750299E+03  0.7818608E-02  0.1098435E+00
         -2   -1    0    0    0  501 -0.00000000000E+00  0.00000000000E+00  0.21178948118E+03  0.21178948118E+03  0.00000000000E+00 0.  1.
          2   -1    0    0  501    0  0.00000000000E+00 -0.00000000000E+00 -0.89288453606E+02  0.89288453606E+02  0.00000000000E+00 0.  1.
         36    2    1    2    0    0  0.35527136788E-14  0.71054273576E-14  0.12250102758E+03  0.30107793479E+03  0.27502985485E+03 0.  0.
         25    2    3    3    0    0 -0.31781688216E+02 -0.11775633215E+02  0.66902046195E+01  0.12804483850E+03  0.12329631213E+03 0.  0.
         25    2    3    3    0    0  0.31781688216E+02  0.11775633215E+02  0.11581082296E+03  0.17303309629E+03  0.12401437197E+03 0.  0.
          5    1    4    4  502    0  0.23696072137E+02  0.35258834040E+02 -0.23936638193E+02  0.48987160160E+02  0.47000000000E+01 0.  1.
         -5    1    4    4    0  502 -0.55477760352E+02 -0.47034467255E+02  0.30626842812E+02  0.79057678339E+02  0.47000000000E+01 0.  1.
          5    1    5    5  503    0  0.46568030112E+02 -0.46895428998E+02  0.74054275796E+02  0.99367441615E+02  0.47000000000E+01 0. -1.
         -5    1    5    5    0  503 -0.14786341896E+02  0.58671062214E+02  0.41756547161E+02  0.73665654676E+02  0.47000000000E+01 0. -1.
<mgrwt>
<rscale>  0 0.27502985E+03</rscale>
<asrwt>0</asrwt>
<pdfrwt beam="1">  1        2 0.13736685E-01 0.27502985E+03</pdfrwt>
<pdfrwt beam="2">  1       -2 0.32582997E-01 0.27502985E+03</pdfrwt>
<totfact> 0.37845627E+03</totfact>
</mgrwt>
</event>
<event>
 9    1  0.2117506E-002  0.2752651E+03  0.7818608E-02  0.1098303E+00
          1   -1    0    0  501    0  0.00000000000E+00  0.00000000000E+00  0.81621736489E+03  0.81621736489E+03  0.00000000000E+00 0. -1.
         -1   -1    0    0    0  501 -0.00000000000E+00 -0.00000000000E+00 -0.23207938217E+02  0.23207938217E+02  0.00000000000E+00 0. -1.
         36    2    1    2    0    0 -0.71054273576E-14  0.71054273576E-14  0.79300942668E+03  0.83942530311E+03  0.27526512439E+03 0.  0.
         25    2    3    3    0    0 -0.45513861721E+02  0.40301911078E+01  0.32528788199E+03  0.35291421026E+03  0.12902898737E+03 0.  0.
         25    2    3    3    0    0  0.45513861721E+02 -0.40301911078E+01  0.46772154469E+03  0.48651109285E+03  0.12586439551E+03 0.  0.
          5    1    4    4  502    0 -0.72660915390E+02 -0.24179872121E+02  0.29006998992E+03  0.30004493645E+03  0.47000000000E+01 0.  1.
         -5    1    4    4    0  502  0.27147053669E+02  0.28210063229E+02  0.35217892073E+02  0.52869273802E+02  0.47000000000E+01 0.  1.
          5    1    5    5  503    0 -0.15171719384E+02 -0.50722532710E+02  0.13559634754E+03  0.14564139473E+03  0.47000000000E+01 0. -1.
         -5    1    5    5    0  503  0.60685581106E+02  0.46692341602E+02  0.33212519714E+03  0.34086969812E+03  0.47000000000E+01 0. -1.
<mgrwt>
<rscale>  0 0.27526512E+03</rscale>
<asrwt>0</asrwt>
<pdfrwt beam="1">  1        1 0.12557188E+00 0.27526512E+03</pdfrwt>
<pdfrwt beam="2">  1       -1 0.35704527E-02 0.27526512E+03</pdfrwt>
<totfact> 0.64940540E+03</totfact>
</mgrwt>
</event>
<event>
 9    1  0.2117506E-002  0.2738052E+03  0.7818608E-02  0.1099121E+00
         -3   -1    0    0    0  501 -0.00000000000E+00  0.00000000000E+00  0.23785640022E+03  0.23785640022E+03  0.00000000000E+00 0.  1.
          3   -1    0    0  501    0  0.00000000000E+00 -0.00000000000E+00 -0.78796817132E+02  0.78796817132E+02  0.00000000000E+00 0.  1.
         36    2    1    2    0    0  0.00000000000E+00  0.71054273576E-14  0.15905958309E+03  0.31665321735E+03  0.27380523933E+03 0.  0.
         25    2    3    3    0    0 -0.31918053097E+02 -0.31541952318E+02  0.11461111890E+03  0.17629920575E+03  0.12622220289E+03 0.  0.
         25    2    3    3    0    0  0.31918053097E+02  0.31541952318E+02  0.44448464182E+02  0.14035401160E+03  0.12533924260E+03 0.  0.
          5    1    4    4  502    0  0.40984507642E+02 -0.36105161601E+02  0.75514508044E+02  0.93315826557E+02  0.47000000000E+01 0.  1.
         -5    1    4    4    0  502 -0.72902560739E+02  0.45632092832E+01  0.39096610861E+02  0.82983379192E+02  0.47000000000E+01 0.  1.
          5    1    5    5  503    0 -0.21220427495E+02  0.61480536629E+02  0.81528078760E+00  0.65214397260E+02  0.47000000000E+01 0. -1.
         -5    1    5    5    0  503  0.53138480593E+02 -0.29938584311E+02  0.43633183395E+02  0.75139614341E+02  0.47000000000E+01 0. -1.
<mgrwt>
<rscale>  0 0.27380524E+03</rscale>
<asrwt>0</asrwt>
<pdfrwt beam="1">  1        3 0.12122587E-01 0.27380524E+03</pdfrwt>
<pdfrwt beam="2">  1       -3 0.36593292E-01 0.27380524E+03</pdfrwt>
<totfact> 0.10009994E+03</totfact>
</mgrwt>
</event>
<event>
 9    1  0.2117506E-002  0.2729778E+03  0.7818608E-02  0.1099587E+00
          2   -1    0    0  501    0  0.00000000000E+00  0.00000000000E+00  0.21801350617E+03  0.21801350617E+03  0.00000000000E+00 0.  1.
         -2   -1    0    0    0  501 -0.00000000000E+00 -0.00000000000E+00 -0.85449867997E+02  0.85449867997E+02  0.00000000000E+00 0.  1.
         36    2    1    2    0    0  0.71054273576E-14 -0.35527136788E-14  0.13256363817E+03  0.30346337416E+03  0.27297784030E+03 0.  0.
         25    2    3    3    0    0 -0.14770357316E+02  0.29720887001E+02  0.60988351950E+02  0.14682573623E+03  0.12937048801E+03 0.  0.
         25    2    3    3    0    0  0.14770357316E+02 -0.29720887001E+02  0.71575286219E+02  0.15663763793E+03  0.13531752821E+03 0.  0.
          5    1    4    4  502    0  0.32145834856E+02 -0.53984977089E+01  0.78790946479E+02  0.85396731337E+02  0.47000000000E+01 0.  1.
         -5    1    4    4    0  502 -0.46916192171E+02  0.35119384710E+02 -0.17802594529E+02  0.61429004894E+02  0.47000000000E+01 0.  1.
          5    1    5    5  503    0  0.51712142427E+02  0.26681065101E+02  0.67044425033E+02  0.88899211680E+02  0.47000000000E+01 0. -1.
         -5    1    5    5    0  503 -0.36941785111E+02 -0.56401952102E+02  0.45308611860E+01  0.67738426253E+02  0.47000000000E+01 0. -1.
<mgrwt>
<rscale>  0 0.27297784E+03</rscale>
<asrwt>0</asrwt>
<pdfrwt beam="1">  1        2 0.33540539E-01 0.27297784E+03</pdfrwt>
<pdfrwt beam="2">  1       -2 0.13146134E-01 0.27297784E+03</pdfrwt>
<totfact> 0.65477835E+03</totfact>
</mgrwt>
</event>
<event>
 9    1  0.2117506E-002  0.2748896E+03  0.7818608E-02  0.1098513E+00
          2   -1    0    0  501    0  0.00000000000E+00  0.00000000000E+00  0.58508698884E+03  0.58508698884E+03  0.00000000000E+00 0.  1.
         -2   -1    0    0    0  501 -0.00000000000E+00 -0.00000000000E+00 -0.32287637543E+02  0.32287637543E+02  0.00000000000E+00 0.  1.
         36    2    1    2    0    0  0.00000000000E+00 -0.14210854715E-13  0.55279935130E+03  0.61737462638E+03  0.27488962604E+03 0.  0.
         25    2    3    3    0    0  0.14423790915E+02  0.56672210974E+02  0.26338207092E+03  0.29685682078E+03  0.12383081813E+03 0.  0.
         25    2    3    3    0    0 -0.14423790915E+02 -0.56672210974E+02  0.28941728037E+03  0.32051780560E+03  0.12469769962E+03 0.  0.
          5    1    4    4  502    0 -0.44632913884E+01 -0.28585666808E+02  0.13800514042E+02  0.32397615725E+02  0.47000000000E+01 0. -1.
         -5    1    4    4    0  502  0.18887082303E+02  0.85257877782E+02  0.24958155688E+03  0.26445920505E+03  0.47000000000E+01 0. -1.
          5    1    5    5  503    0  0.53163717660E+02 -0.33585837826E+02  0.16967242233E+03  0.18101163023E+03  0.47000000000E+01 0.  1.
         -5    1    5    5    0  503 -0.67587508575E+02 -0.23086373148E+02  0.11974485804E+03  0.13950617537E+03  0.47000000000E+01 0.  1.
<mgrwt>
<rscale>  0 0.27488963E+03</rscale>
<asrwt>0</asrwt>
<pdfrwt beam="1">  1        2 0.90013375E-01 0.27488963E+03</pdfrwt>
<pdfrwt beam="2">  1       -2 0.49673293E-02 0.27488963E+03</pdfrwt>
<totfact> 0.10226946E+04</totfact>
</mgrwt>
</event>
<event>
 9    1  0.2117506E-002  0.2757277E+03  0.7818608E-02  0.1098046E+00
          1   -1    0    0  501    0  0.00000000000E+00  0.00000000000E+00  0.25600291483E+03  0.25600291483E+03  0.00000000000E+00 0.  1.
         -1   -1    0    0    0  501 -0.00000000000E+00 -0.00000000000E+00 -0.74243058161E+02  0.74243058161E+02  0.00000000000E+00 0.  1.
         36    2    1    2    0    0  0.00000000000E+00  0.71054273576E-14  0.18175985667E+03  0.33024597299E+03  0.27572768664E+03 0.  0.
         25    2    3    3    0    0 -0.15331152874E+02  0.41331937269E+02  0.75956031999E+02  0.15406308504E+03  0.12658097049E+03 0.  0.
         25    2    3    3    0    0  0.15331152874E+02 -0.41331937269E+02  0.10580382467E+03  0.17618288795E+03  0.13380055083E+03 0.  0.
          5    1    4    4  502    0 -0.26479510341E+02 -0.13717666128E+02 -0.24496594950E+02  0.38878168630E+02  0.47000000000E+01 0.  1.
         -5    1    4    4    0  502  0.11148357466E+02  0.55049603397E+02  0.10045262695E+03  0.11518491641E+03  0.47000000000E+01 0.  1.
          5    1    5    5  503    0 -0.54900254302E+00 -0.66556600410E+02  0.12409530084E+03  0.14089647318E+03  0.47000000000E+01 0.  1.
         -5    1    5    5    0  503  0.15880155417E+02  0.25224663141E+02 -0.18291476175E+02  0.35286414770E+02  0.47000000000E+01 0.  1.
<mgrwt>
<rscale>  0 0.27572769E+03</rscale>
<asrwt>0</asrwt>
<pdfrwt beam="1">  1        1 0.39385063E-01 0.27572769E+03</pdfrwt>
<pdfrwt beam="2">  1       -1 0.11422009E-01 0.27572769E+03</pdfrwt>
<totfact> 0.52700206E+03</totfact>
</mgrwt>
</event>
<event>
 9    1  0.2117506E-002  0.2749929E+03  0.7818608E-02  0.1098456E+00
          2   -1    0    0  501    0  0.00000000000E+00  0.00000000000E+00  0.91119563740E+03  0.91119563740E+03  0.00000000000E+00 0. -1.
         -2   -1    0    0    0  501 -0.00000000000E+00 -0.00000000000E+00 -0.20747759982E+02  0.20747759982E+02  0.00000000000E+00 0. -1.
         36    2    1    2    0    0  0.00000000000E+00 -0.35527136788E-14  0.89044787742E+03  0.93194339738E+03  0.27499286086E+03 0.  0.
         25    2    3    3    0    0 -0.67257680710E+02  0.74632708368E+00  0.51241025084E+03  0.53187530033E+03  0.12570965485E+03 0.  0.
         25    2    3    3    0    0  0.67257680710E+02 -0.74632708368E+00  0.37803762658E+03  0.40006809705E+03  0.11232934856E+03 0.  0.
          5    1    4    4  502    0  0.31961323583E+01  0.36787361203E+02  0.47974343570E+02  0.60721930531E+02  0.47000000000E+01 0.  1.
         -5    1    4    4    0  502 -0.70453813068E+02 -0.36041034120E+02  0.46443590727E+03  0.47115336980E+03  0.47000000000E+01 0.  1.
          5    1    5    5  503    0  0.54709733480E+02 -0.29751699872E+02  0.85982182500E+02  0.10627014769E+03  0.47000000000E+01 0. -1.
         -5    1    5    5    0  503  0.12547947229E+02  0.29005372788E+02  0.29205544408E+03  0.29379794936E+03  0.47000000000E+01 0. -1.
<mgrwt>
<rscale>  0 0.27499286E+03</rscale>
<asrwt>0</asrwt>
<pdfrwt beam="1">  1        2 0.14018391E+00 0.27499286E+03</pdfrwt>
<pdfrwt beam="2">  1       -2 0.31919638E-02 0.27499286E+03</pdfrwt>
<totfact> 0.11499004E+04</totfact>
</mgrwt>
</event>
<event>
 9    1  0.2117506E-002  0.2787178E+03  0.7818608E-02  0.1096391E+00
         -2   -1    0    0    0  501 -0.00000000000E+00  0.00000000000E+00  0.21171638776E+02  0.21171638776E+02  0.00000000000E+00 0.  1.
          2   -1    0    0  501    0  0.00000000000E+00 -0.00000000000E+00 -0.91730722102E+03  0.91730722102E+03  0.00000000000E+00 0.  1.
         36    2    1    2    0    0 -0.71054273576E-14 -0.71054273576E-14 -0.89613558225E+03  0.93847885980E+03  0.27871775782E+03 0.  0.
         25    2    3    3    0    0  0.55738618886E+02  0.32543261819E+02 -0.35607696123E+03  0.38152847062E+03  0.12086072170E+03 0.  0.
         25    2    3    3    0    0 -0.55738618886E+02 -0.32543261819E+02 -0.54005862101E+03  0.55695038918E+03  0.11985226050E+03 0.  0.
          5    1    4    4  502    0  0.82074537724E+02  0.53090808024E+02 -0.21112216817E+03  0.23270050178E+03  0.47000000000E+01 0.  1.
         -5    1    4    4    0  502 -0.26335918838E+02 -0.20547546205E+02 -0.14495479307E+03  0.14882796884E+03  0.47000000000E+01 0.  1.
          5    1    5    5  503    0 -0.76753932750E+02 -0.39885341282E+02 -0.22544375801E+03  0.24151394301E+03  0.47000000000E+01 0.  1.
         -5    1    5    5    0  503  0.21015313865E+02  0.73420794623E+01 -0.31461486300E+03  0.31543644616E+03  0.47000000000E+01 0.  1.
<mgrwt>
<rscale>  0 0.27871776E+03</rscale>
<asrwt>0</asrwt>
<pdfrwt beam="1">  1        2 0.14112426E+00 0.27871776E+03</pdfrwt>
<pdfrwt beam="2">  1       -2 0.32571736E-02 0.27871776E+03</pdfrwt>
<totfact> 0.11061848E+04</totfact>
</mgrwt>
</event>
<event>
 9    1  0.2117506E-002  0.2743637E+03  0.7818608E-02  0.1098808E+00
         -2   -1    0    0    0  501 -0.00000000000E+00  0.00000000000E+00  0.65235628416E+03  0.65235628416E+03  0.00000000000E+00 0. -1.
          2   -1    0    0  501    0  0.00000000000E+00 -0.00000000000E+00 -0.28847512065E+02  0.28847512065E+02  0.00000000000E+00 0. -1.
         36    2    1    2    0    0 -0.35527136788E-14 -0.71054273576E-14  0.62350877209E+03  0.68120379622E+03  0.27436366945E+03 0.  0.
         25    2    3    3    0    0  0.16722157112E+02  0.31521221234E+02  0.20973013811E+03  0.24695237966E+03  0.12540147153E+03 0.  0.
         25    2    3    3    0    0 -0.16722157112E+02 -0.31521221234E+02  0.41377863398E+03  0.43425141656E+03  0.12683972927E+03 0.  0.
          5    1    4    4  502    0 -0.13696266477E+02  0.32893716553E+02  0.21296201678E+03  0.21597336617E+03  0.47000000000E+01 0. -1.
         -5    1    4    4    0  502  0.30418423589E+02 -0.13724953185E+01 -0.32318786694E+01  0.30979013489E+02  0.47000000000E+01 0. -1.
          5    1    5    5  503    0 -0.53568119793E+02  0.27767429031E+02  0.16209291213E+03  0.17302247176E+03  0.47000000000E+01 0. -1.
         -5    1    5    5    0  503  0.36845962681E+02 -0.59288650265E+02  0.25168572186E+03  0.26122894480E+03  0.47000000000E+01 0. -1.
<mgrwt>
<rscale>  0 0.27436367E+03</rscale>
<asrwt>0</asrwt>
<pdfrwt beam="1">  1        2 0.44380793E-02 0.27436367E+03</pdfrwt>
<pdfrwt beam="2">  1       -2 0.10036249E+00 0.27436367E+03</pdfrwt>
<totfact> 0.15660906E+03</totfact>
</mgrwt>
</event>
<event>
 9    1  0.2117506E-002  0.2752210E+03  0.7818608E-02  0.1098328E+00
          2   -1    0    0  501    0  0.00000000000E+00  0.00000000000E+00  0.21657955155E+04  0.21657955155E+04  0.00000000000E+00 0. -1.
         -2   -1    0    0    0  501 -0.00000000000E+00 -0.00000000000E+00 -0.87435053012E+01  0.87435053012E+01  0.00000000000E+00 0. -1.
         36    2    1    2    0    0  0.00000000000E+00  0.71054273576E-14  0.21570520102E+04  0.21745390208E+04  0.27522096265E+03 0.  0.
         25    2    3    3    0    0 -0.10739666801E+02 -0.47816684355E+02  0.89867858111E+03  0.90881729470E+03  0.12618996497E+03 0.  0.
         25    2    3    3    0    0  0.10739666801E+02  0.47816684355E+02  0.12583734291E+04  0.12657217261E+04  0.12706701042E+03 0.  0.
          5    1    4    4  502    0  0.23895836444E+02  0.16843330240E+02  0.59848735802E+02  0.66773272722E+02  0.47000000000E+01 0.  1.
         -5    1    4    4    0  502 -0.34635503246E+02 -0.64660014595E+02  0.83882984531E+03  0.84204402198E+03  0.47000000000E+01 0.  1.
          5    1    5    5  503    0  0.14959695944E+02  0.47811329904E+02  0.16903700950E+03  0.17636699337E+03  0.47000000000E+01 0. -1.
         -5    1    5    5    0  503 -0.42200291429E+01  0.53544513446E-02  0.10893364196E+04  0.10893547327E+04  0.47000000000E+01 0. -1.
<mgrwt>
<rscale>  0 0.27522096E+03</rscale>
<asrwt>0</asrwt>
<pdfrwt beam="1">  1        2 0.33319888E+00 0.27522096E+03</pdfrwt>
<pdfrwt beam="2">  1       -2 0.13451564E-02 0.27522096E+03</pdfrwt>
<totfact> 0.84018374E+03</totfact>
</mgrwt>
</event>
<event>
 9    1  0.2117506E-002  0.2748737E+03  0.7818608E-02  0.1098522E+00
          1   -1    0    0  501    0  0.00000000000E+00  0.00000000000E+00  0.31711223517E+03  0.31711223517E+03  0.00000000000E+00 0.  1.
         -1   -1    0    0    0  501 -0.00000000000E+00 -0.00000000000E+00 -0.59565313139E+02  0.59565313139E+02  0.00000000000E+00 0.  1.
         36    2    1    2    0    0 -0.14210854715E-13  0.00000000000E+00  0.25754692203E+03  0.37667754831E+03  0.27487371346E+03 0.  0.
         25    2    3    3    0    0 -0.54408669243E+02  0.79839638932E+01  0.11747670274E+03  0.18065729379E+03  0.12574671027E+03 0.  0.
         25    2    3    3    0    0  0.54408669243E+02 -0.79839638932E+01  0.14007021930E+03  0.19602025453E+03  0.12561937304E+03 0.  0.
          5    1    4    4  502    0 -0.47538272021E+02  0.60805576710E+02  0.95408319274E+02  0.12280896894E+03  0.47000000000E+01 0. -1.
         -5    1    4    4    0  502 -0.68703972223E+01 -0.52821612817E+02  0.22068383465E+02  0.57848324845E+02  0.47000000000E+01 0. -1.
          5    1    5    5  503    0  0.40820236262E+02 -0.57950725479E+02  0.35901689788E+02  0.79596479832E+02  0.47000000000E+01 0. -1.
         -5    1    5    5    0  503  0.13588432981E+02  0.49966761585E+02  0.10416852951E+03  0.11642377469E+03  0.47000000000E+01 0. -1.
<mgrwt>
<rscale>  0 0.27487371E+03</rscale>
<asrwt>0</asrwt>
<pdfrwt beam="1">  1        1 0.48786497E-01 0.27487371E+03</pdfrwt>
<pdfrwt beam="2">  1       -1 0.91638945E-02 0.27487371E+03</pdfrwt>
<totfact> 0.56625409E+03</totfact>
</mgrwt>
</event>
<event>
 9    1  0.2117506E-002  0.2721560E+03  0.7818608E-02  0.1100052E+00
         -3   -1    0    0    0  501 -0.00000000000E+00  0.00000000000E+00  0.91579146012E+02  0.91579146012E+02  0.00000000000E+00 0.  1.
          3   -1    0    0  501    0  0.00000000000E+00 -0.00000000000E+00 -0.20219917645E+03  0.20219917645E+03  0.00000000000E+00 0.  1.
         36    2    1    2    0    0  0.00000000000E+00  0.00000000000E+00 -0.11062003043E+03  0.29377832246E+03  0.27215604276E+03 0.  0.
         25    2    3    3    0    0  0.19127297356E+02  0.54515742544E+02 -0.79553984419E+02  0.15763087060E+03  0.12321053218E+03 0.  0.
         25    2    3    3    0    0 -0.19127297356E+02 -0.54515742544E+02 -0.31066046015E+02  0.13614745186E+03  0.11930301649E+03 0.  0.
          5    1    4    4  502    0  0.56233142458E+02  0.29403944432E+02  0.28737562496E+01  0.63695421608E+02  0.47000000000E+01 0. -1.
         -5    1    4    4    0  502 -0.37105845103E+02  0.25111798112E+02 -0.82427740669E+02  0.93935448990E+02  0.47000000000E+01 0. -1.
          5    1    5    5  503    0 -0.45393770368E+02  0.12478665667E+02 -0.41933364335E+02  0.63220317379E+02  0.47000000000E+01 0. -1.
         -5    1    5    5    0  503  0.26266473012E+02 -0.66994408212E+02  0.10867318320E+02  0.72927134481E+02  0.47000000000E+01 0. -1.
<mgrwt>
<rscale>  0 0.27215604E+03</rscale>
<asrwt>0</asrwt>
<pdfrwt beam="1">  1        3 0.31107565E-01 0.27215604E+03</pdfrwt>
<pdfrwt beam="2">  1       -3 0.14089100E-01 0.27215604E+03</pdfrwt>
<totfact> 0.10538121E+03</totfact>
</mgrwt>
</event>
<event>
 9    1  0.2117506E-002  0.2745709E+03  0.7818608E-02  0.1098692E+00
          2   -1    0    0  501    0  0.00000000000E+00  0.00000000000E+00  0.99841056443E+01  0.99841056443E+01  0.00000000000E+00 0. -1.
         -2   -1    0    0    0  501 -0.00000000000E+00 -0.00000000000E+00 -0.18877305452E+04  0.18877305452E+04  0.00000000000E+00 0. -1.
         36    2    1    2    0    0  0.71054273576E-14  0.00000000000E+00 -0.18777464395E+04  0.18977146508E+04  0.27457094669E+03 0.  0.
         25    2    3    3    0    0 -0.52730369113E+02  0.14932115444E+02 -0.10027060458E+04  0.10119113931E+04  0.12466672888E+03 0.  0.
         25    2    3    3    0    0  0.52730369113E+02 -0.14932115444E+02 -0.87504039372E+03  0.88580325771E+03  0.12628642381E+03 0.  0.
          5    1    4    4  502    0 -0.71973857559E+02  0.52539371758E+01 -0.96862501690E+03  0.97132093224E+03  0.47000000000E+01 0.  1.
         -5    1    4    4    0  502  0.19243488446E+02  0.96781782681E+01 -0.34081028908E+02  0.40590460870E+02  0.47000000000E+01 0.  1.
          5    1    5    5  503    0  0.69703185745E+02  0.61051181650E+01 -0.83074299999E+03  0.83369768417E+03  0.47000000000E+01 0.  1.
         -5    1    5    5    0  503 -0.16972816632E+02 -0.21037233609E+02 -0.44297393728E+02  0.52105573536E+02  0.47000000000E+01 0.  1.
<mgrwt>
<rscale>  0 0.27457095E+03</rscale>
<asrwt>0</asrwt>
<pdfrwt beam="1">  1        2 0.15360163E-02 0.27457095E+03</pdfrwt>
<pdfrwt beam="2">  1       -2 0.29042007E+00 0.27457095E+03</pdfrwt>
<totfact> 0.32920031E+02</totfact>
</mgrwt>
</event>
<event>
 9    1  0.2117506E-002  0.2749489E+03  0.7818608E-02  0.1098480E+00
          1   -1    0    0  501    0  0.00000000000E+00  0.00000000000E+00  0.38146615431E+03  0.38146615431E+03  0.00000000000E+00 0. -1.
         -1   -1    0    0    0  501 -0.00000000000E+00 -0.00000000000E+00 -0.49543648252E+02  0.49543648252E+02  0.00000000000E+00 0. -1.
         36    2    1    2    0    0  0.14210854715E-13  0.00000000000E+00  0.33192250605E+03  0.43100980256E+03  0.27494890412E+03 0.  0.
         25    2    3    3    0    0  0.20239391301E+02  0.23255956717E+02  0.24651274854E+03  0.27814688444E+03  0.12508669655E+03 0.  0.
         25    2    3    3    0    0 -0.20239391301E+02 -0.23255956717E+02  0.85409757520E+02  0.15286291811E+03  0.12297061670E+03 0.  0.
          5    1    4    4  502    0  0.72593598546E+02  0.50749994736E+01  0.13057287532E+03  0.14955584889E+03  0.47000000000E+01 0.  1.
         -5    1    4    4    0  502 -0.52354207245E+02  0.18180957243E+02  0.11593987322E+03  0.12859103555E+03  0.47000000000E+01 0.  1.
          5    1    5    5  503    0  0.39936944113E+02  0.16992342639E+02  0.63537455594E+02  0.77089541942E+02  0.47000000000E+01 0. -1.
         -5    1    5    5    0  503 -0.60176335414E+02 -0.40248299356E+02  0.21872301926E+02  0.75773376172E+02  0.47000000000E+01 0. -1.
<mgrwt>
<rscale>  0 0.27494890E+03</rscale>
<asrwt>0</asrwt>
<pdfrwt beam="1">  1        1 0.58687099E-01 0.27494890E+03</pdfrwt>
<pdfrwt beam="2">  1       -1 0.76221000E-02 0.27494890E+03</pdfrwt>
<totfact> 0.59394618E+03</totfact>
</mgrwt>
</event>
<event>
 9    1  0.2117506E-002  0.2740275E+03  0.7818608E-02  0.1098996E+00
          2   -1    0    0  501    0  0.00000000000E+00  0.00000000000E+00  0.94230834871E+02  0.94230834871E+02  0.00000000000E+00 0.  1.
         -2   -1    0    0    0  501 -0.00000000000E+00 -0.00000000000E+00 -0.19922105905E+03  0.19922105905E+03  0.00000000000E+00 0.  1.
         36    2    1    2    0    0  0.71054273576E-14 -0.35527136788E-14 -0.10499022418E+03  0.29345189392E+03  0.27402749291E+03 0.  0.
         25    2    3    3    0    0 -0.55204174580E+02  0.88585432815E+01 -0.38318874092E+02  0.14405102513E+03  0.12710777729E+03 0.  0.
         25    2    3    3    0    0  0.55204174580E+02 -0.88585432815E+01 -0.66671350087E+02  0.14940086879E+03  0.12144783239E+03 0.  0.
          5    1    4    4  502    0 -0.37156840002E+02 -0.80803167071E+01  0.43777270507E+02  0.58176126461E+02  0.47000000000E+01 0. -1.
         -5    1    4    4    0  502 -0.18047334579E+02  0.16938859989E+02 -0.82096144599E+02  0.85874898667E+02  0.47000000000E+01 0. -1.
          5    1    5    5  503    0 -0.34821547228E+02  0.16826355734E+02 -0.28120358363E+02  0.48046966117E+02  0.47000000000E+01 0.  1.
         -5    1    5    5    0  503  0.90025721808E+02 -0.25684899016E+02 -0.38550991725E+02  0.10135390267E+03  0.47000000000E+01 0.  1.
<mgrwt>
<rscale>  0 0.27402749E+03</rscale>
<asrwt>0</asrwt>
<pdfrwt beam="1">  1        2 0.14497052E-01 0.27402749E+03</pdfrwt>
<pdfrwt beam="2">  1       -2 0.30649393E-01 0.27402749E+03</pdfrwt>
<totfact> 0.39691500E+03</totfact>
</mgrwt>
</event>
<event>
 9    1  0.2117506E-002  0.2745143E+03  0.7818608E-02  0.1098723E+00
         -1   -1    0    0    0  501 -0.00000000000E+00  0.00000000000E+00  0.91904514080E+02  0.91904514080E+02  0.00000000000E+00 0. -1.
          1   -1    0    0  501    0  0.00000000000E+00 -0.00000000000E+00 -0.20499017948E+03  0.20499017948E+03  0.00000000000E+00 0. -1.
         36    2    1    2    0    0  0.00000000000E+00  0.00000000000E+00 -0.11308566540E+03  0.29689469356E+03  0.27451428259E+03 0.  0.
         25    2    3    3    0    0 -0.93456954360E+02 -0.42181507418E+01 -0.91132031954E+02  0.17914351145E+03  0.12261873972E+03 0.  0.
         25    2    3    3    0    0  0.93456954360E+02  0.42181507418E+01 -0.21953633441E+02  0.11775118211E+03  0.68054270643E+02 0.  0.
          5    1    4    4  502    0 -0.86093181490E+00  0.46883023098E+02 -0.17868972593E+02  0.50399893253E+02  0.47000000000E+01 0.  1.
         -5    1    4    4    0  502 -0.92596022545E+02 -0.51101173839E+02 -0.73263059360E+02  0.12874361819E+03  0.47000000000E+01 0.  1.
          5    1    5    5  503    0  0.91194327434E+02 -0.51121802878E+01  0.20432199122E+01  0.91481170144E+02  0.47000000000E+01 0.  1.
         -5    1    5    5    0  503  0.22626269264E+01  0.93303310296E+01 -0.23996853353E+02  0.26270011964E+02  0.47000000000E+01 0.  1.
<mgrwt>
<rscale>  0 0.27451428E+03</rscale>
<asrwt>0</asrwt>
<pdfrwt beam="1">  1        1 0.31536950E-01 0.27451428E+03</pdfrwt>
<pdfrwt beam="2">  1       -1 0.14139156E-01 0.27451428E+03</pdfrwt>
<totfact> 0.49855365E+03</totfact>
</mgrwt>
</event>
<event>
 9    1  0.2117506E-002  0.2741592E+03  0.7818608E-02  0.1098923E+00
         -2   -1    0    0    0  501 -0.00000000000E+00  0.00000000000E+00  0.13241420611E+02  0.13241420611E+02  0.00000000000E+00 0.  1.
          2   -1    0    0  501    0  0.00000000000E+00 -0.00000000000E+00 -0.14190937821E+04  0.14190937821E+04  0.00000000000E+00 0.  1.
         36    2    1    2    0    0  0.71054273576E-14  0.35527136788E-14 -0.14058523615E+04  0.14323352027E+04  0.27415920670E+03 0.  0.
         25    2    3    3    0    0 -0.35764370627E+02 -0.87222156980E+01 -0.93051577815E+03  0.93973407744E+03  0.12603712020E+03 0.  0.
         25    2    3    3    0    0  0.35764370627E+02  0.87222156980E+01 -0.47533658335E+03  0.49260112528E+03  0.12391865841E+03 0.  0.
          5    1    4    4  502    0  0.94600202710E+01  0.39583989389E+02 -0.65746403286E+03  0.65873927217E+03  0.47000000000E+01 0. -1.
         -5    1    4    4    0  502 -0.45224390898E+02 -0.48306205087E+02 -0.27305174529E+03  0.28099480527E+03  0.47000000000E+01 0. -1.
          5    1    5    5  503    0 -0.13432032432E+00 -0.22792183755E+02 -0.41429353288E+03  0.41494665087E+03  0.47000000000E+01 0. -1.
         -5    1    5    5    0  503  0.35898690951E+02  0.31514399453E+02 -0.61043050465E+02  0.77654474404E+02  0.47000000000E+01 0. -1.
<mgrwt>
<rscale>  0 0.27415921E+03</rscale>
<asrwt>0</asrwt>
<pdfrwt beam="1">  1        2 0.21832208E+00 0.27415921E+03</pdfrwt>
<pdfrwt beam="2">  1       -2 0.20371420E-02 0.27415921E+03</pdfrwt>
<totfact> 0.11348479E+04</totfact>
</mgrwt>
</event>
<event>
 9    1  0.2117506E-002  0.2730543E+03  0.7818608E-02  0.1099544E+00
          1   -1    0    0  501    0  0.00000000000E+00  0.00000000000E+00  0.15223127507E+03  0.15223127507E+03  0.00000000000E+00 0. -1.
         -1   -1    0    0    0  501 -0.00000000000E+00 -0.00000000000E+00 -0.12244307914E+03  0.12244307914E+03  0.00000000000E+00 0. -1.
         36    2    1    2    0    0  0.00000000000E+00  0.00000000000E+00  0.29788195936E+02  0.27467435421E+03  0.27305432471E+03 0.  0.
         25    2    3    3    0    0  0.12850725423E+02 -0.38373332194E+01 -0.37556748884E+02  0.12850682911E+03  0.12216230790E+03 0.  0.
         25    2    3    3    0    0 -0.12850725423E+02  0.38373332194E+01  0.67344944820E+02  0.14616752509E+03  0.12903386195E+03 0.  0.
          5    1    4    4  502    0  0.51786067104E+02 -0.14779287475E+02 -0.61014201644E+02  0.81517157007E+02  0.47000000000E+01 0. -1.
         -5    1    4    4    0  502 -0.38935341681E+02  0.10941954256E+02  0.23457452759E+02  0.46989672107E+02  0.47000000000E+01 0. -1.
          5    1    5    5  503    0  0.41351505794E+02 -0.16703779592E+02  0.75128436009E+02  0.87494772308E+02  0.47000000000E+01 0.  1.
         -5    1    5    5    0  503 -0.54202231218E+02  0.20541112812E+02 -0.77834911881E+01  0.58672752787E+02  0.47000000000E+01 0.  1.
<mgrwt>
<rscale>  0 0.27305432E+03</rscale>
<asrwt>0</asrwt>
<pdfrwt beam="1">  1        1 0.23420196E-01 0.27305432E+03</pdfrwt>
<pdfrwt beam="2">  1       -1 0.18837397E-01 0.27305432E+03</pdfrwt>
<totfact> 0.45964865E+03</totfact>
</mgrwt>
</event>
<event>
 9    1  0.2117506E-002  0.2750230E+03  0.7818608E-02  0.1098439E+00
         -1   -1    0    0    0  501 -0.00000000000E+00  0.00000000000E+00  0.34121449805E+02  0.34121449805E+02  0.00000000000E+00 0. -1.
          1   -1    0    0  501    0  0.00000000000E+00 -0.00000000000E+00 -0.55417950366E+03  0.55417950366E+03  0.00000000000E+00 0. -1.
         36    2    1    2    0    0  0.71054273576E-14  0.35527136788E-14 -0.52005805386E+03  0.58830095347E+03  0.27502296717E+03 0.  0.
         25    2    3    3    0    0 -0.47411766384E+02  0.12889786857E+02 -0.32746249330E+03  0.35496911179E+03  0.12789590928E+03 0.  0.
         25    2    3    3    0    0  0.47411766384E+02 -0.12889786857E+02 -0.19259556055E+03  0.23333184167E+03  0.12221569538E+03 0.  0.
          5    1    4    4  502    0 -0.57236033760E+02  0.55267660203E+02 -0.27670662908E+03  0.28795681343E+03  0.47000000000E+01 0.  1.
         -5    1    4    4    0  502  0.98242673753E+01 -0.42377873346E+02 -0.50755864224E+02  0.67012298363E+02  0.47000000000E+01 0.  1.
          5    1    5    5  503    0 -0.23798070831E+02 -0.43411346378E+02 -0.47443261115E+02  0.68730242214E+02  0.47000000000E+01 0.  1.
         -5    1    5    5    0  503  0.71209837215E+02  0.30521559521E+02 -0.14515229944E+03  0.16460159946E+03  0.47000000000E+01 0.  1.
<mgrwt>
<rscale>  0 0.27502297E+03</rscale>
<asrwt>0</asrwt>
<pdfrwt beam="1">  1        1 0.85258376E-01 0.27502297E+03</pdfrwt>
<pdfrwt beam="2">  1       -1 0.52494544E-02 0.27502297E+03</pdfrwt>
<totfact> 0.63957265E+03</totfact>
</mgrwt>
</event>
<event>
 9    1  0.2117506E-002  0.2756875E+03  0.7818608E-02  0.1098068E+00
          2   -1    0    0  501    0  0.00000000000E+00  0.00000000000E+00  0.41614899769E+03  0.41614899769E+03  0.00000000000E+00 0.  1.
         -2   -1    0    0    0  501 -0.00000000000E+00 -0.00000000000E+00 -0.45658885565E+02  0.45658885565E+02  0.00000000000E+00 0.  1.
         36    2    1    2    0    0  0.00000000000E+00  0.00000000000E+00  0.37049011212E+03  0.46180788325E+03  0.27568750036E+03 0.  0.
         25    2    3    3    0    0  0.24140585281E+01 -0.45589866305E+02  0.20654076265E+03  0.24677556001E+03  0.12710163963E+03 0.  0.
         25    2    3    3    0    0 -0.24140585281E+01  0.45589866305E+02  0.16394934948E+03  0.21503232324E+03  0.13143533489E+03 0.  0.
          5    1    4    4  502    0 -0.39363706651E+02 -0.69314970793E+02  0.88248283216E+02  0.11901225176E+03  0.47000000000E+01 0. -1.
         -5    1    4    4    0  502  0.41777765179E+02  0.23725104488E+02  0.11829247943E+03  0.12776330825E+03  0.47000000000E+01 0. -1.
          5    1    5    5  503    0 -0.42078703315E+02  0.39009611952E+02  0.16477538498E+03  0.17454336020E+03  0.47000000000E+01 0.  1.
         -5    1    5    5    0  503  0.39664644787E+02  0.65802543538E+01 -0.82603549819E+00  0.40488963041E+02  0.47000000000E+01 0.  1.
<mgrwt>
<rscale>  0 0.27568750E+03</rscale>
<asrwt>0</asrwt>
<pdfrwt beam="1">  1        2 0.64022920E-01 0.27568750E+03</pdfrwt>
<pdfrwt beam="2">  1       -2 0.70244442E-02 0.27568750E+03</pdfrwt>
<totfact> 0.88011557E+03</totfact>
</mgrwt>
</event>
<event>
 9    1  0.2117506E-002  0.2748181E+03  0.7818608E-02  0.1098553E+00
          1   -1    0    0  501    0  0.00000000000E+00  0.00000000000E+00  0.83593455238E+02  0.83593455238E+02  0.00000000000E+00 0.  1.
         -1   -1    0    0    0  501 -0.00000000000E+00 -0.00000000000E+00 -0.22586984597E+03  0.22586984597E+03  0.00000000000E+00 0.  1.
         36    2    1    2    0    0 -0.71054273576E-14  0.71054273576E-14 -0.14227639073E+03  0.30946330121E+03  0.27481805515E+03 0.  0.
         25    2    3    3    0    0  0.44774980257E+01 -0.57416461134E+02 -0.43323812120E+02  0.15112752684E+03  0.13283779084E+03 0.  0.
         25    2    3    3    0    0 -0.44774980257E+01  0.57416461134E+02 -0.98952578615E+02  0.15833577437E+03  0.10937050166E+03 0.  0.
          5    1    4    4  502    0  0.58997140479E+02 -0.53861914439E+02  0.19019149243E+01  0.80046709440E+02  0.47000000000E+01 0. -1.
         -5    1    4    4    0  502 -0.54519642453E+02 -0.35545466948E+01 -0.45225727044E+02  0.71080817399E+02  0.47000000000E+01 0. -1.
          5    1    5    5  503    0  0.26151286465E+01 -0.29914881572E+02 -0.48162673301E+02  0.56951489329E+02  0.47000000000E+01 0. -1.
         -5    1    5    5    0  503 -0.70926266722E+01  0.87331342706E+02 -0.50789905314E+02  0.10138428504E+03  0.47000000000E+01 0. -1.
<mgrwt>
<rscale>  0 0.27481806E+03</rscale>
<asrwt>0</asrwt>
<pdfrwt beam="1">  1        1 0.12860532E-01 0.27481806E+03</pdfrwt>
<pdfrwt beam="2">  1       -1 0.34749206E-01 0.27481806E+03</pdfrwt>
<totfact> 0.36035863E+03</totfact>
</mgrwt>
</event>
<event>
 9    1  0.2117506E-002  0.2737524E+03  0.7818608E-02  0.1099151E+00
         -1   -1    0    0    0  501 -0.00000000000E+00  0.00000000000E+00  0.11053235482E+02  0.11053235482E+02  0.00000000000E+00 0.  1.
          1   -1    0    0  501    0  0.00000000000E+00 -0.00000000000E+00 -0.16949872852E+04  0.16949872852E+04  0.00000000000E+00 0.  1.
         36    2    1    2    0    0  0.35527136788E-14 -0.14210854715E-13 -0.16839340497E+04  0.17060405207E+04  0.27375239617E+03 0.  0.
         25    2    3    3    0    0  0.24047870922E+02 -0.45306708000E+02 -0.78371250369E+03  0.79539605265E+03  0.12577199309E+03 0.  0.
         25    2    3    3    0    0 -0.24047870922E+02  0.45306708000E+02 -0.90022154606E+03  0.91064446806E+03  0.12745005821E+03 0.  0.
          5    1    4    4  502    0 -0.35843772197E+01  0.23909031606E+02 -0.34050899775E+02  0.42024318291E+02  0.47000000000E+01 0. -1.
         -5    1    4    4    0  502  0.27632248142E+02 -0.69215739605E+02 -0.74966160391E+03  0.75337173436E+03  0.47000000000E+01 0. -1.
          5    1    5    5  503    0 -0.22780457839E+02 -0.32248135734E+02 -0.57074043605E+03  0.57212378631E+03  0.47000000000E+01 0. -1.
         -5    1    5    5    0  503 -0.12674130831E+01  0.77554843734E+02 -0.32948111001E+03  0.33852068176E+03  0.47000000000E+01 0. -1.
<mgrwt>
<rscale>  0 0.27375240E+03</rscale>
<asrwt>0</asrwt>
<pdfrwt beam="1">  1        1 0.26076735E+00 0.27375240E+03</pdfrwt>
<pdfrwt beam="2">  1       -1 0.17004973E-02 0.27375240E+03</pdfrwt>
<totfact> 0.46299977E+03</totfact>
</mgrwt>
</event>
<event>
 9    1  0.2117506E-002  0.2754924E+03  0.7818608E-02  0.1098177E+00
         -2   -1    0    0    0  501 -0.00000000000E+00  0.00000000000E+00  0.20511322375E+03  0.20511322375E+03  0.00000000000E+00 0.  1.
          2   -1    0    0  501    0  0.00000000000E+00 -0.00000000000E+00 -0.92505074610E+02  0.92505074610E+02  0.00000000000E+00 0.  1.
         36    2    1    2    0    0  0.00000000000E+00  0.00000000000E+00  0.11260814914E+03  0.29761829836E+03  0.27549238876E+03 0.  0.
         25    2    3    3    0    0 -0.37637910627E+02 -0.97965733574E+01  0.48890685640E+02  0.13911198789E+03  0.12429505569E+03 0.  0.
         25    2    3    3    0    0  0.37637910627E+02  0.97965733574E+01  0.63717463500E+02  0.15850631046E+03  0.13982757287E+03 0.  0.
          5    1    4    4  502    0 -0.22671741439E+02  0.49046331788E+02 -0.91290746481E+01  0.54999822960E+02  0.47000000000E+01 0.  1.
         -5    1    4    4    0  502 -0.14966169188E+02 -0.58842905145E+02  0.58019760288E+02  0.84112164934E+02  0.47000000000E+01 0.  1.
          5    1    5    5  503    0  0.27445782006E+02  0.10419017566E+02  0.10841464941E+03  0.11241731665E+03  0.47000000000E+01 0. -1.
         -5    1    5    5    0  503  0.10192128621E+02 -0.62244420812E+00 -0.44697185907E+02  0.46088993813E+02  0.47000000000E+01 0. -1.
<mgrwt>
<rscale>  0 0.27549239E+03</rscale>
<asrwt>0</asrwt>
<pdfrwt beam="1">  1        2 0.14231550E-01 0.27549239E+03</pdfrwt>
<pdfrwt beam="2">  1       -2 0.31555881E-01 0.27549239E+03</pdfrwt>
<totfact> 0.38477858E+03</totfact>
</mgrwt>
</event>
